 Entering Gaussian System, Link 0=/cm/shared/gaussian/g09.e01/intel64-sandybridge/g09/g09
 Initial command:
 /cm/shared/gaussian/g09.e01/intel64-sandybridge/g09/l1.exe "/local/scratch/m.peluso/128_wat/370/Gau-11540.inp" -scrdir="/local/scratch/m.peluso/128_wat/370/"
 Entering Link 1 = /cm/shared/gaussian/g09.e01/intel64-sandybridge/g09/l1.exe PID=     11541.
  
 Copyright (c) 1988,1990,1992,1993,1995,1998,2003,2009,2015,
            Gaussian, Inc.  All Rights Reserved.
  
 This is part of the Gaussian(R) 09 program.  It is based on
 the Gaussian(R) 03 system (copyright 2003, Gaussian, Inc.),
 the Gaussian(R) 98 system (copyright 1998, Gaussian, Inc.),
 the Gaussian(R) 94 system (copyright 1995, Gaussian, Inc.),
 the Gaussian 92(TM) system (copyright 1992, Gaussian, Inc.),
 the Gaussian 90(TM) system (copyright 1990, Gaussian, Inc.),
 the Gaussian 88(TM) system (copyright 1988, Gaussian, Inc.),
 the Gaussian 86(TM) system (copyright 1986, Carnegie Mellon
 University), and the Gaussian 82(TM) system (copyright 1983,
 Carnegie Mellon University). Gaussian is a federally registered
 trademark of Gaussian, Inc.
  
 This software contains proprietary and confidential information,
 including trade secrets, belonging to Gaussian, Inc.
  
 This software is provided under written license and may be
 used, copied, transmitted, or stored only in accord with that
 written license.
  
 The following legend is applicable only to US Government
 contracts under FAR:
  
                    RESTRICTED RIGHTS LEGEND
  
 Use, reproduction and disclosure by the US Government is
 subject to restrictions as set forth in subparagraphs (a)
 and (c) of the Commercial Computer Software - Restricted
 Rights clause in FAR 52.227-19.
  
 Gaussian, Inc.
 340 Quinnipiac St., Bldg. 40, Wallingford CT 06492
  
  
 ---------------------------------------------------------------
 Warning -- This program may not be used in any manner that
 competes with the business of Gaussian, Inc. or will provide
 assistance to any competitor of Gaussian, Inc.  The licensee
 of this program is prohibited from giving any competitor of
 Gaussian, Inc. access to this program.  By using this program,
 the user acknowledges that Gaussian, Inc. is engaged in the
 business of creating and licensing software in the field of
 computational chemistry and represents and warrants to the
 licensee that it is not a competitor of Gaussian, Inc. and that
 it will not use this program in any manner prohibited above.
 ---------------------------------------------------------------
  

 Cite this work as:
 Gaussian 09, Revision E.01,
 M. J. Frisch, G. W. Trucks, H. B. Schlegel, G. E. Scuseria, 
 M. A. Robb, J. R. Cheeseman, G. Scalmani, V. Barone, B. Mennucci, 
 G. A. Petersson, H. Nakatsuji, M. Caricato, X. Li, H. P. Hratchian, 
 A. F. Izmaylov, J. Bloino, G. Zheng, J. L. Sonnenberg, M. Hada, 
 M. Ehara, K. Toyota, R. Fukuda, J. Hasegawa, M. Ishida, T. Nakajima, 
 Y. Honda, O. Kitao, H. Nakai, T. Vreven, J. A. Montgomery, Jr., 
 J. E. Peralta, F. Ogliaro, M. Bearpark, J. J. Heyd, E. Brothers, 
 K. N. Kudin, V. N. Staroverov, T. Keith, R. Kobayashi, J. Normand, 
 K. Raghavachari, A. Rendell, J. C. Burant, S. S. Iyengar, J. Tomasi, 
 M. Cossi, N. Rega, J. M. Millam, M. Klene, J. E. Knox, J. B. Cross, 
 V. Bakken, C. Adamo, J. Jaramillo, R. Gomperts, R. E. Stratmann, 
 O. Yazyev, A. J. Austin, R. Cammi, C. Pomelli, J. W. Ochterski, 
 R. L. Martin, K. Morokuma, V. G. Zakrzewski, G. A. Voth, 
 P. Salvador, J. J. Dannenberg, S. Dapprich, A. D. Daniels, 
 O. Farkas, J. B. Foresman, J. V. Ortiz, J. Cioslowski, 
 and D. J. Fox, Gaussian, Inc., Wallingford CT, 2013.
 
 ******************************************
 Gaussian 09:  ES64L-G09RevE.01 30-Nov-2015
                 8-May-2018 
 ******************************************
 %Mem=110GB
 %NProcShared=64
 Will use up to   64 processors via shared memory.
 %chk=snap43.chk
 ----------------------------------------------
 #p PBE1PBE/cc-pvDZ force Counterpoise=2 noSymm
 ----------------------------------------------
 1/10=7,30=1,38=1,62=2/1,3;
 2/12=2,15=1,17=6,18=5,40=1/2;
 1/10=7,30=1,38=1,53=2,62=2,63=101/22;
 3/5=16,11=2,16=1,25=1,30=1,71=1,74=-13/1,2,3;
 4//1;
 5/5=2,38=5/2;
 6/7=2,8=2,9=2,10=2,28=1/1;
 7/7=1,29=1,30=1,33=-1/1,2,3,16;
 1/10=7,30=1,53=2,62=2,63=101/22;
 3/5=7,6=11,11=2,16=1,25=1,30=1,71=1,74=-13,82=7/1,2,3;
 4//1;
 5/5=2,38=5/2;
 6/7=2,8=2,9=2,10=2,28=1/1;
 7/7=1,29=1,30=1,33=-1/1,2,3,16;
 1/10=7,30=1,53=2,62=2,63=101/22(-5);
 7/9=1,29=1,44=-1/16;
 1/10=7,30=1,62=2/3;
 99//99;
 Leave Link    1 at Tue May  8 09:47:35 2018, MaxMem= 14763950080 cpu:         5.9
 (Enter /cm/shared/gaussian/g09.e01/intel64-sandybridge/g09/l101.exe)
 ---------------------------------------
 forces on chloride comput - NWATER: 128
 ---------------------------------------
 Symbolic Z-matrix:
 Charge = -1 Multiplicity = 1 in supermolecule
 Charge = -1 Multiplicity = 1 in fragment      1.
 Charge =  0 Multiplicity = 1 in fragment      2.
 Br(Fragment=1)        20.       20.       20. 
 O(Fragment=2)         19.93     19.31     17.04 
 H(Fragment=2)         19.87     18.37     17.21 
 H(Fragment=2)         20.04     19.7      17.91 
 O(Fragment=2)         17.82     17.74     20.72 
 H(Fragment=2)         18.21     16.97     20.32 
 H(Fragment=2)         18.35     18.47     20.4 
 O(Fragment=2)         22.98     21.01     19.21 
 H(Fragment=2)         22.08     20.73     19.37 
 H(Fragment=2)         23.52     20.32     19.6 
 O(Fragment=2)         20.5      20.13     23.31 
 H(Fragment=2)         19.76     20.67     23.56 
 H(Fragment=2)         20.52     20.17     22.35 
 O(Fragment=2)         18.94     23.17     19.6 
 H(Fragment=2)         18.87     23.5      20.5 
 H(Fragment=2)         19.43     22.35     19.69 
 O(Fragment=2)         21.38     16.98     20.19 
 H(Fragment=2)         21.84     16.68     20.98 
 H(Fragment=2)         21.19     17.9      20.35 
 O(Fragment=2)         16.77     20.63     19.39 
 H(Fragment=2)         16.25     19.82     19.42 
 H(Fragment=2)         17.54     20.44     19.92 
 O(Fragment=2)         21.98     22.86     21.43 
 H(Fragment=2)         22.       22.04     20.92 
 H(Fragment=2)         21.05     23.09     21.47 
 O(Fragment=2)         18.62     22.14     16.97 
 H(Fragment=2)         18.93     21.25     17.11 
 H(Fragment=2)         18.68     22.55     17.84 
 O(Fragment=2)         22.4      17.91     22.79 
 H(Fragment=2)         22.12     18.81     22.65 
 H(Fragment=2)         23.34     17.99     23. 
 O(Fragment=2)         18.35     17.36     23.4 
 H(Fragment=2)         18.1      17.7      22.54 
 H(Fragment=2)         19.09     16.78     23.22 
 O(Fragment=2)         18.93     15.46     19.63 
 H(Fragment=2)         19.79     15.89     19.61 
 H(Fragment=2)         18.68     15.39     18.71 
 O(Fragment=2)         22.73     23.78     18.08 
 H(Fragment=2)         22.6      22.86     17.87 
 H(Fragment=2)         22.9      23.79     19.02 
 O(Fragment=2)         24.33     19.35     20.84 
 H(Fragment=2)         24.41     19.54     21.77 
 H(Fragment=2)         24.9      18.59     20.7 
 O(Fragment=2)         20.29     21.15     14.97 
 H(Fragment=2)         20.24     20.39     15.55 
 H(Fragment=2)         19.6      21.73     15.27 
 O(Fragment=2)         24.3      19.98     16.8 
 H(Fragment=2)         23.78     19.89     17.6 
 H(Fragment=2)         23.74     19.66     16.1 
 O(Fragment=2)         15.86     23.08     18.79 
 H(Fragment=2)         16.25     22.21     18.73 
 H(Fragment=2)         16.09     23.39     19.66 
 O(Fragment=2)         18.63     22.01     23.92 
 H(Fragment=2)         17.74     21.66     23.81 
 H(Fragment=2)         18.77     22.01     24.87 
 O(Fragment=2)         19.06     24.05     22.1 
 H(Fragment=2)         19.06     23.51     22.89 
 H(Fragment=2)         18.26     24.57     22.16 
 O(Fragment=2)         20.34     25.06     17.21 
 H(Fragment=2)         20.16     24.49     17.96 
 H(Fragment=2)         21.05     24.62     16.74 
 O(Fragment=2)         18.04     16.29     17.02 
 H(Fragment=2)         18.       15.53     16.43 
 H(Fragment=2)         17.12     16.46     17.25 
 O(Fragment=2)         22.16     19.62     25.62 
 H(Fragment=2)         21.65     19.38     26.39 
 H(Fragment=2)         21.5      19.91     24.98 
 O(Fragment=2)         22.33     14.53     18.13 
 H(Fragment=2)         22.67     14.87     17.31 
 H(Fragment=2)         22.21     15.3      18.68 
 O(Fragment=2)         25.85     22.09     20.07 
 H(Fragment=2)         25.24     21.39     20.27 
 H(Fragment=2)         25.83     22.17     19.12 
 O(Fragment=2)         14.1      20.93     20.74 
 H(Fragment=2)         13.6      21.32     21.46 
 H(Fragment=2)         14.81     21.55     20.58 
 O(Fragment=2)         24.06     24.57     21.91 
 H(Fragment=2)         23.44     23.95     21.5 
 H(Fragment=2)         24.58     24.9      21.18 
 O(Fragment=2)         23.17     23.35     24.4 
 H(Fragment=2)         23.55     24.08     23.91 
 H(Fragment=2)         23.04     22.66     23.74 
 O(Fragment=2)         19.08     13.97     21.8 
 H(Fragment=2)         19.94     13.61     21.58 
 H(Fragment=2)         18.88     14.57     21.07 
 O(Fragment=2)         17.33     20.56     14.09 
 H(Fragment=2)         16.54     20.97     14.46 
 H(Fragment=2)         18.01     20.74     14.74 
 O(Fragment=2)         18.9      18.       26.11 
 H(Fragment=2)         18.85     17.94     25.16 
 H(Fragment=2)         18.9      17.1      26.41 
 O(Fragment=2)         24.3      19.96     23.76 
 H(Fragment=2)         23.73     19.96     24.53 
 H(Fragment=2)         25.18     19.81     24.11 
 O(Fragment=2)         16.01     18.48     24.43 
 H(Fragment=2)         15.7      18.53     23.52 
 H(Fragment=2)         16.79     17.92     24.38 
 O(Fragment=2)         15.69     22.61     23.68 
 H(Fragment=2)         15.8      22.93     22.78 
 H(Fragment=2)         14.84     22.16     23.67 
 O(Fragment=2)         17.58     24.84     16.24 
 H(Fragment=2)         17.41     23.95     16.55 
 H(Fragment=2)         18.44     25.06     16.61 
 O(Fragment=2)         25.62     22.03     17.51 
 H(Fragment=2)         25.11     21.34     17.07 
 H(Fragment=2)         26.51     21.91     17.2 
 O(Fragment=2)         15.38     15.62     21.07 
 H(Fragment=2)         15.16     16.47     21.45 
 H(Fragment=2)         14.94     14.99     21.63 
 O(Fragment=2)         21.65     16.48     25.58 
 H(Fragment=2)         21.54     17.41     25.4 
 H(Fragment=2)         21.43     16.04     24.76 
 O(Fragment=2)         23.04     18.41     14.76 
 H(Fragment=2)         23.53     17.6      14.88 
 H(Fragment=2)         22.18     18.13     14.43 
 O(Fragment=2)         18.4      20.71     26.43 
 H(Fragment=2)         18.41     20.61     27.39 
 H(Fragment=2)         18.53     19.82     26.1 
 O(Fragment=2)         15.45     15.49     18.18 
 H(Fragment=2)         15.29     15.95     19. 
 H(Fragment=2)         16.06     14.78     18.41 
 O(Fragment=2)         13.58     21.88     17.52 
 H(Fragment=2)         14.01     21.42     16.81 
 H(Fragment=2)         14.26     21.99     18.19 
 O(Fragment=2)         20.46     18.03     13.71 
 H(Fragment=2)         19.53     18.15     13.94 
 H(Fragment=2)         20.48     18.16     12.76 
 O(Fragment=2)         23.01     21.83     13.52 
 H(Fragment=2)         23.65     22.48     13.83 
 H(Fragment=2)         22.77     21.34     14.31 
 O(Fragment=2)         13.29     18.66     18.84 
 H(Fragment=2)         13.47     19.25     18.11 
 H(Fragment=2)         13.51     19.17     19.62 
 O(Fragment=2)         15.07     24.15     21.33 
 H(Fragment=2)         14.17     24.2      20.99 
 H(Fragment=2)         15.37     25.05     21.33 
 O(Fragment=2)         25.19     16.55     22.45 
 H(Fragment=2)         25.94     17.01     22.82 
 H(Fragment=2)         25.56     16.03     21.74 
 O(Fragment=2)         17.08     14.45     23.74 
 H(Fragment=2)         17.58     14.35     22.94 
 H(Fragment=2)         16.17     14.33     23.48 
 O(Fragment=2)         20.62     27.35     18.69 
 H(Fragment=2)         19.93     27.93     18.37 
 H(Fragment=2)         20.54     26.56     18.16 
 O(Fragment=2)         21.92     27.05     22.05 
 H(Fragment=2)         22.75     27.54     22.02 
 H(Fragment=2)         22.19     26.14     22.14 
 O(Fragment=2)         22.76     15.41     15.6 
 H(Fragment=2)         21.85     15.14     15.47 
 H(Fragment=2)         23.26     14.92     14.94 
 O(Fragment=2)         15.64     26.06     18.26 
 H(Fragment=2)         16.       26.11     19.14 
 H(Fragment=2)         15.89     25.19     17.95 
 O(Fragment=2)         20.07     12.62     17.88 
 H(Fragment=2)         19.54     12.72     18.67 
 H(Fragment=2)         20.64     13.38     17.88 
 O(Fragment=2)         13.78     17.63     22.17 
 H(Fragment=2)         13.12     16.97     21.98 
 H(Fragment=2)         13.4      18.45     21.86 
 O(Fragment=2)         27.05     20.17     22.41 
 H(Fragment=2)         26.79     20.62     21.61 
 H(Fragment=2)         26.86     20.79     23.11 
 O(Fragment=2)         26.65     17.78     20.03 
 H(Fragment=2)         26.8      16.86     20.26 
 H(Fragment=2)         26.86     17.83     19.1 
 O(Fragment=2)         25.14     24.98     17.15 
 H(Fragment=2)         25.14     24.11     17.53 
 H(Fragment=2)         25.23     24.83     16.2 
 O(Fragment=2)         25.26     14.93     17.82 
 H(Fragment=2)         25.07     15.22     18.71 
 H(Fragment=2)         24.74     14.14     17.7 
 O(Fragment=2)         18.97     27.37     21.63 
 H(Fragment=2)         19.       27.06     22.53 
 H(Fragment=2)         19.76     27.03     21.22 
 O(Fragment=2)         17.4      24.65     25.59 
 H(Fragment=2)         17.39     23.7      25.54 
 H(Fragment=2)         18.       24.85     26.31 
 O(Fragment=2)         21.84     13.1      21.07 
 H(Fragment=2)         22.69     12.82     20.74 
 H(Fragment=2)         21.85     12.85     21.99 
 O(Fragment=2)         20.23     14.55     15.23 
 H(Fragment=2)         19.75     13.86     15.7 
 H(Fragment=2)         19.55     15.01     14.73 
 O(Fragment=2)         24.55     18.52     26.47 
 H(Fragment=2)         23.81     19.01     26.13 
 H(Fragment=2)         24.43     18.52     27.42 
 O(Fragment=2)         16.79     13.01     18.68 
 H(Fragment=2)         17.15     13.31     19.51 
 H(Fragment=2)         16.37     12.17     18.88 
 O(Fragment=2)         20.9      22.41     27.57 
 H(Fragment=2)         20.43     22.23     28.38 
 H(Fragment=2)         21.01     21.54     27.16 
 O(Fragment=2)         13.46     21.2      23.28 
 H(Fragment=2)         13.13     20.3      23.31 
 H(Fragment=2)         12.7      21.74     23.46 
 O(Fragment=2)         13.93     19.54     25.62 
 H(Fragment=2)         14.2      20.41     25.91 
 H(Fragment=2)         14.68     19.2      25.14 
 O(Fragment=2)         15.63     22.23     26.34 
 H(Fragment=2)         15.81     22.71     25.53 
 H(Fragment=2)         16.17     21.45     26.29 
 O(Fragment=2)         20.83     18.82     27.62 
 H(Fragment=2)         20.96     18.43     28.48 
 H(Fragment=2)         20.04     18.4      27.28 
 O(Fragment=2)         18.12     15.77     14.11 
 H(Fragment=2)         17.24     16.12     13.96 
 H(Fragment=2)         18.59     15.93     13.3 
 O(Fragment=2)         21.67     24.8      26.5 
 H(Fragment=2)         21.71     23.91     26.85 
 H(Fragment=2)         21.8      24.7      25.56 
 O(Fragment=2)         24.59     21.74     26.6 
 H(Fragment=2)         24.26     22.24     27.34 
 H(Fragment=2)         24.23     22.18     25.83 
 O(Fragment=2)         27.4      23.32     21.88 
 H(Fragment=2)         26.84     22.9      21.23 
 H(Fragment=2)         28.29     23.06     21.65 
 O(Fragment=2)         16.13     26.44     20.84 
 H(Fragment=2)         15.6      26.84     21.53 
 H(Fragment=2)         16.99     26.86     20.93 
 O(Fragment=2)         14.05     20.07     15.06 
 H(Fragment=2)         13.6      19.69     15.82 
 H(Fragment=2)         13.58     19.71     14.31 
 O(Fragment=2)         24.7      15.5      24.93 
 H(Fragment=2)         25.       16.29     25.39 
 H(Fragment=2)         24.89     15.68     24. 
 O(Fragment=2)         19.42     21.62     12.12 
 H(Fragment=2)         18.91     22.3      12.57 
 H(Fragment=2)         20.3      21.71     12.47 
 O(Fragment=2)         18.48     15.15     26.24 
 H(Fragment=2)         17.79     15.12     25.57 
 H(Fragment=2)         18.02     14.99     27.06 
 O(Fragment=2)         13.67     16.34     16.21 
 H(Fragment=2)         14.23     15.86     16.82 
 H(Fragment=2)         12.86     16.49     16.7 
 O(Fragment=2)         13.12     24.77     19.36 
 H(Fragment=2)         13.07     25.73     19.36 
 H(Fragment=2)         13.8      24.58     18.71 
 O(Fragment=2)         24.36     19.01     12.45 
 H(Fragment=2)         23.93     18.99     13.3 
 H(Fragment=2)         24.84     18.17     12.4 
 O(Fragment=2)         23.82     27.07     18.87 
 H(Fragment=2)         24.38     26.52     18.32 
 H(Fragment=2)         22.98     27.08     18.42 
 O(Fragment=2)         16.52     18.68     12.37 
 H(Fragment=2)         15.98     18.18     12.99 
 H(Fragment=2)         16.68     19.51     12.8 
 O(Fragment=2)         26.38     16.67     15.55 
 H(Fragment=2)         27.19     16.89     16. 
 H(Fragment=2)         25.87     16.18     16.19 
 O(Fragment=2)         27.47     17.66     23.57 
 H(Fragment=2)         27.22     17.93     24.46 
 H(Fragment=2)         27.22     18.4      23.02 
 O(Fragment=2)         23.33     12.13     17.38 
 H(Fragment=2)         22.95     12.91     17.79 
 H(Fragment=2)         23.51     11.53     18.11 
 O(Fragment=2)         22.43     26.46     14.71 
 H(Fragment=2)         22.64     27.39     14.6 
 H(Fragment=2)         22.       26.42     15.57 
 O(Fragment=2)         15.44     16.37     14.42 
 H(Fragment=2)         14.68     16.36     15.01 
 H(Fragment=2)         15.14     15.88     13.65 
 O(Fragment=2)         19.03     26.79     24.25 
 H(Fragment=2)         19.53     27.32     24.87 
 H(Fragment=2)         18.29     26.47     24.76 
 O(Fragment=2)         19.32     12.87     24.91 
 H(Fragment=2)         19.21     13.76     25.24 
 H(Fragment=2)         19.24     12.96     23.96 
 O(Fragment=2)         15.47     25.93     14.94 
 H(Fragment=2)         15.95     26.56     14.39 
 H(Fragment=2)         16.12     25.6      15.55 
 O(Fragment=2)         20.02     11.09     20.71 
 H(Fragment=2)         20.5      11.89     20.51 
 H(Fragment=2)         20.61     10.39     20.42 
 O(Fragment=2)         26.31     24.35     24.41 
 H(Fragment=2)         27.03     23.92     23.95 
 H(Fragment=2)         25.66     24.52     23.73 
 O(Fragment=2)         16.22     18.24     27.57 
 H(Fragment=2)         16.95     17.62     27.63 
 H(Fragment=2)         15.82     18.05     26.72 
 O(Fragment=2)         26.39     25.91     21.21 
 H(Fragment=2)         26.38     24.95     21.26 
 H(Fragment=2)         27.27     26.16     21.49 
 O(Fragment=2)         27.61     18.12     17.66 
 H(Fragment=2)         27.56     18.72     16.91 
 H(Fragment=2)         28.08     18.61     18.33 
 O(Fragment=2)         26.43     14.78     20.81 
 H(Fragment=2)         26.98     14.14     20.35 
 H(Fragment=2)         25.95     14.26     21.46 
 O(Fragment=2)         14.36     25.34     24.94 
 H(Fragment=2)         15.06     24.73     24.75 
 H(Fragment=2)         13.56     24.87     24.74 
 O(Fragment=2)         24.99     24.19     14.77 
 H(Fragment=2)         24.49     24.87     14.33 
 H(Fragment=2)         25.74     24.03     14.19 
 O(Fragment=2)         26.75     20.01     25.15 
 H(Fragment=2)         26.15     20.51     25.7 
 H(Fragment=2)         27.12     19.35     25.74 
 O(Fragment=2)         18.98     18.99     11.53 
 H(Fragment=2)         18.09     18.84     11.86 
 H(Fragment=2)         19.09     19.94     11.56 
 O(Fragment=2)         11.26     17.18     19.62 
 H(Fragment=2)         10.8      16.7      18.93 
 H(Fragment=2)         11.9      17.71     19.15 
 O(Fragment=2)         27.25     20.08     14.06 
 H(Fragment=2)         26.36     19.81     14.28 
 H(Fragment=2)         27.19     20.44     13.18 
 O(Fragment=2)         20.85     24.98     12.92 
 H(Fragment=2)         21.29     25.54     13.56 
 H(Fragment=2)         21.55     24.64     12.37 
 O(Fragment=2)         18.16     24.2      12.47 
 H(Fragment=2)         19.07     24.48     12.62 
 H(Fragment=2)         17.65     24.71     13.11 
 O(Fragment=2)         11.76     22.71     15.93 
 H(Fragment=2)         12.36     22.33     16.57 
 H(Fragment=2)         12.01     23.63     15.88 
 O(Fragment=2)         21.78     14.68     27.77 
 H(Fragment=2)         21.84     15.44     27.18 
 H(Fragment=2)         22.07     15.01     28.62 
 O(Fragment=2)         18.22     12.76     15.12 
 H(Fragment=2)         17.62     12.69     15.87 
 H(Fragment=2)         17.64     12.83     14.36 
 O(Fragment=2)         14.21     14.19     23.02 
 H(Fragment=2)         13.53     14.86     23.03 
 H(Fragment=2)         13.86     13.47     23.54 
 O(Fragment=2)         24.4      28.05     21.72 
 H(Fragment=2)         24.77     28.78     21.21 
 H(Fragment=2)         24.77     27.27     21.31 
 O(Fragment=2)         24.14     12.22     20.4 
 H(Fragment=2)         24.63     12.32     21.22 
 H(Fragment=2)         24.81     12.05     19.74 
 O(Fragment=2)         13.31     13.34     19.12 
 H(Fragment=2)         13.99     13.26     19.79 
 H(Fragment=2)         13.43     14.22     18.77 
 O(Fragment=2)         16.87     28.86     18.01 
 H(Fragment=2)         17.23     29.35     17.27 
 H(Fragment=2)         16.85     27.95     17.71 
 O(Fragment=2)         23.12     13.45     25.78 
 H(Fragment=2)         23.64     14.25     25.71 
 H(Fragment=2)         22.38     13.7      26.33 
 O(Fragment=2)         29.62     19.33     21.73 
 H(Fragment=2)         28.7      19.58     21.76 
 H(Fragment=2)         29.99     19.68     22.54 
 O(Fragment=2)         22.38     12.17     23.61 
 H(Fragment=2)         22.84     12.61     24.33 
 H(Fragment=2)         21.75     11.6      24.05 
 O(Fragment=2)         24.28     26.09     25.62 
 H(Fragment=2)         23.64     25.53     26.08 
 H(Fragment=2)         25.       25.5      25.4 
 O(Fragment=2)         12.27     23.79     23.93 
 H(Fragment=2)         11.43     23.52     24.3 
 H(Fragment=2)         12.27     23.44     23.04 
 O(Fragment=2)         11.58     22.98     21.45 
 H(Fragment=2)         11.3      23.72     20.9 
 H(Fragment=2)         11.3      22.2      20.97 
 O(Fragment=2)         17.37     20.08     29.17 
 H(Fragment=2)         17.07     19.4      28.56 
 H(Fragment=2)         16.59     20.3      29.68 
 O(Fragment=2)         23.16     20.79     10.83 
 H(Fragment=2)         23.08     21.43     11.53 
 H(Fragment=2)         23.48     20.       11.27 
 O(Fragment=2)         18.59     29.87     20.46 
 H(Fragment=2)         18.59     28.98     20.83 
 H(Fragment=2)         18.42     30.44     21.21 
 O(Fragment=2)         20.44     16.8      11.11 
 H(Fragment=2)         20.61     16.82     10.17 
 H(Fragment=2)         19.7      17.39     11.24 
 O(Fragment=2)         15.08     12.17     21.16 
 H(Fragment=2)         15.49     11.4      21.53 
 H(Fragment=2)         14.81     12.69     21.92 
 O(Fragment=2)         21.98     29.82     19.4 
 H(Fragment=2)         22.87     29.47     19.46 
 H(Fragment=2)         21.43     29.05     19.24 
 O(Fragment=2)         18.98     25.35     27.75 
 H(Fragment=2)         19.9      25.13     27.65 
 H(Fragment=2)         18.97     26.31     27.82 
 O(Fragment=2)         29.18     19.71     19.1 
 H(Fragment=2)         29.31     19.62     20.05 
 H(Fragment=2)         29.96     20.19     18.81 
 O(Fragment=2)         10.19     20.05     20.36 
 H(Fragment=2)         10.       19.74     21.24 
 H(Fragment=2)         10.79     19.4      19.99 
 O(Fragment=2)         27.84     14.34     16.84 
 H(Fragment=2)         27.35     13.61     16.46 
 H(Fragment=2)         27.18     15.       17.04 
 
 NAtoms=    385 NQM=      385 NQMF=       0 NMMI=      0 NMMIF=      0
                NMic=       0 NMicF=      0.
                    Isotopes and Nuclear Properties:
 (Nuclear quadrupole moments (NQMom) in fm**2, nuclear magnetic moments (NMagM)
  in nuclear magnetons)

  Atom         1           2           3           4           5           6           7           8           9          10
 IAtWgt=          79          16           1           1          16           1           1          16           1           1
 AtmWgt=  78.9183361  15.9949146   1.0078250   1.0078250  15.9949146   1.0078250   1.0078250  15.9949146   1.0078250   1.0078250
 NucSpn=           3           0           1           1           0           1           1           0           1           1
 AtZEff=   0.0000000   0.0000000   0.0000000   0.0000000   0.0000000   0.0000000   0.0000000   0.0000000   0.0000000   0.0000000
 NQMom=   31.3000000   0.0000000   0.0000000   0.0000000   0.0000000   0.0000000   0.0000000   0.0000000   0.0000000   0.0000000
 NMagM=    2.1063990   0.0000000   2.7928460   2.7928460   0.0000000   2.7928460   2.7928460   0.0000000   2.7928460   2.7928460
 AtZNuc=  35.0000000   8.0000000   1.0000000   1.0000000   8.0000000   1.0000000   1.0000000   8.0000000   1.0000000   1.0000000

  Atom        11          12          13          14          15          16          17          18          19          20
 IAtWgt=          16           1           1          16           1           1          16           1           1          16
 AtmWgt=  15.9949146   1.0078250   1.0078250  15.9949146   1.0078250   1.0078250  15.9949146   1.0078250   1.0078250  15.9949146
 NucSpn=           0           1           1           0           1           1           0           1           1           0
 AtZEff=   0.0000000   0.0000000   0.0000000   0.0000000   0.0000000   0.0000000   0.0000000   0.0000000   0.0000000   0.0000000
 NQMom=    0.0000000   0.0000000   0.0000000   0.0000000   0.0000000   0.0000000   0.0000000   0.0000000   0.0000000   0.0000000
 NMagM=    0.0000000   2.7928460   2.7928460   0.0000000   2.7928460   2.7928460   0.0000000   2.7928460   2.7928460   0.0000000
 AtZNuc=   8.0000000   1.0000000   1.0000000   8.0000000   1.0000000   1.0000000   8.0000000   1.0000000   1.0000000   8.0000000

  Atom        21          22          23          24          25          26          27          28          29          30
 IAtWgt=           1           1          16           1           1          16           1           1          16           1
 AtmWgt=   1.0078250   1.0078250  15.9949146   1.0078250   1.0078250  15.9949146   1.0078250   1.0078250  15.9949146   1.0078250
 NucSpn=           1           1           0           1           1           0           1           1           0           1
 AtZEff=   0.0000000   0.0000000   0.0000000   0.0000000   0.0000000   0.0000000   0.0000000   0.0000000   0.0000000   0.0000000
 NQMom=    0.0000000   0.0000000   0.0000000   0.0000000   0.0000000   0.0000000   0.0000000   0.0000000   0.0000000   0.0000000
 NMagM=    2.7928460   2.7928460   0.0000000   2.7928460   2.7928460   0.0000000   2.7928460   2.7928460   0.0000000   2.7928460
 AtZNuc=   1.0000000   1.0000000   8.0000000   1.0000000   1.0000000   8.0000000   1.0000000   1.0000000   8.0000000   1.0000000

  Atom        31          32          33          34          35          36          37          38          39          40
 IAtWgt=           1          16           1           1          16           1           1          16           1           1
 AtmWgt=   1.0078250  15.9949146   1.0078250   1.0078250  15.9949146   1.0078250   1.0078250  15.9949146   1.0078250   1.0078250
 NucSpn=           1           0           1           1           0           1           1           0           1           1
 AtZEff=   0.0000000   0.0000000   0.0000000   0.0000000   0.0000000   0.0000000   0.0000000   0.0000000   0.0000000   0.0000000
 NQMom=    0.0000000   0.0000000   0.0000000   0.0000000   0.0000000   0.0000000   0.0000000   0.0000000   0.0000000   0.0000000
 NMagM=    2.7928460   0.0000000   2.7928460   2.7928460   0.0000000   2.7928460   2.7928460   0.0000000   2.7928460   2.7928460
 AtZNuc=   1.0000000   8.0000000   1.0000000   1.0000000   8.0000000   1.0000000   1.0000000   8.0000000   1.0000000   1.0000000

  Atom        41          42          43          44          45          46          47          48          49          50
 IAtWgt=          16           1           1          16           1           1          16           1           1          16
 AtmWgt=  15.9949146   1.0078250   1.0078250  15.9949146   1.0078250   1.0078250  15.9949146   1.0078250   1.0078250  15.9949146
 NucSpn=           0           1           1           0           1           1           0           1           1           0
 AtZEff=   0.0000000   0.0000000   0.0000000   0.0000000   0.0000000   0.0000000   0.0000000   0.0000000   0.0000000   0.0000000
 NQMom=    0.0000000   0.0000000   0.0000000   0.0000000   0.0000000   0.0000000   0.0000000   0.0000000   0.0000000   0.0000000
 NMagM=    0.0000000   2.7928460   2.7928460   0.0000000   2.7928460   2.7928460   0.0000000   2.7928460   2.7928460   0.0000000
 AtZNuc=   8.0000000   1.0000000   1.0000000   8.0000000   1.0000000   1.0000000   8.0000000   1.0000000   1.0000000   8.0000000

  Atom        51          52          53          54          55          56          57          58          59          60
 IAtWgt=           1           1          16           1           1          16           1           1          16           1
 AtmWgt=   1.0078250   1.0078250  15.9949146   1.0078250   1.0078250  15.9949146   1.0078250   1.0078250  15.9949146   1.0078250
 NucSpn=           1           1           0           1           1           0           1           1           0           1
 AtZEff=   0.0000000   0.0000000   0.0000000   0.0000000   0.0000000   0.0000000   0.0000000   0.0000000   0.0000000   0.0000000
 NQMom=    0.0000000   0.0000000   0.0000000   0.0000000   0.0000000   0.0000000   0.0000000   0.0000000   0.0000000   0.0000000
 NMagM=    2.7928460   2.7928460   0.0000000   2.7928460   2.7928460   0.0000000   2.7928460   2.7928460   0.0000000   2.7928460
 AtZNuc=   1.0000000   1.0000000   8.0000000   1.0000000   1.0000000   8.0000000   1.0000000   1.0000000   8.0000000   1.0000000

  Atom        61          62          63          64          65          66          67          68          69          70
 IAtWgt=           1          16           1           1          16           1           1          16           1           1
 AtmWgt=   1.0078250  15.9949146   1.0078250   1.0078250  15.9949146   1.0078250   1.0078250  15.9949146   1.0078250   1.0078250
 NucSpn=           1           0           1           1           0           1           1           0           1           1
 AtZEff=   0.0000000   0.0000000   0.0000000   0.0000000   0.0000000   0.0000000   0.0000000   0.0000000   0.0000000   0.0000000
 NQMom=    0.0000000   0.0000000   0.0000000   0.0000000   0.0000000   0.0000000   0.0000000   0.0000000   0.0000000   0.0000000
 NMagM=    2.7928460   0.0000000   2.7928460   2.7928460   0.0000000   2.7928460   2.7928460   0.0000000   2.7928460   2.7928460
 AtZNuc=   1.0000000   8.0000000   1.0000000   1.0000000   8.0000000   1.0000000   1.0000000   8.0000000   1.0000000   1.0000000

  Atom        71          72          73          74          75          76          77          78          79          80
 IAtWgt=          16           1           1          16           1           1          16           1           1          16
 AtmWgt=  15.9949146   1.0078250   1.0078250  15.9949146   1.0078250   1.0078250  15.9949146   1.0078250   1.0078250  15.9949146
 NucSpn=           0           1           1           0           1           1           0           1           1           0
 AtZEff=   0.0000000   0.0000000   0.0000000   0.0000000   0.0000000   0.0000000   0.0000000   0.0000000   0.0000000   0.0000000
 NQMom=    0.0000000   0.0000000   0.0000000   0.0000000   0.0000000   0.0000000   0.0000000   0.0000000   0.0000000   0.0000000
 NMagM=    0.0000000   2.7928460   2.7928460   0.0000000   2.7928460   2.7928460   0.0000000   2.7928460   2.7928460   0.0000000
 AtZNuc=   8.0000000   1.0000000   1.0000000   8.0000000   1.0000000   1.0000000   8.0000000   1.0000000   1.0000000   8.0000000

  Atom        81          82          83          84          85          86          87          88          89          90
 IAtWgt=           1           1          16           1           1          16           1           1          16           1
 AtmWgt=   1.0078250   1.0078250  15.9949146   1.0078250   1.0078250  15.9949146   1.0078250   1.0078250  15.9949146   1.0078250
 NucSpn=           1           1           0           1           1           0           1           1           0           1
 AtZEff=   0.0000000   0.0000000   0.0000000   0.0000000   0.0000000   0.0000000   0.0000000   0.0000000   0.0000000   0.0000000
 NQMom=    0.0000000   0.0000000   0.0000000   0.0000000   0.0000000   0.0000000   0.0000000   0.0000000   0.0000000   0.0000000
 NMagM=    2.7928460   2.7928460   0.0000000   2.7928460   2.7928460   0.0000000   2.7928460   2.7928460   0.0000000   2.7928460
 AtZNuc=   1.0000000   1.0000000   8.0000000   1.0000000   1.0000000   8.0000000   1.0000000   1.0000000   8.0000000   1.0000000

  Atom        91          92          93          94          95          96          97          98          99         100
 IAtWgt=           1          16           1           1          16           1           1          16           1           1
 AtmWgt=   1.0078250  15.9949146   1.0078250   1.0078250  15.9949146   1.0078250   1.0078250  15.9949146   1.0078250   1.0078250
 NucSpn=           1           0           1           1           0           1           1           0           1           1
 AtZEff=   0.0000000   0.0000000   0.0000000   0.0000000   0.0000000   0.0000000   0.0000000   0.0000000   0.0000000   0.0000000
 NQMom=    0.0000000   0.0000000   0.0000000   0.0000000   0.0000000   0.0000000   0.0000000   0.0000000   0.0000000   0.0000000
 NMagM=    2.7928460   0.0000000   2.7928460   2.7928460   0.0000000   2.7928460   2.7928460   0.0000000   2.7928460   2.7928460
 AtZNuc=   1.0000000   8.0000000   1.0000000   1.0000000   8.0000000   1.0000000   1.0000000   8.0000000   1.0000000   1.0000000

  Atom       101         102         103         104         105         106         107         108         109         110
 IAtWgt=          16           1           1          16           1           1          16           1           1          16
 AtmWgt=  15.9949146   1.0078250   1.0078250  15.9949146   1.0078250   1.0078250  15.9949146   1.0078250   1.0078250  15.9949146
 NucSpn=           0           1           1           0           1           1           0           1           1           0
 AtZEff=   0.0000000   0.0000000   0.0000000   0.0000000   0.0000000   0.0000000   0.0000000   0.0000000   0.0000000   0.0000000
 NQMom=    0.0000000   0.0000000   0.0000000   0.0000000   0.0000000   0.0000000   0.0000000   0.0000000   0.0000000   0.0000000
 NMagM=    0.0000000   2.7928460   2.7928460   0.0000000   2.7928460   2.7928460   0.0000000   2.7928460   2.7928460   0.0000000
 AtZNuc=   8.0000000   1.0000000   1.0000000   8.0000000   1.0000000   1.0000000   8.0000000   1.0000000   1.0000000   8.0000000

  Atom       111         112         113         114         115         116         117         118         119         120
 IAtWgt=           1           1          16           1           1          16           1           1          16           1
 AtmWgt=   1.0078250   1.0078250  15.9949146   1.0078250   1.0078250  15.9949146   1.0078250   1.0078250  15.9949146   1.0078250
 NucSpn=           1           1           0           1           1           0           1           1           0           1
 AtZEff=   0.0000000   0.0000000   0.0000000   0.0000000   0.0000000   0.0000000   0.0000000   0.0000000   0.0000000   0.0000000
 NQMom=    0.0000000   0.0000000   0.0000000   0.0000000   0.0000000   0.0000000   0.0000000   0.0000000   0.0000000   0.0000000
 NMagM=    2.7928460   2.7928460   0.0000000   2.7928460   2.7928460   0.0000000   2.7928460   2.7928460   0.0000000   2.7928460
 AtZNuc=   1.0000000   1.0000000   8.0000000   1.0000000   1.0000000   8.0000000   1.0000000   1.0000000   8.0000000   1.0000000

  Atom       121         122         123         124         125         126         127         128         129         130
 IAtWgt=           1          16           1           1          16           1           1          16           1           1
 AtmWgt=   1.0078250  15.9949146   1.0078250   1.0078250  15.9949146   1.0078250   1.0078250  15.9949146   1.0078250   1.0078250
 NucSpn=           1           0           1           1           0           1           1           0           1           1
 AtZEff=   0.0000000   0.0000000   0.0000000   0.0000000   0.0000000   0.0000000   0.0000000   0.0000000   0.0000000   0.0000000
 NQMom=    0.0000000   0.0000000   0.0000000   0.0000000   0.0000000   0.0000000   0.0000000   0.0000000   0.0000000   0.0000000
 NMagM=    2.7928460   0.0000000   2.7928460   2.7928460   0.0000000   2.7928460   2.7928460   0.0000000   2.7928460   2.7928460
 AtZNuc=   1.0000000   8.0000000   1.0000000   1.0000000   8.0000000   1.0000000   1.0000000   8.0000000   1.0000000   1.0000000

  Atom       131         132         133         134         135         136         137         138         139         140
 IAtWgt=          16           1           1          16           1           1          16           1           1          16
 AtmWgt=  15.9949146   1.0078250   1.0078250  15.9949146   1.0078250   1.0078250  15.9949146   1.0078250   1.0078250  15.9949146
 NucSpn=           0           1           1           0           1           1           0           1           1           0
 AtZEff=   0.0000000   0.0000000   0.0000000   0.0000000   0.0000000   0.0000000   0.0000000   0.0000000   0.0000000   0.0000000
 NQMom=    0.0000000   0.0000000   0.0000000   0.0000000   0.0000000   0.0000000   0.0000000   0.0000000   0.0000000   0.0000000
 NMagM=    0.0000000   2.7928460   2.7928460   0.0000000   2.7928460   2.7928460   0.0000000   2.7928460   2.7928460   0.0000000
 AtZNuc=   8.0000000   1.0000000   1.0000000   8.0000000   1.0000000   1.0000000   8.0000000   1.0000000   1.0000000   8.0000000

  Atom       141         142         143         144         145         146         147         148         149         150
 IAtWgt=           1           1          16           1           1          16           1           1          16           1
 AtmWgt=   1.0078250   1.0078250  15.9949146   1.0078250   1.0078250  15.9949146   1.0078250   1.0078250  15.9949146   1.0078250
 NucSpn=           1           1           0           1           1           0           1           1           0           1
 AtZEff=   0.0000000   0.0000000   0.0000000   0.0000000   0.0000000   0.0000000   0.0000000   0.0000000   0.0000000   0.0000000
 NQMom=    0.0000000   0.0000000   0.0000000   0.0000000   0.0000000   0.0000000   0.0000000   0.0000000   0.0000000   0.0000000
 NMagM=    2.7928460   2.7928460   0.0000000   2.7928460   2.7928460   0.0000000   2.7928460   2.7928460   0.0000000   2.7928460
 AtZNuc=   1.0000000   1.0000000   8.0000000   1.0000000   1.0000000   8.0000000   1.0000000   1.0000000   8.0000000   1.0000000

  Atom       151         152         153         154         155         156         157         158         159         160
 IAtWgt=           1          16           1           1          16           1           1          16           1           1
 AtmWgt=   1.0078250  15.9949146   1.0078250   1.0078250  15.9949146   1.0078250   1.0078250  15.9949146   1.0078250   1.0078250
 NucSpn=           1           0           1           1           0           1           1           0           1           1
 AtZEff=   0.0000000   0.0000000   0.0000000   0.0000000   0.0000000   0.0000000   0.0000000   0.0000000   0.0000000   0.0000000
 NQMom=    0.0000000   0.0000000   0.0000000   0.0000000   0.0000000   0.0000000   0.0000000   0.0000000   0.0000000   0.0000000
 NMagM=    2.7928460   0.0000000   2.7928460   2.7928460   0.0000000   2.7928460   2.7928460   0.0000000   2.7928460   2.7928460
 AtZNuc=   1.0000000   8.0000000   1.0000000   1.0000000   8.0000000   1.0000000   1.0000000   8.0000000   1.0000000   1.0000000

  Atom       161         162         163         164         165         166         167         168         169         170
 IAtWgt=          16           1           1          16           1           1          16           1           1          16
 AtmWgt=  15.9949146   1.0078250   1.0078250  15.9949146   1.0078250   1.0078250  15.9949146   1.0078250   1.0078250  15.9949146
 NucSpn=           0           1           1           0           1           1           0           1           1           0
 AtZEff=   0.0000000   0.0000000   0.0000000   0.0000000   0.0000000   0.0000000   0.0000000   0.0000000   0.0000000   0.0000000
 NQMom=    0.0000000   0.0000000   0.0000000   0.0000000   0.0000000   0.0000000   0.0000000   0.0000000   0.0000000   0.0000000
 NMagM=    0.0000000   2.7928460   2.7928460   0.0000000   2.7928460   2.7928460   0.0000000   2.7928460   2.7928460   0.0000000
 AtZNuc=   8.0000000   1.0000000   1.0000000   8.0000000   1.0000000   1.0000000   8.0000000   1.0000000   1.0000000   8.0000000

  Atom       171         172         173         174         175         176         177         178         179         180
 IAtWgt=           1           1          16           1           1          16           1           1          16           1
 AtmWgt=   1.0078250   1.0078250  15.9949146   1.0078250   1.0078250  15.9949146   1.0078250   1.0078250  15.9949146   1.0078250
 NucSpn=           1           1           0           1           1           0           1           1           0           1
 AtZEff=   0.0000000   0.0000000   0.0000000   0.0000000   0.0000000   0.0000000   0.0000000   0.0000000   0.0000000   0.0000000
 NQMom=    0.0000000   0.0000000   0.0000000   0.0000000   0.0000000   0.0000000   0.0000000   0.0000000   0.0000000   0.0000000
 NMagM=    2.7928460   2.7928460   0.0000000   2.7928460   2.7928460   0.0000000   2.7928460   2.7928460   0.0000000   2.7928460
 AtZNuc=   1.0000000   1.0000000   8.0000000   1.0000000   1.0000000   8.0000000   1.0000000   1.0000000   8.0000000   1.0000000

  Atom       181         182         183         184         185         186         187         188         189         190
 IAtWgt=           1          16           1           1          16           1           1          16           1           1
 AtmWgt=   1.0078250  15.9949146   1.0078250   1.0078250  15.9949146   1.0078250   1.0078250  15.9949146   1.0078250   1.0078250
 NucSpn=           1           0           1           1           0           1           1           0           1           1
 AtZEff=   0.0000000   0.0000000   0.0000000   0.0000000   0.0000000   0.0000000   0.0000000   0.0000000   0.0000000   0.0000000
 NQMom=    0.0000000   0.0000000   0.0000000   0.0000000   0.0000000   0.0000000   0.0000000   0.0000000   0.0000000   0.0000000
 NMagM=    2.7928460   0.0000000   2.7928460   2.7928460   0.0000000   2.7928460   2.7928460   0.0000000   2.7928460   2.7928460
 AtZNuc=   1.0000000   8.0000000   1.0000000   1.0000000   8.0000000   1.0000000   1.0000000   8.0000000   1.0000000   1.0000000

  Atom       191         192         193         194         195         196         197         198         199         200
 IAtWgt=          16           1           1          16           1           1          16           1           1          16
 AtmWgt=  15.9949146   1.0078250   1.0078250  15.9949146   1.0078250   1.0078250  15.9949146   1.0078250   1.0078250  15.9949146
 NucSpn=           0           1           1           0           1           1           0           1           1           0
 AtZEff=   0.0000000   0.0000000   0.0000000   0.0000000   0.0000000   0.0000000   0.0000000   0.0000000   0.0000000   0.0000000
 NQMom=    0.0000000   0.0000000   0.0000000   0.0000000   0.0000000   0.0000000   0.0000000   0.0000000   0.0000000   0.0000000
 NMagM=    0.0000000   2.7928460   2.7928460   0.0000000   2.7928460   2.7928460   0.0000000   2.7928460   2.7928460   0.0000000
 AtZNuc=   8.0000000   1.0000000   1.0000000   8.0000000   1.0000000   1.0000000   8.0000000   1.0000000   1.0000000   8.0000000

  Atom       201         202         203         204         205         206         207         208         209         210
 IAtWgt=           1           1          16           1           1          16           1           1          16           1
 AtmWgt=   1.0078250   1.0078250  15.9949146   1.0078250   1.0078250  15.9949146   1.0078250   1.0078250  15.9949146   1.0078250
 NucSpn=           1           1           0           1           1           0           1           1           0           1
 AtZEff=   0.0000000   0.0000000   0.0000000   0.0000000   0.0000000   0.0000000   0.0000000   0.0000000   0.0000000   0.0000000
 NQMom=    0.0000000   0.0000000   0.0000000   0.0000000   0.0000000   0.0000000   0.0000000   0.0000000   0.0000000   0.0000000
 NMagM=    2.7928460   2.7928460   0.0000000   2.7928460   2.7928460   0.0000000   2.7928460   2.7928460   0.0000000   2.7928460
 AtZNuc=   1.0000000   1.0000000   8.0000000   1.0000000   1.0000000   8.0000000   1.0000000   1.0000000   8.0000000   1.0000000

  Atom       211         212         213         214         215         216         217         218         219         220
 IAtWgt=           1          16           1           1          16           1           1          16           1           1
 AtmWgt=   1.0078250  15.9949146   1.0078250   1.0078250  15.9949146   1.0078250   1.0078250  15.9949146   1.0078250   1.0078250
 NucSpn=           1           0           1           1           0           1           1           0           1           1
 AtZEff=   0.0000000   0.0000000   0.0000000   0.0000000   0.0000000   0.0000000   0.0000000   0.0000000   0.0000000   0.0000000
 NQMom=    0.0000000   0.0000000   0.0000000   0.0000000   0.0000000   0.0000000   0.0000000   0.0000000   0.0000000   0.0000000
 NMagM=    2.7928460   0.0000000   2.7928460   2.7928460   0.0000000   2.7928460   2.7928460   0.0000000   2.7928460   2.7928460
 AtZNuc=   1.0000000   8.0000000   1.0000000   1.0000000   8.0000000   1.0000000   1.0000000   8.0000000   1.0000000   1.0000000

  Atom       221         222         223         224         225         226         227         228         229         230
 IAtWgt=          16           1           1          16           1           1          16           1           1          16
 AtmWgt=  15.9949146   1.0078250   1.0078250  15.9949146   1.0078250   1.0078250  15.9949146   1.0078250   1.0078250  15.9949146
 NucSpn=           0           1           1           0           1           1           0           1           1           0
 AtZEff=   0.0000000   0.0000000   0.0000000   0.0000000   0.0000000   0.0000000   0.0000000   0.0000000   0.0000000   0.0000000
 NQMom=    0.0000000   0.0000000   0.0000000   0.0000000   0.0000000   0.0000000   0.0000000   0.0000000   0.0000000   0.0000000
 NMagM=    0.0000000   2.7928460   2.7928460   0.0000000   2.7928460   2.7928460   0.0000000   2.7928460   2.7928460   0.0000000
 AtZNuc=   8.0000000   1.0000000   1.0000000   8.0000000   1.0000000   1.0000000   8.0000000   1.0000000   1.0000000   8.0000000

  Atom       231         232         233         234         235         236         237         238         239         240
 IAtWgt=           1           1          16           1           1          16           1           1          16           1
 AtmWgt=   1.0078250   1.0078250  15.9949146   1.0078250   1.0078250  15.9949146   1.0078250   1.0078250  15.9949146   1.0078250
 NucSpn=           1           1           0           1           1           0           1           1           0           1
 AtZEff=   0.0000000   0.0000000   0.0000000   0.0000000   0.0000000   0.0000000   0.0000000   0.0000000   0.0000000   0.0000000
 NQMom=    0.0000000   0.0000000   0.0000000   0.0000000   0.0000000   0.0000000   0.0000000   0.0000000   0.0000000   0.0000000
 NMagM=    2.7928460   2.7928460   0.0000000   2.7928460   2.7928460   0.0000000   2.7928460   2.7928460   0.0000000   2.7928460
 AtZNuc=   1.0000000   1.0000000   8.0000000   1.0000000   1.0000000   8.0000000   1.0000000   1.0000000   8.0000000   1.0000000

  Atom       241         242         243         244         245         246         247         248         249         250
 IAtWgt=           1          16           1           1          16           1           1          16           1           1
 AtmWgt=   1.0078250  15.9949146   1.0078250   1.0078250  15.9949146   1.0078250   1.0078250  15.9949146   1.0078250   1.0078250
 NucSpn=           1           0           1           1           0           1           1           0           1           1
 AtZEff=   0.0000000   0.0000000   0.0000000   0.0000000   0.0000000   0.0000000   0.0000000   0.0000000   0.0000000   0.0000000
 NQMom=    0.0000000   0.0000000   0.0000000   0.0000000   0.0000000   0.0000000   0.0000000   0.0000000   0.0000000   0.0000000
 NMagM=    2.7928460   0.0000000   2.7928460   2.7928460   0.0000000   2.7928460   2.7928460   0.0000000   2.7928460   2.7928460
 AtZNuc=   1.0000000   8.0000000   1.0000000   1.0000000   8.0000000   1.0000000   1.0000000   8.0000000   1.0000000   1.0000000

  Atom       251         252         253         254         255         256         257         258         259         260
 IAtWgt=          16           1           1          16           1           1          16           1           1          16
 AtmWgt=  15.9949146   1.0078250   1.0078250  15.9949146   1.0078250   1.0078250  15.9949146   1.0078250   1.0078250  15.9949146
 NucSpn=           0           1           1           0           1           1           0           1           1           0
 AtZEff=   0.0000000   0.0000000   0.0000000   0.0000000   0.0000000   0.0000000   0.0000000   0.0000000   0.0000000   0.0000000
 NQMom=    0.0000000   0.0000000   0.0000000   0.0000000   0.0000000   0.0000000   0.0000000   0.0000000   0.0000000   0.0000000
 NMagM=    0.0000000   2.7928460   2.7928460   0.0000000   2.7928460   2.7928460   0.0000000   2.7928460   2.7928460   0.0000000
 AtZNuc=   8.0000000   1.0000000   1.0000000   8.0000000   1.0000000   1.0000000   8.0000000   1.0000000   1.0000000   8.0000000

  Atom       261         262         263         264         265         266         267         268         269         270
 IAtWgt=           1           1          16           1           1          16           1           1          16           1
 AtmWgt=   1.0078250   1.0078250  15.9949146   1.0078250   1.0078250  15.9949146   1.0078250   1.0078250  15.9949146   1.0078250
 NucSpn=           1           1           0           1           1           0           1           1           0           1
 AtZEff=   0.0000000   0.0000000   0.0000000   0.0000000   0.0000000   0.0000000   0.0000000   0.0000000   0.0000000   0.0000000
 NQMom=    0.0000000   0.0000000   0.0000000   0.0000000   0.0000000   0.0000000   0.0000000   0.0000000   0.0000000   0.0000000
 NMagM=    2.7928460   2.7928460   0.0000000   2.7928460   2.7928460   0.0000000   2.7928460   2.7928460   0.0000000   2.7928460
 AtZNuc=   1.0000000   1.0000000   8.0000000   1.0000000   1.0000000   8.0000000   1.0000000   1.0000000   8.0000000   1.0000000

  Atom       271         272         273         274         275         276         277         278         279         280
 IAtWgt=           1          16           1           1          16           1           1          16           1           1
 AtmWgt=   1.0078250  15.9949146   1.0078250   1.0078250  15.9949146   1.0078250   1.0078250  15.9949146   1.0078250   1.0078250
 NucSpn=           1           0           1           1           0           1           1           0           1           1
 AtZEff=   0.0000000   0.0000000   0.0000000   0.0000000   0.0000000   0.0000000   0.0000000   0.0000000   0.0000000   0.0000000
 NQMom=    0.0000000   0.0000000   0.0000000   0.0000000   0.0000000   0.0000000   0.0000000   0.0000000   0.0000000   0.0000000
 NMagM=    2.7928460   0.0000000   2.7928460   2.7928460   0.0000000   2.7928460   2.7928460   0.0000000   2.7928460   2.7928460
 AtZNuc=   1.0000000   8.0000000   1.0000000   1.0000000   8.0000000   1.0000000   1.0000000   8.0000000   1.0000000   1.0000000

  Atom       281         282         283         284         285         286         287         288         289         290
 IAtWgt=          16           1           1          16           1           1          16           1           1          16
 AtmWgt=  15.9949146   1.0078250   1.0078250  15.9949146   1.0078250   1.0078250  15.9949146   1.0078250   1.0078250  15.9949146
 NucSpn=           0           1           1           0           1           1           0           1           1           0
 AtZEff=   0.0000000   0.0000000   0.0000000   0.0000000   0.0000000   0.0000000   0.0000000   0.0000000   0.0000000   0.0000000
 NQMom=    0.0000000   0.0000000   0.0000000   0.0000000   0.0000000   0.0000000   0.0000000   0.0000000   0.0000000   0.0000000
 NMagM=    0.0000000   2.7928460   2.7928460   0.0000000   2.7928460   2.7928460   0.0000000   2.7928460   2.7928460   0.0000000
 AtZNuc=   8.0000000   1.0000000   1.0000000   8.0000000   1.0000000   1.0000000   8.0000000   1.0000000   1.0000000   8.0000000

  Atom       291         292         293         294         295         296         297         298         299         300
 IAtWgt=           1           1          16           1           1          16           1           1          16           1
 AtmWgt=   1.0078250   1.0078250  15.9949146   1.0078250   1.0078250  15.9949146   1.0078250   1.0078250  15.9949146   1.0078250
 NucSpn=           1           1           0           1           1           0           1           1           0           1
 AtZEff=   0.0000000   0.0000000   0.0000000   0.0000000   0.0000000   0.0000000   0.0000000   0.0000000   0.0000000   0.0000000
 NQMom=    0.0000000   0.0000000   0.0000000   0.0000000   0.0000000   0.0000000   0.0000000   0.0000000   0.0000000   0.0000000
 NMagM=    2.7928460   2.7928460   0.0000000   2.7928460   2.7928460   0.0000000   2.7928460   2.7928460   0.0000000   2.7928460
 AtZNuc=   1.0000000   1.0000000   8.0000000   1.0000000   1.0000000   8.0000000   1.0000000   1.0000000   8.0000000   1.0000000

  Atom       301         302         303         304         305         306         307         308         309         310
 IAtWgt=           1          16           1           1          16           1           1          16           1           1
 AtmWgt=   1.0078250  15.9949146   1.0078250   1.0078250  15.9949146   1.0078250   1.0078250  15.9949146   1.0078250   1.0078250
 NucSpn=           1           0           1           1           0           1           1           0           1           1
 AtZEff=   0.0000000   0.0000000   0.0000000   0.0000000   0.0000000   0.0000000   0.0000000   0.0000000   0.0000000   0.0000000
 NQMom=    0.0000000   0.0000000   0.0000000   0.0000000   0.0000000   0.0000000   0.0000000   0.0000000   0.0000000   0.0000000
 NMagM=    2.7928460   0.0000000   2.7928460   2.7928460   0.0000000   2.7928460   2.7928460   0.0000000   2.7928460   2.7928460
 AtZNuc=   1.0000000   8.0000000   1.0000000   1.0000000   8.0000000   1.0000000   1.0000000   8.0000000   1.0000000   1.0000000

  Atom       311         312         313         314         315         316         317         318         319         320
 IAtWgt=          16           1           1          16           1           1          16           1           1          16
 AtmWgt=  15.9949146   1.0078250   1.0078250  15.9949146   1.0078250   1.0078250  15.9949146   1.0078250   1.0078250  15.9949146
 NucSpn=           0           1           1           0           1           1           0           1           1           0
 AtZEff=   0.0000000   0.0000000   0.0000000   0.0000000   0.0000000   0.0000000   0.0000000   0.0000000   0.0000000   0.0000000
 NQMom=    0.0000000   0.0000000   0.0000000   0.0000000   0.0000000   0.0000000   0.0000000   0.0000000   0.0000000   0.0000000
 NMagM=    0.0000000   2.7928460   2.7928460   0.0000000   2.7928460   2.7928460   0.0000000   2.7928460   2.7928460   0.0000000
 AtZNuc=   8.0000000   1.0000000   1.0000000   8.0000000   1.0000000   1.0000000   8.0000000   1.0000000   1.0000000   8.0000000

  Atom       321         322         323         324         325         326         327         328         329         330
 IAtWgt=           1           1          16           1           1          16           1           1          16           1
 AtmWgt=   1.0078250   1.0078250  15.9949146   1.0078250   1.0078250  15.9949146   1.0078250   1.0078250  15.9949146   1.0078250
 NucSpn=           1           1           0           1           1           0           1           1           0           1
 AtZEff=   0.0000000   0.0000000   0.0000000   0.0000000   0.0000000   0.0000000   0.0000000   0.0000000   0.0000000   0.0000000
 NQMom=    0.0000000   0.0000000   0.0000000   0.0000000   0.0000000   0.0000000   0.0000000   0.0000000   0.0000000   0.0000000
 NMagM=    2.7928460   2.7928460   0.0000000   2.7928460   2.7928460   0.0000000   2.7928460   2.7928460   0.0000000   2.7928460
 AtZNuc=   1.0000000   1.0000000   8.0000000   1.0000000   1.0000000   8.0000000   1.0000000   1.0000000   8.0000000   1.0000000

  Atom       331         332         333         334         335         336         337         338         339         340
 IAtWgt=           1          16           1           1          16           1           1          16           1           1
 AtmWgt=   1.0078250  15.9949146   1.0078250   1.0078250  15.9949146   1.0078250   1.0078250  15.9949146   1.0078250   1.0078250
 NucSpn=           1           0           1           1           0           1           1           0           1           1
 AtZEff=   0.0000000   0.0000000   0.0000000   0.0000000   0.0000000   0.0000000   0.0000000   0.0000000   0.0000000   0.0000000
 NQMom=    0.0000000   0.0000000   0.0000000   0.0000000   0.0000000   0.0000000   0.0000000   0.0000000   0.0000000   0.0000000
 NMagM=    2.7928460   0.0000000   2.7928460   2.7928460   0.0000000   2.7928460   2.7928460   0.0000000   2.7928460   2.7928460
 AtZNuc=   1.0000000   8.0000000   1.0000000   1.0000000   8.0000000   1.0000000   1.0000000   8.0000000   1.0000000   1.0000000

  Atom       341         342         343         344         345         346         347         348         349         350
 IAtWgt=          16           1           1          16           1           1          16           1           1          16
 AtmWgt=  15.9949146   1.0078250   1.0078250  15.9949146   1.0078250   1.0078250  15.9949146   1.0078250   1.0078250  15.9949146
 NucSpn=           0           1           1           0           1           1           0           1           1           0
 AtZEff=   0.0000000   0.0000000   0.0000000   0.0000000   0.0000000   0.0000000   0.0000000   0.0000000   0.0000000   0.0000000
 NQMom=    0.0000000   0.0000000   0.0000000   0.0000000   0.0000000   0.0000000   0.0000000   0.0000000   0.0000000   0.0000000
 NMagM=    0.0000000   2.7928460   2.7928460   0.0000000   2.7928460   2.7928460   0.0000000   2.7928460   2.7928460   0.0000000
 AtZNuc=   8.0000000   1.0000000   1.0000000   8.0000000   1.0000000   1.0000000   8.0000000   1.0000000   1.0000000   8.0000000

  Atom       351         352         353         354         355         356         357         358         359         360
 IAtWgt=           1           1          16           1           1          16           1           1          16           1
 AtmWgt=   1.0078250   1.0078250  15.9949146   1.0078250   1.0078250  15.9949146   1.0078250   1.0078250  15.9949146   1.0078250
 NucSpn=           1           1           0           1           1           0           1           1           0           1
 AtZEff=   0.0000000   0.0000000   0.0000000   0.0000000   0.0000000   0.0000000   0.0000000   0.0000000   0.0000000   0.0000000
 NQMom=    0.0000000   0.0000000   0.0000000   0.0000000   0.0000000   0.0000000   0.0000000   0.0000000   0.0000000   0.0000000
 NMagM=    2.7928460   2.7928460   0.0000000   2.7928460   2.7928460   0.0000000   2.7928460   2.7928460   0.0000000   2.7928460
 AtZNuc=   1.0000000   1.0000000   8.0000000   1.0000000   1.0000000   8.0000000   1.0000000   1.0000000   8.0000000   1.0000000

  Atom       361         362         363         364         365         366         367         368         369         370
 IAtWgt=           1          16           1           1          16           1           1          16           1           1
 AtmWgt=   1.0078250  15.9949146   1.0078250   1.0078250  15.9949146   1.0078250   1.0078250  15.9949146   1.0078250   1.0078250
 NucSpn=           1           0           1           1           0           1           1           0           1           1
 AtZEff=   0.0000000   0.0000000   0.0000000   0.0000000   0.0000000   0.0000000   0.0000000   0.0000000   0.0000000   0.0000000
 NQMom=    0.0000000   0.0000000   0.0000000   0.0000000   0.0000000   0.0000000   0.0000000   0.0000000   0.0000000   0.0000000
 NMagM=    2.7928460   0.0000000   2.7928460   2.7928460   0.0000000   2.7928460   2.7928460   0.0000000   2.7928460   2.7928460
 AtZNuc=   1.0000000   8.0000000   1.0000000   1.0000000   8.0000000   1.0000000   1.0000000   8.0000000   1.0000000   1.0000000

  Atom       371         372         373         374         375         376         377         378         379         380
 IAtWgt=          16           1           1          16           1           1          16           1           1          16
 AtmWgt=  15.9949146   1.0078250   1.0078250  15.9949146   1.0078250   1.0078250  15.9949146   1.0078250   1.0078250  15.9949146
 NucSpn=           0           1           1           0           1           1           0           1           1           0
 AtZEff=   0.0000000   0.0000000   0.0000000   0.0000000   0.0000000   0.0000000   0.0000000   0.0000000   0.0000000   0.0000000
 NQMom=    0.0000000   0.0000000   0.0000000   0.0000000   0.0000000   0.0000000   0.0000000   0.0000000   0.0000000   0.0000000
 NMagM=    0.0000000   2.7928460   2.7928460   0.0000000   2.7928460   2.7928460   0.0000000   2.7928460   2.7928460   0.0000000
 AtZNuc=   8.0000000   1.0000000   1.0000000   8.0000000   1.0000000   1.0000000   8.0000000   1.0000000   1.0000000   8.0000000

  Atom       381         382         383         384         385
 IAtWgt=           1           1          16           1           1
 AtmWgt=   1.0078250   1.0078250  15.9949146   1.0078250   1.0078250
 NucSpn=           1           1           0           1           1
 AtZEff=   0.0000000   0.0000000   0.0000000   0.0000000   0.0000000
 NQMom=    0.0000000   0.0000000   0.0000000   0.0000000   0.0000000
 NMagM=    2.7928460   2.7928460   0.0000000   2.7928460   2.7928460
 AtZNuc=   1.0000000   1.0000000   8.0000000   1.0000000   1.0000000
 Leave Link  101 at Tue May  8 09:47:35 2018, MaxMem= 14763950080 cpu:        33.3
 (Enter /cm/shared/gaussian/g09.e01/intel64-sandybridge/g09/l103.exe)

 GradGradGradGradGradGradGradGradGradGradGradGradGradGradGradGradGradGrad
 Berny optimization.
 Initialization pass.
 Trust Radius=3.00D-01 FncErr=1.00D-07 GrdErr=1.00D-07
 Number of steps in this run=      2 maximum allowed number of steps=      2.
 GradGradGradGradGradGradGradGradGradGradGradGradGradGradGradGradGradGrad

 Leave Link  103 at Tue May  8 09:47:36 2018, MaxMem= 14763950080 cpu:         5.1
 (Enter /cm/shared/gaussian/g09.e01/intel64-sandybridge/g09/l202.exe)
 Symmetry turned off by external request.
 Stoichiometry    BrH256O128(1-)
 Framework group  C1[X(BrH256O128)]
 Deg. of freedom  1149
 Full point group                 C1      NOp   1
                          Input orientation:                          
 ---------------------------------------------------------------------
 Center     Atomic      Atomic             Coordinates (Angstroms)
 Number     Number       Type             X           Y           Z
 ---------------------------------------------------------------------
      1         35           0       20.000000   20.000000   20.000000
      2          8           0       19.930000   19.310000   17.040000
      3          1           0       19.870000   18.370000   17.210000
      4          1           0       20.040000   19.700000   17.910000
      5          8           0       17.820000   17.740000   20.720000
      6          1           0       18.210000   16.970000   20.320000
      7          1           0       18.350000   18.470000   20.400000
      8          8           0       22.980000   21.010000   19.210000
      9          1           0       22.080000   20.730000   19.370000
     10          1           0       23.520000   20.320000   19.600000
     11          8           0       20.500000   20.130000   23.310000
     12          1           0       19.760000   20.670000   23.560000
     13          1           0       20.520000   20.170000   22.350000
     14          8           0       18.940000   23.170000   19.600000
     15          1           0       18.870000   23.500000   20.500000
     16          1           0       19.430000   22.350000   19.690000
     17          8           0       21.380000   16.980000   20.190000
     18          1           0       21.840000   16.680000   20.980000
     19          1           0       21.190000   17.900000   20.350000
     20          8           0       16.770000   20.630000   19.390000
     21          1           0       16.250000   19.820000   19.420000
     22          1           0       17.540000   20.440000   19.920000
     23          8           0       21.980000   22.860000   21.430000
     24          1           0       22.000000   22.040000   20.920000
     25          1           0       21.050000   23.090000   21.470000
     26          8           0       18.620000   22.140000   16.970000
     27          1           0       18.930000   21.250000   17.110000
     28          1           0       18.680000   22.550000   17.840000
     29          8           0       22.400000   17.910000   22.790000
     30          1           0       22.120000   18.810000   22.650000
     31          1           0       23.340000   17.990000   23.000000
     32          8           0       18.350000   17.360000   23.400000
     33          1           0       18.100000   17.700000   22.540000
     34          1           0       19.090000   16.780000   23.220000
     35          8           0       18.930000   15.460000   19.630000
     36          1           0       19.790000   15.890000   19.610000
     37          1           0       18.680000   15.390000   18.710000
     38          8           0       22.730000   23.780000   18.080000
     39          1           0       22.600000   22.860000   17.870000
     40          1           0       22.900000   23.790000   19.020000
     41          8           0       24.330000   19.350000   20.840000
     42          1           0       24.410000   19.540000   21.770000
     43          1           0       24.900000   18.590000   20.700000
     44          8           0       20.290000   21.150000   14.970000
     45          1           0       20.240000   20.390000   15.550000
     46          1           0       19.600000   21.730000   15.270000
     47          8           0       24.300000   19.980000   16.800000
     48          1           0       23.780000   19.890000   17.600000
     49          1           0       23.740000   19.660000   16.100000
     50          8           0       15.860000   23.080000   18.790000
     51          1           0       16.250000   22.210000   18.730000
     52          1           0       16.090000   23.390000   19.660000
     53          8           0       18.630000   22.010000   23.920000
     54          1           0       17.740000   21.660000   23.810000
     55          1           0       18.770000   22.010000   24.870000
     56          8           0       19.060000   24.050000   22.100000
     57          1           0       19.060000   23.510000   22.890000
     58          1           0       18.260000   24.570000   22.160000
     59          8           0       20.340000   25.060000   17.210000
     60          1           0       20.160000   24.490000   17.960000
     61          1           0       21.050000   24.620000   16.740000
     62          8           0       18.040000   16.290000   17.020000
     63          1           0       18.000000   15.530000   16.430000
     64          1           0       17.120000   16.460000   17.250000
     65          8           0       22.160000   19.620000   25.620000
     66          1           0       21.650000   19.380000   26.390000
     67          1           0       21.500000   19.910000   24.980000
     68          8           0       22.330000   14.530000   18.130000
     69          1           0       22.670000   14.870000   17.310000
     70          1           0       22.210000   15.300000   18.680000
     71          8           0       25.850000   22.090000   20.070000
     72          1           0       25.240000   21.390000   20.270000
     73          1           0       25.830000   22.170000   19.120000
     74          8           0       14.100000   20.930000   20.740000
     75          1           0       13.600000   21.320000   21.460000
     76          1           0       14.810000   21.550000   20.580000
     77          8           0       24.060000   24.570000   21.910000
     78          1           0       23.440000   23.950000   21.500000
     79          1           0       24.580000   24.900000   21.180000
     80          8           0       23.170000   23.350000   24.400000
     81          1           0       23.550000   24.080000   23.910000
     82          1           0       23.040000   22.660000   23.740000
     83          8           0       19.080000   13.970000   21.800000
     84          1           0       19.940000   13.610000   21.580000
     85          1           0       18.880000   14.570000   21.070000
     86          8           0       17.330000   20.560000   14.090000
     87          1           0       16.540000   20.970000   14.460000
     88          1           0       18.010000   20.740000   14.740000
     89          8           0       18.900000   18.000000   26.110000
     90          1           0       18.850000   17.940000   25.160000
     91          1           0       18.900000   17.100000   26.410000
     92          8           0       24.300000   19.960000   23.760000
     93          1           0       23.730000   19.960000   24.530000
     94          1           0       25.180000   19.810000   24.110000
     95          8           0       16.010000   18.480000   24.430000
     96          1           0       15.700000   18.530000   23.520000
     97          1           0       16.790000   17.920000   24.380000
     98          8           0       15.690000   22.610000   23.680000
     99          1           0       15.800000   22.930000   22.780000
    100          1           0       14.840000   22.160000   23.670000
    101          8           0       17.580000   24.840000   16.240000
    102          1           0       17.410000   23.950000   16.550000
    103          1           0       18.440000   25.060000   16.610000
    104          8           0       25.620000   22.030000   17.510000
    105          1           0       25.110000   21.340000   17.070000
    106          1           0       26.510000   21.910000   17.200000
    107          8           0       15.380000   15.620000   21.070000
    108          1           0       15.160000   16.470000   21.450000
    109          1           0       14.940000   14.990000   21.630000
    110          8           0       21.650000   16.480000   25.580000
    111          1           0       21.540000   17.410000   25.400000
    112          1           0       21.430000   16.040000   24.760000
    113          8           0       23.040000   18.410000   14.760000
    114          1           0       23.530000   17.600000   14.880000
    115          1           0       22.180000   18.130000   14.430000
    116          8           0       18.400000   20.710000   26.430000
    117          1           0       18.410000   20.610000   27.390000
    118          1           0       18.530000   19.820000   26.100000
    119          8           0       15.450000   15.490000   18.180000
    120          1           0       15.290000   15.950000   19.000000
    121          1           0       16.060000   14.780000   18.410000
    122          8           0       13.580000   21.880000   17.520000
    123          1           0       14.010000   21.420000   16.810000
    124          1           0       14.260000   21.990000   18.190000
    125          8           0       20.460000   18.030000   13.710000
    126          1           0       19.530000   18.150000   13.940000
    127          1           0       20.480000   18.160000   12.760000
    128          8           0       23.010000   21.830000   13.520000
    129          1           0       23.650000   22.480000   13.830000
    130          1           0       22.770000   21.340000   14.310000
    131          8           0       13.290000   18.660000   18.840000
    132          1           0       13.470000   19.250000   18.110000
    133          1           0       13.510000   19.170000   19.620000
    134          8           0       15.070000   24.150000   21.330000
    135          1           0       14.170000   24.200000   20.990000
    136          1           0       15.370000   25.050000   21.330000
    137          8           0       25.190000   16.550000   22.450000
    138          1           0       25.940000   17.010000   22.820000
    139          1           0       25.560000   16.030000   21.740000
    140          8           0       17.080000   14.450000   23.740000
    141          1           0       17.580000   14.350000   22.940000
    142          1           0       16.170000   14.330000   23.480000
    143          8           0       20.620000   27.350000   18.690000
    144          1           0       19.930000   27.930000   18.370000
    145          1           0       20.540000   26.560000   18.160000
    146          8           0       21.920000   27.050000   22.050000
    147          1           0       22.750000   27.540000   22.020000
    148          1           0       22.190000   26.140000   22.140000
    149          8           0       22.760000   15.410000   15.600000
    150          1           0       21.850000   15.140000   15.470000
    151          1           0       23.260000   14.920000   14.940000
    152          8           0       15.640000   26.060000   18.260000
    153          1           0       16.000000   26.110000   19.140000
    154          1           0       15.890000   25.190000   17.950000
    155          8           0       20.070000   12.620000   17.880000
    156          1           0       19.540000   12.720000   18.670000
    157          1           0       20.640000   13.380000   17.880000
    158          8           0       13.780000   17.630000   22.170000
    159          1           0       13.120000   16.970000   21.980000
    160          1           0       13.400000   18.450000   21.860000
    161          8           0       27.050000   20.170000   22.410000
    162          1           0       26.790000   20.620000   21.610000
    163          1           0       26.860000   20.790000   23.110000
    164          8           0       26.650000   17.780000   20.030000
    165          1           0       26.800000   16.860000   20.260000
    166          1           0       26.860000   17.830000   19.100000
    167          8           0       25.140000   24.980000   17.150000
    168          1           0       25.140000   24.110000   17.530000
    169          1           0       25.230000   24.830000   16.200000
    170          8           0       25.260000   14.930000   17.820000
    171          1           0       25.070000   15.220000   18.710000
    172          1           0       24.740000   14.140000   17.700000
    173          8           0       18.970000   27.370000   21.630000
    174          1           0       19.000000   27.060000   22.530000
    175          1           0       19.760000   27.030000   21.220000
    176          8           0       17.400000   24.650000   25.590000
    177          1           0       17.390000   23.700000   25.540000
    178          1           0       18.000000   24.850000   26.310000
    179          8           0       21.840000   13.100000   21.070000
    180          1           0       22.690000   12.820000   20.740000
    181          1           0       21.850000   12.850000   21.990000
    182          8           0       20.230000   14.550000   15.230000
    183          1           0       19.750000   13.860000   15.700000
    184          1           0       19.550000   15.010000   14.730000
    185          8           0       24.550000   18.520000   26.470000
    186          1           0       23.810000   19.010000   26.130000
    187          1           0       24.430000   18.520000   27.420000
    188          8           0       16.790000   13.010000   18.680000
    189          1           0       17.150000   13.310000   19.510000
    190          1           0       16.370000   12.170000   18.880000
    191          8           0       20.900000   22.410000   27.570000
    192          1           0       20.430000   22.230000   28.380000
    193          1           0       21.010000   21.540000   27.160000
    194          8           0       13.460000   21.200000   23.280000
    195          1           0       13.130000   20.300000   23.310000
    196          1           0       12.700000   21.740000   23.460000
    197          8           0       13.930000   19.540000   25.620000
    198          1           0       14.200000   20.410000   25.910000
    199          1           0       14.680000   19.200000   25.140000
    200          8           0       15.630000   22.230000   26.340000
    201          1           0       15.810000   22.710000   25.530000
    202          1           0       16.170000   21.450000   26.290000
    203          8           0       20.830000   18.820000   27.620000
    204          1           0       20.960000   18.430000   28.480000
    205          1           0       20.040000   18.400000   27.280000
    206          8           0       18.120000   15.770000   14.110000
    207          1           0       17.240000   16.120000   13.960000
[...]
   Y335      54.53750   0.00385   0.00000  -0.00015  -0.00043  54.53706
   Z335      34.03397   0.00819   0.00000   0.00649   0.00610  34.04007
   X336      32.55998   0.00269   0.00000   0.00277   0.00213  32.56211
   Y336      55.46346   0.00222   0.00000   0.00122   0.00094  55.46440
   Z336      32.63557  -0.00393   0.00000  -0.00180  -0.00220  32.63337
   X337      31.84189  -0.00639   0.00000  -0.01029  -0.01085  31.83103
   Y337      52.81785  -0.01094   0.00000  -0.00836  -0.00865  52.80919
   Z337      33.46705  -0.00409   0.00000  -0.00315  -0.00350  33.46355
   X338      43.69047   0.00414   0.00000   0.00485   0.00517  43.69564
   Y338      25.41682  -0.02056   0.00000  -0.01324  -0.01289  25.40393
   Z338      48.71714  -0.00735   0.00000  -0.00442  -0.00430  48.71284
   X339      44.67313   0.01198   0.00000   0.00967   0.00994  44.68307
   Y339      26.92860   0.01527   0.00000   0.00839   0.00877  26.93737
   Z339      48.58486  -0.00671   0.00000  -0.01034  -0.01024  48.57462
   X340      42.29207  -0.00869   0.00000  -0.00292  -0.00261  42.28946
   Y340      25.88925   0.00005   0.00000  -0.00497  -0.00465  25.88460
   Z340      49.75649   0.01144   0.00000   0.01011   0.01022  49.76671
   X341      55.97369   0.01697   0.00000   0.00829   0.00826  55.98194
   Y341      36.52841  -0.00752   0.00000  -0.00281  -0.00218  36.52622
   Z341      41.06375  -0.01255   0.00000  -0.01049  -0.01053  41.05322
   X342      54.23514  -0.02034   0.00000  -0.01366  -0.01371  54.22143
   Y342      37.00084   0.00409   0.00000  -0.00052   0.00005  37.00089
   Z342      41.12044   0.01471   0.00000   0.02148   0.02143  41.14187
   X343      56.67289   0.00074   0.00000   0.00106   0.00100  56.67389
   Y343      37.18981   0.00298   0.00000   0.00075   0.00143  37.19124
   Z343      42.59443   0.00464   0.00000   0.00072   0.00067  42.59509
   X344      42.29207  -0.00163   0.00000   0.00384   0.00425  42.29632
   Y344      22.99797  -0.01117   0.00000  -0.01178  -0.01154  22.98643
   Z344      44.61643  -0.03118   0.00000  -0.02177  -0.02161  44.59482
   X345      43.16134   0.00283   0.00000  -0.00775  -0.00738  43.15397
   Y345      23.82945   0.01465   0.00000   0.01265   0.01294  23.84238
   Z345      45.97704   0.02184   0.00000   0.01272   0.01286  45.98990
   X346      41.10154  -0.00716   0.00000  -0.00735  -0.00691  41.09463
   Y346      21.92082  -0.00146   0.00000   0.00186   0.00206  21.92289
   Z346      45.44791   0.00469   0.00000   0.00084   0.00101  45.44893
   X347      45.88255  -0.00904   0.00000  -0.00544  -0.00591  45.87664
   Y347      49.30295   0.00523   0.00000   0.00024   0.00066  49.30361
   Z347      48.41478   0.00002   0.00000  -0.00204  -0.00231  48.41247
   X348      44.67313  -0.00182   0.00000  -0.00247  -0.00291  44.67022
   Y348      48.24471   0.00010   0.00000   0.00021   0.00060  48.24531
   Z348      49.28406   0.00192   0.00000   0.00319   0.00293  49.28699
   X349      47.24315   0.01110   0.00000   0.00969   0.00926  47.25241
   Y349      48.18802  -0.00702   0.00000  -0.00450  -0.00405  48.18397
   Z349      47.99904   0.00037   0.00000   0.00364   0.00339  48.00244
   X350      23.18694   0.00832   0.00000   0.00838   0.00806  23.19500
   Y350      44.95658  -0.00055   0.00000  -0.00987  -0.01026  44.94632
   Z350      45.22115   0.01778   0.00000   0.01370   0.01345  45.23460
   X351      21.59957  -0.00792   0.00000  -0.00799  -0.00830  21.59127
   Y351      44.44636  -0.00004   0.00000   0.00230   0.00187  44.44823
   Z351      45.92035   0.00100   0.00000   0.00067   0.00043  45.92078
   X352      23.18694  -0.00732   0.00000  -0.01111  -0.01141  23.17553
   Y352      44.29518   0.00279   0.00000   0.01254   0.01213  44.30731
   Z352      43.53929  -0.02094   0.00000  -0.01718  -0.01742  43.52187
   X353      21.88303   0.00161   0.00000  -0.00239  -0.00265  21.88038
   Y353      43.42591   0.00261   0.00000  -0.00155  -0.00206  43.42385
   Z353      40.53463   0.00973   0.00000   0.00690   0.00668  40.54131
   X354      21.35391   0.00462   0.00000   0.00957   0.00926  21.36317
   Y354      44.82430   0.00134   0.00000  -0.00020  -0.00074  44.82356
   Z354      39.49528  -0.00528   0.00000  -0.00567  -0.00592  39.48936
   X355      21.35391  -0.00461   0.00000  -0.00365  -0.00386  21.35004
   Y355      41.95192  -0.01083   0.00000  -0.00821  -0.00875  41.94317
   Z355      39.62756  -0.00892   0.00000  -0.00800  -0.00820  39.61936
   X356      32.82454   0.02162   0.00000   0.01929   0.01919  32.84373
   Y356      37.94570   0.00509   0.00000  -0.00034  -0.00025  37.94545
   Z356      55.12331   0.00470   0.00000   0.00508   0.00497  55.12828
   X357      32.25763  -0.01308   0.00000  -0.01496  -0.01503  32.24260
   Y357      36.66069  -0.00299   0.00000   0.00399   0.00404  36.66473
   Z357      53.97058  -0.00722   0.00000  -0.00506  -0.00515  53.96543
   X358      31.35056  -0.00579   0.00000   0.00062   0.00049  31.35105
   Y358      38.36144   0.00302   0.00000   0.00480   0.00486  38.36630
   Z358      56.08707  -0.00052   0.00000  -0.00472  -0.00484  56.08223
   X359      43.76606  -0.00593   0.00000  -0.00469  -0.00478  43.76128
   Y359      39.28741   0.00541   0.00000   0.00633   0.00621  39.29362
   Z359      20.46573  -0.02711   0.00000  -0.02062  -0.02073  20.44500
   X360      43.61488  -0.00078   0.00000  -0.00118  -0.00131  43.61357
   Y360      40.49683   0.00233   0.00000  -0.00390  -0.00400  40.49284
   Z360      21.78854   0.01510   0.00000   0.01134   0.01121  21.79976
   X361      44.37077   0.00414   0.00000   0.00181   0.00178  44.37254
   Y361      37.79452  -0.00531   0.00000   0.00204   0.00196  37.79648
   Z361      21.29721   0.00813   0.00000   0.00318   0.00310  21.30031
   X362      35.13001  -0.00234   0.00000  -0.00433  -0.00502  35.12499
   Y362      56.44612   0.00643   0.00000   0.00457   0.00446  56.45058
   Z362      38.66380  -0.01375   0.00000  -0.01041  -0.01081  38.65298
   X363      35.13001   0.00410   0.00000   0.00767   0.00703  35.13704
   Y363      54.76426  -0.00550   0.00000  -0.00041  -0.00050  54.76376
   Z363      39.36300   0.00725   0.00000   0.00676   0.00638  39.36938
   X364      34.80876   0.00137   0.00000   0.00401   0.00328  34.81203
   Y364      57.52326   0.00105   0.00000  -0.00047  -0.00056  57.52270
   Z364      40.08109   0.00598   0.00000   0.00409   0.00367  40.08476
   X365      38.62600   0.01331   0.00000   0.00196   0.00213  38.62813
   Y365      31.74740  -0.02524   0.00000  -0.02363  -0.02391  31.72349
   Z365      20.99486   0.00999   0.00000   0.00703   0.00704  21.00190
   X366      38.94726  -0.00026   0.00000   0.00064   0.00081  38.94806
   Y366      31.78519   0.00433   0.00000   0.00490   0.00461  31.78980
   Z366      19.21851  -0.00711   0.00000  -0.00244  -0.00244  19.21608
   X367      37.22760  -0.01108   0.00000   0.00025   0.00038  37.22799
   Y367      32.86234   0.02079   0.00000   0.01946   0.01914  32.88148
   Z367      21.24052  -0.00598   0.00000  -0.00970  -0.00972  21.23080
   X368      28.49707  -0.00542   0.00000  -0.00252  -0.00210  28.49497
   Y368      22.99797   0.01101   0.00000   0.00540   0.00510  23.00307
   Z368      39.98660  -0.01148   0.00000  -0.00765  -0.00753  39.97908
   X369      29.27186   0.00918   0.00000   0.00692   0.00739  29.27925
   Y369      21.54288  -0.01477   0.00000  -0.00921  -0.00948  21.53340
   Z369      40.68580   0.00608   0.00000   0.00200   0.00216  40.68796
   X370      27.98684   0.00057   0.00000   0.00165   0.00203  27.98888
   Y370      23.98062   0.00420   0.00000   0.00549   0.00519  23.98582
   Z370      41.42280   0.00184   0.00000  -0.00063  -0.00052  41.42228
   X371      41.53618   0.00028   0.00000   0.00329   0.00261  41.53879
   Y371      56.35163   0.01662   0.00000   0.01316   0.01324  56.36487
   Z371      36.66069  -0.00253   0.00000  -0.00515  -0.00555  36.65514
   X372      43.21804   0.00289   0.00000   0.00035  -0.00031  43.21772
   Y372      55.69023  -0.01004   0.00000  -0.01193  -0.01180  55.67843
   Z372      36.77407   0.00061   0.00000   0.00134   0.00096  36.77503
   X373      40.49683   0.00107   0.00000   0.00553   0.00489  40.50172
   Y373      54.89654  -0.00853   0.00000  -0.00470  -0.00466  54.89188
   Z373      36.35833   0.00446   0.00000   0.00937   0.00900  36.36733
   X374      35.86700  -0.02081   0.00000  -0.00891  -0.00935  35.85766
   Y374      47.90456   0.00202   0.00000  -0.00022  -0.00007  47.90449
   Z374      52.43990   0.00493   0.00000   0.00628   0.00601  52.44591
   X375      37.60555   0.02311   0.00000   0.01500   0.01458  37.62013
   Y375      47.48882  -0.00315   0.00000  -0.00090  -0.00070  47.48812
   Z375      52.25093  -0.01064   0.00000  -0.01520  -0.01546  52.23547
   X376      35.84810   0.00142   0.00000   0.00150   0.00100  35.84911
   Y376      49.71869   0.00159   0.00000   0.00147   0.00162  49.72031
   Z376      52.57218   0.00049   0.00000   0.00106   0.00076  52.57294
   X377      55.14221  -0.00702   0.00000  -0.00769  -0.00774  55.13447
   Y377      37.24650   0.00641   0.00000   0.01003   0.01055  37.25705
   Z377      36.09377  -0.00943   0.00000  -0.00316  -0.00321  36.09055
   X378      55.38787   0.00999   0.00000   0.01436   0.01431  55.40219
   Y378      37.07643  -0.00391   0.00000  -0.00625  -0.00569  37.07074
   Z378      37.88901   0.01063   0.00000   0.00585   0.00580  37.89480
   X379      56.61619   0.00174   0.00000   0.00143   0.00135  56.61754
   Y379      38.15357  -0.00079   0.00000  -0.00244  -0.00188  38.15169
   Z379      35.54575  -0.00253   0.00000  -0.00465  -0.00471  35.54104
   X380      19.25631   0.00199   0.00000   0.00897   0.00890  19.26521
   Y380      37.88901   0.02049   0.00000   0.02029   0.01966  37.90867
   Z380      38.47482  -0.00656   0.00000  -0.00017  -0.00031  38.47452
   X381      18.89726  -0.00222   0.00000  -0.00230  -0.00236  18.89490
   Y381      37.30319  -0.00845   0.00000  -0.00728  -0.00790  37.29529
   Z381      40.13778   0.00974   0.00000   0.00370   0.00357  40.14135
   X382      20.39014   0.00159   0.00000  -0.00418  -0.00421  20.38593
   Y382      36.66069  -0.01067   0.00000  -0.00879  -0.00940  36.65129
   Z382      37.77563  -0.00207   0.00000  -0.00115  -0.00127  37.77436
   X383      52.60998   0.02206   0.00000   0.01767   0.01796  52.62794
   Y383      27.09867  -0.00542   0.00000  -0.00571  -0.00534  27.09333
   Z383      31.82299   0.00395   0.00000   0.00581   0.00592  31.82890
   X384      51.68401  -0.00678   0.00000  -0.00500  -0.00466  51.67935
   Y384      25.71917   0.00023   0.00000   0.00390   0.00422  25.72339
   Z384      31.10489  -0.00301   0.00000  -0.00267  -0.00254  31.10235
   X385      51.36276  -0.01084   0.00000  -0.00608  -0.00582  51.35693
   Y385      28.34589   0.00080   0.00000  -0.00658  -0.00625  28.33964
   Z385      32.20093   0.00202   0.00000   0.00162   0.00171  32.20264
         Item               Value     Threshold  Converged?
 Maximum Force            0.041773     0.000450     NO 
 RMS     Force            0.010770     0.000300     NO 
 Maximum Displacement     0.030879     0.001800     NO 
 RMS     Displacement     0.008824     0.001200     NO 
 Predicted change in Energy=-7.615902D-02
 GradGradGradGradGradGradGradGradGradGradGradGradGradGradGradGradGradGrad

 Leave Link  103 at Tue May  8 12:18:37 2018, MaxMem= 14763950080 cpu:      3374.9
 (Enter /cm/shared/gaussian/g09.e01/intel64-sandybridge/g09/l9999.exe)
 1\1\GINC-POPLE01\Force\RPBE1PBE\CC-pVDZ\Br1H256O128(1-)\M.PELUSO\08-Ma
 y-2018\0\\#p PBE1PBE/cc-pvDZ force Counterpoise=2 noSymm\\forces on ch
 loride comput - NWATER: 128\\-1,1\Br,20.,20.,20.\O,19.93,19.31,17.04\H
 ,19.87,18.37,17.21\H,20.04,19.7,17.91\O,17.82,17.74,20.72\H,18.21,16.9
 7,20.32\H,18.35,18.47,20.4\O,22.98,21.01,19.21\H,22.08,20.73,19.37\H,2
 3.52,20.32,19.6\O,20.5,20.13,23.31\H,19.76,20.67,23.56\H,20.52,20.17,2
 2.35\O,18.94,23.17,19.6\H,18.87,23.5,20.5\H,19.43,22.35,19.69\O,21.38,
 16.98,20.19\H,21.84,16.68,20.98\H,21.19,17.9,20.35\O,16.77,20.63,19.39
 \H,16.25,19.82,19.42\H,17.54,20.44,19.92\O,21.98,22.86,21.43\H,22.,22.
 04,20.92\H,21.05,23.09,21.47\O,18.62,22.14,16.97\H,18.93,21.25,17.11\H
 ,18.68,22.55,17.84\O,22.4,17.91,22.79\H,22.12,18.81,22.65\H,23.34,17.9
 9,23.\O,18.35,17.36,23.4\H,18.1,17.7,22.54\H,19.09,16.78,23.22\O,18.93
 ,15.46,19.63\H,19.79,15.89,19.61\H,18.68,15.39,18.71\O,22.73,23.78,18.
 08\H,22.6,22.86,17.87\H,22.9,23.79,19.02\O,24.33,19.35,20.84\H,24.41,1
 9.54,21.77\H,24.9,18.59,20.7\O,20.29,21.15,14.97\H,20.24,20.39,15.55\H
 ,19.6,21.73,15.27\O,24.3,19.98,16.8\H,23.78,19.89,17.6\H,23.74,19.66,1
 6.1\O,15.86,23.08,18.79\H,16.25,22.21,18.73\H,16.09,23.39,19.66\O,18.6
 3,22.01,23.92\H,17.74,21.66,23.81\H,18.77,22.01,24.87\O,19.06,24.05,22
 .1\H,19.06,23.51,22.89\H,18.26,24.57,22.16\O,20.34,25.06,17.21\H,20.16
 ,24.49,17.96\H,21.05,24.62,16.74\O,18.04,16.29,17.02\H,18.,15.53,16.43
 \H,17.12,16.46,17.25\O,22.16,19.62,25.62\H,21.65,19.38,26.39\H,21.5,19
 .91,24.98\O,22.33,14.53,18.13\H,22.67,14.87,17.31\H,22.21,15.3,18.68\O
 ,25.85,22.09,20.07\H,25.24,21.39,20.27\H,25.83,22.17,19.12\O,14.1,20.9
 3,20.74\H,13.6,21.32,21.46\H,14.81,21.55,20.58\O,24.06,24.57,21.91\H,2
 3.44,23.95,21.5\H,24.58,24.9,21.18\O,23.17,23.35,24.4\H,23.55,24.08,23
 .91\H,23.04,22.66,23.74\O,19.08,13.97,21.8\H,19.94,13.61,21.58\H,18.88
 ,14.57,21.07\O,17.33,20.56,14.09\H,16.54,20.97,14.46\H,18.01,20.74,14.
 74\O,18.9,18.,26.11\H,18.85,17.94,25.16\H,18.9,17.1,26.41\O,24.3,19.96
 ,23.76\H,23.73,19.96,24.53\H,25.18,19.81,24.11\O,16.01,18.48,24.43\H,1
 5.7,18.53,23.52\H,16.79,17.92,24.38\O,15.69,22.61,23.68\H,15.8,22.93,2
 2.78\H,14.84,22.16,23.67\O,17.58,24.84,16.24\H,17.41,23.95,16.55\H,18.
 44,25.06,16.61\O,25.62,22.03,17.51\H,25.11,21.34,17.07\H,26.51,21.91,1
 7.2\O,15.38,15.62,21.07\H,15.16,16.47,21.45\H,14.94,14.99,21.63\O,21.6
 5,16.48,25.58\H,21.54,17.41,25.4\H,21.43,16.04,24.76\O,23.04,18.41,14.
 76\H,23.53,17.6,14.88\H,22.18,18.13,14.43\O,18.4,20.71,26.43\H,18.41,2
 0.61,27.39\H,18.53,19.82,26.1\O,15.45,15.49,18.18\H,15.29,15.95,19.\H,
 16.06,14.78,18.41\O,13.58,21.88,17.52\H,14.01,21.42,16.81\H,14.26,21.9
 9,18.19\O,20.46,18.03,13.71\H,19.53,18.15,13.94\H,20.48,18.16,12.76\O,
 23.01,21.83,13.52\H,23.65,22.48,13.83\H,22.77,21.34,14.31\O,13.29,18.6
 6,18.84\H,13.47,19.25,18.11\H,13.51,19.17,19.62\O,15.07,24.15,21.33\H,
 14.17,24.2,20.99\H,15.37,25.05,21.33\O,25.19,16.55,22.45\H,25.94,17.01
 ,22.82\H,25.56,16.03,21.74\O,17.08,14.45,23.74\H,17.58,14.35,22.94\H,1
 6.17,14.33,23.48\O,20.62,27.35,18.69\H,19.93,27.93,18.37\H,20.54,26.56
 ,18.16\O,21.92,27.05,22.05\H,22.75,27.54,22.02\H,22.19,26.14,22.14\O,2
 2.76,15.41,15.6\H,21.85,15.14,15.47\H,23.26,14.92,14.94\O,15.64,26.06,
 18.26\H,16.,26.11,19.14\H,15.89,25.19,17.95\O,20.07,12.62,17.88\H,19.5
 4,12.72,18.67\H,20.64,13.38,17.88\O,13.78,17.63,22.17\H,13.12,16.97,21
 .98\H,13.4,18.45,21.86\O,27.05,20.17,22.41\H,26.79,20.62,21.61\H,26.86
 ,20.79,23.11\O,26.65,17.78,20.03\H,26.8,16.86,20.26\H,26.86,17.83,19.1
 \O,25.14,24.98,17.15\H,25.14,24.11,17.53\H,25.23,24.83,16.2\O,25.26,14
 .93,17.82\H,25.07,15.22,18.71\H,24.74,14.14,17.7\O,18.97,27.37,21.63\H
 ,19.,27.06,22.53\H,19.76,27.03,21.22\O,17.4,24.65,25.59\H,17.39,23.7,2
 5.54\H,18.,24.85,26.31\O,21.84,13.1,21.07\H,22.69,12.82,20.74\H,21.85,
 12.85,21.99\O,20.23,14.55,15.23\H,19.75,13.86,15.7\H,19.55,15.01,14.73
 \O,24.55,18.52,26.47\H,23.81,19.01,26.13\H,24.43,18.52,27.42\O,16.79,1
 3.01,18.68\H,17.15,13.31,19.51\H,16.37,12.17,18.88\O,20.9,22.41,27.57\
 H,20.43,22.23,28.38\H,21.01,21.54,27.16\O,13.46,21.2,23.28\H,13.13,20.
 3,23.31\H,12.7,21.74,23.46\O,13.93,19.54,25.62\H,14.2,20.41,25.91\H,14
 .68,19.2,25.14\O,15.63,22.23,26.34\H,15.81,22.71,25.53\H,16.17,21.45,2
 6.29\O,20.83,18.82,27.62\H,20.96,18.43,28.48\H,20.04,18.4,27.28\O,18.1
 2,15.77,14.11\H,17.24,16.12,13.96\H,18.59,15.93,13.3\O,21.67,24.8,26.5
 \H,21.71,23.91,26.85\H,21.8,24.7,25.56\O,24.59,21.74,26.6\H,24.26,22.2
 4,27.34\H,24.23,22.18,25.83\O,27.4,23.32,21.88\H,26.84,22.9,21.23\H,28
 .29,23.06,21.65\O,16.13,26.44,20.84\H,15.6,26.84,21.53\H,16.99,26.86,2
 0.93\O,14.05,20.07,15.06\H,13.6,19.69,15.82\H,13.58,19.71,14.31\O,24.7
 ,15.5,24.93\H,25.,16.29,25.39\H,24.89,15.68,24.\O,19.42,21.62,12.12\H,
 18.91,22.3,12.57\H,20.3,21.71,12.47\O,18.48,15.15,26.24\H,17.79,15.12,
 25.57\H,18.02,14.99,27.06\O,13.67,16.34,16.21\H,14.23,15.86,16.82\H,12
 .86,16.49,16.7\O,13.12,24.77,19.36\H,13.07,25.73,19.36\H,13.8,24.58,18
 .71\O,24.36,19.01,12.45\H,23.93,18.99,13.3\H,24.84,18.17,12.4\O,23.82,
 27.07,18.87\H,24.38,26.52,18.32\H,22.98,27.08,18.42\O,16.52,18.68,12.3
 7\H,15.98,18.18,12.99\H,16.68,19.51,12.8\O,26.38,16.67,15.55\H,27.19,1
 6.89,16.\H,25.87,16.18,16.19\O,27.47,17.66,23.57\H,27.22,17.93,24.46\H
 ,27.22,18.4,23.02\O,23.33,12.13,17.38\H,22.95,12.91,17.79\H,23.51,11.5
 3,18.11\O,22.43,26.46,14.71\H,22.64,27.39,14.6\H,22.,26.42,15.57\O,15.
 44,16.37,14.42\H,14.68,16.36,15.01\H,15.14,15.88,13.65\O,19.03,26.79,2
 4.25\H,19.53,27.32,24.87\H,18.29,26.47,24.76\O,19.32,12.87,24.91\H,19.
 21,13.76,25.24\H,19.24,12.96,23.96\O,15.47,25.93,14.94\H,15.95,26.56,1
 4.39\H,16.12,25.6,15.55\O,20.02,11.09,20.71\H,20.5,11.89,20.51\H,20.61
 ,10.39,20.42\O,26.31,24.35,24.41\H,27.03,23.92,23.95\H,25.66,24.52,23.
 73\O,16.22,18.24,27.57\H,16.95,17.62,27.63\H,15.82,18.05,26.72\O,26.39
 ,25.91,21.21\H,26.38,24.95,21.26\H,27.27,26.16,21.49\O,27.61,18.12,17.
 66\H,27.56,18.72,16.91\H,28.08,18.61,18.33\O,26.43,14.78,20.81\H,26.98
 ,14.14,20.35\H,25.95,14.26,21.46\O,14.36,25.34,24.94\H,15.06,24.73,24.
 75\H,13.56,24.87,24.74\O,24.99,24.19,14.77\H,24.49,24.87,14.33\H,25.74
 ,24.03,14.19\O,26.75,20.01,25.15\H,26.15,20.51,25.7\H,27.12,19.35,25.7
 4\O,18.98,18.99,11.53\H,18.09,18.84,11.86\H,19.09,19.94,11.56\O,11.26,
 17.18,19.62\H,10.8,16.7,18.93\H,11.9,17.71,19.15\O,27.25,20.08,14.06\H
 ,26.36,19.81,14.28\H,27.19,20.44,13.18\O,20.85,24.98,12.92\H,21.29,25.
 54,13.56\H,21.55,24.64,12.37\O,18.16,24.2,12.47\H,19.07,24.48,12.62\H,
 17.65,24.71,13.11\O,11.76,22.71,15.93\H,12.36,22.33,16.57\H,12.01,23.6
 3,15.88\O,21.78,14.68,27.77\H,21.84,15.44,27.18\H,22.07,15.01,28.62\O,
 18.22,12.76,15.12\H,17.62,12.69,15.87\H,17.64,12.83,14.36\O,14.21,14.1
 9,23.02\H,13.53,14.86,23.03\H,13.86,13.47,23.54\O,24.4,28.05,21.72\H,2
 4.77,28.78,21.21\H,24.77,27.27,21.31\O,24.14,12.22,20.4\H,24.63,12.32,
 21.22\H,24.81,12.05,19.74\O,13.31,13.34,19.12\H,13.99,13.26,19.79\H,13
 .43,14.22,18.77\O,16.87,28.86,18.01\H,17.23,29.35,17.27\H,16.85,27.95,
 17.71\O,23.12,13.45,25.78\H,23.64,14.25,25.71\H,22.38,13.7,26.33\O,29.
 62,19.33,21.73\H,28.7,19.58,21.76\H,29.99,19.68,22.54\O,22.38,12.17,23
 .61\H,22.84,12.61,24.33\H,21.75,11.6,24.05\O,24.28,26.09,25.62\H,23.64
 ,25.53,26.08\H,25.,25.5,25.4\O,12.27,23.79,23.93\H,11.43,23.52,24.3\H,
 12.27,23.44,23.04\O,11.58,22.98,21.45\H,11.3,23.72,20.9\H,11.3,22.2,20
 .97\O,17.37,20.08,29.17\H,17.07,19.4,28.56\H,16.59,20.3,29.68\O,23.16,
 20.79,10.83\H,23.08,21.43,11.53\H,23.48,20.,11.27\O,18.59,29.87,20.46\
 H,18.59,28.98,20.83\H,18.42,30.44,21.21\O,20.44,16.8,11.11\H,20.61,16.
 82,10.17\H,19.7,17.39,11.24\O,15.08,12.17,21.16\H,15.49,11.4,21.53\H,1
 4.81,12.69,21.92\O,21.98,29.82,19.4\H,22.87,29.47,19.46\H,21.43,29.05,
 19.24\O,18.98,25.35,27.75\H,19.9,25.13,27.65\H,18.97,26.31,27.82\O,29.
 18,19.71,19.1\H,29.31,19.62,20.05\H,29.96,20.19,18.81\O,10.19,20.05,20
 .36\H,10.,19.74,21.24\H,10.79,19.4,19.99\O,27.84,14.34,16.84\H,27.35,1
 3.61,16.46\H,27.18,15.,17.04\\Version=ES64L-G09RevE.01\HF=-9773.366047
 1\RMSD=1.968e-09\RMSF=1.077e-02\Dipole=-0.8409602,-8.6530247,8.13577\Q
 uadrupole=100.9967197,-700.2313734,599.2346537,-1714.8297084,-1193.223
 5568,-1517.3629246\PG=C01 [X(Br1H256O128)]\\@


 SACRED COWS MAKE GREAT HAMBURGERS -- ROBERT REISNER
 Job cpu time:       6 days 14 hours 20 minutes 25.7 seconds.
 File lengths (MBytes):  RWF=   7285 Int=      0 D2E=      0 Chk=   2411 Scr=      1
 Normal termination of Gaussian 09 at Tue May  8 12:19:01 2018.
