 Entering Gaussian System, Link 0=/cm/shared/gaussian/g09.e01/intel64-sandybridge/g09/g09
 Initial command:
 /cm/shared/gaussian/g09.e01/intel64-sandybridge/g09/l1.exe "/local/scratch/m.peluso/32_wat/Gau-27074.inp" -scrdir="/local/scratch/m.peluso/32_wat/"
 Entering Link 1 = /cm/shared/gaussian/g09.e01/intel64-sandybridge/g09/l1.exe PID=     27075.
  
 Copyright (c) 1988,1990,1992,1993,1995,1998,2003,2009,2015,
            Gaussian, Inc.  All Rights Reserved.
  
 This is part of the Gaussian(R) 09 program.  It is based on
 the Gaussian(R) 03 system (copyright 2003, Gaussian, Inc.),
 the Gaussian(R) 98 system (copyright 1998, Gaussian, Inc.),
 the Gaussian(R) 94 system (copyright 1995, Gaussian, Inc.),
 the Gaussian 92(TM) system (copyright 1992, Gaussian, Inc.),
 the Gaussian 90(TM) system (copyright 1990, Gaussian, Inc.),
 the Gaussian 88(TM) system (copyright 1988, Gaussian, Inc.),
 the Gaussian 86(TM) system (copyright 1986, Carnegie Mellon
 University), and the Gaussian 82(TM) system (copyright 1983,
 Carnegie Mellon University). Gaussian is a federally registered
 trademark of Gaussian, Inc.
  
 This software contains proprietary and confidential information,
 including trade secrets, belonging to Gaussian, Inc.
  
 This software is provided under written license and may be
 used, copied, transmitted, or stored only in accord with that
 written license.
  
 The following legend is applicable only to US Government
 contracts under FAR:
  
                    RESTRICTED RIGHTS LEGEND
  
 Use, reproduction and disclosure by the US Government is
 subject to restrictions as set forth in subparagraphs (a)
 and (c) of the Commercial Computer Software - Restricted
 Rights clause in FAR 52.227-19.
  
 Gaussian, Inc.
 340 Quinnipiac St., Bldg. 40, Wallingford CT 06492
  
  
 ---------------------------------------------------------------
 Warning -- This program may not be used in any manner that
 competes with the business of Gaussian, Inc. or will provide
 assistance to any competitor of Gaussian, Inc.  The licensee
 of this program is prohibited from giving any competitor of
 Gaussian, Inc. access to this program.  By using this program,
 the user acknowledges that Gaussian, Inc. is engaged in the
 business of creating and licensing software in the field of
 computational chemistry and represents and warrants to the
 licensee that it is not a competitor of Gaussian, Inc. and that
 it will not use this program in any manner prohibited above.
 ---------------------------------------------------------------
  

 Cite this work as:
 Gaussian 09, Revision E.01,
 M. J. Frisch, G. W. Trucks, H. B. Schlegel, G. E. Scuseria, 
 M. A. Robb, J. R. Cheeseman, G. Scalmani, V. Barone, B. Mennucci, 
 G. A. Petersson, H. Nakatsuji, M. Caricato, X. Li, H. P. Hratchian, 
 A. F. Izmaylov, J. Bloino, G. Zheng, J. L. Sonnenberg, M. Hada, 
 M. Ehara, K. Toyota, R. Fukuda, J. Hasegawa, M. Ishida, T. Nakajima, 
 Y. Honda, O. Kitao, H. Nakai, T. Vreven, J. A. Montgomery, Jr., 
 J. E. Peralta, F. Ogliaro, M. Bearpark, J. J. Heyd, E. Brothers, 
 K. N. Kudin, V. N. Staroverov, T. Keith, R. Kobayashi, J. Normand, 
 K. Raghavachari, A. Rendell, J. C. Burant, S. S. Iyengar, J. Tomasi, 
 M. Cossi, N. Rega, J. M. Millam, M. Klene, J. E. Knox, J. B. Cross, 
 V. Bakken, C. Adamo, J. Jaramillo, R. Gomperts, R. E. Stratmann, 
 O. Yazyev, A. J. Austin, R. Cammi, C. Pomelli, J. W. Ochterski, 
 R. L. Martin, K. Morokuma, V. G. Zakrzewski, G. A. Voth, 
 P. Salvador, J. J. Dannenberg, S. Dapprich, A. D. Daniels, 
 O. Farkas, J. B. Foresman, J. V. Ortiz, J. Cioslowski, 
 and D. J. Fox, Gaussian, Inc., Wallingford CT, 2013.
 
 ******************************************
 Gaussian 09:  ES64L-G09RevE.01 30-Nov-2015
                 3-May-2018 
 ******************************************
 %Mem=110GB
 %NProcShared=64
 Will use up to   64 processors via shared memory.
 %chk=snap53.chk
 ----------------------------------------------
 #p PBE1PBE/cc-pvDZ force Counterpoise=2 noSymm
 ----------------------------------------------
 1/10=7,30=1,38=1,62=2/1,3;
 2/12=2,15=1,17=6,18=5,40=1/2;
 1/10=7,30=1,38=1,53=2,62=2,63=101/22;
 3/5=16,11=2,16=1,25=1,30=1,71=1,74=-13/1,2,3;
 4//1;
 5/5=2,38=5/2;
 6/7=2,8=2,9=2,10=2,28=1/1;
 7/7=1,29=1,30=1,33=-1/1,2,3,16;
 1/10=7,30=1,53=2,62=2,63=101/22;
 3/5=7,6=11,11=2,16=1,25=1,30=1,71=1,74=-13,82=7/1,2,3;
 4//1;
 5/5=2,38=5/2;
 6/7=2,8=2,9=2,10=2,28=1/1;
 7/7=1,29=1,30=1,33=-1/1,2,3,16;
 1/10=7,30=1,53=2,62=2,63=101/22(-5);
 7/9=1,29=1,44=-1/16;
 1/10=7,30=1,62=2/3;
 99//99;
 Leave Link    1 at Thu May  3 10:16:51 2018, MaxMem= 14763950080 cpu:         7.7
 (Enter /cm/shared/gaussian/g09.e01/intel64-sandybridge/g09/l101.exe)
 --------------------------------------
 forces on chloride comput - NWATER: 32
 --------------------------------------
 Symbolic Z-matrix:
 Charge = -1 Multiplicity = 1 in supermolecule
 Charge = -1 Multiplicity = 1 in fragment      1.
 Charge =  0 Multiplicity = 1 in fragment      2.
 Br(Fragment=1)        20.       20.       20. 
 O(Fragment=2)         18.24     18.       21.73 
 H(Fragment=2)         18.29     18.65     22.43 
 H(Fragment=2)         18.79     18.36     21.03 
 O(Fragment=2)         21.62     18.56     22.45 
 H(Fragment=2)         22.36     18.25     21.93 
 H(Fragment=2)         20.97     18.82     21.79 
 O(Fragment=2)         19.33     19.67     16.67 
 H(Fragment=2)         19.35     20.01     17.56 
 H(Fragment=2)         18.56     19.1      16.65 
 O(Fragment=2)         17.12     21.93     19.94 
 H(Fragment=2)         17.51     22.8      19.92 
 H(Fragment=2)         17.84     21.34     19.74 
 O(Fragment=2)         18.7      20.85     22.98 
 H(Fragment=2)         18.85     21.09     22.07 
 H(Fragment=2)         19.2      21.5      23.49 
 O(Fragment=2)         18.96     16.78     18.93 
 H(Fragment=2)         18.98     17.73     18.85 
 H(Fragment=2)         18.03     16.56     18.81 
 O(Fragment=2)         23.47     18.86     19.72 
 H(Fragment=2)         22.77     19.52     19.73 
 H(Fragment=2)         23.16     18.2      19.1 
 O(Fragment=2)         21.02     22.87     18.75 
 H(Fragment=2)         20.7      23.62     18.25 
 H(Fragment=2)         20.37     22.75     19.44 
 O(Fragment=2)         21.77     17.32     18.16 
 H(Fragment=2)         21.13     18.01     18.29 
 H(Fragment=2)         21.47     16.6      18.71 
 O(Fragment=2)         21.72     21.58     23.12 
 H(Fragment=2)         21.83     22.08     22.31 
 H(Fragment=2)         22.16     20.75     22.95 
 O(Fragment=2)         23.01     21.33     17.22 
 H(Fragment=2)         23.11     21.74     16.36 
 H(Fragment=2)         22.1      21.49     17.45 
 O(Fragment=2)         19.21     22.52     15.75 
 H(Fragment=2)         18.75     21.97     15.11 
 H(Fragment=2)         19.61     21.89     16.36 
 O(Fragment=2)         21.85     23.85     21.37 
 H(Fragment=2)         22.16     24.75     21.48 
 H(Fragment=2)         21.8      23.72     20.42 
 O(Fragment=2)         15.19     18.87     21.31 
 H(Fragment=2)         14.89     19.66     20.87 
 H(Fragment=2)         16.13     18.85     21.15 
 O(Fragment=2)         18.8      15.61     22.95 
 H(Fragment=2)         17.91     15.36     23.18 
 H(Fragment=2)         18.71     16.41     22.44 
 O(Fragment=2)         21.38     19.23     14.89 
 H(Fragment=2)         20.66     19.35     15.51 
 H(Fragment=2)         22.16     19.48     15.38 
 O(Fragment=2)         25.2      19.15     21.69 
 H(Fragment=2)         25.49     19.98     21.29 
 H(Fragment=2)         24.38     18.94     21.25 
 O(Fragment=2)         19.66     23.48     23.45 
 H(Fragment=2)         19.76     24.08     22.71 
 H(Fragment=2)         20.51     23.05     23.53 
 O(Fragment=2)         17.21     18.13     16.67 
 H(Fragment=2)         16.31     18.31     16.38 
 H(Fragment=2)         17.22     17.19     16.84 
 O(Fragment=2)         25.12     21.6      20.34 
 H(Fragment=2)         25.44     22.26     20.96 
 H(Fragment=2)         24.36     22.       19.92 
 O(Fragment=2)         20.37     14.64     20.86 
 H(Fragment=2)         19.74     14.75     21.57 
 H(Fragment=2)         19.96     15.07     20.11 
 O(Fragment=2)         17.36     18.94     24.5 
 H(Fragment=2)         16.46     18.94     24.17 
 H(Fragment=2)         17.66     19.84     24.36 
 O(Fragment=2)         14.45     20.68     19.6 
 H(Fragment=2)         15.22     21.23     19.43 
 H(Fragment=2)         14.25     20.29     18.75 
 O(Fragment=2)         16.32     22.64     23.92 
 H(Fragment=2)         16.78     22.28     23.16 
 H(Fragment=2)         16.28     23.58     23.75 
 O(Fragment=2)         23.87     15.94     22.03 
 H(Fragment=2)         23.65     15.01     21.94 
 H(Fragment=2)         23.28     16.38     21.41 
 O(Fragment=2)         18.24     24.67     18.5 
 H(Fragment=2)         18.9      24.83     17.83 
 H(Fragment=2)         18.36     25.36     19.15 
 O(Fragment=2)         24.15     18.28     16.1 
 H(Fragment=2)         24.05     18.67     16.97 
 H(Fragment=2)         23.96     17.36     16.22 
 O(Fragment=2)         21.65     19.28     25.73 
 H(Fragment=2)         21.63     18.88     24.86 
 H(Fragment=2)         21.71     18.53     26.33 
 O(Fragment=2)         22.5      15.96     16.01 
 H(Fragment=2)         22.14     15.1      16.2 
 H(Fragment=2)         22.19     16.52     16.72 
 O(Fragment=2)         23.43     24.83     18.86 
 H(Fragment=2)         23.4      24.01     18.38 
 H(Fragment=2)         24.21     24.76     19.42 
 O(Fragment=2)         15.51     23.95     18.06 
 H(Fragment=2)         16.38     23.96     18.47 
 H(Fragment=2)         14.91     24.21     18.76 
 O(Fragment=2)         20.23     24.83     16.74 
 H(Fragment=2)         20.05     24.08     16.17 
 H(Fragment=2)         21.       25.24     16.37 
 
 NAtoms=     97 NQM=       97 NQMF=       0 NMMI=      0 NMMIF=      0
                NMic=       0 NMicF=      0.
                    Isotopes and Nuclear Properties:
 (Nuclear quadrupole moments (NQMom) in fm**2, nuclear magnetic moments (NMagM)
  in nuclear magnetons)

  Atom         1           2           3           4           5           6           7           8           9          10
 IAtWgt=          79          16           1           1          16           1           1          16           1           1
 AtmWgt=  78.9183361  15.9949146   1.0078250   1.0078250  15.9949146   1.0078250   1.0078250  15.9949146   1.0078250   1.0078250
 NucSpn=           3           0           1           1           0           1           1           0           1           1
 AtZEff=   0.0000000   0.0000000   0.0000000   0.0000000   0.0000000   0.0000000   0.0000000   0.0000000   0.0000000   0.0000000
 NQMom=   31.3000000   0.0000000   0.0000000   0.0000000   0.0000000   0.0000000   0.0000000   0.0000000   0.0000000   0.0000000
 NMagM=    2.1063990   0.0000000   2.7928460   2.7928460   0.0000000   2.7928460   2.7928460   0.0000000   2.7928460   2.7928460
 AtZNuc=  35.0000000   8.0000000   1.0000000   1.0000000   8.0000000   1.0000000   1.0000000   8.0000000   1.0000000   1.0000000

  Atom        11          12          13          14          15          16          17          18          19          20
 IAtWgt=          16           1           1          16           1           1          16           1           1          16
 AtmWgt=  15.9949146   1.0078250   1.0078250  15.9949146   1.0078250   1.0078250  15.9949146   1.0078250   1.0078250  15.9949146
 NucSpn=           0           1           1           0           1           1           0           1           1           0
 AtZEff=   0.0000000   0.0000000   0.0000000   0.0000000   0.0000000   0.0000000   0.0000000   0.0000000   0.0000000   0.0000000
 NQMom=    0.0000000   0.0000000   0.0000000   0.0000000   0.0000000   0.0000000   0.0000000   0.0000000   0.0000000   0.0000000
 NMagM=    0.0000000   2.7928460   2.7928460   0.0000000   2.7928460   2.7928460   0.0000000   2.7928460   2.7928460   0.0000000
 AtZNuc=   8.0000000   1.0000000   1.0000000   8.0000000   1.0000000   1.0000000   8.0000000   1.0000000   1.0000000   8.0000000

  Atom        21          22          23          24          25          26          27          28          29          30
 IAtWgt=           1           1          16           1           1          16           1           1          16           1
 AtmWgt=   1.0078250   1.0078250  15.9949146   1.0078250   1.0078250  15.9949146   1.0078250   1.0078250  15.9949146   1.0078250
 NucSpn=           1           1           0           1           1           0           1           1           0           1
 AtZEff=   0.0000000   0.0000000   0.0000000   0.0000000   0.0000000   0.0000000   0.0000000   0.0000000   0.0000000   0.0000000
 NQMom=    0.0000000   0.0000000   0.0000000   0.0000000   0.0000000   0.0000000   0.0000000   0.0000000   0.0000000   0.0000000
 NMagM=    2.7928460   2.7928460   0.0000000   2.7928460   2.7928460   0.0000000   2.7928460   2.7928460   0.0000000   2.7928460
 AtZNuc=   1.0000000   1.0000000   8.0000000   1.0000000   1.0000000   8.0000000   1.0000000   1.0000000   8.0000000   1.0000000

  Atom        31          32          33          34          35          36          37          38          39          40
 IAtWgt=           1          16           1           1          16           1           1          16           1           1
 AtmWgt=   1.0078250  15.9949146   1.0078250   1.0078250  15.9949146   1.0078250   1.0078250  15.9949146   1.0078250   1.0078250
 NucSpn=           1           0           1           1           0           1           1           0           1           1
 AtZEff=   0.0000000   0.0000000   0.0000000   0.0000000   0.0000000   0.0000000   0.0000000   0.0000000   0.0000000   0.0000000
 NQMom=    0.0000000   0.0000000   0.0000000   0.0000000   0.0000000   0.0000000   0.0000000   0.0000000   0.0000000   0.0000000
 NMagM=    2.7928460   0.0000000   2.7928460   2.7928460   0.0000000   2.7928460   2.7928460   0.0000000   2.7928460   2.7928460
 AtZNuc=   1.0000000   8.0000000   1.0000000   1.0000000   8.0000000   1.0000000   1.0000000   8.0000000   1.0000000   1.0000000

  Atom        41          42          43          44          45          46          47          48          49          50
 IAtWgt=          16           1           1          16           1           1          16           1           1          16
 AtmWgt=  15.9949146   1.0078250   1.0078250  15.9949146   1.0078250   1.0078250  15.9949146   1.0078250   1.0078250  15.9949146
 NucSpn=           0           1           1           0           1           1           0           1           1           0
 AtZEff=   0.0000000   0.0000000   0.0000000   0.0000000   0.0000000   0.0000000   0.0000000   0.0000000   0.0000000   0.0000000
 NQMom=    0.0000000   0.0000000   0.0000000   0.0000000   0.0000000   0.0000000   0.0000000   0.0000000   0.0000000   0.0000000
 NMagM=    0.0000000   2.7928460   2.7928460   0.0000000   2.7928460   2.7928460   0.0000000   2.7928460   2.7928460   0.0000000
 AtZNuc=   8.0000000   1.0000000   1.0000000   8.0000000   1.0000000   1.0000000   8.0000000   1.0000000   1.0000000   8.0000000

  Atom        51          52          53          54          55          56          57          58          59          60
 IAtWgt=           1           1          16           1           1          16           1           1          16           1
 AtmWgt=   1.0078250   1.0078250  15.9949146   1.0078250   1.0078250  15.9949146   1.0078250   1.0078250  15.9949146   1.0078250
 NucSpn=           1           1           0           1           1           0           1           1           0           1
 AtZEff=   0.0000000   0.0000000   0.0000000   0.0000000   0.0000000   0.0000000   0.0000000   0.0000000   0.0000000   0.0000000
 NQMom=    0.0000000   0.0000000   0.0000000   0.0000000   0.0000000   0.0000000   0.0000000   0.0000000   0.0000000   0.0000000
 NMagM=    2.7928460   2.7928460   0.0000000   2.7928460   2.7928460   0.0000000   2.7928460   2.7928460   0.0000000   2.7928460
 AtZNuc=   1.0000000   1.0000000   8.0000000   1.0000000   1.0000000   8.0000000   1.0000000   1.0000000   8.0000000   1.0000000

  Atom        61          62          63          64          65          66          67          68          69          70
 IAtWgt=           1          16           1           1          16           1           1          16           1           1
 AtmWgt=   1.0078250  15.9949146   1.0078250   1.0078250  15.9949146   1.0078250   1.0078250  15.9949146   1.0078250   1.0078250
 NucSpn=           1           0           1           1           0           1           1           0           1           1
 AtZEff=   0.0000000   0.0000000   0.0000000   0.0000000   0.0000000   0.0000000   0.0000000   0.0000000   0.0000000   0.0000000
 NQMom=    0.0000000   0.0000000   0.0000000   0.0000000   0.0000000   0.0000000   0.0000000   0.0000000   0.0000000   0.0000000
 NMagM=    2.7928460   0.0000000   2.7928460   2.7928460   0.0000000   2.7928460   2.7928460   0.0000000   2.7928460   2.7928460
 AtZNuc=   1.0000000   8.0000000   1.0000000   1.0000000   8.0000000   1.0000000   1.0000000   8.0000000   1.0000000   1.0000000

  Atom        71          72          73          74          75          76          77          78          79          80
 IAtWgt=          16           1           1          16           1           1          16           1           1          16
 AtmWgt=  15.9949146   1.0078250   1.0078250  15.9949146   1.0078250   1.0078250  15.9949146   1.0078250   1.0078250  15.9949146
 NucSpn=           0           1           1           0           1           1           0           1           1           0
 AtZEff=   0.0000000   0.0000000   0.0000000   0.0000000   0.0000000   0.0000000   0.0000000   0.0000000   0.0000000   0.0000000
 NQMom=    0.0000000   0.0000000   0.0000000   0.0000000   0.0000000   0.0000000   0.0000000   0.0000000   0.0000000   0.0000000
 NMagM=    0.0000000   2.7928460   2.7928460   0.0000000   2.7928460   2.7928460   0.0000000   2.7928460   2.7928460   0.0000000
 AtZNuc=   8.0000000   1.0000000   1.0000000   8.0000000   1.0000000   1.0000000   8.0000000   1.0000000   1.0000000   8.0000000

  Atom        81          82          83          84          85          86          87          88          89          90
 IAtWgt=           1           1          16           1           1          16           1           1          16           1
 AtmWgt=   1.0078250   1.0078250  15.9949146   1.0078250   1.0078250  15.9949146   1.0078250   1.0078250  15.9949146   1.0078250
 NucSpn=           1           1           0           1           1           0           1           1           0           1
 AtZEff=   0.0000000   0.0000000   0.0000000   0.0000000   0.0000000   0.0000000   0.0000000   0.0000000   0.0000000   0.0000000
 NQMom=    0.0000000   0.0000000   0.0000000   0.0000000   0.0000000   0.0000000   0.0000000   0.0000000   0.0000000   0.0000000
 NMagM=    2.7928460   2.7928460   0.0000000   2.7928460   2.7928460   0.0000000   2.7928460   2.7928460   0.0000000   2.7928460
 AtZNuc=   1.0000000   1.0000000   8.0000000   1.0000000   1.0000000   8.0000000   1.0000000   1.0000000   8.0000000   1.0000000

  Atom        91          92          93          94          95          96          97
 IAtWgt=           1          16           1           1          16           1           1
 AtmWgt=   1.0078250  15.9949146   1.0078250   1.0078250  15.9949146   1.0078250   1.0078250
 NucSpn=           1           0           1           1           0           1           1
 AtZEff=   0.0000000   0.0000000   0.0000000   0.0000000   0.0000000   0.0000000   0.0000000
 NQMom=    0.0000000   0.0000000   0.0000000   0.0000000   0.0000000   0.0000000   0.0000000
 NMagM=    2.7928460   0.0000000   2.7928460   2.7928460   0.0000000   2.7928460   2.7928460
 AtZNuc=   1.0000000   8.0000000   1.0000000   1.0000000   8.0000000   1.0000000   1.0000000
 Leave Link  101 at Thu May  3 10:16:51 2018, MaxMem= 14763950080 cpu:        15.0
 (Enter /cm/shared/gaussian/g09.e01/intel64-sandybridge/g09/l103.exe)

 GradGradGradGradGradGradGradGradGradGradGradGradGradGradGradGradGradGrad
 Berny optimization.
 Initialization pass.
 Trust Radius=3.00D-01 FncErr=1.00D-07 GrdErr=1.00D-07
 Number of steps in this run=      2 maximum allowed number of steps=      2.
 GradGradGradGradGradGradGradGradGradGradGradGradGradGradGradGradGradGrad

 Leave Link  103 at Thu May  3 10:16:51 2018, MaxMem= 14763950080 cpu:         2.3
 (Enter /cm/shared/gaussian/g09.e01/intel64-sandybridge/g09/l202.exe)
 Symmetry turned off by external request.
 Stoichiometry    BrH64O32(1-)
 Framework group  C1[X(BrH64O32)]
 Deg. of freedom   285
 Full point group                 C1      NOp   1
                          Input orientation:                          
 ---------------------------------------------------------------------
 Center     Atomic      Atomic             Coordinates (Angstroms)
 Number     Number       Type             X           Y           Z
 ---------------------------------------------------------------------
      1         35           0       20.000000   20.000000   20.000000
      2          8           0       18.240000   18.000000   21.730000
      3          1           0       18.290000   18.650000   22.430000
      4          1           0       18.790000   18.360000   21.030000
      5          8           0       21.620000   18.560000   22.450000
      6          1           0       22.360000   18.250000   21.930000
      7          1           0       20.970000   18.820000   21.790000
      8          8           0       19.330000   19.670000   16.670000
      9          1           0       19.350000   20.010000   17.560000
     10          1           0       18.560000   19.100000   16.650000
     11          8           0       17.120000   21.930000   19.940000
     12          1           0       17.510000   22.800000   19.920000
     13          1           0       17.840000   21.340000   19.740000
     14          8           0       18.700000   20.850000   22.980000
     15          1           0       18.850000   21.090000   22.070000
     16          1           0       19.200000   21.500000   23.490000
     17          8           0       18.960000   16.780000   18.930000
     18          1           0       18.980000   17.730000   18.850000
     19          1           0       18.030000   16.560000   18.810000
     20          8           0       23.470000   18.860000   19.720000
     21          1           0       22.770000   19.520000   19.730000
     22          1           0       23.160000   18.200000   19.100000
     23          8           0       21.020000   22.870000   18.750000
     24          1           0       20.700000   23.620000   18.250000
     25          1           0       20.370000   22.750000   19.440000
     26          8           0       21.770000   17.320000   18.160000
     27          1           0       21.130000   18.010000   18.290000
     28          1           0       21.470000   16.600000   18.710000
     29          8           0       21.720000   21.580000   23.120000
     30          1           0       21.830000   22.080000   22.310000
     31          1           0       22.160000   20.750000   22.950000
     32          8           0       23.010000   21.330000   17.220000
     33          1           0       23.110000   21.740000   16.360000
     34          1           0       22.100000   21.490000   17.450000
     35          8           0       19.210000   22.520000   15.750000
     36          1           0       18.750000   21.970000   15.110000
     37          1           0       19.610000   21.890000   16.360000
     38          8           0       21.850000   23.850000   21.370000
     39          1           0       22.160000   24.750000   21.480000
     40          1           0       21.800000   23.720000   20.420000
     41          8           0       15.190000   18.870000   21.310000
     42          1           0       14.890000   19.660000   20.870000
     43          1           0       16.130000   18.850000   21.150000
     44          8           0       18.800000   15.610000   22.950000
     45          1           0       17.910000   15.360000   23.180000
     46          1           0       18.710000   16.410000   22.440000
     47          8           0       21.380000   19.230000   14.890000
     48          1           0       20.660000   19.350000   15.510000
     49          1           0       22.160000   19.480000   15.380000
     50          8           0       25.200000   19.150000   21.690000
     51          1           0       25.490000   19.980000   21.290000
     52          1           0       24.380000   18.940000   21.250000
     53          8           0       19.660000   23.480000   23.450000
     54          1           0       19.760000   24.080000   22.710000
     55          1           0       20.510000   23.050000   23.530000
     56          8           0       17.210000   18.130000   16.670000
     57          1           0       16.310000   18.310000   16.380000
     58          1           0       17.220000   17.190000   16.840000
     59          8           0       25.120000   21.600000   20.340000
     60          1           0       25.440000   22.260000   20.960000
     61          1           0       24.360000   22.000000   19.920000
     62          8           0       20.370000   14.640000   20.860000
     63          1           0       19.740000   14.750000   21.570000
     64          1           0       19.960000   15.070000   20.110000
     65          8           0       17.360000   18.940000   24.500000
     66          1           0       16.460000   18.940000   24.170000
     67          1           0       17.660000   19.840000   24.360000
     68          8           0       14.450000   20.680000   19.600000
     69          1           0       15.220000   21.230000   19.430000
     70          1           0       14.250000   20.290000   18.750000
     71          8           0       16.320000   22.640000   23.920000
     72          1           0       16.780000   22.280000   23.160000
     73          1           0       16.280000   23.580000   23.750000
     74          8           0       23.870000   15.940000   22.030000
     75          1           0       23.650000   15.010000   21.940000
     76          1           0       23.280000   16.380000   21.410000
     77          8           0       18.240000   24.670000   18.500000
     78          1           0       18.900000   24.830000   17.830000
     79          1           0       18.360000   25.360000   19.150000
     80          8           0       24.150000   18.280000   16.100000
     81          1           0       24.050000   18.670000   16.970000
     82          1           0       23.960000   17.360000   16.220000
     83          8           0       21.650000   19.280000   25.730000
     84          1           0       21.630000   18.880000   24.860000
     85          1           0       21.710000   18.530000   26.330000
     86          8           0       22.500000   15.960000   16.010000
     87          1           0       22.140000   15.100000   16.200000
     88          1           0       22.190000   16.520000   16.720000
     89          8           0       23.430000   24.830000   18.860000
     90          1           0       23.400000   24.010000   18.380000
     91          1           0       24.210000   24.760000   19.420000
     92          8           0       15.510000   23.950000   18.060000
     93          1           0       16.380000   23.960000   18.470000
     94          1           0       14.910000   24.210000   18.760000
     95          8           0       20.230000   24.830000   16.740000
     96          1           0       20.050000   24.080000   16.170000
     97          1           0       21.000000   25.240000   16.370000
 ---------------------------------------------------------------------
 Rotational constants (GHZ):      0.0581033      0.0558588      0.0491826
 Leave Link  202 at Thu May  3 10:16:51 2018, MaxMem= 14763950080 cpu:         0.6
 (Enter /cm/shared/gaussian/g09.e01/intel64-sandybridge/g09/l122.exe)
 Counterpoise: doing full dimer calculation.
 Leave Link  122 at Thu May  3 10:16:51 2018, MaxMem= 14763950080 cpu:         0.1
 (Enter /cm/shared/gaussian/g09.e01/intel64-sandybridge/g09/l301.exe)
 Standard basis: CC-pVDZ (5D, 7F)
 Ernie: Thresh=  0.10000D-02 Tol=  0.10000D-05 Strict=F.
 Ernie:  87 primitive shells out of 1114 were deleted.
   795 basis functions,  1651 primitive gaussians,   829 cartesian basis functions
   178 alpha electrons      178 beta electrons
       nuclear repulsion energy      6088.1584214461 Hartrees.
 IExCor= 1009 DFT=T Ex+Corr=PBE1PBE ExCW=0 ScaHFX=  0.250000
 ScaDFX=  0.750000  0.750000  1.000000  1.000000 ScalE2=  1.000000  1.000000
 IRadAn=      0 IRanWt=     -1 IRanGd=            0 ICorTp=0 IEmpDi=  4
 NAtoms=   97 NActive=   97 NUniq=   97 SFac= 1.00D+00 NAtFMM=   60 NAOKFM=T Big=T
 Integral buffers will be    131072 words long.
 Raffenetti 2 integral format.
 Two-electron integral symmetry is turned off.
 Leave Link  301 at Thu May  3 10:16:51 2018, MaxMem= 14763950080 cpu:         6.5
 (Enter /cm/shared/gaussian/g09.e01/intel64-sandybridge/g09/l302.exe)
 NPDir=0 NMtPBC=     1 NCelOv=     1 NCel=       1 NClECP=     1 NCelD=      1
         NCelK=      1 NCelE2=     1 NClLst=     1 CellRange=     0.0.
 One-electron integrals computed using PRISM.
 NBasis=   795 RedAO= T EigKep=  1.73D-02  NBF=   795
 NBsUse=   795 1.00D-06 EigRej= -1.00D+00 NBFU=   795
 Precomputing XC quadrature grid using
 IXCGrd= 4 IRadAn=           0 IRanWt=          -1 IRanGd=           0 AccXCQ= 0.00D+00.
 Generated NRdTot=       0 NPtTot=           0 NUsed=           0 NTot=          32
 NSgBfM=   700   723   726   730   733 MxSgAt=    97 MxSgA2=    97.
 Leave Link  302 at Thu May  3 10:16:59 2018, MaxMem= 14763950080 cpu:       466.4
 (Enter /cm/shared/gaussian/g09.e01/intel64-sandybridge/g09/l303.exe)
 DipDrv:  MaxL=1.
 Leave Link  303 at Thu May  3 10:16:59 2018, MaxMem= 14763950080 cpu:        30.8
 (Enter /cm/shared/gaussian/g09.e01/intel64-sandybridge/g09/l401.exe)
 ExpMin= 1.22D-01 ExpMax= 6.40D+05 ExpMxC= 6.18D+03 IAcc=2 IRadAn=         4 AccDes= 0.00D+00
 Harris functional with IExCor= 1009 and IRadAn=       4 diagonalized for initial guess.
 HarFok:  IExCor= 1009 AccDes= 0.00D+00 IRadAn=         4 IDoV= 1 UseB2=F ITyADJ=14
 ICtDFT=  3500011 ScaDFX=  1.000000  1.000000  1.000000  1.000000
 FoFCou: FMM=F IPFlag=           0 FMFlag=      100000 FMFlg1=        2001
         NFxFlg=           0 DoJE=T BraDBF=F KetDBF=T FulRan=T
         wScrn=  0.000000 ICntrl=     500 IOpCl=  0 I1Cent=   200000004 NGrid=           0
         NMat0=    1 NMatS0=      1 NMatT0=    0 NMatD0=    1 NMtDS0=    0 NMtDT0=    0
 Symmetry not used in FoFCou.
 Harris En= -5018.43649845392    
 JPrj=0 DoOrth=F DoCkMO=F.
 Leave Link  401 at Thu May  3 10:17:04 2018, MaxMem= 14763950080 cpu:       325.9
 (Enter /cm/shared/gaussian/g09.e01/intel64-sandybridge/g09/l502.exe)
 Closed shell SCF:
 Using DIIS extrapolation, IDIIS=  1040.
 Two-electron integral symmetry not used.
 IVT=     2138497 IEndB=     2138497 NGot= 14763950080 MDV= 14762516294
 LenX= 14762516294 LenY= 14761828224
 Requested convergence on RMS density matrix=1.00D-08 within 128 cycles.
 Requested convergence on MAX density matrix=1.00D-06.
 Requested convergence on             energy=1.00D-06.
 No special actions if energy rises.
 Fock matrices will be formed incrementally for  20 cycles.
 Integral accuracy reduced to 1.0D-05 until final iterations.

 Cycle   1  Pass 0  IDiag  1:
 FoFJK:  IHMeth= 1 ICntrl=       0 DoSepK=F KAlg= 0 I1Cent=   0 FoldK=F
 IRaf= 820000000 NMat=   1 IRICut=       1 DoRegI=T DoRafI=F ISym2E= 0.
 FoFCou: FMM=T IPFlag=           0 FMFlag=      100000 FMFlg1=        2001
         NFxFlg=           0 DoJE=F BraDBF=F KetDBF=F FulRan=T
         wScrn=  0.000000 ICntrl=       0 IOpCl=  0 I1Cent=           0 NGrid=           0
         NMat0=    1 NMatS0=      1 NMatT0=    0 NMatD0=    1 NMtDS0=    0 NMtDT0=    0
 Symmetry not used in FoFCou.
 FMM levels:  10  Number of levels for PrismC:   9
 E= -5015.24655619429    
 DIIS: error= 5.35D-02 at cycle   1 NSaved=   1.
 NSaved= 1 IEnMin= 1 EnMin= -5015.24655619429     IErMin= 1 ErrMin= 5.35D-02
 ErrMax= 5.35D-02  0.00D+00 EMaxC= 1.00D-01 BMatC= 2.76D+00 BMatP= 2.76D+00
 IDIUse=3 WtCom= 4.65D-01 WtEn= 5.35D-01
 Coeff-Com:  0.100D+01
 Coeff-En:   0.100D+01
 Coeff:      0.100D+01
 Gap=     0.299 Goal=   None    Shift=    0.000
 GapD=    0.299 DampG=1.000 DampE=0.500 DampFc=0.5000 IDamp=-1.
 Damping current iteration by 5.00D-01
 RMSDP=2.91D-03 MaxDP=1.63D-01              OVMax= 1.78D-01

 Cycle   2  Pass 0  IDiag  1:
 RMSU=  1.44D-03    CP:  9.85D-01
 E= -5016.04429247890     Delta-E=       -0.797736284610 Rises=F Damp=T
 DIIS: error= 9.15D-03 at cycle   2 NSaved=   2.
 NSaved= 2 IEnMin= 2 EnMin= -5016.04429247890     IErMin= 2 ErrMin= 9.15D-03
 ErrMax= 9.15D-03  0.00D+00 EMaxC= 1.00D-01 BMatC= 9.21D-02 BMatP= 2.76D+00
 IDIUse=3 WtCom= 9.08D-01 WtEn= 9.15D-02
 Coeff-Com:  0.123D+00 0.877D+00
 Coeff-En:   0.221D+00 0.779D+00
 Coeff:      0.132D+00 0.868D+00
 Gap=     0.188 Goal=   None    Shift=    0.000
 RMSDP=3.73D-04 MaxDP=2.14D-02 DE=-7.98D-01 OVMax= 9.67D-02

 Cycle   3  Pass 0  IDiag  1:
 RMSU=  2.93D-04    CP:  9.88D-01  8.42D-01
 E= -5017.22420623253     Delta-E=       -1.179913753633 Rises=F Damp=F
 DIIS: error= 1.33D-03 at cycle   3 NSaved=   3.
 NSaved= 3 IEnMin= 3 EnMin= -5017.22420623253     IErMin= 3 ErrMin= 1.33D-03
 ErrMax= 1.33D-03  0.00D+00 EMaxC= 1.00D-01 BMatC= 2.18D-03 BMatP= 9.21D-02
 IDIUse=3 WtCom= 9.87D-01 WtEn= 1.33D-02
 Coeff-Com:  0.120D-01 0.753D-01 0.913D+00
 Coeff-En:   0.000D+00 0.000D+00 0.100D+01
 Coeff:      0.119D-01 0.743D-01 0.914D+00
 Gap=     0.199 Goal=   None    Shift=    0.000
 RMSDP=1.06D-04 MaxDP=1.62D-02 DE=-1.18D+00 OVMax= 1.70D-02

 Cycle   4  Pass 0  IDiag  1:
 RMSU=  9.30D-05    CP:  9.88D-01  8.44D-01  8.24D-01
 E= -5017.22468388399     Delta-E=       -0.000477651465 Rises=F Damp=F
 DIIS: error= 1.01D-03 at cycle   4 NSaved=   4.
 NSaved= 4 IEnMin= 4 EnMin= -5017.22468388399     IErMin= 4 ErrMin= 1.01D-03
 ErrMax= 1.01D-03  0.00D+00 EMaxC= 1.00D-01 BMatC= 2.17D-03 BMatP= 2.18D-03
 IDIUse=3 WtCom= 9.90D-01 WtEn= 1.01D-02
 Coeff-Com:  0.285D-02 0.715D-02 0.497D+00 0.493D+00
 Coeff-En:   0.000D+00 0.000D+00 0.439D+00 0.561D+00
 Coeff:      0.282D-02 0.707D-02 0.496D+00 0.494D+00
 Gap=     0.199 Goal=   None    Shift=    0.000
 RMSDP=4.66D-05 MaxDP=6.49D-03 DE=-4.78D-04 OVMax= 6.58D-03

 Cycle   5  Pass 0  IDiag  1:
 RMSU=  1.83D-05    CP:  9.88D-01  8.41D-01  8.92D-01  5.95D-01
 E= -5017.22642683126     Delta-E=       -0.001742947268 Rises=F Damp=F
 DIIS: error= 2.21D-04 at cycle   5 NSaved=   5.
 NSaved= 5 IEnMin= 5 EnMin= -5017.22642683126     IErMin= 5 ErrMin= 2.21D-04
 ErrMax= 2.21D-04  0.00D+00 EMaxC= 1.00D-01 BMatC= 3.96D-05 BMatP= 2.17D-03
 IDIUse=3 WtCom= 9.98D-01 WtEn= 2.21D-03
 Coeff-Com:  0.923D-03-0.178D-02 0.147D+00 0.178D+00 0.676D+00
 Coeff-En:   0.000D+00 0.000D+00 0.000D+00 0.000D+00 0.100D+01
 Coeff:      0.921D-03-0.178D-02 0.146D+00 0.178D+00 0.677D+00
 Gap=     0.199 Goal=   None    Shift=    0.000
 RMSDP=8.87D-06 MaxDP=1.28D-03 DE=-1.74D-03 OVMax= 1.34D-03

 Cycle   6  Pass 0  IDiag  1:
 RMSU=  5.93D-06    CP:  9.88D-01  8.40D-01  9.04D-01  5.74D-01  7.15D-01
 E= -5017.22645933449     Delta-E=       -0.000032503223 Rises=F Damp=F
 DIIS: error= 8.58D-05 at cycle   6 NSaved=   6.
 NSaved= 6 IEnMin= 6 EnMin= -5017.22645933449     IErMin= 6 ErrMin= 8.58D-05
 ErrMax= 8.58D-05  0.00D+00 EMaxC= 1.00D-01 BMatC= 4.41D-06 BMatP= 3.96D-05
 IDIUse=1 WtCom= 1.00D+00 WtEn= 0.00D+00
 Coeff-Com:  0.186D-03-0.213D-02 0.335D-01 0.424D-01 0.282D+00 0.644D+00
 Coeff:      0.186D-03-0.213D-02 0.335D-01 0.424D-01 0.282D+00 0.644D+00
 Gap=     0.199 Goal=   None    Shift=    0.000
 RMSDP=2.57D-06 MaxDP=5.03D-04 DE=-3.25D-05 OVMax= 4.21D-04

 Initial convergence to 1.0D-05 achieved.  Increase integral accuracy.
 Cycle   7  Pass 1  IDiag  1:
 E= -5017.22692156462     Delta-E=       -0.000462230135 Rises=F Damp=F
 DIIS: error= 2.43D-05 at cycle   1 NSaved=   1.
 NSaved= 1 IEnMin= 1 EnMin= -5017.22692156462     IErMin= 1 ErrMin= 2.43D-05
 ErrMax= 2.43D-05  0.00D+00 EMaxC= 1.00D-01 BMatC= 1.33D-06 BMatP= 1.33D-06
 IDIUse=1 WtCom= 1.00D+00 WtEn= 0.00D+00
 Coeff-Com:  0.100D+01
 Coeff:      0.100D+01
 Gap=     0.199 Goal=   None    Shift=    0.000
 RMSDP=2.57D-06 MaxDP=5.03D-04 DE=-4.62D-04 OVMax= 2.08D-04

 Cycle   8  Pass 1  IDiag  1:
 RMSU=  4.25D-06    CP:  1.00D+00
 E= -5017.22692293978     Delta-E=       -0.000001375160 Rises=F Damp=F
 DIIS: error= 7.99D-06 at cycle   2 NSaved=   2.
 NSaved= 2 IEnMin= 2 EnMin= -5017.22692293978     IErMin= 2 ErrMin= 7.99D-06
 ErrMax= 7.99D-06  0.00D+00 EMaxC= 1.00D-01 BMatC= 1.47D-07 BMatP= 1.33D-06
 IDIUse=1 WtCom= 1.00D+00 WtEn= 0.00D+00
 Coeff-Com:  0.144D+00 0.856D+00
 Coeff:      0.144D+00 0.856D+00
 Gap=     0.199 Goal=   None    Shift=    0.000
 RMSDP=6.18D-07 MaxDP=6.36D-05 DE=-1.38D-06 OVMax= 6.67D-05

 Cycle   9  Pass 1  IDiag  1:
 RMSU=  6.18D-07    CP:  1.00D+00  1.01D+00
 E= -5017.22692294669     Delta-E=       -0.000000006905 Rises=F Damp=F
 DIIS: error= 8.16D-06 at cycle   3 NSaved=   3.
 NSaved= 3 IEnMin= 3 EnMin= -5017.22692294669     IErMin= 2 ErrMin= 7.99D-06
 ErrMax= 8.16D-06  0.00D+00 EMaxC= 1.00D-01 BMatC= 1.43D-07 BMatP= 1.47D-07
 IDIUse=1 WtCom= 1.00D+00 WtEn= 0.00D+00
 Coeff-Com: -0.834D-02 0.498D+00 0.511D+00
 Coeff:     -0.834D-02 0.498D+00 0.511D+00
 Gap=     0.199 Goal=   None    Shift=    0.000
 RMSDP=3.00D-07 MaxDP=3.27D-05 DE=-6.90D-09 OVMax= 3.53D-05

 Cycle  10  Pass 1  IDiag  1:
 RMSU=  8.59D-08    CP:  1.00D+00  1.02D+00  5.47D-01
 E= -5017.22692304870     Delta-E=       -0.000000102011 Rises=F Damp=F
 DIIS: error= 7.09D-07 at cycle   4 NSaved=   4.
 NSaved= 4 IEnMin= 4 EnMin= -5017.22692304870     IErMin= 4 ErrMin= 7.09D-07
 ErrMax= 7.09D-07  0.00D+00 EMaxC= 1.00D-01 BMatC= 5.71D-10 BMatP= 1.43D-07
 IDIUse=1 WtCom= 1.00D+00 WtEn= 0.00D+00
 Coeff-Com: -0.475D-02 0.189D+00 0.203D+00 0.613D+00
 Coeff:     -0.475D-02 0.189D+00 0.203D+00 0.613D+00
 Gap=     0.199 Goal=   None    Shift=    0.000
 RMSDP=3.43D-08 MaxDP=5.77D-06 DE=-1.02D-07 OVMax= 5.87D-06

 Cycle  11  Pass 1  IDiag  1:
 RMSU=  2.80D-08    CP:  1.00D+00  1.02D+00  5.43D-01  7.74D-01
 E= -5017.22692304921     Delta-E=       -0.000000000518 Rises=F Damp=F
 DIIS: error= 1.34D-07 at cycle   5 NSaved=   5.
 NSaved= 5 IEnMin= 5 EnMin= -5017.22692304921     IErMin= 5 ErrMin= 1.34D-07
 ErrMax= 1.34D-07  0.00D+00 EMaxC= 1.00D-01 BMatC= 4.67D-11 BMatP= 5.71D-10
 IDIUse=1 WtCom= 1.00D+00 WtEn= 0.00D+00
 Coeff-Com: -0.118D-02 0.346D-01 0.390D-01 0.247D+00 0.681D+00
 Coeff:     -0.118D-02 0.346D-01 0.390D-01 0.247D+00 0.681D+00
 Gap=     0.199 Goal=   None    Shift=    0.000
 RMSDP=8.26D-09 MaxDP=8.41D-07 DE=-5.18D-10 OVMax= 1.12D-06

 SCF Done:  E(RPBE1PBE) =  -5017.22692305     A.U. after   11 cycles
            NFock= 11  Conv=0.83D-08     -V/T= 2.0028
 KE= 5.003192216314D+03 PE=-2.414321281262D+04 EE= 8.034635251809D+03
 Leave Link  502 at Thu May  3 10:19:20 2018, MaxMem= 14763950080 cpu:      8571.3
 (Enter /cm/shared/gaussian/g09.e01/intel64-sandybridge/g09/l601.exe)
 Copying SCF densities to generalized density rwf, IOpCl= 0 IROHF=0.

 **********************************************************************

            Population analysis using the SCF density.

 **********************************************************************

 Alpha  occ. eigenvalues -- -483.15753 -62.56016 -56.33264 -56.33255 -56.33239
 Alpha  occ. eigenvalues --  -19.20758 -19.19578 -19.17398 -19.17264 -19.17161
 Alpha  occ. eigenvalues --  -19.16933 -19.16505 -19.16475 -19.16285 -19.14787
 Alpha  occ. eigenvalues --  -19.14757 -19.14746 -19.14304 -19.13910 -19.12180
 Alpha  occ. eigenvalues --  -19.11720 -19.11375 -19.10578 -19.10046 -19.09921
 Alpha  occ. eigenvalues --  -19.09744 -19.09513 -19.09389 -19.09371 -19.08928
 Alpha  occ. eigenvalues --  -19.08839 -19.07873 -19.07474 -19.07019 -19.06637
 Alpha  occ. eigenvalues --  -19.05664 -19.03626  -8.66289  -6.46639  -6.46599
 Alpha  occ. eigenvalues --   -6.46551  -2.54913  -2.54910  -2.54871  -2.54838
 Alpha  occ. eigenvalues --   -2.54830  -1.03267  -1.02776  -1.00275  -1.00027
 Alpha  occ. eigenvalues --   -0.99574  -0.99149  -0.98888  -0.98684  -0.98449
 Alpha  occ. eigenvalues --   -0.97412  -0.97211  -0.97204  -0.97053  -0.96570
 Alpha  occ. eigenvalues --   -0.94723  -0.94295  -0.94149  -0.93400  -0.93009
 Alpha  occ. eigenvalues --   -0.92395  -0.92303  -0.91934  -0.91803  -0.91741
 Alpha  occ. eigenvalues --   -0.91610  -0.91472  -0.90364  -0.89798  -0.89502
 Alpha  occ. eigenvalues --   -0.89409  -0.88825  -0.86445  -0.65506  -0.53856
 Alpha  occ. eigenvalues --   -0.53391  -0.50811  -0.50451  -0.50363  -0.50313
 Alpha  occ. eigenvalues --   -0.49759  -0.49104  -0.48627  -0.48520  -0.47996
 Alpha  occ. eigenvalues --   -0.47839  -0.47468  -0.46873  -0.45672  -0.45438
 Alpha  occ. eigenvalues --   -0.45216  -0.45117  -0.43614  -0.43263  -0.43186
 Alpha  occ. eigenvalues --   -0.42951  -0.42676  -0.42301  -0.42158  -0.41894
 Alpha  occ. eigenvalues --   -0.41747  -0.41462  -0.40993  -0.40361  -0.40331
 Alpha  occ. eigenvalues --   -0.39926  -0.39255  -0.39064  -0.36624  -0.36576
 Alpha  occ. eigenvalues --   -0.36216  -0.35962  -0.35084  -0.35023  -0.34743
 Alpha  occ. eigenvalues --   -0.34095  -0.33960  -0.33033  -0.32757  -0.32187
 Alpha  occ. eigenvalues --   -0.31767  -0.31647  -0.31254  -0.31070  -0.30860
 Alpha  occ. eigenvalues --   -0.30136  -0.29948  -0.29442  -0.29416  -0.28830
 Alpha  occ. eigenvalues --   -0.28208  -0.28145  -0.27856  -0.27755  -0.27655
 Alpha  occ. eigenvalues --   -0.27632  -0.27561  -0.27540  -0.27125  -0.27004
 Alpha  occ. eigenvalues --   -0.26696  -0.26643  -0.26433  -0.26201  -0.25832
 Alpha  occ. eigenvalues --   -0.25533  -0.25524  -0.25477  -0.25332  -0.24452
 Alpha  occ. eigenvalues --   -0.23293  -0.22812  -0.22414  -0.22267  -0.22186
 Alpha  occ. eigenvalues --   -0.21894  -0.21213  -0.21103  -0.20923  -0.20421
 Alpha  occ. eigenvalues --   -0.20105  -0.20059  -0.19994  -0.19828  -0.19684
 Alpha  occ. eigenvalues --   -0.19644  -0.19161  -0.19086  -0.18311  -0.17795
 Alpha  occ. eigenvalues --   -0.17679  -0.17305  -0.15075
 Alpha virt. eigenvalues --    0.04868   0.06359   0.08376   0.09580   0.09957
 Alpha virt. eigenvalues --    0.11550   0.12485   0.13407   0.13777   0.13931
 Alpha virt. eigenvalues --    0.14795   0.15555   0.15778   0.16250   0.16597
 Alpha virt. eigenvalues --    0.17230   0.17705   0.17951   0.18132   0.18682
 Alpha virt. eigenvalues --    0.18992   0.19878   0.20185   0.20359   0.20813
 Alpha virt. eigenvalues --    0.20966   0.21746   0.22102   0.22925   0.23348
 Alpha virt. eigenvalues --    0.23858   0.24542   0.24797   0.25030   0.25433
 Alpha virt. eigenvalues --    0.26035   0.26140   0.27039   0.27625   0.28350
 Alpha virt. eigenvalues --    0.28664   0.28788   0.29532   0.29823   0.30240
 Alpha virt. eigenvalues --    0.30344   0.30489   0.31063   0.31830   0.32227
 Alpha virt. eigenvalues --    0.32460   0.33161   0.33927   0.34211   0.34613
 Alpha virt. eigenvalues --    0.34952   0.35435   0.35761   0.35906   0.37680
 Alpha virt. eigenvalues --    0.38077   0.38840   0.39637   0.43478   0.56119
 Alpha virt. eigenvalues --    0.56971   0.57810   0.58275   0.59134   0.59758
 Alpha virt. eigenvalues --    0.60778   0.61350   0.62490   0.62613   0.62765
 Alpha virt. eigenvalues --    0.63149   0.63688   0.63927   0.64132   0.64634
 Alpha virt. eigenvalues --    0.65305   0.65579   0.65818   0.66199   0.66395
 Alpha virt. eigenvalues --    0.66677   0.67099   0.67369   0.67848   0.68021
 Alpha virt. eigenvalues --    0.68264   0.68470   0.68716   0.69207   0.69363
 Alpha virt. eigenvalues --    0.69514   0.69850   0.69934   0.70489   0.70759
 Alpha virt. eigenvalues --    0.70878   0.71059   0.71394   0.71424   0.71971
 Alpha virt. eigenvalues --    0.72214   0.72418   0.73036   0.73308   0.73807
 Alpha virt. eigenvalues --    0.74098   0.74582   0.74689   0.75032   0.75489
 Alpha virt. eigenvalues --    0.76362   0.76462   0.76956   0.77081   0.77814
 Alpha virt. eigenvalues --    0.77952   0.78603   0.79071   0.79613   0.79779
 Alpha virt. eigenvalues --    0.80085   0.81272   0.81539   0.82051   0.83119
 Alpha virt. eigenvalues --    0.83581   0.83887   0.85058   0.85633   0.86913
 Alpha virt. eigenvalues --    0.89897   0.90177   0.92517   0.93107   0.94110
 Alpha virt. eigenvalues --    0.94666   0.95018   0.95683   0.96517   0.96657
 Alpha virt. eigenvalues --    0.97181   0.97810   0.97975   0.98088   0.98951
 Alpha virt. eigenvalues --    0.99096   0.99739   0.99916   0.99946   1.00556
 Alpha virt. eigenvalues --    1.00793   1.00981   1.01541   1.01641   1.02165
 Alpha virt. eigenvalues --    1.02747   1.03118   1.03217   1.03860   1.03972
 Alpha virt. eigenvalues --    1.04039   1.04498   1.04860   1.05277   1.05738
 Alpha virt. eigenvalues --    1.06033   1.06203   1.06387   1.06777   1.06913
 Alpha virt. eigenvalues --    1.07195   1.07424   1.07831   1.08207   1.08390
 Alpha virt. eigenvalues --    1.08522   1.08797   1.09143   1.09361   1.09485
 Alpha virt. eigenvalues --    1.09673   1.10167   1.10523   1.10603   1.10926
 Alpha virt. eigenvalues --    1.11446   1.11477   1.11850   1.12177   1.12300
 Alpha virt. eigenvalues --    1.12686   1.12747   1.12970   1.13206   1.13617
 Alpha virt. eigenvalues --    1.14315   1.14516   1.14639   1.14994   1.15056
 Alpha virt. eigenvalues --    1.15440   1.15862   1.16255   1.16457   1.17203
 Alpha virt. eigenvalues --    1.17408   1.17835   1.18141   1.19041   1.19258
 Alpha virt. eigenvalues --    1.19798   1.20343   1.20751   1.21018   1.21639
 Alpha virt. eigenvalues --    1.22181   1.22488   1.22732   1.23172   1.24023
 Alpha virt. eigenvalues --    1.24932   1.25093   1.25322   1.25499   1.25836
 Alpha virt. eigenvalues --    1.26379   1.26587   1.27175   1.27545   1.27653
 Alpha virt. eigenvalues --    1.28022   1.28441   1.28561   1.29234   1.29563
 Alpha virt. eigenvalues --    1.29935   1.30290   1.30458   1.30686   1.30776
 Alpha virt. eigenvalues --    1.31238   1.31501   1.31925   1.32089   1.32442
 Alpha virt. eigenvalues --    1.32875   1.33435   1.33643   1.34002   1.34152
 Alpha virt. eigenvalues --    1.34387   1.34539   1.35125   1.35728   1.35784
 Alpha virt. eigenvalues --    1.36181   1.36355   1.36796   1.37129   1.37451
 Alpha virt. eigenvalues --    1.37847   1.37918   1.38177   1.38337   1.38658
 Alpha virt. eigenvalues --    1.38952   1.39118   1.39676   1.40162   1.40609
 Alpha virt. eigenvalues --    1.41098   1.41788   1.41930   1.42207   1.42441
 Alpha virt. eigenvalues --    1.43326   1.43845   1.44038   1.44385   1.44852
 Alpha virt. eigenvalues --    1.45321   1.45543   1.45951   1.46216   1.46620
 Alpha virt. eigenvalues --    1.47471   1.47727   1.47829   1.48556   1.48953
 Alpha virt. eigenvalues --    1.49162   1.50185   1.50523   1.51405   1.51954
 Alpha virt. eigenvalues --    1.52289   1.52585   1.52734   1.53417   1.53637
 Alpha virt. eigenvalues --    1.53856   1.54363   1.54766   1.55617   1.56465
 Alpha virt. eigenvalues --    1.56667   1.57138   1.57314   1.58004   1.58510
 Alpha virt. eigenvalues --    1.58860   1.59469   1.59907   1.60690   1.61162
 Alpha virt. eigenvalues --    1.62018   1.62618   1.63323   1.63991   1.64366
 Alpha virt. eigenvalues --    1.64741   1.65202   1.65804   1.66479   1.67835
 Alpha virt. eigenvalues --    1.68920   1.69356   1.70097   1.70568   1.71018
 Alpha virt. eigenvalues --    1.71673   1.72702   1.73348   1.73437   1.74178
 Alpha virt. eigenvalues --    1.74735   1.74891   1.75415   1.75836   1.76378
 Alpha virt. eigenvalues --    1.76568   1.76855   1.77176   1.77997   1.78108
 Alpha virt. eigenvalues --    1.78366   1.78779   1.79210   1.79346   1.79853
 Alpha virt. eigenvalues --    1.80108   1.80505   1.80674   1.80977   1.81531
 Alpha virt. eigenvalues --    1.81964   1.82293   1.82741   1.82957   1.83273
 Alpha virt. eigenvalues --    1.84201   1.84498   1.84566   1.85435   1.85659
 Alpha virt. eigenvalues --    1.86546   1.87167   1.87232   1.88014   1.88517
 Alpha virt. eigenvalues --    1.89558   1.89767   1.89947   1.90642   1.91526
 Alpha virt. eigenvalues --    1.91851   1.92220   1.92758   1.94617   1.94982
 Alpha virt. eigenvalues --    1.96251   1.97301   1.98011   1.99195   2.02300
 Alpha virt. eigenvalues --    2.03532   2.04319   2.07085   2.14230   2.16253
 Alpha virt. eigenvalues --    2.17511   2.17898   2.18402   2.19870   2.20291
 Alpha virt. eigenvalues --    2.20575   2.20661   2.20983   2.21303   2.21789
 Alpha virt. eigenvalues --    2.22520   2.23244   2.23420   2.23663   2.24035
 Alpha virt. eigenvalues --    2.24666   2.24913   2.25282   2.25392   2.25687
 Alpha virt. eigenvalues --    2.25883   2.26233   2.26461   2.26559   2.26836
 Alpha virt. eigenvalues --    2.27301   2.27655   2.28001   2.28682   2.29159
 Alpha virt. eigenvalues --    2.29542   2.30039   2.30360   2.31043   2.31079
 Alpha virt. eigenvalues --    2.31328   2.31504   2.31914   2.32141   2.32361
 Alpha virt. eigenvalues --    2.32753   2.33459   2.34143   2.34960   2.36851
 Alpha virt. eigenvalues --    2.37508   2.37565   2.38213   2.39788   2.40184
 Alpha virt. eigenvalues --    2.43796   2.44765   2.46705   2.47964   2.52721
 Alpha virt. eigenvalues --    2.52898   2.56325   2.57450   2.58188   2.60107
 Alpha virt. eigenvalues --    2.62814   2.65412   2.93160   2.94658   2.95770
 Alpha virt. eigenvalues --    2.96177   2.96509   2.96717   2.96879   2.97928
 Alpha virt. eigenvalues --    2.98288   2.98463   2.98517   2.99224   2.99404
 Alpha virt. eigenvalues --    3.00004   3.00685   3.01081   3.01253   3.01324
 Alpha virt. eigenvalues --    3.01706   3.01747   3.01971   3.02100   3.02243
 Alpha virt. eigenvalues --    3.02338   3.02591   3.02773   3.02905   3.03310
 Alpha virt. eigenvalues --    3.03633   3.03858   3.04019   3.04141   3.04263
 Alpha virt. eigenvalues --    3.04605   3.04650   3.05058   3.05261   3.05520
 Alpha virt. eigenvalues --    3.05624   3.05887   3.06182   3.06285   3.06935
 Alpha virt. eigenvalues --    3.07094   3.07429   3.07690   3.07779   3.07940
 Alpha virt. eigenvalues --    3.08097   3.08981   3.09360   3.09630   3.09948
 Alpha virt. eigenvalues --    3.10244   3.10398   3.11110   3.11330   3.12051
 Alpha virt. eigenvalues --    3.12148   3.13889   3.14422   3.14529   3.16241
 Alpha virt. eigenvalues --    3.16881   3.17473   3.17790   3.18327   3.19198
 Alpha virt. eigenvalues --    3.19722   3.20361   3.20708   3.20919   3.21044
 Alpha virt. eigenvalues --    3.21122   3.21174   3.23182   3.23436   3.24060
 Alpha virt. eigenvalues --    3.24515   3.25070   3.25161   3.25435   3.25687
 Alpha virt. eigenvalues --    3.26320   3.26401   3.27003   3.27249   3.27474
 Alpha virt. eigenvalues --    3.28148   3.28540   3.28989   3.29145   3.29573
 Alpha virt. eigenvalues --    3.30330   3.31490   3.34507   3.51420   3.51863
 Alpha virt. eigenvalues --    3.53052   3.55958   3.56842   3.57398   3.57973
 Alpha virt. eigenvalues --    3.58658   3.59153   3.59206   3.59925   3.60821
 Alpha virt. eigenvalues --    3.61036   3.61742   3.61933   3.62074   3.62481
 Alpha virt. eigenvalues --    3.62981   3.63503   3.63888   3.64573   3.64785
 Alpha virt. eigenvalues --    3.65039   3.65868   3.66136   3.67314   3.67805
 Alpha virt. eigenvalues --    3.68632   3.69432   3.69803   3.70598   3.72549
 Alpha virt. eigenvalues --    3.78571   3.80448   3.81946   3.83994   3.84768
 Alpha virt. eigenvalues --    3.85237   3.85653   3.86122   3.86372   3.87045
 Alpha virt. eigenvalues --    3.87263   3.87407   3.88268   3.88745   3.88843
 Alpha virt. eigenvalues --    3.89974   3.90321   3.90817   3.90992   3.91187
 Alpha virt. eigenvalues --    3.91809   3.92613   3.94095   3.94383   3.95039
 Alpha virt. eigenvalues --    3.95882   3.95972   3.96349   3.97137   3.98729
 Alpha virt. eigenvalues --    3.99607   3.99775
          Condensed to atoms (all electrons):
 Mulliken charges:
               1
     1  Br  -0.707733
     2  O   -0.281445
     3  H    0.143814
     4  H    0.147260
     5  O   -0.252137
     6  H    0.117695
     7  H    0.138876
     8  O   -0.289360
     9  H    0.125656
    10  H    0.151935
    11  O   -0.249641
    12  H    0.118672
    13  H    0.135524
    14  O   -0.262906
    15  H    0.112429
    16  H    0.158153
    17  O   -0.252584
    18  H    0.124910
    19  H    0.141047
    20  O   -0.264762
    21  H    0.135809
    22  H    0.127793
    23  O   -0.258014
    24  H    0.109108
    25  H    0.147525
    26  O   -0.235852
    27  H    0.146420
    28  H    0.159691
    29  O   -0.275784
    30  H    0.116151
    31  H    0.130093
    32  O   -0.252989
    33  H    0.136067
    34  H    0.134180
    35  O   -0.269743
    36  H    0.155623
    37  H    0.142250
    38  O   -0.266236
    39  H    0.136630
    40  H    0.114696
    41  O   -0.333492
    42  H    0.132819
    43  H    0.092257
    44  O   -0.271741
    45  H    0.126156
    46  H    0.135367
    47  O   -0.324716
    48  H    0.125063
    49  H    0.099961
    50  O   -0.330633
    51  H    0.118774
    52  H    0.128168
    53  O   -0.281310
    54  H    0.109990
    55  H    0.148594
    56  O   -0.221860
    57  H    0.154700
    58  H    0.138968
    59  O   -0.232440
    60  H    0.133125
    61  H    0.125081
    62  O   -0.324259
    63  H    0.127950
    64  H    0.110993
    65  O   -0.277586
    66  H    0.130429
    67  H    0.151477
    68  O   -0.250377
    69  H    0.135084
    70  H    0.128678
    71  O   -0.277013
    72  H    0.119091
    73  H    0.116984
    74  O   -0.262138
    75  H    0.133219
    76  H    0.121735
    77  O   -0.264794
    78  H    0.145608
    79  H    0.132526
    80  O   -0.273987
    81  H    0.126083
    82  H    0.126104
    83  O   -0.291104
    84  H    0.142929
    85  H    0.123873
    86  O   -0.281517
    87  H    0.112228
    88  H    0.130421
    89  O   -0.271030
    90  H    0.135526
    91  H    0.139755
    92  O   -0.293325
    93  H    0.129122
    94  H    0.123816
    95  O   -0.238081
    96  H    0.154593
    97  H    0.145335
 Sum of Mulliken charges =  -1.00000
 Mulliken charges with hydrogens summed into heavy atoms:
               1
     1  Br  -0.707733
     2  O    0.009629
     5  O    0.004433
     8  O   -0.011769
    11  O    0.004555
    14  O    0.007676
    17  O    0.013373
    20  O   -0.001160
    23  O   -0.001381
    26  O    0.070259
    29  O   -0.029540
    32  O    0.017258
    35  O    0.028130
    38  O   -0.014910
    41  O   -0.108416
    44  O   -0.010218
    47  O   -0.099692
    50  O   -0.083691
    53  O   -0.022726
    56  O    0.071808
    59  O    0.025766
    62  O   -0.085316
    65  O    0.004320
    68  O    0.013385
    71  O   -0.040938
    74  O   -0.007184
    77  O    0.013339
    80  O   -0.021800
    83  O   -0.024302
    86  O   -0.038868
    89  O    0.004251
    92  O   -0.040386
    95  O    0.061847
         Mulliken charges condensed to fragments:
      1     -0.707733
      2     -0.292267
 Electronic spatial extent (au):  <R**2>=        1568587.6109
 Charge=             -1.0000 electrons
 Dipole moment (field-independent basis, Debye):
    X=           -102.1898    Y=            -84.8253    Z=           -108.0510  Tot=            171.2107
 Quadrupole moment (field-independent basis, Debye-Ang):
   XX=          -2471.3493   YY=          -1679.9828   ZZ=          -2734.1942
   XY=          -1761.7177   XZ=          -2247.3948   YZ=          -1931.4659
 Traceless Quadrupole moment (field-independent basis, Debye-Ang):
   XX=           -176.1739   YY=            615.1927   ZZ=           -439.0188
   XY=          -1761.7177   XZ=          -2247.3948   YZ=          -1931.4659
 Octapole moment (field-independent basis, Debye-Ang**2):
  XXX=         -64318.2583  YYY=         -37296.0521  ZZZ=         -72865.0133  XYY=         -33787.5639
  XXY=         -42540.5025  XXZ=         -52891.6593  XZZ=         -55869.6427  YZZ=         -49967.7314
  YYZ=         -38239.5820  XYZ=         -39322.9745
 Hexadecapole moment (field-independent basis, Debye-Ang**3):
 XXXX=       -1728359.2991 YYYY=        -907244.6962 ZZZZ=       -1968735.9796 XXXY=       -1119950.1922
 XXXZ=       -1344757.0067 YYYX=        -726955.7488 YYYZ=        -837375.6549 ZZZX=       -1472290.7784
 ZZZY=       -1360557.0796 XXYY=        -800725.7262 XXZZ=       -1271899.3110 YYZZ=        -993277.4159
 XXYZ=        -922196.9078 YYXZ=        -758547.4137 ZZXY=       -1003689.6416
 N-N= 6.088158421446D+03 E-N=-2.414321283968D+04  KE= 5.003192216314D+03
 No NMR shielding tensors so no spin-rotation constants.
 Leave Link  601 at Thu May  3 10:19:21 2018, MaxMem= 14763950080 cpu:        69.9
 (Enter /cm/shared/gaussian/g09.e01/intel64-sandybridge/g09/l701.exe)
 Compute integral first derivatives.
 ... and contract with generalized density number  0.
 Leave Link  701 at Thu May  3 10:19:24 2018, MaxMem= 14763950080 cpu:       151.0
 (Enter /cm/shared/gaussian/g09.e01/intel64-sandybridge/g09/l702.exe)
 L702 exits ... SP integral derivatives will be done elsewhere.
 Leave Link  702 at Thu May  3 10:19:24 2018, MaxMem= 14763950080 cpu:         2.6
 (Enter /cm/shared/gaussian/g09.e01/intel64-sandybridge/g09/l703.exe)
 Compute integral first derivatives, UseDBF=F ICtDFT=           0.
 Integral derivatives from FoFJK, PRISM(SPDF).
 Calling FoFJK, ICntrl=      2127 FMM=T ISym2X=0 I1Cent= 0 IOpClX= 0 NMat=1 NMatS=1 NMatT=0.
 FoFJK:  IHMeth= 1 ICntrl=    2127 DoSepK=F KAlg= 0 I1Cent=   0 FoldK=F
 IRaf=         0 NMat=   1 IRICut=       1 DoRegI=T DoRafI=F ISym2E= 0.
 FoFCou: FMM=T IPFlag=           0 FMFlag=      100000 FMFlg1=        2001
         NFxFlg=           0 DoJE=F BraDBF=F KetDBF=F FulRan=T
         wScrn=  0.000000 ICntrl=    2127 IOpCl=  0 I1Cent=           0 NGrid=           0
         NMat0=    1 NMatS0=      1 NMatT0=    0 NMatD0=    1 NMtDS0=    0 NMtDT0=    0
 Symmetry not used in FoFCou.
 FMM levels:  10  Number of levels for PrismC:   9
 Leave Link  703 at Thu May  3 10:19:43 2018, MaxMem= 14763950080 cpu:      1123.1
 (Enter /cm/shared/gaussian/g09.e01/intel64-sandybridge/g09/l716.exe)
 Dipole        =-4.02045469D+01-3.33728558D+01-4.25105528D+01
 Cartesian Forces:  Max     0.028463850 RMS     0.009509015
 Leave Link  716 at Thu May  3 10:19:43 2018, MaxMem= 14763950080 cpu:         4.6
 (Enter /cm/shared/gaussian/g09.e01/intel64-sandybridge/g09/l122.exe)
 CPIOFr:  IOpCl= 0 IRwI=-1 IRwCP=  731 ICalc= -1 LCPTot=     1005244 Len1MO=     2550559 IndFrg=     1005244
 CPIOFr:  IOpCl= 0 IRwI=-1 IRwCP=  731 ICalc=  0 LCPTot=     1005244 Len1MO=     2550559 IndFrg=     3555803
 Counterpoise: doing DCBS calculation for fragment   1 NewBq=T
 Leave Link  122 at Thu May  3 10:19:43 2018, MaxMem= 14763950080 cpu:         9.3
 (Enter /cm/shared/gaussian/g09.e01/intel64-sandybridge/g09/l301.exe)
 Basis read from rwf:  (5D, 7F)
 No pseudopotential information found on rwf file.
   795 basis functions,  1651 primitive gaussians,   829 cartesian basis functions
    18 alpha electrons       18 beta electrons
       nuclear repulsion energy         0.0000000000 Hartrees.
 IExCor= 1009 DFT=T Ex+Corr=PBE1PBE ExCW=0 ScaHFX=  0.250000
 ScaDFX=  0.750000  0.750000  1.000000  1.000000 ScalE2=  1.000000  1.000000
 IRadAn=      0 IRanWt=     -1 IRanGd=            0 ICorTp=0 IEmpDi=  4
 NAtoms=   97 NActive=   97 NUniq=   97 SFac= 1.00D+00 NAtFMM=   60 NAOKFM=T Big=T
 Integral buffers will be    131072 words long.
 Raffenetti 2 integral format.
 Two-electron integral symmetry is turned off.
 No density basis found on file   718.
 Leave Link  301 at Thu May  3 10:19:43 2018, MaxMem= 14763950080 cpu:         7.0
 (Enter /cm/shared/gaussian/g09.e01/intel64-sandybridge/g09/l302.exe)
 NPDir=0 NMtPBC=     1 NCelOv=     1 NCel=       1 NClECP=     1 NCelD=      1
         NCelK=      1 NCelE2=     1 NClLst=     1 CellRange=     0.0.
 One-electron integrals computed using PRISM.
 NBasis=   795 RedAO= T EigKep=  1.73D-02  NBF=   795
 NBsUse=   795 1.00D-06 EigRej= -1.00D+00 NBFU=   795
 Precomputing XC quadrature grid using
 IXCGrd= 4 IRadAn=           0 IRanWt=          -1 IRanGd=           0 AccXCQ= 0.00D+00.
 Generated NRdTot=       0 NPtTot=           0 NUsed=           0 NTot=          32
 NSgBfM=   700   723   726   730   733 MxSgAt=    97 MxSgA2=    97.
 Leave Link  302 at Thu May  3 10:19:48 2018, MaxMem= 14763950080 cpu:       276.2
 (Enter /cm/shared/gaussian/g09.e01/intel64-sandybridge/g09/l303.exe)
 DipDrv:  MaxL=1.
 Leave Link  303 at Thu May  3 10:19:48 2018, MaxMem= 14763950080 cpu:        30.7
 (Enter /cm/shared/gaussian/g09.e01/intel64-sandybridge/g09/l401.exe)
 ExpMin= 1.22D-01 ExpMax= 6.40D+05 ExpMxC= 6.18D+03 IAcc=2 IRadAn=         4 AccDes= 0.00D+00
 Harris functional with IExCor= 1009 and IRadAn=       4 diagonalized for initial guess.
 HarFok:  IExCor= 1009 AccDes= 0.00D+00 IRadAn=         4 IDoV= 1 UseB2=F ITyADJ=14
 ICtDFT=  3500011 ScaDFX=  1.000000  1.000000  1.000000  1.000000
 FoFCou: FMM=F IPFlag=           0 FMFlag=      100000 FMFlg1=        2001
         NFxFlg=           0 DoJE=T BraDBF=F KetDBF=T FulRan=T
         wScrn=  0.000000 ICntrl=     500 IOpCl=  0 I1Cent=   200000004 NGrid=           0
         NMat0=    1 NMatS0=      1 NMatT0=    0 NMatD0=    1 NMtDS0=    0 NMtDT0=    0
 Symmetry not used in FoFCou.
 Harris En= -2574.01975007523    
 JPrj=0 DoOrth=F DoCkMO=F.
 Leave Link  401 at Thu May  3 10:19:54 2018, MaxMem= 14763950080 cpu:       303.7
 (Enter /cm/shared/gaussian/g09.e01/intel64-sandybridge/g09/l502.exe)
 Closed shell SCF:
 Using DIIS extrapolation, IDIIS=  1040.
 Two-electron integral symmetry not used.
 IVT=     2138497 IEndB=     2138497 NGot= 14763950080 MDV= 14762516294
 LenX= 14762516294 LenY= 14761828224
 Requested convergence on RMS density matrix=1.00D-08 within 128 cycles.
 Requested convergence on MAX density matrix=1.00D-06.
 Requested convergence on             energy=1.00D-06.
 No special actions if energy rises.
 Fock matrices will be formed incrementally for  20 cycles.
 Integral accuracy reduced to 1.0D-05 until final iterations.

 Cycle   1  Pass 0  IDiag  1:
 FoFJK:  IHMeth= 1 ICntrl=       0 DoSepK=F KAlg= 0 I1Cent=   0 FoldK=F
 IRaf= 820000000 NMat=   1 IRICut=       1 DoRegI=T DoRafI=F ISym2E= 0.
 FoFCou: FMM=T IPFlag=           0 FMFlag=      100000 FMFlg1=        2001
         NFxFlg=           0 DoJE=F BraDBF=F KetDBF=F FulRan=T
         wScrn=  0.000000 ICntrl=       0 IOpCl=  0 I1Cent=           0 NGrid=           0
         NMat0=    1 NMatS0=      1 NMatT0=    0 NMatD0=    1 NMtDS0=    0 NMtDT0=    0
 Symmetry not used in FoFCou.
 FMM levels:  10  Number of levels for PrismC:   9
 E= -2573.87960254319    
 DIIS: error= 9.67D-03 at cycle   1 NSaved=   1.
 NSaved= 1 IEnMin= 1 EnMin= -2573.87960254319     IErMin= 1 ErrMin= 9.67D-03
 ErrMax= 9.67D-03  0.00D+00 EMaxC= 1.00D-01 BMatC= 3.81D-02 BMatP= 3.81D-02
 IDIUse=3 WtCom= 9.03D-01 WtEn= 9.67D-02
 Coeff-Com:  0.100D+01
 Coeff-En:   0.100D+01
 Coeff:      0.100D+01
 Gap=     0.178 Goal=   None    Shift=    0.000
 GapD=    0.178 DampG=1.000 DampE=1.000 DampFc=1.0000 IDamp=-1.
 RMSDP=4.63D-04 MaxDP=6.67D-02              OVMax= 1.50D-01

 Cycle   2  Pass 0  IDiag  1:
 RMSU=  4.59D-04    CP:  9.90D-01
 E= -2573.90094706758     Delta-E=       -0.021344524387 Rises=F Damp=F
 DIIS: error= 3.65D-03 at cycle   2 NSaved=   2.
 NSaved= 2 IEnMin= 2 EnMin= -2573.90094706758     IErMin= 2 ErrMin= 3.65D-03
 ErrMax= 3.65D-03  0.00D+00 EMaxC= 1.00D-01 BMatC= 8.03D-03 BMatP= 3.81D-02
 IDIUse=3 WtCom= 9.64D-01 WtEn= 3.65D-02
 Coeff-Com:  0.236D+00 0.764D+00
 Coeff-En:   0.737D-01 0.926D+00
 Coeff:      0.230D+00 0.770D+00
 Gap=     0.197 Goal=   None    Shift=    0.000
 RMSDP=2.25D-04 MaxDP=5.42D-02 DE=-2.13D-02 OVMax= 7.18D-02

 Cycle   3  Pass 0  IDiag  1:
 RMSU=  1.48D-04    CP:  9.95D-01  6.38D-01
 E= -2573.90982725482     Delta-E=       -0.008880187248 Rises=F Damp=F
 DIIS: error= 2.90D-03 at cycle   3 NSaved=   3.
 NSaved= 3 IEnMin= 3 EnMin= -2573.90982725482     IErMin= 3 ErrMin= 2.90D-03
 ErrMax= 2.90D-03  0.00D+00 EMaxC= 1.00D-01 BMatC= 2.90D-03 BMatP= 8.03D-03
 IDIUse=3 WtCom= 9.71D-01 WtEn= 2.90D-02
 Coeff-Com:  0.617D-01 0.362D+00 0.576D+00
 Coeff-En:   0.000D+00 0.176D+00 0.824D+00
 Coeff:      0.599D-01 0.356D+00 0.584D+00
 Gap=     0.176 Goal=   None    Shift=    0.000
 RMSDP=7.75D-05 MaxDP=1.89D-02 DE=-8.88D-03 OVMax= 2.36D-02

 Cycle   4  Pass 0  IDiag  1:
 RMSU=  8.24D-06    CP:  9.93D-01  7.48D-01  6.13D-01
 E= -2573.91311123884     Delta-E=       -0.003283984019 Rises=F Damp=F
 DIIS: error= 8.17D-05 at cycle   4 NSaved=   4.
 NSaved= 4 IEnMin= 4 EnMin= -2573.91311123884     IErMin= 4 ErrMin= 8.17D-05
 ErrMax= 8.17D-05  0.00D+00 EMaxC= 1.00D-01 BMatC= 1.37D-06 BMatP= 2.90D-03
 IDIUse=1 WtCom= 1.00D+00 WtEn= 0.00D+00
 Coeff-Com: -0.799D-03 0.128D-01 0.352D-01 0.953D+00
 Coeff:     -0.799D-03 0.128D-01 0.352D-01 0.953D+00
 Gap=     0.176 Goal=   None    Shift=    0.000
 RMSDP=2.31D-06 MaxDP=5.08D-04 DE=-3.28D-03 OVMax= 5.56D-04

 Initial convergence to 1.0D-05 achieved.  Increase integral accuracy.
 Cycle   5  Pass 1  IDiag  1:
 E= -2573.91370266662     Delta-E=       -0.000591427779 Rises=F Damp=F
 DIIS: error= 1.48D-05 at cycle   1 NSaved=   1.
 NSaved= 1 IEnMin= 1 EnMin= -2573.91370266662     IErMin= 1 ErrMin= 1.48D-05
 ErrMax= 1.48D-05  0.00D+00 EMaxC= 1.00D-01 BMatC= 1.30D-07 BMatP= 1.30D-07
 IDIUse=1 WtCom= 1.00D+00 WtEn= 0.00D+00
 Coeff-Com:  0.100D+01
 Coeff:      0.100D+01
 Gap=     0.176 Goal=   None    Shift=    0.000
 RMSDP=2.31D-06 MaxDP=5.08D-04 DE=-5.91D-04 OVMax= 3.53D-04

 Cycle   6  Pass 1  IDiag  1:
 RMSU=  1.44D-06    CP:  1.00D+00
 E= -2573.91370280319     Delta-E=       -0.000000136571 Rises=F Damp=F
 DIIS: error= 1.28D-05 at cycle   2 NSaved=   2.
 NSaved= 2 IEnMin= 2 EnMin= -2573.91370280319     IErMin= 2 ErrMin= 1.28D-05
 ErrMax= 1.28D-05  0.00D+00 EMaxC= 1.00D-01 BMatC= 7.14D-08 BMatP= 1.30D-07
 IDIUse=1 WtCom= 1.00D+00 WtEn= 0.00D+00
 Coeff-Com:  0.411D+00 0.589D+00
 Coeff:      0.411D+00 0.589D+00
 Gap=     0.176 Goal=   None    Shift=    0.000
 RMSDP=4.62D-07 MaxDP=1.12D-04 DE=-1.37D-07 OVMax= 1.49D-04

 Cycle   7  Pass 1  IDiag  1:
 RMSU=  3.89D-07    CP:  1.00D+00  8.31D-01
 E= -2573.91370289040     Delta-E=       -0.000000087206 Rises=F Damp=F
 DIIS: error= 2.59D-06 at cycle   3 NSaved=   3.
 NSaved= 3 IEnMin= 3 EnMin= -2573.91370289040     IErMin= 3 ErrMin= 2.59D-06
 ErrMax= 2.59D-06  0.00D+00 EMaxC= 1.00D-01 BMatC= 2.35D-09 BMatP= 7.14D-08
 IDIUse=1 WtCom= 1.00D+00 WtEn= 0.00D+00
 Coeff-Com: -0.275D-01 0.131D+00 0.896D+00
 Coeff:     -0.275D-01 0.131D+00 0.896D+00
 Gap=     0.176 Goal=   None    Shift=    0.000
 RMSDP=8.36D-08 MaxDP=1.66D-05 DE=-8.72D-08 OVMax= 2.49D-05

 Cycle   8  Pass 1  IDiag  1:
 RMSU=  2.42D-08    CP:  1.00D+00  8.85D-01  9.56D-01
 E= -2573.91370289311     Delta-E=       -0.000000002714 Rises=F Damp=F
 DIIS: error= 1.46D-07 at cycle   4 NSaved=   4.
 NSaved= 4 IEnMin= 4 EnMin= -2573.91370289311     IErMin= 4 ErrMin= 1.46D-07
 ErrMax= 1.46D-07  0.00D+00 EMaxC= 1.00D-01 BMatC= 1.64D-11 BMatP= 2.35D-09
 IDIUse=1 WtCom= 1.00D+00 WtEn= 0.00D+00
 Coeff-Com: -0.666D-02 0.169D-01 0.685D-01 0.921D+00
 Coeff:     -0.666D-02 0.169D-01 0.685D-01 0.921D+00
 Gap=     0.176 Goal=   None    Shift=    0.000
 RMSDP=9.39D-09 MaxDP=1.55D-06 DE=-2.71D-09 OVMax= 3.38D-06

 Cycle   9  Pass 1  IDiag  1:
 RMSU=  4.84D-09    CP:  1.00D+00  8.90D-01  9.51D-01  1.10D+00
 E= -2573.91370289317     Delta-E=       -0.000000000052 Rises=F Damp=F
 DIIS: error= 6.64D-08 at cycle   5 NSaved=   5.
 NSaved= 5 IEnMin= 5 EnMin= -2573.91370289317     IErMin= 5 ErrMin= 6.64D-08
 ErrMax= 6.64D-08  0.00D+00 EMaxC= 1.00D-01 BMatC= 9.38D-13 BMatP= 1.64D-11
 IDIUse=1 WtCom= 1.00D+00 WtEn= 0.00D+00
 Coeff-Com: -0.105D-02 0.675D-03-0.901D-02 0.278D+00 0.731D+00
 Coeff:     -0.105D-02 0.675D-03-0.901D-02 0.278D+00 0.731D+00
 Gap=     0.176 Goal=   None    Shift=    0.000
 RMSDP=1.65D-09 MaxDP=2.01D-07 DE=-5.23D-11 OVMax= 6.62D-07

 SCF Done:  E(RPBE1PBE) =  -2573.91370289     A.U. after    9 cycles
            NFock=  9  Conv=0.17D-08     -V/T= 2.0013
 KE= 2.570512028280D+03 PE=-6.162829531144D+03 EE= 1.018403799971D+03
 Leave Link  502 at Thu May  3 10:21:34 2018, MaxMem= 14763950080 cpu:      6361.1
 (Enter /cm/shared/gaussian/g09.e01/intel64-sandybridge/g09/l601.exe)
 Copying SCF densities to generalized density rwf, IOpCl= 0 IROHF=0.

 **********************************************************************

            Population analysis using the SCF density.

 **********************************************************************

 Alpha  occ. eigenvalues -- -482.99213 -62.39367 -56.16620 -56.16618 -56.16616
 Alpha  occ. eigenvalues --   -8.49510  -6.29817  -6.29813  -6.29808  -2.38084
 Alpha  occ. eigenvalues --   -2.38084  -2.38079  -2.38075  -2.38075  -0.47518
 Alpha  occ. eigenvalues --   -0.03355  -0.03354  -0.03345
 Alpha virt. eigenvalues --    0.14261   0.16309   0.16400   0.17064   0.18539
 Alpha virt. eigenvalues --    0.18828   0.19196   0.19613   0.19810   0.21317
 Alpha virt. eigenvalues --    0.21815   0.22056   0.22744   0.23112   0.23586
 Alpha virt. eigenvalues --    0.24103   0.24776   0.25535   0.25833   0.26507
 Alpha virt. eigenvalues --    0.26782   0.27112   0.27519   0.28235   0.28487
 Alpha virt. eigenvalues --    0.28856   0.29799   0.30423   0.30885   0.31464
 Alpha virt. eigenvalues --    0.31759   0.32118   0.32355   0.33625   0.34107
 Alpha virt. eigenvalues --    0.35089   0.35602   0.35710   0.36634   0.36989
 Alpha virt. eigenvalues --    0.37127   0.37260   0.37636   0.38971   0.39058
 Alpha virt. eigenvalues --    0.39481   0.40246   0.40360   0.40612   0.40999
 Alpha virt. eigenvalues --    0.41292   0.41964   0.42897   0.43298   0.43968
 Alpha virt. eigenvalues --    0.45082   0.45658   0.46182   0.46851   0.47124
 Alpha virt. eigenvalues --    0.48399   0.49144   0.50304   0.51284   0.61130
 Alpha virt. eigenvalues --    0.62558   0.62979   0.63485   0.64029   0.64270
 Alpha virt. eigenvalues --    0.64600   0.65009   0.65261   0.65799   0.66354
 Alpha virt. eigenvalues --    0.67113   0.67606   0.67819   0.68424   0.68551
 Alpha virt. eigenvalues --    0.68777   0.69182   0.69910   0.70480   0.70982
 Alpha virt. eigenvalues --    0.71086   0.71632   0.71913   0.72608   0.73041
 Alpha virt. eigenvalues --    0.73254   0.74019   0.74595   0.74909   0.75232
 Alpha virt. eigenvalues --    0.75410   0.75770   0.75862   0.75997   0.76178
 Alpha virt. eigenvalues --    0.76517   0.76943   0.77246   0.77413   0.77706
 Alpha virt. eigenvalues --    0.77880   0.78359   0.78611   0.78891   0.79159
 Alpha virt. eigenvalues --    0.79708   0.79767   0.80236   0.80341   0.80785
 Alpha virt. eigenvalues --    0.81251   0.81338   0.81591   0.82076   0.82210
 Alpha virt. eigenvalues --    0.82981   0.83492   0.83860   0.84406   0.84842
 Alpha virt. eigenvalues --    0.85214   0.85657   0.85896   0.86076   0.86973
 Alpha virt. eigenvalues --    0.87499   0.87886   0.88412   0.88649   0.88950
 Alpha virt. eigenvalues --    0.89361   0.89529   0.89829   0.90396   0.90953
 Alpha virt. eigenvalues --    0.91119   0.91611   0.91913   0.92698   0.92847
 Alpha virt. eigenvalues --    0.93049   0.93447   0.94036   0.94230   0.94340
 Alpha virt. eigenvalues --    0.95209   0.95303   0.95716   0.96003   0.96432
 Alpha virt. eigenvalues --    0.96770   0.97152   0.97598   0.97922   0.98035
 Alpha virt. eigenvalues --    0.98882   0.99275   0.99566   0.99746   1.00151
 Alpha virt. eigenvalues --    1.01157   1.01267   1.02103   1.02182   1.02522
 Alpha virt. eigenvalues --    1.03571   1.04216   1.04516   1.05246   1.05409
 Alpha virt. eigenvalues --    1.05717   1.06056   1.07136   1.07406   1.07683
 Alpha virt. eigenvalues --    1.08111   1.08526   1.08724   1.09993   1.10412
 Alpha virt. eigenvalues --    1.10918   1.11901   1.12321   1.13321   1.13999
 Alpha virt. eigenvalues --    1.14382   1.15052   1.16686   1.18055   1.19958
 Alpha virt. eigenvalues --    1.21069   1.22157   1.22684   1.24683   1.26158
 Alpha virt. eigenvalues --    1.26962   1.64707   1.65933   1.67436   1.68115
 Alpha virt. eigenvalues --    1.68332   1.68915   1.69228   1.69519   1.69946
 Alpha virt. eigenvalues --    1.70338   1.70880   1.71286   1.71482   1.72420
 Alpha virt. eigenvalues --    1.72462   1.72899   1.73021   1.73296   1.73708
 Alpha virt. eigenvalues --    1.74066   1.74346   1.74778   1.74876   1.75279
 Alpha virt. eigenvalues --    1.75465   1.75539   1.75852   1.76158   1.76484
 Alpha virt. eigenvalues --    1.76685   1.76892   1.77185   1.77691   1.78091
 Alpha virt. eigenvalues --    1.78501   1.78632   1.79168   1.79477   1.79782
 Alpha virt. eigenvalues --    1.79965   1.80376   1.80653   1.81028   1.81633
 Alpha virt. eigenvalues --    1.81764   1.82380   1.83161   1.83384   1.83511
 Alpha virt. eigenvalues --    1.83888   1.84280   1.85110   1.85501   1.86167
 Alpha virt. eigenvalues --    1.87403   1.87886   1.88066   1.88878   1.89219
 Alpha virt. eigenvalues --    1.90270   1.91837   1.92988   1.93271   1.95810
 Alpha virt. eigenvalues --    1.98110   1.98802   1.99309   1.99892   2.00463
 Alpha virt. eigenvalues --    2.00764   2.01046   2.01356   2.01570   2.01732
 Alpha virt. eigenvalues --    2.01852   2.02041   2.02220   2.02476   2.02632
 Alpha virt. eigenvalues --    2.02793   2.03005   2.03195   2.03443   2.03521
 Alpha virt. eigenvalues --    2.03713   2.03928   2.04444   2.04887   2.05155
 Alpha virt. eigenvalues --    2.05872   2.05923   2.06343   2.06676   2.06734
 Alpha virt. eigenvalues --    2.07020   2.07090   2.07459   2.07791   2.08387
 Alpha virt. eigenvalues --    2.08519   2.08686   2.09083   2.09355   2.09613
 Alpha virt. eigenvalues --    2.09907   2.10088   2.10281   2.10625   2.11349
 Alpha virt. eigenvalues --    2.11728   2.12067   2.12509   2.12905   2.13446
 Alpha virt. eigenvalues --    2.13962   2.14523   2.15089   2.15410   2.16028
 Alpha virt. eigenvalues --    2.16201   2.16420   2.16638   2.16814   2.17065
 Alpha virt. eigenvalues --    2.17678   2.17867   2.18136   2.18596   2.18761
 Alpha virt. eigenvalues --    2.19506   2.19993   2.20301   2.21291   2.21333
 Alpha virt. eigenvalues --    2.21575   2.22426   2.23124   2.23549   2.24237
 Alpha virt. eigenvalues --    2.24376   2.24834   2.26143   2.26577   2.26933
 Alpha virt. eigenvalues --    2.28225   2.28392   2.28874   2.29426   2.30626
 Alpha virt. eigenvalues --    2.30804   2.31681   2.32717   2.33214   2.34416
 Alpha virt. eigenvalues --    2.35359   2.35883   2.36835   2.39100   2.39496
 Alpha virt. eigenvalues --    2.39810   2.40958   2.41148   2.41595   2.41766
 Alpha virt. eigenvalues --    2.42050   2.42363   2.42726   2.43170   2.43739
 Alpha virt. eigenvalues --    2.44039   2.44490   2.44820   2.44897   2.45470
 Alpha virt. eigenvalues --    2.45620   2.45982   2.46588   2.46827   2.47240
 Alpha virt. eigenvalues --    2.47859   2.48441   2.49726   2.50408   2.50873
 Alpha virt. eigenvalues --    2.51303   2.52037   2.53685   2.54302   2.54697
 Alpha virt. eigenvalues --    2.56154   2.57068   2.58300   2.67554   2.67938
 Alpha virt. eigenvalues --    2.68450   2.68841   2.69421   2.69777   2.69912
 Alpha virt. eigenvalues --    2.70394   2.70658   2.71064   2.71326   2.72608
 Alpha virt. eigenvalues --    2.73219   2.73765   2.74682   2.75081   2.75249
 Alpha virt. eigenvalues --    2.76169   2.76223   2.77283   2.77977   2.78321
 Alpha virt. eigenvalues --    2.79953   2.80351   2.81170   2.81814   2.82203
 Alpha virt. eigenvalues --    2.83323   2.83554   2.84179   2.84902   2.85258
 Alpha virt. eigenvalues --    2.85408   2.85854   2.86180   2.86652   2.87493
 Alpha virt. eigenvalues --    2.87680   2.88611   2.88928   2.89178   2.89917
 Alpha virt. eigenvalues --    2.90960   2.90995   2.91256   2.91929   2.92114
 Alpha virt. eigenvalues --    2.92958   2.93684   2.95015   2.96428   2.97350
 Alpha virt. eigenvalues --    2.98275   2.99222   3.00163   3.01447   3.01884
 Alpha virt. eigenvalues --    3.02691   3.04724   3.04826   3.06872   3.08646
 Alpha virt. eigenvalues --    3.09020   3.09164   3.14260   3.14766   3.15636
 Alpha virt. eigenvalues --    3.16652   3.17038   3.17385   3.18127   3.19379
 Alpha virt. eigenvalues --    3.19716   3.20194   3.20862   3.21480   3.24156
 Alpha virt. eigenvalues --    3.26630   3.27457   3.28440   3.32049   3.32970
 Alpha virt. eigenvalues --    3.33819   3.34797   3.37157   3.38914   3.40320
 Alpha virt. eigenvalues --    3.41045   3.41592   3.46095   3.48627   3.48754
 Alpha virt. eigenvalues --    3.51043   3.56044   3.59943   3.63310   4.51641
 Alpha virt. eigenvalues --    4.51801   4.51970   4.52141   4.52260   4.52280
 Alpha virt. eigenvalues --    4.52414   4.52517   4.52548   4.52679   4.52781
 Alpha virt. eigenvalues --    4.53099   4.53585   4.53662   4.53943   4.54140
 Alpha virt. eigenvalues --    4.54172   4.54398   4.54639   4.54680   4.54849
 Alpha virt. eigenvalues --    4.55431   4.55721   4.55912   4.56029   4.56153
 Alpha virt. eigenvalues --    4.56488   4.56990   4.57215   4.57315   4.57557
 Alpha virt. eigenvalues --    4.57773   4.59751   4.59867   4.59936   4.60028
 Alpha virt. eigenvalues --    4.60535   4.60578   4.60648   4.60817   4.61073
 Alpha virt. eigenvalues --    4.61131   4.61349   4.61536   4.61585   4.61713
 Alpha virt. eigenvalues --    4.61795   4.62148   4.62618   4.62760   4.62926
 Alpha virt. eigenvalues --    4.63050   4.63251   4.63409   4.63502   4.63625
 Alpha virt. eigenvalues --    4.63905   4.64045   4.64317   4.64528   4.64967
 Alpha virt. eigenvalues --    4.65407   4.65703   4.66968   4.74740   4.75074
 Alpha virt. eigenvalues --    4.75111   4.75305   4.75462   4.75853   4.76686
 Alpha virt. eigenvalues --    4.77061   4.77179   4.77366   4.77941   4.78369
 Alpha virt. eigenvalues --    4.78746   4.78929   4.79250   4.79370   4.79640
 Alpha virt. eigenvalues --    4.79845   4.80336   4.80948   4.81798   4.82006
 Alpha virt. eigenvalues --    4.82249   4.82565   4.83023   4.83171   4.83464
 Alpha virt. eigenvalues --    4.83795   4.85267   4.85451   4.85697   4.86430
 Alpha virt. eigenvalues --    4.86876   4.87204   4.87630   4.87713   4.87782
 Alpha virt. eigenvalues --    4.87981   4.88176   4.88373   4.88624   4.88911
 Alpha virt. eigenvalues --    4.89190   4.89398   4.90525   4.90932   4.91000
 Alpha virt. eigenvalues --    4.91193   4.91412   4.92067   4.92795   4.93295
 Alpha virt. eigenvalues --    4.94967   4.95602   4.96013   4.96690   4.97802
 Alpha virt. eigenvalues --    4.98119   4.99157   4.99451   5.00091   5.01973
 Alpha virt. eigenvalues --    5.02407   5.03231   5.03508   5.05145   5.05339
 Alpha virt. eigenvalues --    5.05932   5.06281   5.06840   5.07329   5.07785
 Alpha virt. eigenvalues --    5.08009   5.09217   5.09541   5.09962   5.11333
 Alpha virt. eigenvalues --    5.11643   5.11766   5.13013   5.13200   5.13791
 Alpha virt. eigenvalues --    5.14784   5.15691   5.16028   5.16494   5.16924
 Alpha virt. eigenvalues --    5.17730   5.18176   5.18920   5.19822   5.22663
 Alpha virt. eigenvalues --    5.23819   5.24891   5.25652   5.28259   5.35681
 Alpha virt. eigenvalues --    5.36306   5.38034   5.38233   5.38311   5.39121
 Alpha virt. eigenvalues --    5.39933   5.40428   5.42027   5.42119   5.43015
 Alpha virt. eigenvalues --    5.43245   5.44211   5.47366   5.48444   5.48883
[...]
   Y20       35.64023   0.00572   0.00000  -0.00034   0.00268  35.64291
   Z20       37.26540   0.00794   0.00000  -0.00141  -0.00032  37.26508
   X21       43.02906  -0.00628   0.00000  -0.01764  -0.01667  43.01239
   Y21       36.88745   0.00232   0.00000   0.00033   0.00295  36.89040
   Z21       37.28430  -0.00244   0.00000  -0.01118  -0.00997  37.27433
   X22       43.76606  -0.00901   0.00000  -0.02705  -0.02505  43.74100
   Y22       34.39302  -0.00896   0.00000  -0.01348  -0.01024  34.38277
   Z22       36.09377  -0.00831   0.00000  -0.00769  -0.00716  36.08661
   X23       39.72204   0.01575   0.00000   0.02032   0.01977  39.74182
   Y23       43.21804  -0.00492   0.00000   0.01603   0.01828  43.23632
   Z23       35.43236  -0.00139   0.00000  -0.00440  -0.00176  35.43061
   X24       39.11733  -0.00522   0.00000  -0.00510  -0.00587  39.11146
   Y24       44.63533   0.01552   0.00000   0.02700   0.02938  44.66471
   Z24       34.48750  -0.00960   0.00000  -0.01629  -0.01330  34.47420
   X25       38.49372  -0.01092   0.00000  -0.01555  -0.01630  38.47742
   Y25       42.99127  -0.00867   0.00000  -0.03842  -0.03700  42.95427
   Z25       36.73628   0.00559   0.00000  -0.01850  -0.01623  36.72004
   X26       41.13934   0.02042   0.00000   0.01725   0.02014  41.15947
   Y26       32.73006  -0.00527   0.00000  -0.00421  -0.00116  32.72890
   Z26       34.31743  -0.00452   0.00000   0.02384   0.02322  34.34065
   X27       39.92991  -0.01524   0.00000  -0.01650  -0.01406  39.91585
   Y27       34.03397   0.01520   0.00000   0.01336   0.01596  34.04993
   Z27       34.56309   0.00129   0.00000  -0.00939  -0.00984  34.55325
   X28       40.57242  -0.00826   0.00000  -0.02593  -0.02286  40.54956
   Y28       31.36945  -0.00824   0.00000  -0.00806  -0.00555  31.36390
   Z28       35.35678   0.01069   0.00000   0.02567   0.02445  35.38122
   X29       41.04485  -0.00482   0.00000   0.01225   0.01059  41.05544
   Y29       40.78029   0.01314   0.00000   0.02508   0.02491  40.80520
   Z29       43.69047   0.00804   0.00000   0.00232   0.00443  43.69490
   X30       41.25272   0.00378   0.00000   0.01934   0.01774  41.27046
   Y30       41.72515   0.00558   0.00000   0.01035   0.01077  41.73593
   Z30       42.15979  -0.00790   0.00000  -0.01855  -0.01608  42.14371
   X31       41.87633   0.00089   0.00000  -0.02808  -0.02918  41.84715
   Y31       39.21182  -0.01715   0.00000  -0.02668  -0.02650  39.18531
   Z31       43.36921   0.00094   0.00000   0.01364   0.01538  43.38459
   X32       43.48260   0.01663   0.00000   0.01226   0.01325  43.49585
   Y32       40.30786  -0.00315   0.00000   0.00206   0.00643  40.31429
   Z32       32.54108   0.00291   0.00000   0.00365   0.00614  32.54723
   X33       43.67157  -0.00004   0.00000  -0.00399  -0.00287  43.66870
   Y33       41.08265   0.00022   0.00000  -0.01437  -0.00939  41.07325
   Z33       30.91592  -0.00763   0.00000  -0.01693  -0.01414  30.90178
   X34       41.76295  -0.01629   0.00000  -0.00966  -0.00887  41.75408
   Y34       40.61021   0.00458   0.00000   0.00866   0.01235  40.62256
   Z34       32.97572   0.00828   0.00000   0.02292   0.02512  33.00085
   X35       36.30164   0.00607   0.00000   0.02371   0.02463  36.32627
   Y35       42.55663   0.01180   0.00000   0.01285   0.01599  42.57262
   Z35       29.76319   0.00322   0.00000   0.00470   0.00636  29.76954
   X36       35.43236   0.00141   0.00000   0.01303   0.01455  35.44691
   Y36       41.51728  -0.00316   0.00000   0.00708   0.01036  41.52764
   Z36       28.55376  -0.00022   0.00000   0.00562   0.00672  28.56048
   X37       37.05753  -0.00325   0.00000  -0.01717  -0.01613  37.04140
   Y37       41.36611  -0.00938   0.00000  -0.03277  -0.02980  41.33631
   Z37       30.91592  -0.00155   0.00000  -0.00916  -0.00776  30.90815
   X38       41.29052  -0.00449   0.00000  -0.01334  -0.01555  41.27497
   Y38       45.06997  -0.00439   0.00000  -0.00349  -0.00246  45.06750
   Z38       40.38345   0.01110   0.00000  -0.00731  -0.00369  40.37975
   X39       41.87633   0.00311   0.00000   0.01008   0.00730  41.88363
   Y39       46.77072   0.00416   0.00000  -0.00258  -0.00143  46.76929
   Z39       40.59132  -0.00127   0.00000  -0.00746  -0.00314  40.58818
   X40       41.19603   0.00251   0.00000   0.01580   0.01406  41.21009
   Y40       44.82430   0.00045   0.00000   0.00416   0.00579  44.83009
   Z40       38.58821  -0.01551   0.00000  -0.02914  -0.02562  38.56259
   X41       28.70494  -0.00409   0.00000   0.00602   0.00669  28.71163
   Y41       35.65913  -0.02260   0.00000  -0.02749  -0.03025  35.62888
   Z41       40.27006   0.01852   0.00000   0.04127   0.03885  40.30891
   X42       28.13802  -0.00548   0.00000  -0.00406  -0.00366  28.13437
   Y42       37.15202   0.01259   0.00000  -0.01547  -0.01812  37.13390
   Z42       39.43858  -0.00941   0.00000  -0.00142  -0.00346  39.43512
   X43       30.48128   0.01429   0.00000   0.02133   0.02207  30.50336
   Y43       35.62134  -0.00262   0.00000  -0.01704  -0.01915  35.60219
   Z43       39.96771   0.00120   0.00000   0.02006   0.01804  39.98574
   X44       35.52685   0.01693   0.00000   0.01173   0.01359  35.54044
   Y44       29.49862  -0.02844   0.00000  -0.03960  -0.04133  29.45730
   Z44       43.36921   0.00748   0.00000  -0.02142  -0.02441  43.34481
   X45       33.84500  -0.01113   0.00000  -0.01158  -0.00969  33.83530
   Y45       29.02619   0.00100   0.00000   0.00846   0.00607  29.03226
   Z45       43.80385   0.00154   0.00000   0.00520   0.00168  43.80553
   X46       35.35678  -0.00584   0.00000  -0.00606  -0.00448  35.35230
   Y46       31.01041   0.02737   0.00000   0.03654   0.03507  31.04547
   Z46       42.40545  -0.00961   0.00000   0.01958   0.01709  42.42254
   X47       40.40234  -0.00086   0.00000  -0.00383  -0.00065  40.40170
   Y47       36.33943   0.00184   0.00000   0.02641   0.03135  36.37078
   Z47       28.13802  -0.01833   0.00000  -0.02742  -0.02697  28.11105
   X48       39.04174  -0.00666   0.00000   0.00042   0.00326  39.04501
   Y48       36.56620   0.00089   0.00000  -0.00617  -0.00206  36.56414
   Z48       29.30965   0.00967   0.00000   0.01209   0.01230  29.32196
   X49       41.87633   0.01237   0.00000   0.02044   0.02328  41.89961
   Y49       36.81187  -0.00428   0.00000  -0.04237  -0.03730  36.77457
   Z49       29.06399   0.00764   0.00000   0.00611   0.00703  29.07102
   X50       47.62110   0.01959   0.00000   0.02130   0.02163  47.64273
   Y50       36.18826   0.00048   0.00000   0.00282   0.00555  36.19381
   Z50       40.98816   0.02421   0.00000   0.06167   0.06369  41.05185
   X51       48.16912  -0.00980   0.00000  -0.02573  -0.02568  48.14344
   Y51       37.75673  -0.00473   0.00000  -0.02126  -0.01810  37.73863
   Z51       40.23227  -0.00550   0.00000  -0.01650  -0.01385  40.21842
   X52       46.07152  -0.00247   0.00000   0.04263   0.04329  46.11481
   Y52       35.79141   0.00026   0.00000  -0.01106  -0.00848  35.78294
   Z52       40.15668  -0.01253   0.00000  -0.02006  -0.01852  40.13816
   X53       37.15202  -0.01839   0.00000  -0.00394  -0.00683  37.14518
   Y53       44.37077   0.00806   0.00000   0.02399   0.02242  44.39319
   Z53       44.31408   0.00798   0.00000   0.01915   0.02160  44.33568
   X54       37.34099   0.00623   0.00000   0.02296   0.02006  37.36105
   Y54       45.50461  -0.00100   0.00000  -0.01407  -0.01509  45.48952
   Z54       42.91568  -0.00582   0.00000  -0.01675  -0.01388  42.90180
   X55       38.75828   0.01620   0.00000   0.01102   0.00835  38.76663
   Y55       43.55819  -0.00803   0.00000  -0.01075  -0.01188  43.54631
   Z55       44.46526   0.00044   0.00000   0.00181   0.00435  44.46960
   X56       32.52219  -0.00689   0.00000  -0.02570  -0.02264  32.49954
   Y56       34.26073   0.00312   0.00000  -0.00857  -0.00719  34.25354
   Z56       31.50173   0.00058   0.00000   0.01424   0.01220  31.51393
   X57       30.82143  -0.00139   0.00000  -0.01685  -0.01377  30.80766
   Y57       34.60089   0.00170   0.00000   0.00063   0.00169  34.60258
   Z57       30.95371  -0.00025   0.00000  -0.00115  -0.00345  30.95027
   X58       32.54108   0.00322   0.00000   0.00573   0.00927  32.55035
   Y58       32.48439  -0.00997   0.00000  -0.02323  -0.02194  32.46245
   Z58       31.82299  -0.00037   0.00000  -0.00910  -0.01174  31.81125
   X59       47.46992   0.01039   0.00000   0.02853   0.02804  47.49796
   Y59       40.81808   0.00010   0.00000   0.01832   0.02191  40.83999
   Z59       38.43703  -0.00127   0.00000  -0.02506  -0.02149  38.41554
   X60       48.07463  -0.00195   0.00000  -0.01377  -0.01490  48.05973
   Y60       42.06530   0.00396   0.00000   0.01212   0.01547  42.08077
   Z60       39.60866   0.00355   0.00000   0.00903   0.01314  39.62180
   X61       46.03373  -0.00880   0.00000  -0.01503  -0.01556  46.01817
   Y61       41.57397   0.00133   0.00000  -0.01139  -0.00799  41.56598
   Z61       37.64334  -0.00374   0.00000  -0.00480  -0.00131  37.64203
   X62       38.49372   0.02218   0.00000   0.00967   0.01296  38.50668
   Y62       27.66559  -0.01037   0.00000  -0.02083  -0.02031  27.64528
   Z62       39.41969  -0.01560   0.00000  -0.02263  -0.02557  39.39412
   X63       37.30319  -0.01215   0.00000   0.01399   0.01690  37.32009
   Y63       27.87346   0.00824   0.00000   0.02635   0.02604  27.89950
   Z63       40.76139   0.01863   0.00000   0.02412   0.02100  40.78239
   X64       37.71893  -0.00804   0.00000  -0.02278  -0.01943  37.69950
   Y64       28.47817   0.00638   0.00000   0.01657   0.01732  28.49549
   Z64       38.00239  -0.00349   0.00000   0.00253  -0.00030  38.00209
   X65       32.80565   0.00202   0.00000  -0.00797  -0.00870  32.79695
   Y65       35.79141  -0.01350   0.00000  -0.01008  -0.01365  35.77776
   Z65       46.29829   0.00681   0.00000   0.01494   0.01348  46.31177
   X66       31.10489  -0.00640   0.00000  -0.00645  -0.00703  31.09786
   Y66       35.79141   0.00307   0.00000   0.01083   0.00697  35.79838
   Z66       45.67468  -0.00586   0.00000  -0.01853  -0.02036  45.65432
   X67       33.37256   0.00242   0.00000   0.00590   0.00472  33.37728
   Y67       37.49217   0.00795   0.00000  -0.00309  -0.00638  37.48579
   Z67       46.03373  -0.00609   0.00000  -0.02239  -0.02313  46.01060
   X68       27.30654  -0.00970   0.00000  -0.02765  -0.02731  27.27923
   Y68       39.07954   0.00892   0.00000   0.06578   0.06371  39.14324
   Z68       37.03863  -0.00067   0.00000  -0.02366  -0.02521  37.01342
   X69       28.76163   0.01178   0.00000   0.02620   0.02630  28.78794
   Y69       40.11889   0.00990   0.00000   0.02569   0.02417  40.14306
   Z69       36.71738   0.00034   0.00000   0.00244   0.00157  36.71895
   X70       26.92860  -0.00107   0.00000   0.00549   0.00643  26.93503
   Y70       38.34254  -0.00414   0.00000  -0.00626  -0.00790  38.33465
   Z70       35.43236  -0.00555   0.00000  -0.00845  -0.01034  35.42202
   X71       30.84033  -0.00877   0.00000  -0.02076  -0.02336  30.81697
   Y71       42.78340  -0.00445   0.00000  -0.00280  -0.00659  42.77681
   Z71       45.20225   0.00831   0.00000  -0.00226  -0.00177  45.20048
   X72       31.70960   0.00833   0.00000   0.02404   0.02197  31.73158
   Y72       42.10310  -0.00532   0.00000  -0.01209  -0.01511  42.08798
   Z72       43.76606  -0.00488   0.00000   0.01014   0.01059  43.77665
   X73       30.76474   0.00280   0.00000   0.01690   0.01383  30.77857
   Y73       44.55974   0.00647   0.00000   0.00817   0.00448  44.56422
   Z73       44.88100  -0.00230   0.00000  -0.00590  -0.00481  44.87619
   X74       45.10776   0.00631   0.00000   0.01021   0.01225  45.12001
   Y74       30.12223   0.00488   0.00000   0.00061   0.00238  30.12462
   Z74       41.63067   0.00231   0.00000  -0.00401  -0.00463  41.62604
   X75       44.69202  -0.00622   0.00000  -0.02368  -0.02106  44.67096
   Y75       28.36479  -0.00288   0.00000   0.00115   0.00284  28.36763
   Z75       41.46059  -0.00168   0.00000   0.00000  -0.00131  41.45928
   X76       43.99282  -0.00235   0.00000  -0.00544  -0.00338  43.98944
   Y76       30.95371  -0.00305   0.00000  -0.01228  -0.01046  30.94326
   Z76       40.45904  -0.00180   0.00000  -0.00231  -0.00290  40.45614
   X77       34.46860  -0.01863   0.00000  -0.00196  -0.00343  34.46518
   Y77       46.61954  -0.01548   0.00000  -0.03225  -0.03146  46.58808
   Z77       34.95993   0.02144   0.00000   0.04630   0.04890  35.00883
   X78       35.71582   0.01274   0.00000  -0.01458  -0.01586  35.69997
   Y78       46.92190   0.00610   0.00000   0.00343   0.00504  46.92694
   Z78       33.69382  -0.01578   0.00000  -0.01163  -0.00863  33.68518
   X79       34.69537   0.00279   0.00000   0.00436   0.00221  34.69758
   Y79       47.92345   0.00822   0.00000   0.02032   0.02078  47.94423
   Z79       36.18826   0.00316   0.00000   0.00239   0.00551  36.19377
   X80       45.63689   0.00806   0.00000   0.01129   0.01450  45.65138
   Y80       34.54419   0.02413   0.00000   0.01838   0.02413  34.56832
   Z80       30.42459  -0.00748   0.00000  -0.00238  -0.00136  30.42323
   X81       45.44791  -0.00032   0.00000  -0.00013   0.00248  45.45040
   Y81       35.28119   0.00273   0.00000   0.00286   0.00798  35.28917
   Z81       32.06865   0.00714   0.00000   0.01284   0.01406  32.08271
   X82       45.27784  -0.00825   0.00000  -0.02353  -0.01983  45.25801
   Y82       32.80565  -0.02248   0.00000  -0.01381  -0.00825  32.79739
   Z82       30.65136  -0.00007   0.00000  -0.01753  -0.01721  30.63415
   X83       40.91257   0.00150   0.00000   0.00977   0.00832  40.92089
   Y83       36.43392   0.00758   0.00000   0.00949   0.00760  36.44152
   Z83       48.62265   0.01004   0.00000   0.00202   0.00261  48.62526
   X84       40.87478  -0.00182   0.00000  -0.00849  -0.00933  40.86544
   Y84       35.67803  -0.00493   0.00000   0.00223   0.00090  35.67893
   Z84       46.97859  -0.01173   0.00000  -0.01477  -0.01445  46.96414
   X85       41.02595  -0.00049   0.00000  -0.00224  -0.00350  41.02246
   Y85       35.01663  -0.00246   0.00000  -0.00491  -0.00715  35.00947
   Z85       49.75649  -0.00226   0.00000  -0.01208  -0.01195  49.74454
   X86       42.51884   0.01575   0.00000   0.02311   0.02770  42.54654
   Y86       30.16003  -0.00355   0.00000  -0.01870  -0.01383  30.14619
   Z86       30.25452  -0.01942   0.00000  -0.01803  -0.01922  30.23530
   X87       41.83854  -0.00325   0.00000   0.00008   0.00508  41.84362
   Y87       28.53486  -0.01048   0.00000  -0.02010  -0.01557  28.51929
   Z87       30.61356   0.00398   0.00000   0.00690   0.00501  30.61857
   X88       41.93302  -0.01118   0.00000  -0.02970  -0.02574  41.90729
   Y88       31.21828   0.01176   0.00000   0.01314   0.01736  31.23563
   Z88       31.59622   0.00830   0.00000  -0.02579  -0.02675  31.56947
   X89       44.27628  -0.00329   0.00000  -0.00348  -0.00520  44.27109
   Y89       46.92190   0.01713   0.00000   0.00524   0.00879  46.93069
   Z89       35.64023   0.00797   0.00000  -0.00330   0.00162  35.64185
   X90       44.21959   0.00017   0.00000  -0.00253  -0.00357  44.21602
   Y90       45.37232  -0.01811   0.00000  -0.02653  -0.02269  45.34964
   Z90       34.73317  -0.00673   0.00000  -0.00160   0.00276  34.73593
   X91       45.75027   0.00187   0.00000   0.00395   0.00205  45.75232
   Y91       46.78962  -0.00303   0.00000  -0.01079  -0.00714  46.78248
   Z91       36.69848  -0.00121   0.00000  -0.01145  -0.00626  36.69223
   X92       29.30965  -0.00694   0.00000  -0.01737  -0.01824  29.29142
   Y92       45.25894  -0.00397   0.00000  -0.01324  -0.01372  45.24522
   Z92       34.12845  -0.00743   0.00000  -0.00908  -0.00809  34.12036
   X93       30.95371   0.00723   0.00000   0.00764   0.00660  30.96031
   Y93       45.27784   0.00262   0.00000   0.01363   0.01341  45.29124
   Z93       34.90324  -0.00309   0.00000  -0.03444  -0.03307  34.87017
   X94       28.17582  -0.00238   0.00000   0.00128  -0.00004  28.17578
   Y94       45.75027   0.00031   0.00000  -0.00380  -0.00508  45.74519
   Z94       35.45126   0.00602   0.00000   0.01381   0.01472  35.46598
   X95       38.22916  -0.00280   0.00000   0.01602   0.01521  38.24437
   Y95       46.92190   0.00449   0.00000  -0.02039  -0.01731  46.90459
   Z95       31.63402   0.01508   0.00000   0.00406   0.00762  31.64164
   X96       37.88901  -0.01159   0.00000  -0.03584  -0.03597  37.85304
   Y96       45.50461  -0.01824   0.00000  -0.02305  -0.01971  45.48490
   Z96       30.55687  -0.01444   0.00000  -0.02958  -0.02660  30.53028
   X97       39.68425   0.01406   0.00000   0.02007   0.01917  39.70342
   Y97       47.69669   0.01030   0.00000   0.01553   0.01929  47.71598
   Z97       30.93482  -0.00383   0.00000  -0.00444  -0.00028  30.93454
         Item               Value     Threshold  Converged?
 Maximum Force            0.028440     0.000450     NO 
 RMS     Force            0.009529     0.000300     NO 
 Maximum Displacement     0.063708     0.001800     NO 
 RMS     Displacement     0.017440     0.001200     NO 
 Predicted change in Energy=-2.502269D-02
 GradGradGradGradGradGradGradGradGradGradGradGradGradGradGradGradGradGrad

 Leave Link  103 at Thu May  3 10:27:23 2018, MaxMem= 14763950080 cpu:        67.4
 (Enter /cm/shared/gaussian/g09.e01/intel64-sandybridge/g09/l9999.exe)
 1\1\GINC-POPLE03\Force\RPBE1PBE\CC-pVDZ\Br1H64O32(1-)\M.PELUSO\03-May-
 2018\0\\#p PBE1PBE/cc-pvDZ force Counterpoise=2 noSymm\\forces on chlo
 ride comput - NWATER: 32\\-1,1\Br,20.,20.,20.\O,18.24,18.,21.73\H,18.2
 9,18.65,22.43\H,18.79,18.36,21.03\O,21.62,18.56,22.45\H,22.36,18.25,21
 .93\H,20.97,18.82,21.79\O,19.33,19.67,16.67\H,19.35,20.01,17.56\H,18.5
 6,19.1,16.65\O,17.12,21.93,19.94\H,17.51,22.8,19.92\H,17.84,21.34,19.7
 4\O,18.7,20.85,22.98\H,18.85,21.09,22.07\H,19.2,21.5,23.49\O,18.96,16.
 78,18.93\H,18.98,17.73,18.85\H,18.03,16.56,18.81\O,23.47,18.86,19.72\H
 ,22.77,19.52,19.73\H,23.16,18.2,19.1\O,21.02,22.87,18.75\H,20.7,23.62,
 18.25\H,20.37,22.75,19.44\O,21.77,17.32,18.16\H,21.13,18.01,18.29\H,21
 .47,16.6,18.71\O,21.72,21.58,23.12\H,21.83,22.08,22.31\H,22.16,20.75,2
 2.95\O,23.01,21.33,17.22\H,23.11,21.74,16.36\H,22.1,21.49,17.45\O,19.2
 1,22.52,15.75\H,18.75,21.97,15.11\H,19.61,21.89,16.36\O,21.85,23.85,21
 .37\H,22.16,24.75,21.48\H,21.8,23.72,20.42\O,15.19,18.87,21.31\H,14.89
 ,19.66,20.87\H,16.13,18.85,21.15\O,18.8,15.61,22.95\H,17.91,15.36,23.1
 8\H,18.71,16.41,22.44\O,21.38,19.23,14.89\H,20.66,19.35,15.51\H,22.16,
 19.48,15.38\O,25.2,19.15,21.69\H,25.49,19.98,21.29\H,24.38,18.94,21.25
 \O,19.66,23.48,23.45\H,19.76,24.08,22.71\H,20.51,23.05,23.53\O,17.21,1
 8.13,16.67\H,16.31,18.31,16.38\H,17.22,17.19,16.84\O,25.12,21.6,20.34\
 H,25.44,22.26,20.96\H,24.36,22.,19.92\O,20.37,14.64,20.86\H,19.74,14.7
 5,21.57\H,19.96,15.07,20.11\O,17.36,18.94,24.5\H,16.46,18.94,24.17\H,1
 7.66,19.84,24.36\O,14.45,20.68,19.6\H,15.22,21.23,19.43\H,14.25,20.29,
 18.75\O,16.32,22.64,23.92\H,16.78,22.28,23.16\H,16.28,23.58,23.75\O,23
 .87,15.94,22.03\H,23.65,15.01,21.94\H,23.28,16.38,21.41\O,18.24,24.67,
 18.5\H,18.9,24.83,17.83\H,18.36,25.36,19.15\O,24.15,18.28,16.1\H,24.05
 ,18.67,16.97\H,23.96,17.36,16.22\O,21.65,19.28,25.73\H,21.63,18.88,24.
 86\H,21.71,18.53,26.33\O,22.5,15.96,16.01\H,22.14,15.1,16.2\H,22.19,16
 .52,16.72\O,23.43,24.83,18.86\H,23.4,24.01,18.38\H,24.21,24.76,19.42\O
 ,15.51,23.95,18.06\H,16.38,23.96,18.47\H,14.91,24.21,18.76\O,20.23,24.
 83,16.74\H,20.05,24.08,16.17\H,21.,25.24,16.37\\Version=ES64L-G09RevE.
 01\HF=-2443.1717124\RMSD=3.283e-09\RMSF=9.529e-03\Dipole=-2.0825879,4.
 6871546,-4.8094106\Quadrupole=-130.7553466,456.7937556,-326.038409,-13
 11.0054769,-1671.6253757,-1437.0567161\PG=C01 [X(Br1H64O32)]\\@


 TRUST EVERYONE, BUT CUT THE CARDS.
 Job cpu time:       0 days 11 hours  1 minutes 34.2 seconds.
 File lengths (MBytes):  RWF=    482 Int=      0 D2E=      0 Chk=    160 Scr=      1
 Normal termination of Gaussian 09 at Thu May  3 10:27:25 2018.
