 Entering Gaussian System, Link 0=/cm/shared/gaussian/g09.e01/intel64-sandybridge/g09/g09
 Initial command:
 /cm/shared/gaussian/g09.e01/intel64-sandybridge/g09/l1.exe "/local/scratch/m.peluso/128_wat/order/Gau-41113.inp" -scrdir="/local/scratch/m.peluso/128_wat/order/"
 Entering Link 1 = /cm/shared/gaussian/g09.e01/intel64-sandybridge/g09/l1.exe PID=     41114.
  
 Copyright (c) 1988,1990,1992,1993,1995,1998,2003,2009,2015,
            Gaussian, Inc.  All Rights Reserved.
  
 This is part of the Gaussian(R) 09 program.  It is based on
 the Gaussian(R) 03 system (copyright 2003, Gaussian, Inc.),
 the Gaussian(R) 98 system (copyright 1998, Gaussian, Inc.),
 the Gaussian(R) 94 system (copyright 1995, Gaussian, Inc.),
 the Gaussian 92(TM) system (copyright 1992, Gaussian, Inc.),
 the Gaussian 90(TM) system (copyright 1990, Gaussian, Inc.),
 the Gaussian 88(TM) system (copyright 1988, Gaussian, Inc.),
 the Gaussian 86(TM) system (copyright 1986, Carnegie Mellon
 University), and the Gaussian 82(TM) system (copyright 1983,
 Carnegie Mellon University). Gaussian is a federally registered
 trademark of Gaussian, Inc.
  
 This software contains proprietary and confidential information,
 including trade secrets, belonging to Gaussian, Inc.
  
 This software is provided under written license and may be
 used, copied, transmitted, or stored only in accord with that
 written license.
  
 The following legend is applicable only to US Government
 contracts under FAR:
  
                    RESTRICTED RIGHTS LEGEND
  
 Use, reproduction and disclosure by the US Government is
 subject to restrictions as set forth in subparagraphs (a)
 and (c) of the Commercial Computer Software - Restricted
 Rights clause in FAR 52.227-19.
  
 Gaussian, Inc.
 340 Quinnipiac St., Bldg. 40, Wallingford CT 06492
  
  
 ---------------------------------------------------------------
 Warning -- This program may not be used in any manner that
 competes with the business of Gaussian, Inc. or will provide
 assistance to any competitor of Gaussian, Inc.  The licensee
 of this program is prohibited from giving any competitor of
 Gaussian, Inc. access to this program.  By using this program,
 the user acknowledges that Gaussian, Inc. is engaged in the
 business of creating and licensing software in the field of
 computational chemistry and represents and warrants to the
 licensee that it is not a competitor of Gaussian, Inc. and that
 it will not use this program in any manner prohibited above.
 ---------------------------------------------------------------
  

 Cite this work as:
 Gaussian 09, Revision E.01,
 M. J. Frisch, G. W. Trucks, H. B. Schlegel, G. E. Scuseria, 
 M. A. Robb, J. R. Cheeseman, G. Scalmani, V. Barone, B. Mennucci, 
 G. A. Petersson, H. Nakatsuji, M. Caricato, X. Li, H. P. Hratchian, 
 A. F. Izmaylov, J. Bloino, G. Zheng, J. L. Sonnenberg, M. Hada, 
 M. Ehara, K. Toyota, R. Fukuda, J. Hasegawa, M. Ishida, T. Nakajima, 
 Y. Honda, O. Kitao, H. Nakai, T. Vreven, J. A. Montgomery, Jr., 
 J. E. Peralta, F. Ogliaro, M. Bearpark, J. J. Heyd, E. Brothers, 
 K. N. Kudin, V. N. Staroverov, T. Keith, R. Kobayashi, J. Normand, 
 K. Raghavachari, A. Rendell, J. C. Burant, S. S. Iyengar, J. Tomasi, 
 M. Cossi, N. Rega, J. M. Millam, M. Klene, J. E. Knox, J. B. Cross, 
 V. Bakken, C. Adamo, J. Jaramillo, R. Gomperts, R. E. Stratmann, 
 O. Yazyev, A. J. Austin, R. Cammi, C. Pomelli, J. W. Ochterski, 
 R. L. Martin, K. Morokuma, V. G. Zakrzewski, G. A. Voth, 
 P. Salvador, J. J. Dannenberg, S. Dapprich, A. D. Daniels, 
 O. Farkas, J. B. Foresman, J. V. Ortiz, J. Cioslowski, 
 and D. J. Fox, Gaussian, Inc., Wallingford CT, 2013.
 
 ******************************************
 Gaussian 09:  ES64L-G09RevE.01 30-Nov-2015
                17-May-2018 
 ******************************************
 %Mem=110GB
 %NProcShared=64
 Will use up to   64 processors via shared memory.
 %chk=snap96.chk
 ----------------------------------------------
 #p PBE1PBE/cc-pvDZ force Counterpoise=2 noSymm
 ----------------------------------------------
 1/10=7,30=1,38=1,62=2/1,3;
 2/12=2,15=1,17=6,18=5,40=1/2;
 1/10=7,30=1,38=1,53=2,62=2,63=101/22;
 3/5=16,11=2,16=1,25=1,30=1,71=1,74=-13/1,2,3;
 4//1;
 5/5=2,38=5/2;
 6/7=2,8=2,9=2,10=2,28=1/1;
 7/7=1,29=1,30=1,33=-1/1,2,3,16;
 1/10=7,30=1,53=2,62=2,63=101/22;
 3/5=7,6=11,11=2,16=1,25=1,30=1,71=1,74=-13,82=7/1,2,3;
 4//1;
 5/5=2,38=5/2;
 6/7=2,8=2,9=2,10=2,28=1/1;
 7/7=1,29=1,30=1,33=-1/1,2,3,16;
 1/10=7,30=1,53=2,62=2,63=101/22(-5);
 7/9=1,29=1,44=-1/16;
 1/10=7,30=1,62=2/3;
 99//99;
 Leave Link    1 at Thu May 17 10:57:01 2018, MaxMem= 14763950080 cpu:         6.1
 (Enter /cm/shared/gaussian/g09.e01/intel64-sandybridge/g09/l101.exe)
 ---------------------------------------
 forces on chloride comput - NWATER: 128
 ---------------------------------------
 Symbolic Z-matrix:
 Charge = -1 Multiplicity = 1 in supermolecule
 Charge = -1 Multiplicity = 1 in fragment      1.
 Charge =  0 Multiplicity = 1 in fragment      2.
 Br(Fragment=1)        20.       20.       20. 
 O(Fragment=2)         22.26     22.15     19.4 
 H(Fragment=2)         21.6      21.51     19.69 
 H(Fragment=2)         23.07     21.64     19.32 
 O(Fragment=2)         20.54     18.62     23.07 
 H(Fragment=2)         20.39     18.9      22.17 
 H(Fragment=2)         19.66     18.45     23.42 
 O(Fragment=2)         22.27     18.57     17.84 
 H(Fragment=2)         21.69     19.01     18.46 
 H(Fragment=2)         21.77     18.54     17.03 
 O(Fragment=2)         17.53     18.35     18.7 
 H(Fragment=2)         18.41     18.7      18.56 
 H(Fragment=2)         17.01     19.09     19. 
 O(Fragment=2)         20.09     22.14     22.71 
 H(Fragment=2)         19.89     21.58     21.96 
 H(Fragment=2)         20.       21.56     23.47 
 O(Fragment=2)         19.29     21.54     16.96 
 H(Fragment=2)         19.27     21.15     17.84 
 H(Fragment=2)         19.91     22.26     17.03 
 O(Fragment=2)         22.8      18.54     21.6 
 H(Fragment=2)         22.41     18.95     20.83 
 H(Fragment=2)         22.1      18.54     22.25 
 O(Fragment=2)         16.44     20.21     20.76 
 H(Fragment=2)         15.9      19.78     21.42 
 H(Fragment=2)         17.08     20.72     21.25 
 O(Fragment=2)         18.82     16.67     21.09 
 H(Fragment=2)         19.31     16.79     20.27 
 H(Fragment=2)         17.98     17.11     20.94 
 O(Fragment=2)         20.12     16.6      18.65 
 H(Fragment=2)         19.97     15.74     18.25 
 H(Fragment=2)         19.44     17.16     18.27 
 O(Fragment=2)         17.27     23.48     19.51 
 H(Fragment=2)         16.36     23.6      19.78 
 H(Fragment=2)         17.61     22.81     20.1 
 O(Fragment=2)         22.       16.22     20.36 
 H(Fragment=2)         21.43     16.49     19.64 
 H(Fragment=2)         22.11     17.01     20.88 
 O(Fragment=2)         20.95     23.83     17.87 
 H(Fragment=2)         21.7      24.35     17.57 
 H(Fragment=2)         21.27     23.37     18.64 
 O(Fragment=2)         22.01     24.2      21.88 
 H(Fragment=2)         21.28     24.69     21.51 
 H(Fragment=2)         21.66     23.32     22.04 
 O(Fragment=2)         19.44     24.71     21.25 
 H(Fragment=2)         19.04     23.87     21.51 
 H(Fragment=2)         19.04     25.35     21.84 
 O(Fragment=2)         24.43     20.61     22.24 
 H(Fragment=2)         24.86     20.45     23.08 
 H(Fragment=2)         23.79     19.9      22.16 
 O(Fragment=2)         17.16     19.65     15.86 
 H(Fragment=2)         16.92     19.46     16.77 
 H(Fragment=2)         18.       20.09     15.92 
 O(Fragment=2)         18.26     16.61     23.77 
 H(Fragment=2)         18.77     15.8      23.8 
 H(Fragment=2)         18.33     16.91     22.87 
 O(Fragment=2)         17.11     22.23     23.55 
 H(Fragment=2)         17.22     21.37     23.97 
 H(Fragment=2)         17.99     22.47     23.27 
 O(Fragment=2)         15.28     19.93     18.09 
 H(Fragment=2)         15.52     20.08     19. 
 H(Fragment=2)         14.34     20.09     18.05 
 O(Fragment=2)         18.18     19.62     24.31 
 H(Fragment=2)         17.61     18.97     24.72 
 H(Fragment=2)         18.8      19.87     25. 
 O(Fragment=2)         23.58     20.85     16.14 
 H(Fragment=2)         23.61     20.94     17.09 
 H(Fragment=2)         22.92     20.18     15.98 
 O(Fragment=2)         24.75     17.6      18.33 
 H(Fragment=2)         23.98     18.12     18.1 
 H(Fragment=2)         24.5      16.7      18.12 
 O(Fragment=2)         24.65     21.32     18.99 
 H(Fragment=2)         25.27     20.63     18.8 
 H(Fragment=2)         25.15     21.96     19.5 
 O(Fragment=2)         20.64     20.72     24.9 
 H(Fragment=2)         20.96     21.55     25.26 
 H(Fragment=2)         20.33     20.23     25.67 
 O(Fragment=2)         18.86     21.18     14.4 
 H(Fragment=2)         19.2      21.39     15.27 
 H(Fragment=2)         19.61     21.3      13.82 
 O(Fragment=2)         14.97     17.46     20.14 
 H(Fragment=2)         15.85     17.19     19.86 
 H(Fragment=2)         14.53     16.64     20.37 
 O(Fragment=2)         23.25     19.2      24.62 
 H(Fragment=2)         22.31     19.29     24.82 
 H(Fragment=2)         23.27     18.88     23.72 
 O(Fragment=2)         21.5      19.2      15.18 
 H(Fragment=2)         21.17     19.84     14.55 
 H(Fragment=2)         21.1      18.37     14.91 
 O(Fragment=2)         19.61     14.15     21.25 
 H(Fragment=2)         19.2      15.01     21.38 
 H(Fragment=2)         19.42     13.93     20.34 
 O(Fragment=2)         24.49     23.49     21.1 
 H(Fragment=2)         23.62     23.89     21.07 
 H(Fragment=2)         24.36     22.66     21.55 
 O(Fragment=2)         18.89     25.94     18.83 
 H(Fragment=2)         18.94     25.41     18.03 
 H(Fragment=2)         19.17     25.34     19.52 
 O(Fragment=2)         25.47     17.55     20.89 
 H(Fragment=2)         24.62     17.43     21.31 
 H(Fragment=2)         25.25     17.75     19.98 
 O(Fragment=2)         24.2      24.06     17.51 
 H(Fragment=2)         23.88     23.32     18.03 
 H(Fragment=2)         24.27     23.72     16.62 
 O(Fragment=2)         15.85     22.25     16.06 
 H(Fragment=2)         15.73     22.42     16.99 
 H(Fragment=2)         16.29     21.4      16.01 
 O(Fragment=2)         19.12     15.98     16.08 
 H(Fragment=2)         19.1      16.69     15.44 
 H(Fragment=2)         18.21     15.7      16.15 
 O(Fragment=2)         22.53     16.38     23.85 
 H(Fragment=2)         22.82     15.51     23.56 
 H(Fragment=2)         21.61     16.27     24.08 
 O(Fragment=2)         14.68     19.27     22.73 
 H(Fragment=2)         14.21     18.67     22.15 
 H(Fragment=2)         15.35     18.72     23.15 
 O(Fragment=2)         22.27     14.03     21.85 
 H(Fragment=2)         21.33     13.95     21.73 
 H(Fragment=2)         22.5      14.86     21.44 
 O(Fragment=2)         18.18     24.49     15.6 
 H(Fragment=2)         17.77     24.21     16.42 
 H(Fragment=2)         18.03     23.75     15.01 
 O(Fragment=2)         21.       24.87     24.18 
 H(Fragment=2)         21.34     25.74     24.38 
 H(Fragment=2)         21.65     24.49     23.58 
 O(Fragment=2)         23.57     21.94     24.96 
 H(Fragment=2)         24.5      21.92     24.74 
 H(Fragment=2)         23.29     21.03     24.9 
 O(Fragment=2)         21.72     23.39     14.2 
 H(Fragment=2)         21.41     22.79     13.52 
 H(Fragment=2)         21.71     22.87     15. 
 O(Fragment=2)         22.39     13.63     18.99 
 H(Fragment=2)         22.14     14.37     19.55 
 H(Fragment=2)         22.25     13.95     18.1 
 O(Fragment=2)         14.53     22.7      19.28 
 H(Fragment=2)         14.03     22.34     20.01 
 H(Fragment=2)         13.95     22.63     18.52 
 O(Fragment=2)         16.21     15.01     19.34 
 H(Fragment=2)         15.68     15.26     18.59 
 H(Fragment=2)         16.93     14.48     18.98 
 O(Fragment=2)         15.56     16.62     23.75 
 H(Fragment=2)         15.53     15.77     23.3 
 H(Fragment=2)         16.46     16.69     24.07 
 O(Fragment=2)         14.9      23.4      23.82 
 H(Fragment=2)         15.64     22.8      23.7 
 H(Fragment=2)         14.37     22.99     24.5 
 O(Fragment=2)         22.02     14.85     16.58 
 H(Fragment=2)         22.7      15.13     15.96 
 H(Fragment=2)         21.2      15.05     16.13 
 O(Fragment=2)         16.27     14.38     22.59 
 H(Fragment=2)         16.47     13.44     22.6 
 H(Fragment=2)         16.57     14.68     21.74 
 O(Fragment=2)         15.23     17.27     15.05 
 H(Fragment=2)         14.66     18.02     14.88 
 H(Fragment=2)         15.52     17.39     15.95 
 O(Fragment=2)         27.31     20.5      21.23 
 H(Fragment=2)         26.48     20.03     21.35 
 H(Fragment=2)         27.2      20.97     20.41 
 O(Fragment=2)         13.06     21.48     21.63 
 H(Fragment=2)         13.75     20.94     22.01 
 H(Fragment=2)         12.85     21.05     20.8 
 O(Fragment=2)         25.85     19.56     15.28 
 H(Fragment=2)         26.52     19.31     15.92 
 H(Fragment=2)         25.16     19.97     15.8 
 O(Fragment=2)         13.1      18.       17.74 
 H(Fragment=2)         13.87     18.03     18.32 
 H(Fragment=2)         13.02     17.07     17.51 
 O(Fragment=2)         19.91     17.44     13.82 
 H(Fragment=2)         20.5      17.03     13.18 
 H(Fragment=2)         19.06     17.42     13.4 
 O(Fragment=2)         21.49     23.18     26.2 
 H(Fragment=2)         22.42     23.38     26.1 
 H(Fragment=2)         21.06     23.74     25.55 
 O(Fragment=2)         16.74     19.46     12.93 
 H(Fragment=2)         16.91     19.49     13.87 
 H(Fragment=2)         17.52     19.04     12.56 
 O(Fragment=2)         16.82     18.02     26.2 
 H(Fragment=2)         17.74     17.76     26.13 
 H(Fragment=2)         16.83     18.85     26.68 
 O(Fragment=2)         18.43     24.78     25.24 
 H(Fragment=2)         19.27     24.94     24.81 
 H(Fragment=2)         17.79     24.81     24.52 
 O(Fragment=2)         18.35     22.42     26.46 
 H(Fragment=2)         17.7      22.85     25.91 
 H(Fragment=2)         19.17     22.9      26.29 
 O(Fragment=2)         20.37     14.75     24.57 
 H(Fragment=2)         20.86     14.       24.25 
 H(Fragment=2)         19.57     14.38     24.95 
 O(Fragment=2)         17.14     25.72     22.79 
 H(Fragment=2)         16.24     25.92     22.54 
 H(Fragment=2)         17.47     26.53     23.18 
 O(Fragment=2)         27.25     18.67     17.86 
 H(Fragment=2)         26.45     18.17     18.03 
 H(Fragment=2)         27.94     18.14     18.24 
 O(Fragment=2)         24.72     16.56     25.43 
 H(Fragment=2)         23.99     16.97     24.96 
 H(Fragment=2)         24.96     15.81     24.9 
 O(Fragment=2)         23.93     21.18     13.25 
 H(Fragment=2)         24.83     21.17     12.92 
 H(Fragment=2)         24.02     21.09     14.2 
 O(Fragment=2)         16.63     14.84     16.39 
 H(Fragment=2)         16.68     14.03     16.89 
 H(Fragment=2)         16.       14.66     15.69 
 O(Fragment=2)         21.06     20.67     12.92 
 H(Fragment=2)         20.54     20.1      12.35 
 H(Fragment=2)         21.97     20.49     12.69 
 O(Fragment=2)         15.79     26.72     18.96 
 H(Fragment=2)         16.6      26.23     18.84 
 H(Fragment=2)         16.07     27.62     19.14 
 O(Fragment=2)         21.91     17.4      27.14 
 H(Fragment=2)         20.97     17.29     26.97 
 H(Fragment=2)         22.15     18.18     26.64 
 O(Fragment=2)         18.69     12.96     18.67 
 H(Fragment=2)         18.93     12.36     17.96 
 H(Fragment=2)         18.32     12.39     19.34 
 O(Fragment=2)         25.95     25.66     20.17 
 H(Fragment=2)         25.46     24.85     20.05 
 H(Fragment=2)         26.85     25.42     19.95 
 O(Fragment=2)         21.15     27.81     19.36 
 H(Fragment=2)         20.39     27.27     19.13 
 H(Fragment=2)         20.87     28.29     20.14 
 O(Fragment=2)         19.73     19.95     27.44 
 H(Fragment=2)         20.22     19.72     28.23 
 H(Fragment=2)         19.01     20.49     27.76 
 O(Fragment=2)         15.01     24.71     15.17 
 H(Fragment=2)         15.36     23.93     15.59 
 H(Fragment=2)         14.06     24.66     15.32 
 O(Fragment=2)         14.93     21.62     13.59 
 H(Fragment=2)         15.42     22.06     14.28 
 H(Fragment=2)         15.36     20.77     13.5 
 O(Fragment=2)         26.32     22.11     16.22 
 H(Fragment=2)         25.82     22.64     15.6 
 H(Fragment=2)         26.38     21.25     15.8 
 O(Fragment=2)         12.16     20.25     19.46 
 H(Fragment=2)         11.94     20.95     18.84 
 H(Fragment=2)         12.39     19.5      18.91 
 O(Fragment=2)         27.7      16.18     20.18 
 H(Fragment=2)         26.99     16.68     20.58 
 H(Fragment=2)         27.68     15.33     20.62 
 O(Fragment=2)         26.21     21.1      24.6 
 H(Fragment=2)         26.39     20.19     24.4 
 H(Fragment=2)         26.96     21.39     25.12 
 O(Fragment=2)         22.88     21.       27.71 
 H(Fragment=2)         22.68     21.7      27.1 
 H(Fragment=2)         22.26     21.12     28.43 
 O(Fragment=2)         12.82     17.23     23.77 
 H(Fragment=2)         12.3      17.6      23.05 
 H(Fragment=2)         13.64     16.96     23.35 
 O(Fragment=2)         18.9      13.17     14.6 
 H(Fragment=2)         19.08     12.52     15.27 
 H(Fragment=2)         19.       14.01     15.05 
 O(Fragment=2)         27.43     22.3      18.95 
 H(Fragment=2)         27.25     22.83     18.17 
 H(Fragment=2)         28.22     22.69     19.33 
 O(Fragment=2)         22.83     26.66     23.98 
 H(Fragment=2)         23.45     26.94     24.65 
 H(Fragment=2)         23.37     26.28     23.29 
 O(Fragment=2)         17.06     20.3      27.77 
 H(Fragment=2)         16.88     20.58     28.66 
 H(Fragment=2)         16.96     21.09     27.24 
 O(Fragment=2)         17.23     16.4      12.94 
 H(Fragment=2)         16.6      16.81     13.53 
 H(Fragment=2)         16.98     15.48     12.93 
 O(Fragment=2)         24.05     15.26     15.01 
 H(Fragment=2)         24.4      15.84     14.34 
 H(Fragment=2)         24.8      15.04     15.56 
 O(Fragment=2)         26.66     18.43     24.12 
 H(Fragment=2)         26.16     17.76     24.6 
 H(Fragment=2)         27.42     17.96     23.77 
 O(Fragment=2)         13.47     15.61     21.41 
 H(Fragment=2)         13.58     15.06     22.18 
 H(Fragment=2)         12.56     15.9      21.44 
 O(Fragment=2)         12.73     22.22     17.3 
 H(Fragment=2)         12.55     22.18     16.36 
 H(Fragment=2)         11.92     22.55     17.68 
 O(Fragment=2)         25.92     25.11     23.55 
 H(Fragment=2)         25.98     24.7      22.69 
 H(Fragment=2)         25.86     24.37     24.16 
 O(Fragment=2)         13.62     19.24     14.38 
 H(Fragment=2)         13.65     19.52     13.46 
 H(Fragment=2)         13.72     20.04     14.88 
 O(Fragment=2)         22.97     25.84     13.87 
 H(Fragment=2)         22.35     25.27     14.31 
 H(Fragment=2)         22.87     26.69     14.3 
 O(Fragment=2)         25.25     19.27     27.18 
 H(Fragment=2)         24.64     19.99     27.33 
 H(Fragment=2)         25.09     19.01     26.26 
 O(Fragment=2)         24.76     18.02     13.15 
 H(Fragment=2)         25.38     17.62     13.76 
 H(Fragment=2)         24.68     18.93     13.44 
 O(Fragment=2)         17.53     28.81     18.67 
 H(Fragment=2)         17.83     27.91     18.8 
 H(Fragment=2)         17.85     29.04     17.8 
 O(Fragment=2)         24.42     12.24     17.72 
 H(Fragment=2)         25.07     12.75     17.23 
 H(Fragment=2)         23.95     12.89     18.23 
 O(Fragment=2)         24.32     12.62     23.02 
 H(Fragment=2)         24.6      12.82     23.92 
 H(Fragment=2)         23.45     13.01     22.95 
 O(Fragment=2)         13.56     15.09     17.86 
 H(Fragment=2)         12.97     14.5      18.34 
 H(Fragment=2)         13.53     14.77     16.96 
 O(Fragment=2)         13.4      25.77     18.23 
 H(Fragment=2)         14.31     26.04     18.37 
 H(Fragment=2)         13.24     25.11     18.92 
 O(Fragment=2)         20.88     11.12     18.94 
 H(Fragment=2)         20.38     11.37     19.72 
 H(Fragment=2)         21.6      11.75     18.91 
 O(Fragment=2)         13.77     21.88     25.66 
 H(Fragment=2)         13.98     22.01     26.58 
 H(Fragment=2)         13.66     20.93     25.57 
 O(Fragment=2)         20.93     11.45     22.27 
 H(Fragment=2)         21.24     10.78     22.87 
 H(Fragment=2)         21.72     11.93     22.02 
 O(Fragment=2)         29.03     18.23     21.83 
 H(Fragment=2)         29.74     18.87     21.9 
 H(Fragment=2)         28.26     18.75     21.62 
 O(Fragment=2)         25.14     24.06     14.55 
 H(Fragment=2)         24.54     24.8      14.43 
 H(Fragment=2)         25.53     23.93     13.69 
 O(Fragment=2)         17.08     26.57     13.83 
 H(Fragment=2)         16.84     25.99     13.1 
 H(Fragment=2)         17.41     25.99     14.51 
 O(Fragment=2)         23.09     13.67     25.26 
 H(Fragment=2)         23.08     13.02     25.97 
 H(Fragment=2)         23.17     14.51     25.71 
 O(Fragment=2)         25.06     27.36     17.53 
 H(Fragment=2)         24.48     27.53     18.27 
 H(Fragment=2)         25.27     26.43     17.61 
 O(Fragment=2)         13.36     13.15     19.86 
 H(Fragment=2)         13.73     14.03     19.79 
 H(Fragment=2)         13.53     12.89     20.77 
 O(Fragment=2)         19.37     16.59     27.97 
 H(Fragment=2)         20.01     16.1      28.48 
 H(Fragment=2)         18.53     16.25     28.25 
 O(Fragment=2)         14.18     25.68     25.02 
 H(Fragment=2)         14.4      24.84     24.62 
 H(Fragment=2)         13.29     25.86     24.74 
 O(Fragment=2)         14.27     16.44     26.58 
 H(Fragment=2)         14.16     16.74     25.67 
 H(Fragment=2)         15.2      16.61     26.77 
 O(Fragment=2)         23.8      28.67     19.56 
 H(Fragment=2)         23.8      29.16     20.38 
 H(Fragment=2)         22.94     28.26     19.52 
 O(Fragment=2)         11.27     23.73     22.07 
 H(Fragment=2)         12.1      23.25     22.07 
 H(Fragment=2)         10.74     23.3      21.4 
 O(Fragment=2)         22.63     18.85     11.49 
 H(Fragment=2)         22.05     18.08     11.45 
 H(Fragment=2)         23.38     18.55     12.01 
 O(Fragment=2)         20.82     28.54     22.04 
 H(Fragment=2)         20.1      28.42     22.66 
 H(Fragment=2)         21.59     28.72     22.59 
 O(Fragment=2)         18.02     13.84     26.45 
 H(Fragment=2)         18.2      13.19     27.12 
 H(Fragment=2)         18.21     14.68     26.86 
 O(Fragment=2)         27.81     24.65     17.42 
 H(Fragment=2)         28.26     25.49     17.44 
 H(Fragment=2)         26.89     24.87     17.28 
 O(Fragment=2)         12.9      19.4      26.16 
 H(Fragment=2)         13.14     18.73     25.52 
 H(Fragment=2)         13.55     19.33     26.85 
 O(Fragment=2)         22.4      14.2      13.09 
 H(Fragment=2)         23.08     14.7      13.54 
 H(Fragment=2)         22.7      14.13     12.19 
 O(Fragment=2)         19.8      25.11     28.08 
 H(Fragment=2)         19.49     24.69     28.88 
 H(Fragment=2)         20.4      24.48     27.7 
 O(Fragment=2)         18.67     28.05     23.63 
 H(Fragment=2)         18.13     28.21     24.4 
 H(Fragment=2)         18.22     28.51     22.92 
 O(Fragment=2)         17.24     23.34     11.59 
 H(Fragment=2)         18.18     23.49     11.71 
 H(Fragment=2)         17.11     22.42     11.83 
 O(Fragment=2)         29.17     22.11     22.38 
 H(Fragment=2)         28.7      22.4      23.17 
 H(Fragment=2)         28.67     21.36     22.06 
 O(Fragment=2)         10.74     17.14     18.35 
 H(Fragment=2)         11.55     17.53     18.01 
 H(Fragment=2)         10.92     17.       19.28 
 O(Fragment=2)         13.7      13.37     23.6 
 H(Fragment=2)         13.16     13.4      24.39 
 H(Fragment=2)         14.45     13.93     23.8 
 O(Fragment=2)         12.15     16.44     14.98 
 H(Fragment=2)         12.69     16.98     15.56 
 H(Fragment=2)         12.73     16.24     14.24 
 
 NAtoms=    385 NQM=      385 NQMF=       0 NMMI=      0 NMMIF=      0
                NMic=       0 NMicF=      0.
                    Isotopes and Nuclear Properties:
 (Nuclear quadrupole moments (NQMom) in fm**2, nuclear magnetic moments (NMagM)
  in nuclear magnetons)

  Atom         1           2           3           4           5           6           7           8           9          10
 IAtWgt=          79          16           1           1          16           1           1          16           1           1
 AtmWgt=  78.9183361  15.9949146   1.0078250   1.0078250  15.9949146   1.0078250   1.0078250  15.9949146   1.0078250   1.0078250
 NucSpn=           3           0           1           1           0           1           1           0           1           1
 AtZEff=   0.0000000   0.0000000   0.0000000   0.0000000   0.0000000   0.0000000   0.0000000   0.0000000   0.0000000   0.0000000
 NQMom=   31.3000000   0.0000000   0.0000000   0.0000000   0.0000000   0.0000000   0.0000000   0.0000000   0.0000000   0.0000000
 NMagM=    2.1063990   0.0000000   2.7928460   2.7928460   0.0000000   2.7928460   2.7928460   0.0000000   2.7928460   2.7928460
 AtZNuc=  35.0000000   8.0000000   1.0000000   1.0000000   8.0000000   1.0000000   1.0000000   8.0000000   1.0000000   1.0000000

  Atom        11          12          13          14          15          16          17          18          19          20
 IAtWgt=          16           1           1          16           1           1          16           1           1          16
 AtmWgt=  15.9949146   1.0078250   1.0078250  15.9949146   1.0078250   1.0078250  15.9949146   1.0078250   1.0078250  15.9949146
 NucSpn=           0           1           1           0           1           1           0           1           1           0
 AtZEff=   0.0000000   0.0000000   0.0000000   0.0000000   0.0000000   0.0000000   0.0000000   0.0000000   0.0000000   0.0000000
 NQMom=    0.0000000   0.0000000   0.0000000   0.0000000   0.0000000   0.0000000   0.0000000   0.0000000   0.0000000   0.0000000
 NMagM=    0.0000000   2.7928460   2.7928460   0.0000000   2.7928460   2.7928460   0.0000000   2.7928460   2.7928460   0.0000000
 AtZNuc=   8.0000000   1.0000000   1.0000000   8.0000000   1.0000000   1.0000000   8.0000000   1.0000000   1.0000000   8.0000000

  Atom        21          22          23          24          25          26          27          28          29          30
 IAtWgt=           1           1          16           1           1          16           1           1          16           1
 AtmWgt=   1.0078250   1.0078250  15.9949146   1.0078250   1.0078250  15.9949146   1.0078250   1.0078250  15.9949146   1.0078250
 NucSpn=           1           1           0           1           1           0           1           1           0           1
 AtZEff=   0.0000000   0.0000000   0.0000000   0.0000000   0.0000000   0.0000000   0.0000000   0.0000000   0.0000000   0.0000000
 NQMom=    0.0000000   0.0000000   0.0000000   0.0000000   0.0000000   0.0000000   0.0000000   0.0000000   0.0000000   0.0000000
 NMagM=    2.7928460   2.7928460   0.0000000   2.7928460   2.7928460   0.0000000   2.7928460   2.7928460   0.0000000   2.7928460
 AtZNuc=   1.0000000   1.0000000   8.0000000   1.0000000   1.0000000   8.0000000   1.0000000   1.0000000   8.0000000   1.0000000

  Atom        31          32          33          34          35          36          37          38          39          40
 IAtWgt=           1          16           1           1          16           1           1          16           1           1
 AtmWgt=   1.0078250  15.9949146   1.0078250   1.0078250  15.9949146   1.0078250   1.0078250  15.9949146   1.0078250   1.0078250
 NucSpn=           1           0           1           1           0           1           1           0           1           1
 AtZEff=   0.0000000   0.0000000   0.0000000   0.0000000   0.0000000   0.0000000   0.0000000   0.0000000   0.0000000   0.0000000
 NQMom=    0.0000000   0.0000000   0.0000000   0.0000000   0.0000000   0.0000000   0.0000000   0.0000000   0.0000000   0.0000000
 NMagM=    2.7928460   0.0000000   2.7928460   2.7928460   0.0000000   2.7928460   2.7928460   0.0000000   2.7928460   2.7928460
 AtZNuc=   1.0000000   8.0000000   1.0000000   1.0000000   8.0000000   1.0000000   1.0000000   8.0000000   1.0000000   1.0000000

  Atom        41          42          43          44          45          46          47          48          49          50
 IAtWgt=          16           1           1          16           1           1          16           1           1          16
 AtmWgt=  15.9949146   1.0078250   1.0078250  15.9949146   1.0078250   1.0078250  15.9949146   1.0078250   1.0078250  15.9949146
 NucSpn=           0           1           1           0           1           1           0           1           1           0
 AtZEff=   0.0000000   0.0000000   0.0000000   0.0000000   0.0000000   0.0000000   0.0000000   0.0000000   0.0000000   0.0000000
 NQMom=    0.0000000   0.0000000   0.0000000   0.0000000   0.0000000   0.0000000   0.0000000   0.0000000   0.0000000   0.0000000
 NMagM=    0.0000000   2.7928460   2.7928460   0.0000000   2.7928460   2.7928460   0.0000000   2.7928460   2.7928460   0.0000000
 AtZNuc=   8.0000000   1.0000000   1.0000000   8.0000000   1.0000000   1.0000000   8.0000000   1.0000000   1.0000000   8.0000000

  Atom        51          52          53          54          55          56          57          58          59          60
 IAtWgt=           1           1          16           1           1          16           1           1          16           1
 AtmWgt=   1.0078250   1.0078250  15.9949146   1.0078250   1.0078250  15.9949146   1.0078250   1.0078250  15.9949146   1.0078250
 NucSpn=           1           1           0           1           1           0           1           1           0           1
 AtZEff=   0.0000000   0.0000000   0.0000000   0.0000000   0.0000000   0.0000000   0.0000000   0.0000000   0.0000000   0.0000000
 NQMom=    0.0000000   0.0000000   0.0000000   0.0000000   0.0000000   0.0000000   0.0000000   0.0000000   0.0000000   0.0000000
 NMagM=    2.7928460   2.7928460   0.0000000   2.7928460   2.7928460   0.0000000   2.7928460   2.7928460   0.0000000   2.7928460
 AtZNuc=   1.0000000   1.0000000   8.0000000   1.0000000   1.0000000   8.0000000   1.0000000   1.0000000   8.0000000   1.0000000

  Atom        61          62          63          64          65          66          67          68          69          70
 IAtWgt=           1          16           1           1          16           1           1          16           1           1
 AtmWgt=   1.0078250  15.9949146   1.0078250   1.0078250  15.9949146   1.0078250   1.0078250  15.9949146   1.0078250   1.0078250
 NucSpn=           1           0           1           1           0           1           1           0           1           1
 AtZEff=   0.0000000   0.0000000   0.0000000   0.0000000   0.0000000   0.0000000   0.0000000   0.0000000   0.0000000   0.0000000
 NQMom=    0.0000000   0.0000000   0.0000000   0.0000000   0.0000000   0.0000000   0.0000000   0.0000000   0.0000000   0.0000000
 NMagM=    2.7928460   0.0000000   2.7928460   2.7928460   0.0000000   2.7928460   2.7928460   0.0000000   2.7928460   2.7928460
 AtZNuc=   1.0000000   8.0000000   1.0000000   1.0000000   8.0000000   1.0000000   1.0000000   8.0000000   1.0000000   1.0000000

  Atom        71          72          73          74          75          76          77          78          79          80
 IAtWgt=          16           1           1          16           1           1          16           1           1          16
 AtmWgt=  15.9949146   1.0078250   1.0078250  15.9949146   1.0078250   1.0078250  15.9949146   1.0078250   1.0078250  15.9949146
 NucSpn=           0           1           1           0           1           1           0           1           1           0
 AtZEff=   0.0000000   0.0000000   0.0000000   0.0000000   0.0000000   0.0000000   0.0000000   0.0000000   0.0000000   0.0000000
 NQMom=    0.0000000   0.0000000   0.0000000   0.0000000   0.0000000   0.0000000   0.0000000   0.0000000   0.0000000   0.0000000
 NMagM=    0.0000000   2.7928460   2.7928460   0.0000000   2.7928460   2.7928460   0.0000000   2.7928460   2.7928460   0.0000000
 AtZNuc=   8.0000000   1.0000000   1.0000000   8.0000000   1.0000000   1.0000000   8.0000000   1.0000000   1.0000000   8.0000000

  Atom        81          82          83          84          85          86          87          88          89          90
 IAtWgt=           1           1          16           1           1          16           1           1          16           1
 AtmWgt=   1.0078250   1.0078250  15.9949146   1.0078250   1.0078250  15.9949146   1.0078250   1.0078250  15.9949146   1.0078250
 NucSpn=           1           1           0           1           1           0           1           1           0           1
 AtZEff=   0.0000000   0.0000000   0.0000000   0.0000000   0.0000000   0.0000000   0.0000000   0.0000000   0.0000000   0.0000000
 NQMom=    0.0000000   0.0000000   0.0000000   0.0000000   0.0000000   0.0000000   0.0000000   0.0000000   0.0000000   0.0000000
 NMagM=    2.7928460   2.7928460   0.0000000   2.7928460   2.7928460   0.0000000   2.7928460   2.7928460   0.0000000   2.7928460
 AtZNuc=   1.0000000   1.0000000   8.0000000   1.0000000   1.0000000   8.0000000   1.0000000   1.0000000   8.0000000   1.0000000

  Atom        91          92          93          94          95          96          97          98          99         100
 IAtWgt=           1          16           1           1          16           1           1          16           1           1
 AtmWgt=   1.0078250  15.9949146   1.0078250   1.0078250  15.9949146   1.0078250   1.0078250  15.9949146   1.0078250   1.0078250
 NucSpn=           1           0           1           1           0           1           1           0           1           1
 AtZEff=   0.0000000   0.0000000   0.0000000   0.0000000   0.0000000   0.0000000   0.0000000   0.0000000   0.0000000   0.0000000
 NQMom=    0.0000000   0.0000000   0.0000000   0.0000000   0.0000000   0.0000000   0.0000000   0.0000000   0.0000000   0.0000000
 NMagM=    2.7928460   0.0000000   2.7928460   2.7928460   0.0000000   2.7928460   2.7928460   0.0000000   2.7928460   2.7928460
 AtZNuc=   1.0000000   8.0000000   1.0000000   1.0000000   8.0000000   1.0000000   1.0000000   8.0000000   1.0000000   1.0000000

  Atom       101         102         103         104         105         106         107         108         109         110
 IAtWgt=          16           1           1          16           1           1          16           1           1          16
 AtmWgt=  15.9949146   1.0078250   1.0078250  15.9949146   1.0078250   1.0078250  15.9949146   1.0078250   1.0078250  15.9949146
 NucSpn=           0           1           1           0           1           1           0           1           1           0
 AtZEff=   0.0000000   0.0000000   0.0000000   0.0000000   0.0000000   0.0000000   0.0000000   0.0000000   0.0000000   0.0000000
 NQMom=    0.0000000   0.0000000   0.0000000   0.0000000   0.0000000   0.0000000   0.0000000   0.0000000   0.0000000   0.0000000
 NMagM=    0.0000000   2.7928460   2.7928460   0.0000000   2.7928460   2.7928460   0.0000000   2.7928460   2.7928460   0.0000000
 AtZNuc=   8.0000000   1.0000000   1.0000000   8.0000000   1.0000000   1.0000000   8.0000000   1.0000000   1.0000000   8.0000000

  Atom       111         112         113         114         115         116         117         118         119         120
 IAtWgt=           1           1          16           1           1          16           1           1          16           1
 AtmWgt=   1.0078250   1.0078250  15.9949146   1.0078250   1.0078250  15.9949146   1.0078250   1.0078250  15.9949146   1.0078250
 NucSpn=           1           1           0           1           1           0           1           1           0           1
 AtZEff=   0.0000000   0.0000000   0.0000000   0.0000000   0.0000000   0.0000000   0.0000000   0.0000000   0.0000000   0.0000000
 NQMom=    0.0000000   0.0000000   0.0000000   0.0000000   0.0000000   0.0000000   0.0000000   0.0000000   0.0000000   0.0000000
 NMagM=    2.7928460   2.7928460   0.0000000   2.7928460   2.7928460   0.0000000   2.7928460   2.7928460   0.0000000   2.7928460
 AtZNuc=   1.0000000   1.0000000   8.0000000   1.0000000   1.0000000   8.0000000   1.0000000   1.0000000   8.0000000   1.0000000

  Atom       121         122         123         124         125         126         127         128         129         130
 IAtWgt=           1          16           1           1          16           1           1          16           1           1
 AtmWgt=   1.0078250  15.9949146   1.0078250   1.0078250  15.9949146   1.0078250   1.0078250  15.9949146   1.0078250   1.0078250
 NucSpn=           1           0           1           1           0           1           1           0           1           1
 AtZEff=   0.0000000   0.0000000   0.0000000   0.0000000   0.0000000   0.0000000   0.0000000   0.0000000   0.0000000   0.0000000
 NQMom=    0.0000000   0.0000000   0.0000000   0.0000000   0.0000000   0.0000000   0.0000000   0.0000000   0.0000000   0.0000000
 NMagM=    2.7928460   0.0000000   2.7928460   2.7928460   0.0000000   2.7928460   2.7928460   0.0000000   2.7928460   2.7928460
 AtZNuc=   1.0000000   8.0000000   1.0000000   1.0000000   8.0000000   1.0000000   1.0000000   8.0000000   1.0000000   1.0000000

  Atom       131         132         133         134         135         136         137         138         139         140
 IAtWgt=          16           1           1          16           1           1          16           1           1          16
 AtmWgt=  15.9949146   1.0078250   1.0078250  15.9949146   1.0078250   1.0078250  15.9949146   1.0078250   1.0078250  15.9949146
 NucSpn=           0           1           1           0           1           1           0           1           1           0
 AtZEff=   0.0000000   0.0000000   0.0000000   0.0000000   0.0000000   0.0000000   0.0000000   0.0000000   0.0000000   0.0000000
 NQMom=    0.0000000   0.0000000   0.0000000   0.0000000   0.0000000   0.0000000   0.0000000   0.0000000   0.0000000   0.0000000
 NMagM=    0.0000000   2.7928460   2.7928460   0.0000000   2.7928460   2.7928460   0.0000000   2.7928460   2.7928460   0.0000000
 AtZNuc=   8.0000000   1.0000000   1.0000000   8.0000000   1.0000000   1.0000000   8.0000000   1.0000000   1.0000000   8.0000000

  Atom       141         142         143         144         145         146         147         148         149         150
 IAtWgt=           1           1          16           1           1          16           1           1          16           1
 AtmWgt=   1.0078250   1.0078250  15.9949146   1.0078250   1.0078250  15.9949146   1.0078250   1.0078250  15.9949146   1.0078250
 NucSpn=           1           1           0           1           1           0           1           1           0           1
 AtZEff=   0.0000000   0.0000000   0.0000000   0.0000000   0.0000000   0.0000000   0.0000000   0.0000000   0.0000000   0.0000000
 NQMom=    0.0000000   0.0000000   0.0000000   0.0000000   0.0000000   0.0000000   0.0000000   0.0000000   0.0000000   0.0000000
 NMagM=    2.7928460   2.7928460   0.0000000   2.7928460   2.7928460   0.0000000   2.7928460   2.7928460   0.0000000   2.7928460
 AtZNuc=   1.0000000   1.0000000   8.0000000   1.0000000   1.0000000   8.0000000   1.0000000   1.0000000   8.0000000   1.0000000

  Atom       151         152         153         154         155         156         157         158         159         160
 IAtWgt=           1          16           1           1          16           1           1          16           1           1
 AtmWgt=   1.0078250  15.9949146   1.0078250   1.0078250  15.9949146   1.0078250   1.0078250  15.9949146   1.0078250   1.0078250
 NucSpn=           1           0           1           1           0           1           1           0           1           1
 AtZEff=   0.0000000   0.0000000   0.0000000   0.0000000   0.0000000   0.0000000   0.0000000   0.0000000   0.0000000   0.0000000
 NQMom=    0.0000000   0.0000000   0.0000000   0.0000000   0.0000000   0.0000000   0.0000000   0.0000000   0.0000000   0.0000000
 NMagM=    2.7928460   0.0000000   2.7928460   2.7928460   0.0000000   2.7928460   2.7928460   0.0000000   2.7928460   2.7928460
 AtZNuc=   1.0000000   8.0000000   1.0000000   1.0000000   8.0000000   1.0000000   1.0000000   8.0000000   1.0000000   1.0000000

  Atom       161         162         163         164         165         166         167         168         169         170
 IAtWgt=          16           1           1          16           1           1          16           1           1          16
 AtmWgt=  15.9949146   1.0078250   1.0078250  15.9949146   1.0078250   1.0078250  15.9949146   1.0078250   1.0078250  15.9949146
 NucSpn=           0           1           1           0           1           1           0           1           1           0
 AtZEff=   0.0000000   0.0000000   0.0000000   0.0000000   0.0000000   0.0000000   0.0000000   0.0000000   0.0000000   0.0000000
 NQMom=    0.0000000   0.0000000   0.0000000   0.0000000   0.0000000   0.0000000   0.0000000   0.0000000   0.0000000   0.0000000
 NMagM=    0.0000000   2.7928460   2.7928460   0.0000000   2.7928460   2.7928460   0.0000000   2.7928460   2.7928460   0.0000000
 AtZNuc=   8.0000000   1.0000000   1.0000000   8.0000000   1.0000000   1.0000000   8.0000000   1.0000000   1.0000000   8.0000000

  Atom       171         172         173         174         175         176         177         178         179         180
 IAtWgt=           1           1          16           1           1          16           1           1          16           1
 AtmWgt=   1.0078250   1.0078250  15.9949146   1.0078250   1.0078250  15.9949146   1.0078250   1.0078250  15.9949146   1.0078250
 NucSpn=           1           1           0           1           1           0           1           1           0           1
 AtZEff=   0.0000000   0.0000000   0.0000000   0.0000000   0.0000000   0.0000000   0.0000000   0.0000000   0.0000000   0.0000000
 NQMom=    0.0000000   0.0000000   0.0000000   0.0000000   0.0000000   0.0000000   0.0000000   0.0000000   0.0000000   0.0000000
 NMagM=    2.7928460   2.7928460   0.0000000   2.7928460   2.7928460   0.0000000   2.7928460   2.7928460   0.0000000   2.7928460
 AtZNuc=   1.0000000   1.0000000   8.0000000   1.0000000   1.0000000   8.0000000   1.0000000   1.0000000   8.0000000   1.0000000

  Atom       181         182         183         184         185         186         187         188         189         190
 IAtWgt=           1          16           1           1          16           1           1          16           1           1
 AtmWgt=   1.0078250  15.9949146   1.0078250   1.0078250  15.9949146   1.0078250   1.0078250  15.9949146   1.0078250   1.0078250
 NucSpn=           1           0           1           1           0           1           1           0           1           1
 AtZEff=   0.0000000   0.0000000   0.0000000   0.0000000   0.0000000   0.0000000   0.0000000   0.0000000   0.0000000   0.0000000
 NQMom=    0.0000000   0.0000000   0.0000000   0.0000000   0.0000000   0.0000000   0.0000000   0.0000000   0.0000000   0.0000000
 NMagM=    2.7928460   0.0000000   2.7928460   2.7928460   0.0000000   2.7928460   2.7928460   0.0000000   2.7928460   2.7928460
 AtZNuc=   1.0000000   8.0000000   1.0000000   1.0000000   8.0000000   1.0000000   1.0000000   8.0000000   1.0000000   1.0000000

  Atom       191         192         193         194         195         196         197         198         199         200
 IAtWgt=          16           1           1          16           1           1          16           1           1          16
 AtmWgt=  15.9949146   1.0078250   1.0078250  15.9949146   1.0078250   1.0078250  15.9949146   1.0078250   1.0078250  15.9949146
 NucSpn=           0           1           1           0           1           1           0           1           1           0
 AtZEff=   0.0000000   0.0000000   0.0000000   0.0000000   0.0000000   0.0000000   0.0000000   0.0000000   0.0000000   0.0000000
 NQMom=    0.0000000   0.0000000   0.0000000   0.0000000   0.0000000   0.0000000   0.0000000   0.0000000   0.0000000   0.0000000
 NMagM=    0.0000000   2.7928460   2.7928460   0.0000000   2.7928460   2.7928460   0.0000000   2.7928460   2.7928460   0.0000000
 AtZNuc=   8.0000000   1.0000000   1.0000000   8.0000000   1.0000000   1.0000000   8.0000000   1.0000000   1.0000000   8.0000000

  Atom       201         202         203         204         205         206         207         208         209         210
 IAtWgt=           1           1          16           1           1          16           1           1          16           1
 AtmWgt=   1.0078250   1.0078250  15.9949146   1.0078250   1.0078250  15.9949146   1.0078250   1.0078250  15.9949146   1.0078250
 NucSpn=           1           1           0           1           1           0           1           1           0           1
 AtZEff=   0.0000000   0.0000000   0.0000000   0.0000000   0.0000000   0.0000000   0.0000000   0.0000000   0.0000000   0.0000000
 NQMom=    0.0000000   0.0000000   0.0000000   0.0000000   0.0000000   0.0000000   0.0000000   0.0000000   0.0000000   0.0000000
 NMagM=    2.7928460   2.7928460   0.0000000   2.7928460   2.7928460   0.0000000   2.7928460   2.7928460   0.0000000   2.7928460
 AtZNuc=   1.0000000   1.0000000   8.0000000   1.0000000   1.0000000   8.0000000   1.0000000   1.0000000   8.0000000   1.0000000

  Atom       211         212         213         214         215         216         217         218         219         220
 IAtWgt=           1          16           1           1          16           1           1          16           1           1
 AtmWgt=   1.0078250  15.9949146   1.0078250   1.0078250  15.9949146   1.0078250   1.0078250  15.9949146   1.0078250   1.0078250
 NucSpn=           1           0           1           1           0           1           1           0           1           1
 AtZEff=   0.0000000   0.0000000   0.0000000   0.0000000   0.0000000   0.0000000   0.0000000   0.0000000   0.0000000   0.0000000
 NQMom=    0.0000000   0.0000000   0.0000000   0.0000000   0.0000000   0.0000000   0.0000000   0.0000000   0.0000000   0.0000000
 NMagM=    2.7928460   0.0000000   2.7928460   2.7928460   0.0000000   2.7928460   2.7928460   0.0000000   2.7928460   2.7928460
 AtZNuc=   1.0000000   8.0000000   1.0000000   1.0000000   8.0000000   1.0000000   1.0000000   8.0000000   1.0000000   1.0000000

  Atom       221         222         223         224         225         226         227         228         229         230
 IAtWgt=          16           1           1          16           1           1          16           1           1          16
 AtmWgt=  15.9949146   1.0078250   1.0078250  15.9949146   1.0078250   1.0078250  15.9949146   1.0078250   1.0078250  15.9949146
 NucSpn=           0           1           1           0           1           1           0           1           1           0
 AtZEff=   0.0000000   0.0000000   0.0000000   0.0000000   0.0000000   0.0000000   0.0000000   0.0000000   0.0000000   0.0000000
 NQMom=    0.0000000   0.0000000   0.0000000   0.0000000   0.0000000   0.0000000   0.0000000   0.0000000   0.0000000   0.0000000
 NMagM=    0.0000000   2.7928460   2.7928460   0.0000000   2.7928460   2.7928460   0.0000000   2.7928460   2.7928460   0.0000000
 AtZNuc=   8.0000000   1.0000000   1.0000000   8.0000000   1.0000000   1.0000000   8.0000000   1.0000000   1.0000000   8.0000000

  Atom       231         232         233         234         235         236         237         238         239         240
 IAtWgt=           1           1          16           1           1          16           1           1          16           1
 AtmWgt=   1.0078250   1.0078250  15.9949146   1.0078250   1.0078250  15.9949146   1.0078250   1.0078250  15.9949146   1.0078250
 NucSpn=           1           1           0           1           1           0           1           1           0           1
 AtZEff=   0.0000000   0.0000000   0.0000000   0.0000000   0.0000000   0.0000000   0.0000000   0.0000000   0.0000000   0.0000000
 NQMom=    0.0000000   0.0000000   0.0000000   0.0000000   0.0000000   0.0000000   0.0000000   0.0000000   0.0000000   0.0000000
 NMagM=    2.7928460   2.7928460   0.0000000   2.7928460   2.7928460   0.0000000   2.7928460   2.7928460   0.0000000   2.7928460
 AtZNuc=   1.0000000   1.0000000   8.0000000   1.0000000   1.0000000   8.0000000   1.0000000   1.0000000   8.0000000   1.0000000

  Atom       241         242         243         244         245         246         247         248         249         250
 IAtWgt=           1          16           1           1          16           1           1          16           1           1
 AtmWgt=   1.0078250  15.9949146   1.0078250   1.0078250  15.9949146   1.0078250   1.0078250  15.9949146   1.0078250   1.0078250
 NucSpn=           1           0           1           1           0           1           1           0           1           1
 AtZEff=   0.0000000   0.0000000   0.0000000   0.0000000   0.0000000   0.0000000   0.0000000   0.0000000   0.0000000   0.0000000
 NQMom=    0.0000000   0.0000000   0.0000000   0.0000000   0.0000000   0.0000000   0.0000000   0.0000000   0.0000000   0.0000000
 NMagM=    2.7928460   0.0000000   2.7928460   2.7928460   0.0000000   2.7928460   2.7928460   0.0000000   2.7928460   2.7928460
 AtZNuc=   1.0000000   8.0000000   1.0000000   1.0000000   8.0000000   1.0000000   1.0000000   8.0000000   1.0000000   1.0000000

  Atom       251         252         253         254         255         256         257         258         259         260
 IAtWgt=          16           1           1          16           1           1          16           1           1          16
 AtmWgt=  15.9949146   1.0078250   1.0078250  15.9949146   1.0078250   1.0078250  15.9949146   1.0078250   1.0078250  15.9949146
 NucSpn=           0           1           1           0           1           1           0           1           1           0
 AtZEff=   0.0000000   0.0000000   0.0000000   0.0000000   0.0000000   0.0000000   0.0000000   0.0000000   0.0000000   0.0000000
 NQMom=    0.0000000   0.0000000   0.0000000   0.0000000   0.0000000   0.0000000   0.0000000   0.0000000   0.0000000   0.0000000
 NMagM=    0.0000000   2.7928460   2.7928460   0.0000000   2.7928460   2.7928460   0.0000000   2.7928460   2.7928460   0.0000000
 AtZNuc=   8.0000000   1.0000000   1.0000000   8.0000000   1.0000000   1.0000000   8.0000000   1.0000000   1.0000000   8.0000000

  Atom       261         262         263         264         265         266         267         268         269         270
 IAtWgt=           1           1          16           1           1          16           1           1          16           1
 AtmWgt=   1.0078250   1.0078250  15.9949146   1.0078250   1.0078250  15.9949146   1.0078250   1.0078250  15.9949146   1.0078250
 NucSpn=           1           1           0           1           1           0           1           1           0           1
 AtZEff=   0.0000000   0.0000000   0.0000000   0.0000000   0.0000000   0.0000000   0.0000000   0.0000000   0.0000000   0.0000000
 NQMom=    0.0000000   0.0000000   0.0000000   0.0000000   0.0000000   0.0000000   0.0000000   0.0000000   0.0000000   0.0000000
 NMagM=    2.7928460   2.7928460   0.0000000   2.7928460   2.7928460   0.0000000   2.7928460   2.7928460   0.0000000   2.7928460
 AtZNuc=   1.0000000   1.0000000   8.0000000   1.0000000   1.0000000   8.0000000   1.0000000   1.0000000   8.0000000   1.0000000

  Atom       271         272         273         274         275         276         277         278         279         280
 IAtWgt=           1          16           1           1          16           1           1          16           1           1
 AtmWgt=   1.0078250  15.9949146   1.0078250   1.0078250  15.9949146   1.0078250   1.0078250  15.9949146   1.0078250   1.0078250
 NucSpn=           1           0           1           1           0           1           1           0           1           1
 AtZEff=   0.0000000   0.0000000   0.0000000   0.0000000   0.0000000   0.0000000   0.0000000   0.0000000   0.0000000   0.0000000
 NQMom=    0.0000000   0.0000000   0.0000000   0.0000000   0.0000000   0.0000000   0.0000000   0.0000000   0.0000000   0.0000000
 NMagM=    2.7928460   0.0000000   2.7928460   2.7928460   0.0000000   2.7928460   2.7928460   0.0000000   2.7928460   2.7928460
 AtZNuc=   1.0000000   8.0000000   1.0000000   1.0000000   8.0000000   1.0000000   1.0000000   8.0000000   1.0000000   1.0000000

  Atom       281         282         283         284         285         286         287         288         289         290
 IAtWgt=          16           1           1          16           1           1          16           1           1          16
 AtmWgt=  15.9949146   1.0078250   1.0078250  15.9949146   1.0078250   1.0078250  15.9949146   1.0078250   1.0078250  15.9949146
 NucSpn=           0           1           1           0           1           1           0           1           1           0
 AtZEff=   0.0000000   0.0000000   0.0000000   0.0000000   0.0000000   0.0000000   0.0000000   0.0000000   0.0000000   0.0000000
 NQMom=    0.0000000   0.0000000   0.0000000   0.0000000   0.0000000   0.0000000   0.0000000   0.0000000   0.0000000   0.0000000
 NMagM=    0.0000000   2.7928460   2.7928460   0.0000000   2.7928460   2.7928460   0.0000000   2.7928460   2.7928460   0.0000000
 AtZNuc=   8.0000000   1.0000000   1.0000000   8.0000000   1.0000000   1.0000000   8.0000000   1.0000000   1.0000000   8.0000000

  Atom       291         292         293         294         295         296         297         298         299         300
 IAtWgt=           1           1          16           1           1          16           1           1          16           1
 AtmWgt=   1.0078250   1.0078250  15.9949146   1.0078250   1.0078250  15.9949146   1.0078250   1.0078250  15.9949146   1.0078250
 NucSpn=           1           1           0           1           1           0           1           1           0           1
 AtZEff=   0.0000000   0.0000000   0.0000000   0.0000000   0.0000000   0.0000000   0.0000000   0.0000000   0.0000000   0.0000000
 NQMom=    0.0000000   0.0000000   0.0000000   0.0000000   0.0000000   0.0000000   0.0000000   0.0000000   0.0000000   0.0000000
 NMagM=    2.7928460   2.7928460   0.0000000   2.7928460   2.7928460   0.0000000   2.7928460   2.7928460   0.0000000   2.7928460
 AtZNuc=   1.0000000   1.0000000   8.0000000   1.0000000   1.0000000   8.0000000   1.0000000   1.0000000   8.0000000   1.0000000

  Atom       301         302         303         304         305         306         307         308         309         310
 IAtWgt=           1          16           1           1          16           1           1          16           1           1
 AtmWgt=   1.0078250  15.9949146   1.0078250   1.0078250  15.9949146   1.0078250   1.0078250  15.9949146   1.0078250   1.0078250
 NucSpn=           1           0           1           1           0           1           1           0           1           1
 AtZEff=   0.0000000   0.0000000   0.0000000   0.0000000   0.0000000   0.0000000   0.0000000   0.0000000   0.0000000   0.0000000
 NQMom=    0.0000000   0.0000000   0.0000000   0.0000000   0.0000000   0.0000000   0.0000000   0.0000000   0.0000000   0.0000000
 NMagM=    2.7928460   0.0000000   2.7928460   2.7928460   0.0000000   2.7928460   2.7928460   0.0000000   2.7928460   2.7928460
 AtZNuc=   1.0000000   8.0000000   1.0000000   1.0000000   8.0000000   1.0000000   1.0000000   8.0000000   1.0000000   1.0000000

  Atom       311         312         313         314         315         316         317         318         319         320
 IAtWgt=          16           1           1          16           1           1          16           1           1          16
 AtmWgt=  15.9949146   1.0078250   1.0078250  15.9949146   1.0078250   1.0078250  15.9949146   1.0078250   1.0078250  15.9949146
 NucSpn=           0           1           1           0           1           1           0           1           1           0
 AtZEff=   0.0000000   0.0000000   0.0000000   0.0000000   0.0000000   0.0000000   0.0000000   0.0000000   0.0000000   0.0000000
 NQMom=    0.0000000   0.0000000   0.0000000   0.0000000   0.0000000   0.0000000   0.0000000   0.0000000   0.0000000   0.0000000
 NMagM=    0.0000000   2.7928460   2.7928460   0.0000000   2.7928460   2.7928460   0.0000000   2.7928460   2.7928460   0.0000000
 AtZNuc=   8.0000000   1.0000000   1.0000000   8.0000000   1.0000000   1.0000000   8.0000000   1.0000000   1.0000000   8.0000000

  Atom       321         322         323         324         325         326         327         328         329         330
 IAtWgt=           1           1          16           1           1          16           1           1          16           1
 AtmWgt=   1.0078250   1.0078250  15.9949146   1.0078250   1.0078250  15.9949146   1.0078250   1.0078250  15.9949146   1.0078250
 NucSpn=           1           1           0           1           1           0           1           1           0           1
 AtZEff=   0.0000000   0.0000000   0.0000000   0.0000000   0.0000000   0.0000000   0.0000000   0.0000000   0.0000000   0.0000000
 NQMom=    0.0000000   0.0000000   0.0000000   0.0000000   0.0000000   0.0000000   0.0000000   0.0000000   0.0000000   0.0000000
 NMagM=    2.7928460   2.7928460   0.0000000   2.7928460   2.7928460   0.0000000   2.7928460   2.7928460   0.0000000   2.7928460
 AtZNuc=   1.0000000   1.0000000   8.0000000   1.0000000   1.0000000   8.0000000   1.0000000   1.0000000   8.0000000   1.0000000

  Atom       331         332         333         334         335         336         337         338         339         340
 IAtWgt=           1          16           1           1          16           1           1          16           1           1
 AtmWgt=   1.0078250  15.9949146   1.0078250   1.0078250  15.9949146   1.0078250   1.0078250  15.9949146   1.0078250   1.0078250
 NucSpn=           1           0           1           1           0           1           1           0           1           1
 AtZEff=   0.0000000   0.0000000   0.0000000   0.0000000   0.0000000   0.0000000   0.0000000   0.0000000   0.0000000   0.0000000
 NQMom=    0.0000000   0.0000000   0.0000000   0.0000000   0.0000000   0.0000000   0.0000000   0.0000000   0.0000000   0.0000000
 NMagM=    2.7928460   0.0000000   2.7928460   2.7928460   0.0000000   2.7928460   2.7928460   0.0000000   2.7928460   2.7928460
 AtZNuc=   1.0000000   8.0000000   1.0000000   1.0000000   8.0000000   1.0000000   1.0000000   8.0000000   1.0000000   1.0000000

  Atom       341         342         343         344         345         346         347         348         349         350
 IAtWgt=          16           1           1          16           1           1          16           1           1          16
 AtmWgt=  15.9949146   1.0078250   1.0078250  15.9949146   1.0078250   1.0078250  15.9949146   1.0078250   1.0078250  15.9949146
 NucSpn=           0           1           1           0           1           1           0           1           1           0
 AtZEff=   0.0000000   0.0000000   0.0000000   0.0000000   0.0000000   0.0000000   0.0000000   0.0000000   0.0000000   0.0000000
 NQMom=    0.0000000   0.0000000   0.0000000   0.0000000   0.0000000   0.0000000   0.0000000   0.0000000   0.0000000   0.0000000
 NMagM=    0.0000000   2.7928460   2.7928460   0.0000000   2.7928460   2.7928460   0.0000000   2.7928460   2.7928460   0.0000000
 AtZNuc=   8.0000000   1.0000000   1.0000000   8.0000000   1.0000000   1.0000000   8.0000000   1.0000000   1.0000000   8.0000000

  Atom       351         352         353         354         355         356         357         358         359         360
 IAtWgt=           1           1          16           1           1          16           1           1          16           1
 AtmWgt=   1.0078250   1.0078250  15.9949146   1.0078250   1.0078250  15.9949146   1.0078250   1.0078250  15.9949146   1.0078250
 NucSpn=           1           1           0           1           1           0           1           1           0           1
 AtZEff=   0.0000000   0.0000000   0.0000000   0.0000000   0.0000000   0.0000000   0.0000000   0.0000000   0.0000000   0.0000000
 NQMom=    0.0000000   0.0000000   0.0000000   0.0000000   0.0000000   0.0000000   0.0000000   0.0000000   0.0000000   0.0000000
 NMagM=    2.7928460   2.7928460   0.0000000   2.7928460   2.7928460   0.0000000   2.7928460   2.7928460   0.0000000   2.7928460
 AtZNuc=   1.0000000   1.0000000   8.0000000   1.0000000   1.0000000   8.0000000   1.0000000   1.0000000   8.0000000   1.0000000

  Atom       361         362         363         364         365         366         367         368         369         370
 IAtWgt=           1          16           1           1          16           1           1          16           1           1
 AtmWgt=   1.0078250  15.9949146   1.0078250   1.0078250  15.9949146   1.0078250   1.0078250  15.9949146   1.0078250   1.0078250
 NucSpn=           1           0           1           1           0           1           1           0           1           1
 AtZEff=   0.0000000   0.0000000   0.0000000   0.0000000   0.0000000   0.0000000   0.0000000   0.0000000   0.0000000   0.0000000
 NQMom=    0.0000000   0.0000000   0.0000000   0.0000000   0.0000000   0.0000000   0.0000000   0.0000000   0.0000000   0.0000000
 NMagM=    2.7928460   0.0000000   2.7928460   2.7928460   0.0000000   2.7928460   2.7928460   0.0000000   2.7928460   2.7928460
 AtZNuc=   1.0000000   8.0000000   1.0000000   1.0000000   8.0000000   1.0000000   1.0000000   8.0000000   1.0000000   1.0000000

  Atom       371         372         373         374         375         376         377         378         379         380
 IAtWgt=          16           1           1          16           1           1          16           1           1          16
 AtmWgt=  15.9949146   1.0078250   1.0078250  15.9949146   1.0078250   1.0078250  15.9949146   1.0078250   1.0078250  15.9949146
 NucSpn=           0           1           1           0           1           1           0           1           1           0
 AtZEff=   0.0000000   0.0000000   0.0000000   0.0000000   0.0000000   0.0000000   0.0000000   0.0000000   0.0000000   0.0000000
 NQMom=    0.0000000   0.0000000   0.0000000   0.0000000   0.0000000   0.0000000   0.0000000   0.0000000   0.0000000   0.0000000
 NMagM=    0.0000000   2.7928460   2.7928460   0.0000000   2.7928460   2.7928460   0.0000000   2.7928460   2.7928460   0.0000000
 AtZNuc=   8.0000000   1.0000000   1.0000000   8.0000000   1.0000000   1.0000000   8.0000000   1.0000000   1.0000000   8.0000000

  Atom       381         382         383         384         385
 IAtWgt=           1           1          16           1           1
 AtmWgt=   1.0078250   1.0078250  15.9949146   1.0078250   1.0078250
 NucSpn=           1           1           0           1           1
 AtZEff=   0.0000000   0.0000000   0.0000000   0.0000000   0.0000000
 NQMom=    0.0000000   0.0000000   0.0000000   0.0000000   0.0000000
 NMagM=    2.7928460   2.7928460   0.0000000   2.7928460   2.7928460
 AtZNuc=   1.0000000   1.0000000   8.0000000   1.0000000   1.0000000
 Leave Link  101 at Thu May 17 10:57:02 2018, MaxMem= 14763950080 cpu:        33.3
 (Enter /cm/shared/gaussian/g09.e01/intel64-sandybridge/g09/l103.exe)

 GradGradGradGradGradGradGradGradGradGradGradGradGradGradGradGradGradGrad
 Berny optimization.
 Initialization pass.
 Trust Radius=3.00D-01 FncErr=1.00D-07 GrdErr=1.00D-07
 Number of steps in this run=      2 maximum allowed number of steps=      2.
 GradGradGradGradGradGradGradGradGradGradGradGradGradGradGradGradGradGrad

 Leave Link  103 at Thu May 17 10:57:02 2018, MaxMem= 14763950080 cpu:         3.7
 (Enter /cm/shared/gaussian/g09.e01/intel64-sandybridge/g09/l202.exe)
 Symmetry turned off by external request.
 Stoichiometry    BrH256O128(1-)
 Framework group  C1[X(BrH256O128)]
 Deg. of freedom  1149
 Full point group                 C1      NOp   1
                          Input orientation:                          
 ---------------------------------------------------------------------
 Center     Atomic      Atomic             Coordinates (Angstroms)
 Number     Number       Type             X           Y           Z
 ---------------------------------------------------------------------
      1         35           0       20.000000   20.000000   20.000000
      2          8           0       22.260000   22.150000   19.400000
      3          1           0       21.600000   21.510000   19.690000
      4          1           0       23.070000   21.640000   19.320000
      5          8           0       20.540000   18.620000   23.070000
      6          1           0       20.390000   18.900000   22.170000
      7          1           0       19.660000   18.450000   23.420000
      8          8           0       22.270000   18.570000   17.840000
      9          1           0       21.690000   19.010000   18.460000
     10          1           0       21.770000   18.540000   17.030000
     11          8           0       17.530000   18.350000   18.700000
     12          1           0       18.410000   18.700000   18.560000
     13          1           0       17.010000   19.090000   19.000000
     14          8           0       20.090000   22.140000   22.710000
     15          1           0       19.890000   21.580000   21.960000
     16          1           0       20.000000   21.560000   23.470000
     17          8           0       19.290000   21.540000   16.960000
     18          1           0       19.270000   21.150000   17.840000
     19          1           0       19.910000   22.260000   17.030000
     20          8           0       22.800000   18.540000   21.600000
     21          1           0       22.410000   18.950000   20.830000
     22          1           0       22.100000   18.540000   22.250000
     23          8           0       16.440000   20.210000   20.760000
     24          1           0       15.900000   19.780000   21.420000
     25          1           0       17.080000   20.720000   21.250000
     26          8           0       18.820000   16.670000   21.090000
     27          1           0       19.310000   16.790000   20.270000
     28          1           0       17.980000   17.110000   20.940000
     29          8           0       20.120000   16.600000   18.650000
     30          1           0       19.970000   15.740000   18.250000
     31          1           0       19.440000   17.160000   18.270000
     32          8           0       17.270000   23.480000   19.510000
     33          1           0       16.360000   23.600000   19.780000
     34          1           0       17.610000   22.810000   20.100000
     35          8           0       22.000000   16.220000   20.360000
     36          1           0       21.430000   16.490000   19.640000
     37          1           0       22.110000   17.010000   20.880000
     38          8           0       20.950000   23.830000   17.870000
     39          1           0       21.700000   24.350000   17.570000
     40          1           0       21.270000   23.370000   18.640000
     41          8           0       22.010000   24.200000   21.880000
     42          1           0       21.280000   24.690000   21.510000
     43          1           0       21.660000   23.320000   22.040000
     44          8           0       19.440000   24.710000   21.250000
     45          1           0       19.040000   23.870000   21.510000
     46          1           0       19.040000   25.350000   21.840000
     47          8           0       24.430000   20.610000   22.240000
     48          1           0       24.860000   20.450000   23.080000
     49          1           0       23.790000   19.900000   22.160000
     50          8           0       17.160000   19.650000   15.860000
     51          1           0       16.920000   19.460000   16.770000
     52          1           0       18.000000   20.090000   15.920000
     53          8           0       18.260000   16.610000   23.770000
     54          1           0       18.770000   15.800000   23.800000
     55          1           0       18.330000   16.910000   22.870000
     56          8           0       17.110000   22.230000   23.550000
     57          1           0       17.220000   21.370000   23.970000
     58          1           0       17.990000   22.470000   23.270000
     59          8           0       15.280000   19.930000   18.090000
     60          1           0       15.520000   20.080000   19.000000
     61          1           0       14.340000   20.090000   18.050000
     62          8           0       18.180000   19.620000   24.310000
     63          1           0       17.610000   18.970000   24.720000
     64          1           0       18.800000   19.870000   25.000000
     65          8           0       23.580000   20.850000   16.140000
     66          1           0       23.610000   20.940000   17.090000
     67          1           0       22.920000   20.180000   15.980000
     68          8           0       24.750000   17.600000   18.330000
     69          1           0       23.980000   18.120000   18.100000
     70          1           0       24.500000   16.700000   18.120000
     71          8           0       24.650000   21.320000   18.990000
     72          1           0       25.270000   20.630000   18.800000
     73          1           0       25.150000   21.960000   19.500000
     74          8           0       20.640000   20.720000   24.900000
     75          1           0       20.960000   21.550000   25.260000
     76          1           0       20.330000   20.230000   25.670000
     77          8           0       18.860000   21.180000   14.400000
     78          1           0       19.200000   21.390000   15.270000
     79          1           0       19.610000   21.300000   13.820000
     80          8           0       14.970000   17.460000   20.140000
     81          1           0       15.850000   17.190000   19.860000
     82          1           0       14.530000   16.640000   20.370000
     83          8           0       23.250000   19.200000   24.620000
     84          1           0       22.310000   19.290000   24.820000
     85          1           0       23.270000   18.880000   23.720000
     86          8           0       21.500000   19.200000   15.180000
     87          1           0       21.170000   19.840000   14.550000
     88          1           0       21.100000   18.370000   14.910000
     89          8           0       19.610000   14.150000   21.250000
     90          1           0       19.200000   15.010000   21.380000
     91          1           0       19.420000   13.930000   20.340000
     92          8           0       24.490000   23.490000   21.100000
     93          1           0       23.620000   23.890000   21.070000
     94          1           0       24.360000   22.660000   21.550000
     95          8           0       18.890000   25.940000   18.830000
     96          1           0       18.940000   25.410000   18.030000
     97          1           0       19.170000   25.340000   19.520000
     98          8           0       25.470000   17.550000   20.890000
     99          1           0       24.620000   17.430000   21.310000
    100          1           0       25.250000   17.750000   19.980000
    101          8           0       24.200000   24.060000   17.510000
    102          1           0       23.880000   23.320000   18.030000
    103          1           0       24.270000   23.720000   16.620000
    104          8           0       15.850000   22.250000   16.060000
    105          1           0       15.730000   22.420000   16.990000
    106          1           0       16.290000   21.400000   16.010000
    107          8           0       19.120000   15.980000   16.080000
    108          1           0       19.100000   16.690000   15.440000
    109          1           0       18.210000   15.700000   16.150000
    110          8           0       22.530000   16.380000   23.850000
    111          1           0       22.820000   15.510000   23.560000
    112          1           0       21.610000   16.270000   24.080000
    113          8           0       14.680000   19.270000   22.730000
    114          1           0       14.210000   18.670000   22.150000
    115          1           0       15.350000   18.720000   23.150000
    116          8           0       22.270000   14.030000   21.850000
    117          1           0       21.330000   13.950000   21.730000
    118          1           0       22.500000   14.860000   21.440000
    119          8           0       18.180000   24.490000   15.600000
    120          1           0       17.770000   24.210000   16.420000
    121          1           0       18.030000   23.750000   15.010000
    122          8           0       21.000000   24.870000   24.180000
    123          1           0       21.340000   25.740000   24.380000
    124          1           0       21.650000   24.490000   23.580000
    125          8           0       23.570000   21.940000   24.960000
    126          1           0       24.500000   21.920000   24.740000
    127          1           0       23.290000   21.030000   24.900000
    128          8           0       21.720000   23.390000   14.200000
    129          1           0       21.410000   22.790000   13.520000
    130          1           0       21.710000   22.870000   15.000000
    131          8           0       22.390000   13.630000   18.990000
    132          1           0       22.140000   14.370000   19.550000
    133          1           0       22.250000   13.950000   18.100000
    134          8           0       14.530000   22.700000   19.280000
    135          1           0       14.030000   22.340000   20.010000
    136          1           0       13.950000   22.630000   18.520000
    137          8           0       16.210000   15.010000   19.340000
    138          1           0       15.680000   15.260000   18.590000
    139          1           0       16.930000   14.480000   18.980000
    140          8           0       15.560000   16.620000   23.750000
    141          1           0       15.530000   15.770000   23.300000
    142          1           0       16.460000   16.690000   24.070000
    143          8           0       14.900000   23.400000   23.820000
    144          1           0       15.640000   22.800000   23.700000
    145          1           0       14.370000   22.990000   24.500000
    146          8           0       22.020000   14.850000   16.580000
    147          1           0       22.700000   15.130000   15.960000
    148          1           0       21.200000   15.050000   16.130000
    149          8           0       16.270000   14.380000   22.590000
    150          1           0       16.470000   13.440000   22.600000
    151          1           0       16.570000   14.680000   21.740000
    152          8           0       15.230000   17.270000   15.050000
    153          1           0       14.660000   18.020000   14.880000
    154          1           0       15.520000   17.390000   15.950000
    155          8           0       27.310000   20.500000   21.230000
    156          1           0       26.480000   20.030000   21.350000
    157          1           0       27.200000   20.970000   20.410000
    158          8           0       13.060000   21.480000   21.630000
    159          1           0       13.750000   20.940000   22.010000
    160          1           0       12.850000   21.050000   20.800000
    161          8           0       25.850000   19.560000   15.280000
    162          1           0       26.520000   19.310000   15.920000
    163          1           0       25.160000   19.970000   15.800000
    164          8           0       13.100000   18.000000   17.740000
    165          1           0       13.870000   18.030000   18.320000
    166          1           0       13.020000   17.070000   17.510000
    167          8           0       19.910000   17.440000   13.820000
    168          1           0       20.500000   17.030000   13.180000
    169          1           0       19.060000   17.420000   13.400000
    170          8           0       21.490000   23.180000   26.200000
    171          1           0       22.420000   23.380000   26.100000
    172          1           0       21.060000   23.740000   25.550000
    173          8           0       16.740000   19.460000   12.930000
    174          1           0       16.910000   19.490000   13.870000
    175          1           0       17.520000   19.040000   12.560000
    176          8           0       16.820000   18.020000   26.200000
    177          1           0       17.740000   17.760000   26.130000
    178          1           0       16.830000   18.850000   26.680000
    179          8           0       18.430000   24.780000   25.240000
    180          1           0       19.270000   24.940000   24.810000
    181          1           0       17.790000   24.810000   24.520000
    182          8           0       18.350000   22.420000   26.460000
    183          1           0       17.700000   22.850000   25.910000
    184          1           0       19.170000   22.900000   26.290000
    185          8           0       20.370000   14.750000   24.570000
    186          1           0       20.860000   14.000000   24.250000
    187          1           0       19.570000   14.380000   24.950000
    188          8           0       17.140000   25.720000   22.790000
    189          1           0       16.240000   25.920000   22.540000
    190          1           0       17.470000   26.530000   23.180000
    191          8           0       27.250000   18.670000   17.860000
    192          1           0       26.450000   18.170000   18.030000
    193          1           0       27.940000   18.140000   18.240000
    194          8           0       24.720000   16.560000   25.430000
    195          1           0       23.990000   16.970000   24.960000
    196          1           0       24.960000   15.810000   24.900000
    197          8           0       23.930000   21.180000   13.250000
    198          1           0       24.830000   21.170000   12.920000
    199          1           0       24.020000   21.090000   14.200000
    200          8           0       16.630000   14.840000   16.390000
    201          1           0       16.680000   14.030000   16.890000
    202          1           0       16.000000   14.660000   15.690000
    203          8           0       21.060000   20.670000   12.920000
    204          1           0       20.540000   20.100000   12.350000
    205          1           0       21.970000   20.490000   12.690000
    206          8           0       15.790000   26.720000   18.960000
    207          1           0       16.600000   26.230000   18.840000
[...]
   Z335      47.28095   0.01748   0.00000   0.01459   0.01414  47.29509
   X336      27.21206   0.01033   0.00000   0.01483   0.01458  27.22664
   Y336      46.94080  -0.01329   0.00000  -0.00038  -0.00008  46.94072
   Z336      46.52506  -0.01333   0.00000  -0.01171  -0.01215  46.51291
   X337      25.11446  -0.01318   0.00000  -0.00931  -0.00952  25.10494
   Y337      48.86832  -0.00027   0.00000  -0.00170  -0.00136  48.86696
   Z337      46.75182  -0.00623   0.00000  -0.00532  -0.00580  46.74603
   X338      26.96639  -0.00584   0.00000  -0.00419  -0.00474  26.96166
   Y338      31.06710  -0.00203   0.00000  -0.00083  -0.00049  31.06661
   Z338      50.22892   0.00641   0.00000   0.00647   0.00618  50.23510
   X339      26.75852   0.00512   0.00000   0.00766   0.00714  26.76566
   Y339      31.63402  -0.00179   0.00000  -0.00546  -0.00513  31.62889
   Z339      48.50927  -0.00278   0.00000  -0.00090  -0.00120  48.50807
   X340      28.72384   0.00246   0.00000   0.00134   0.00080  28.72463
   Y340      31.38835   0.00456   0.00000   0.00662   0.00693  31.39528
   Z340      50.58797  -0.00682   0.00000  -0.01054  -0.01081  50.57716
   X341      44.97548   0.01526   0.00000   0.00406   0.00406  44.97954
   Y341      54.17845   0.00613   0.00000   0.00309   0.00301  54.18146
   Z341      36.96304  -0.00381   0.00000  -0.00236  -0.00262  36.96042
   X342      44.97548   0.00083   0.00000   0.00210   0.00210  44.97758
   Y342      55.10441   0.00109   0.00000  -0.00052  -0.00058  55.10383
   Z342      38.51262   0.00564   0.00000   0.00580   0.00552  38.51814
   X343      43.35032  -0.02342   0.00000  -0.01955  -0.01956  43.33075
   Y343      53.40366  -0.00849   0.00000  -0.00473  -0.00478  53.39888
   Z343      36.88745  -0.00170   0.00000  -0.00240  -0.00268  36.88478
   X344      21.29721  -0.00567   0.00000  -0.00074  -0.00095  21.29626
   Y344      44.84320   0.01523   0.00000   0.01278   0.01313  44.85633
   Z344      41.70626   0.00534   0.00000   0.00237   0.00188  41.70814
   X345      22.86569   0.00796   0.00000   0.00258   0.00236  22.86804
   Y345      43.93613  -0.01075   0.00000  -0.01087  -0.01054  43.92559
   Z345      41.70626  -0.00047   0.00000   0.00123   0.00077  41.70702
   X346      20.29566  -0.00053   0.00000   0.00203   0.00182  20.29748
   Y346      44.03062  -0.00596   0.00000  -0.00568  -0.00532  44.02530
   Z346      40.44014  -0.00361   0.00000   0.00016  -0.00034  40.43980
   X347      42.76450  -0.01257   0.00000  -0.00931  -0.00940  42.75510
   Y347      35.62134   0.00456   0.00000   0.00397   0.00379  35.62513
   Z347      21.71295  -0.00574   0.00000  -0.00119  -0.00131  21.71164
   X348      41.66846   0.00337   0.00000   0.00367   0.00355  41.67202
   Y348      34.16625  -0.00066   0.00000  -0.00244  -0.00261  34.16364
   Z348      21.63736  -0.00069   0.00000  -0.00211  -0.00223  21.63513
   X349      44.18180   0.00841   0.00000   0.00451   0.00439  44.18619
   Y349      35.05442  -0.00814   0.00000  -0.00879  -0.00898  35.04544
   Z349      22.69561   0.00368   0.00000  -0.00138  -0.00147  22.69414
   X350      39.34410   0.00742   0.00000   0.00457   0.00450  39.34860
   Y350      53.93278   0.00595   0.00000   0.00944   0.00950  53.94228
   Z350      41.64956  -0.01236   0.00000  -0.00954  -0.00988  41.63969
   X351      37.98350  -0.00013   0.00000   0.00798   0.00790  37.99139
   Y351      53.70602  -0.00365   0.00000  -0.00552  -0.00542  53.70059
   Z351      42.82119   0.01146   0.00000   0.01099   0.01063  42.83183
   X352      40.79919   0.00036   0.00000   0.00166   0.00159  40.80077
   Y352      54.27293  -0.00454   0.00000  -0.00825  -0.00820  54.26473
   Z352      42.68891   0.00180   0.00000   0.00122   0.00090  42.68981
   X353      34.05286  -0.00508   0.00000  -0.00043  -0.00105  34.05181
   Y353      26.15381   0.00156   0.00000   0.00237   0.00260  26.15641
   Z353      49.98326  -0.02110   0.00000  -0.01487  -0.01501  49.96824
   X354      34.39302   0.00410   0.00000   0.00360   0.00293  34.39595
   Y354      24.92549  -0.00901   0.00000  -0.00458  -0.00435  24.92113
   Z354      51.24937   0.01059   0.00000   0.00411   0.00398  51.25335
   X355      34.41191   0.00574   0.00000   0.00741   0.00680  34.41871
   Y355      27.74118   0.01077   0.00000   0.00758   0.00781  27.74899
   Z355      50.75804   0.00645   0.00000   0.00379   0.00363  50.76167
   X356      52.55328   0.00495   0.00000   0.00184   0.00177  52.55506
   Y356      46.58175  -0.01232   0.00000  -0.00615  -0.00639  46.57536
   Z356      32.91903   0.00390   0.00000   0.00546   0.00537  32.92440
   X357      53.40366   0.00245   0.00000  -0.00030  -0.00034  53.40332
   Y357      48.16912   0.01117   0.00000   0.00884   0.00859  48.17771
   Z357      32.95682   0.00021   0.00000   0.00038   0.00028  32.95711
   X358      50.81474  -0.01102   0.00000  -0.00799  -0.00805  50.80669
   Y358      46.99749   0.00290   0.00000   0.00118   0.00097  46.99846
   Z358      32.65447  -0.00339   0.00000  -0.00421  -0.00433  32.65013
   X359      24.37747  -0.00961   0.00000   0.00052   0.00007  24.37754
   Y359      36.66069   0.01289   0.00000   0.00972   0.01009  36.67078
   Z359      49.43524  -0.00513   0.00000  -0.00608  -0.00645  49.42878
   X360      24.83100   0.00079   0.00000  -0.00321  -0.00366  24.82734
   Y360      35.39457  -0.01257   0.00000  -0.01250  -0.01215  35.38242
   Z360      48.22581  -0.00806   0.00000  -0.00563  -0.00598  48.21983
   X361      25.60579   0.00974   0.00000   0.00575   0.00528  25.61107
   Y361      36.52841  -0.01033   0.00000  -0.01666  -0.01629  36.51212
   Z361      50.73915   0.01087   0.00000   0.00857   0.00822  50.74736
   X362      42.32987  -0.01664   0.00000  -0.01777  -0.01804  42.31182
   Y362      26.83411   0.00175   0.00000   0.00765   0.00750  26.84161
   Z362      24.73652   0.00362   0.00000  -0.00318  -0.00323  24.73329
   X363      43.61488   0.00523   0.00000   0.00294   0.00267  43.61755
   Y363      27.77897  -0.00456   0.00000  -0.01288  -0.01304  27.76594
   Z363      25.58689   0.00517   0.00000   0.00635   0.00632  25.59321
   X364      42.89678   0.00511   0.00000   0.00413   0.00387  42.90065
   Y364      26.70183  -0.00138   0.00000  -0.00200  -0.00217  26.69966
   Z364      23.03576  -0.01219   0.00000  -0.00926  -0.00930  23.02646
   X365      37.41658  -0.00671   0.00000   0.00108   0.00076  37.41734
   Y365      47.45102   0.01847   0.00000   0.01165   0.01185  47.46287
   Z365      53.06351   0.00194   0.00000   0.00272   0.00242  53.06593
   X366      36.83076  -0.00266   0.00000  -0.00259  -0.00295  36.82782
   Y366      46.65734  -0.00556   0.00000  -0.00529  -0.00507  46.65227
   Z366      54.57529   0.00521   0.00000   0.00260   0.00230  54.57759
   X367      38.55041   0.01265   0.00000   0.00851   0.00818  38.55859
   Y367      46.26050  -0.01424   0.00000  -0.00942  -0.00925  46.25125
   Z367      52.34541  -0.00856   0.00000  -0.00702  -0.00730  52.33811
   X368      35.28119   0.00294   0.00000  -0.00682  -0.00694  35.27425
   Y368      53.00682  -0.00851   0.00000  -0.00895  -0.00879  52.99802
   Z368      44.65423  -0.00575   0.00000  -0.00547  -0.00585  44.64838
   X369      34.26073  -0.00458   0.00000  -0.00033  -0.00046  34.26027
   Y369      53.30917   0.00341   0.00000   0.00375   0.00393  53.31310
   Z369      46.10932   0.01327   0.00000   0.01320   0.01280  46.12212
   X370      34.43081  -0.00805   0.00000  -0.01022  -0.01031  34.42050
   Y370      53.87609   0.00702   0.00000   0.00822   0.00837  53.88446
   Z370      43.31252  -0.00645   0.00000  -0.00461  -0.00501  43.30751
   X371      32.57888  -0.00348   0.00000  -0.00172  -0.00168  32.57720
   Y371      44.10621   0.00713   0.00000   0.00449   0.00447  44.11068
   Z371      21.90193  -0.00392   0.00000  -0.00331  -0.00365  21.89828
   X372      34.35522   0.00472   0.00000   0.00355   0.00359  34.35881
   Y372      44.38967  -0.00110   0.00000  -0.00197  -0.00201  44.38766
   Z372      22.12869   0.00219   0.00000   0.00331   0.00300  22.13169
   X373      32.33321  -0.00208   0.00000  -0.00346  -0.00345  32.32976
   Y373      42.36766  -0.00533   0.00000  -0.00123  -0.00123  42.36643
   Z373      22.35546   0.00587   0.00000   0.00855   0.00823  22.36369
   X374      55.12331   0.01795   0.00000   0.01730   0.01703  55.14034
   Y374      41.78184   0.01350   0.00000   0.00576   0.00557  41.78742
   Z374      42.29207   0.00518   0.00000   0.00446   0.00445  42.29652
   X375      54.23514  -0.00408   0.00000  -0.00492  -0.00520  54.22994
   Y375      42.32987  -0.00262   0.00000  -0.00219  -0.00235  42.32752
   Z375      43.78495  -0.00337   0.00000  -0.00576  -0.00579  43.77917
   X376      54.17845  -0.01501   0.00000  -0.01363  -0.01392  54.16453
   Y376      40.36455  -0.00891   0.00000   0.00053   0.00035  40.36490
   Z376      41.68736  -0.00161   0.00000   0.00169   0.00168  41.68904
   X377      20.29566  -0.01885   0.00000  -0.02031  -0.02063  20.27503
   Y377      32.38991  -0.00943   0.00000  -0.01347  -0.01316  32.37674
   Z377      34.67647  -0.00252   0.00000   0.00024  -0.00015  34.67633
   X378      21.82634  -0.00325   0.00000  -0.01541  -0.01571  21.81063
   Y378      33.12690   0.00775   0.00000   0.01014   0.01041  33.13731
   Z378      34.03397   0.00571   0.00000   0.01124   0.01087  34.04484
   X379      20.63581   0.00280   0.00000   0.00138   0.00104  20.63685
   Y379      32.12534   0.00134   0.00000   0.00179   0.00211  32.12745
   Z379      36.43392   0.00446   0.00000   0.00365   0.00326  36.43718
   X380      25.88925  -0.00247   0.00000  -0.00184  -0.00241  25.88684
   Y380      25.26564  -0.00117   0.00000   0.00541   0.00572  25.27136
   Z380      44.59754  -0.01595   0.00000  -0.01352  -0.01377  44.58377
   X381      24.86880  -0.00471   0.00000  -0.00199  -0.00258  24.86622
   Y381      25.32233   0.00236   0.00000   0.00270   0.00303  25.32536
   Z381      46.09042   0.00719   0.00000   0.00187   0.00161  46.09203
   X382      27.30654   0.00961   0.00000   0.00998   0.00943  27.31597
   Y382      26.32389   0.00396   0.00000   0.00036   0.00065  26.32454
   Z382      44.97548   0.00592   0.00000   0.00722   0.00698  44.98246
   X383      22.96017  -0.00723   0.00000  -0.00201  -0.00227  22.95790
   Y383      31.06710  -0.01128   0.00000  -0.01669  -0.01649  31.05061
   Z383      28.30810   0.00445   0.00000   0.00905   0.00871  28.31681
   X384      23.98062   0.00530   0.00000   0.00377   0.00351  23.98414
   Y384      32.08755   0.00863   0.00000   0.01178   0.01198  32.09953
   Z384      29.40414  -0.00474   0.00000  -0.01113  -0.01146  29.39268
   X385      24.05621   0.00518   0.00000   0.00495   0.00471  24.06092
   Y385      30.68915   0.00373   0.00000   0.00627   0.00644  30.69559
   Z385      26.90970  -0.00007   0.00000   0.00245   0.00213  26.91183
         Item               Value     Threshold  Converged?
 Maximum Force            0.033920     0.000450     NO 
 RMS     Force            0.010206     0.000300     NO 
 Maximum Displacement     0.029301     0.001800     NO 
 RMS     Displacement     0.008847     0.001200     NO 
 Predicted change in Energy=-7.120119D-02
 GradGradGradGradGradGradGradGradGradGradGradGradGradGradGradGradGradGrad

 Leave Link  103 at Thu May 17 14:06:55 2018, MaxMem= 14763950080 cpu:      3395.9
 (Enter /cm/shared/gaussian/g09.e01/intel64-sandybridge/g09/l9999.exe)
 1\1\GINC-POPLE03\Force\RPBE1PBE\CC-pVDZ\Br1H256O128(1-)\M.PELUSO\17-Ma
 y-2018\0\\#p PBE1PBE/cc-pvDZ force Counterpoise=2 noSymm\\forces on ch
 loride comput - NWATER: 128\\-1,1\Br,20.,20.,20.\O,22.26,22.15,19.4\H,
 21.6,21.51,19.69\H,23.07,21.64,19.32\O,20.54,18.62,23.07\H,20.39,18.9,
 22.17\H,19.66,18.45,23.42\O,22.27,18.57,17.84\H,21.69,19.01,18.46\H,21
 .77,18.54,17.03\O,17.53,18.35,18.7\H,18.41,18.7,18.56\H,17.01,19.09,19
 .\O,20.09,22.14,22.71\H,19.89,21.58,21.96\H,20.,21.56,23.47\O,19.29,21
 .54,16.96\H,19.27,21.15,17.84\H,19.91,22.26,17.03\O,22.8,18.54,21.6\H,
 22.41,18.95,20.83\H,22.1,18.54,22.25\O,16.44,20.21,20.76\H,15.9,19.78,
 21.42\H,17.08,20.72,21.25\O,18.82,16.67,21.09\H,19.31,16.79,20.27\H,17
 .98,17.11,20.94\O,20.12,16.6,18.65\H,19.97,15.74,18.25\H,19.44,17.16,1
 8.27\O,17.27,23.48,19.51\H,16.36,23.6,19.78\H,17.61,22.81,20.1\O,22.,1
 6.22,20.36\H,21.43,16.49,19.64\H,22.11,17.01,20.88\O,20.95,23.83,17.87
 \H,21.7,24.35,17.57\H,21.27,23.37,18.64\O,22.01,24.2,21.88\H,21.28,24.
 69,21.51\H,21.66,23.32,22.04\O,19.44,24.71,21.25\H,19.04,23.87,21.51\H
 ,19.04,25.35,21.84\O,24.43,20.61,22.24\H,24.86,20.45,23.08\H,23.79,19.
 9,22.16\O,17.16,19.65,15.86\H,16.92,19.46,16.77\H,18.,20.09,15.92\O,18
 .26,16.61,23.77\H,18.77,15.8,23.8\H,18.33,16.91,22.87\O,17.11,22.23,23
 .55\H,17.22,21.37,23.97\H,17.99,22.47,23.27\O,15.28,19.93,18.09\H,15.5
 2,20.08,19.\H,14.34,20.09,18.05\O,18.18,19.62,24.31\H,17.61,18.97,24.7
 2\H,18.8,19.87,25.\O,23.58,20.85,16.14\H,23.61,20.94,17.09\H,22.92,20.
 18,15.98\O,24.75,17.6,18.33\H,23.98,18.12,18.1\H,24.5,16.7,18.12\O,24.
 65,21.32,18.99\H,25.27,20.63,18.8\H,25.15,21.96,19.5\O,20.64,20.72,24.
 9\H,20.96,21.55,25.26\H,20.33,20.23,25.67\O,18.86,21.18,14.4\H,19.2,21
 .39,15.27\H,19.61,21.3,13.82\O,14.97,17.46,20.14\H,15.85,17.19,19.86\H
 ,14.53,16.64,20.37\O,23.25,19.2,24.62\H,22.31,19.29,24.82\H,23.27,18.8
 8,23.72\O,21.5,19.2,15.18\H,21.17,19.84,14.55\H,21.1,18.37,14.91\O,19.
 61,14.15,21.25\H,19.2,15.01,21.38\H,19.42,13.93,20.34\O,24.49,23.49,21
 .1\H,23.62,23.89,21.07\H,24.36,22.66,21.55\O,18.89,25.94,18.83\H,18.94
 ,25.41,18.03\H,19.17,25.34,19.52\O,25.47,17.55,20.89\H,24.62,17.43,21.
 31\H,25.25,17.75,19.98\O,24.2,24.06,17.51\H,23.88,23.32,18.03\H,24.27,
 23.72,16.62\O,15.85,22.25,16.06\H,15.73,22.42,16.99\H,16.29,21.4,16.01
 \O,19.12,15.98,16.08\H,19.1,16.69,15.44\H,18.21,15.7,16.15\O,22.53,16.
 38,23.85\H,22.82,15.51,23.56\H,21.61,16.27,24.08\O,14.68,19.27,22.73\H
 ,14.21,18.67,22.15\H,15.35,18.72,23.15\O,22.27,14.03,21.85\H,21.33,13.
 95,21.73\H,22.5,14.86,21.44\O,18.18,24.49,15.6\H,17.77,24.21,16.42\H,1
 8.03,23.75,15.01\O,21.,24.87,24.18\H,21.34,25.74,24.38\H,21.65,24.49,2
 3.58\O,23.57,21.94,24.96\H,24.5,21.92,24.74\H,23.29,21.03,24.9\O,21.72
 ,23.39,14.2\H,21.41,22.79,13.52\H,21.71,22.87,15.\O,22.39,13.63,18.99\
 H,22.14,14.37,19.55\H,22.25,13.95,18.1\O,14.53,22.7,19.28\H,14.03,22.3
 4,20.01\H,13.95,22.63,18.52\O,16.21,15.01,19.34\H,15.68,15.26,18.59\H,
 16.93,14.48,18.98\O,15.56,16.62,23.75\H,15.53,15.77,23.3\H,16.46,16.69
 ,24.07\O,14.9,23.4,23.82\H,15.64,22.8,23.7\H,14.37,22.99,24.5\O,22.02,
 14.85,16.58\H,22.7,15.13,15.96\H,21.2,15.05,16.13\O,16.27,14.38,22.59\
 H,16.47,13.44,22.6\H,16.57,14.68,21.74\O,15.23,17.27,15.05\H,14.66,18.
 02,14.88\H,15.52,17.39,15.95\O,27.31,20.5,21.23\H,26.48,20.03,21.35\H,
 27.2,20.97,20.41\O,13.06,21.48,21.63\H,13.75,20.94,22.01\H,12.85,21.05
 ,20.8\O,25.85,19.56,15.28\H,26.52,19.31,15.92\H,25.16,19.97,15.8\O,13.
 1,18.,17.74\H,13.87,18.03,18.32\H,13.02,17.07,17.51\O,19.91,17.44,13.8
 2\H,20.5,17.03,13.18\H,19.06,17.42,13.4\O,21.49,23.18,26.2\H,22.42,23.
 38,26.1\H,21.06,23.74,25.55\O,16.74,19.46,12.93\H,16.91,19.49,13.87\H,
 17.52,19.04,12.56\O,16.82,18.02,26.2\H,17.74,17.76,26.13\H,16.83,18.85
 ,26.68\O,18.43,24.78,25.24\H,19.27,24.94,24.81\H,17.79,24.81,24.52\O,1
 8.35,22.42,26.46\H,17.7,22.85,25.91\H,19.17,22.9,26.29\O,20.37,14.75,2
 4.57\H,20.86,14.,24.25\H,19.57,14.38,24.95\O,17.14,25.72,22.79\H,16.24
 ,25.92,22.54\H,17.47,26.53,23.18\O,27.25,18.67,17.86\H,26.45,18.17,18.
 03\H,27.94,18.14,18.24\O,24.72,16.56,25.43\H,23.99,16.97,24.96\H,24.96
 ,15.81,24.9\O,23.93,21.18,13.25\H,24.83,21.17,12.92\H,24.02,21.09,14.2
 \O,16.63,14.84,16.39\H,16.68,14.03,16.89\H,16.,14.66,15.69\O,21.06,20.
 67,12.92\H,20.54,20.1,12.35\H,21.97,20.49,12.69\O,15.79,26.72,18.96\H,
 16.6,26.23,18.84\H,16.07,27.62,19.14\O,21.91,17.4,27.14\H,20.97,17.29,
 26.97\H,22.15,18.18,26.64\O,18.69,12.96,18.67\H,18.93,12.36,17.96\H,18
 .32,12.39,19.34\O,25.95,25.66,20.17\H,25.46,24.85,20.05\H,26.85,25.42,
 19.95\O,21.15,27.81,19.36\H,20.39,27.27,19.13\H,20.87,28.29,20.14\O,19
 .73,19.95,27.44\H,20.22,19.72,28.23\H,19.01,20.49,27.76\O,15.01,24.71,
 15.17\H,15.36,23.93,15.59\H,14.06,24.66,15.32\O,14.93,21.62,13.59\H,15
 .42,22.06,14.28\H,15.36,20.77,13.5\O,26.32,22.11,16.22\H,25.82,22.64,1
 5.6\H,26.38,21.25,15.8\O,12.16,20.25,19.46\H,11.94,20.95,18.84\H,12.39
 ,19.5,18.91\O,27.7,16.18,20.18\H,26.99,16.68,20.58\H,27.68,15.33,20.62
 \O,26.21,21.1,24.6\H,26.39,20.19,24.4\H,26.96,21.39,25.12\O,22.88,21.,
 27.71\H,22.68,21.7,27.1\H,22.26,21.12,28.43\O,12.82,17.23,23.77\H,12.3
 ,17.6,23.05\H,13.64,16.96,23.35\O,18.9,13.17,14.6\H,19.08,12.52,15.27\
 H,19.,14.01,15.05\O,27.43,22.3,18.95\H,27.25,22.83,18.17\H,28.22,22.69
 ,19.33\O,22.83,26.66,23.98\H,23.45,26.94,24.65\H,23.37,26.28,23.29\O,1
 7.06,20.3,27.77\H,16.88,20.58,28.66\H,16.96,21.09,27.24\O,17.23,16.4,1
 2.94\H,16.6,16.81,13.53\H,16.98,15.48,12.93\O,24.05,15.26,15.01\H,24.4
 ,15.84,14.34\H,24.8,15.04,15.56\O,26.66,18.43,24.12\H,26.16,17.76,24.6
 \H,27.42,17.96,23.77\O,13.47,15.61,21.41\H,13.58,15.06,22.18\H,12.56,1
 5.9,21.44\O,12.73,22.22,17.3\H,12.55,22.18,16.36\H,11.92,22.55,17.68\O
 ,25.92,25.11,23.55\H,25.98,24.7,22.69\H,25.86,24.37,24.16\O,13.62,19.2
 4,14.38\H,13.65,19.52,13.46\H,13.72,20.04,14.88\O,22.97,25.84,13.87\H,
 22.35,25.27,14.31\H,22.87,26.69,14.3\O,25.25,19.27,27.18\H,24.64,19.99
 ,27.33\H,25.09,19.01,26.26\O,24.76,18.02,13.15\H,25.38,17.62,13.76\H,2
 4.68,18.93,13.44\O,17.53,28.81,18.67\H,17.83,27.91,18.8\H,17.85,29.04,
 17.8\O,24.42,12.24,17.72\H,25.07,12.75,17.23\H,23.95,12.89,18.23\O,24.
 32,12.62,23.02\H,24.6,12.82,23.92\H,23.45,13.01,22.95\O,13.56,15.09,17
 .86\H,12.97,14.5,18.34\H,13.53,14.77,16.96\O,13.4,25.77,18.23\H,14.31,
 26.04,18.37\H,13.24,25.11,18.92\O,20.88,11.12,18.94\H,20.38,11.37,19.7
 2\H,21.6,11.75,18.91\O,13.77,21.88,25.66\H,13.98,22.01,26.58\H,13.66,2
 0.93,25.57\O,20.93,11.45,22.27\H,21.24,10.78,22.87\H,21.72,11.93,22.02
 \O,29.03,18.23,21.83\H,29.74,18.87,21.9\H,28.26,18.75,21.62\O,25.14,24
 .06,14.55\H,24.54,24.8,14.43\H,25.53,23.93,13.69\O,17.08,26.57,13.83\H
 ,16.84,25.99,13.1\H,17.41,25.99,14.51\O,23.09,13.67,25.26\H,23.08,13.0
 2,25.97\H,23.17,14.51,25.71\O,25.06,27.36,17.53\H,24.48,27.53,18.27\H,
 25.27,26.43,17.61\O,13.36,13.15,19.86\H,13.73,14.03,19.79\H,13.53,12.8
 9,20.77\O,19.37,16.59,27.97\H,20.01,16.1,28.48\H,18.53,16.25,28.25\O,1
 4.18,25.68,25.02\H,14.4,24.84,24.62\H,13.29,25.86,24.74\O,14.27,16.44,
 26.58\H,14.16,16.74,25.67\H,15.2,16.61,26.77\O,23.8,28.67,19.56\H,23.8
 ,29.16,20.38\H,22.94,28.26,19.52\O,11.27,23.73,22.07\H,12.1,23.25,22.0
 7\H,10.74,23.3,21.4\O,22.63,18.85,11.49\H,22.05,18.08,11.45\H,23.38,18
 .55,12.01\O,20.82,28.54,22.04\H,20.1,28.42,22.66\H,21.59,28.72,22.59\O
 ,18.02,13.84,26.45\H,18.2,13.19,27.12\H,18.21,14.68,26.86\O,27.81,24.6
 5,17.42\H,28.26,25.49,17.44\H,26.89,24.87,17.28\O,12.9,19.4,26.16\H,13
 .14,18.73,25.52\H,13.55,19.33,26.85\O,22.4,14.2,13.09\H,23.08,14.7,13.
 54\H,22.7,14.13,12.19\O,19.8,25.11,28.08\H,19.49,24.69,28.88\H,20.4,24
 .48,27.7\O,18.67,28.05,23.63\H,18.13,28.21,24.4\H,18.22,28.51,22.92\O,
 17.24,23.34,11.59\H,18.18,23.49,11.71\H,17.11,22.42,11.83\O,29.17,22.1
 1,22.38\H,28.7,22.4,23.17\H,28.67,21.36,22.06\O,10.74,17.14,18.35\H,11
 .55,17.53,18.01\H,10.92,17.,19.28\O,13.7,13.37,23.6\H,13.16,13.4,24.39
 \H,14.45,13.93,23.8\O,12.15,16.44,14.98\H,12.69,16.98,15.56\H,12.73,16
 .24,14.24\\Version=ES64L-G09RevE.01\HF=-9773.3003135\RMSD=1.842e-09\RM
 SF=1.021e-02\Dipole=-3.7041377,-12.0008321,5.5026231\Quadrupole=-100.8
 434741,-684.2065592,785.0500332,-1941.5786656,-1417.1009856,-1637.6771
 478\PG=C01 [X(Br1H256O128)]\\@


 A politician is a person who can make waves and then
 make you think he's the only one who can save the ship.
 -- Ivern Ball
 Job cpu time:       8 days  6 hours 53 minutes 36.6 seconds.
 File lengths (MBytes):  RWF=   7285 Int=      0 D2E=      0 Chk=   2411 Scr=      1
 Normal termination of Gaussian 09 at Thu May 17 14:07:27 2018.
