 Entering Gaussian System, Link 0=/cm/shared/gaussian/g09.e01/intel64-sandybridge/g09/g09
 Initial command:
 /cm/shared/gaussian/g09.e01/intel64-sandybridge/g09/l1.exe "/local/scratch/m.peluso/128_wat/order/Gau-47557.inp" -scrdir="/local/scratch/m.peluso/128_wat/order/"
 Entering Link 1 = /cm/shared/gaussian/g09.e01/intel64-sandybridge/g09/l1.exe PID=     47558.
  
 Copyright (c) 1988,1990,1992,1993,1995,1998,2003,2009,2015,
            Gaussian, Inc.  All Rights Reserved.
  
 This is part of the Gaussian(R) 09 program.  It is based on
 the Gaussian(R) 03 system (copyright 2003, Gaussian, Inc.),
 the Gaussian(R) 98 system (copyright 1998, Gaussian, Inc.),
 the Gaussian(R) 94 system (copyright 1995, Gaussian, Inc.),
 the Gaussian 92(TM) system (copyright 1992, Gaussian, Inc.),
 the Gaussian 90(TM) system (copyright 1990, Gaussian, Inc.),
 the Gaussian 88(TM) system (copyright 1988, Gaussian, Inc.),
 the Gaussian 86(TM) system (copyright 1986, Carnegie Mellon
 University), and the Gaussian 82(TM) system (copyright 1983,
 Carnegie Mellon University). Gaussian is a federally registered
 trademark of Gaussian, Inc.
  
 This software contains proprietary and confidential information,
 including trade secrets, belonging to Gaussian, Inc.
  
 This software is provided under written license and may be
 used, copied, transmitted, or stored only in accord with that
 written license.
  
 The following legend is applicable only to US Government
 contracts under FAR:
  
                    RESTRICTED RIGHTS LEGEND
  
 Use, reproduction and disclosure by the US Government is
 subject to restrictions as set forth in subparagraphs (a)
 and (c) of the Commercial Computer Software - Restricted
 Rights clause in FAR 52.227-19.
  
 Gaussian, Inc.
 340 Quinnipiac St., Bldg. 40, Wallingford CT 06492
  
  
 ---------------------------------------------------------------
 Warning -- This program may not be used in any manner that
 competes with the business of Gaussian, Inc. or will provide
 assistance to any competitor of Gaussian, Inc.  The licensee
 of this program is prohibited from giving any competitor of
 Gaussian, Inc. access to this program.  By using this program,
 the user acknowledges that Gaussian, Inc. is engaged in the
 business of creating and licensing software in the field of
 computational chemistry and represents and warrants to the
 licensee that it is not a competitor of Gaussian, Inc. and that
 it will not use this program in any manner prohibited above.
 ---------------------------------------------------------------
  

 Cite this work as:
 Gaussian 09, Revision E.01,
 M. J. Frisch, G. W. Trucks, H. B. Schlegel, G. E. Scuseria, 
 M. A. Robb, J. R. Cheeseman, G. Scalmani, V. Barone, B. Mennucci, 
 G. A. Petersson, H. Nakatsuji, M. Caricato, X. Li, H. P. Hratchian, 
 A. F. Izmaylov, J. Bloino, G. Zheng, J. L. Sonnenberg, M. Hada, 
 M. Ehara, K. Toyota, R. Fukuda, J. Hasegawa, M. Ishida, T. Nakajima, 
 Y. Honda, O. Kitao, H. Nakai, T. Vreven, J. A. Montgomery, Jr., 
 J. E. Peralta, F. Ogliaro, M. Bearpark, J. J. Heyd, E. Brothers, 
 K. N. Kudin, V. N. Staroverov, T. Keith, R. Kobayashi, J. Normand, 
 K. Raghavachari, A. Rendell, J. C. Burant, S. S. Iyengar, J. Tomasi, 
 M. Cossi, N. Rega, J. M. Millam, M. Klene, J. E. Knox, J. B. Cross, 
 V. Bakken, C. Adamo, J. Jaramillo, R. Gomperts, R. E. Stratmann, 
 O. Yazyev, A. J. Austin, R. Cammi, C. Pomelli, J. W. Ochterski, 
 R. L. Martin, K. Morokuma, V. G. Zakrzewski, G. A. Voth, 
 P. Salvador, J. J. Dannenberg, S. Dapprich, A. D. Daniels, 
 O. Farkas, J. B. Foresman, J. V. Ortiz, J. Cioslowski, 
 and D. J. Fox, Gaussian, Inc., Wallingford CT, 2013.
 
 ******************************************
 Gaussian 09:  ES64L-G09RevE.01 30-Nov-2015
                15-May-2018 
 ******************************************
 %Mem=110GB
 %NProcShared=64
 Will use up to   64 processors via shared memory.
 %chk=snap50.chk
 ----------------------------------------------
 #p PBE1PBE/cc-pvDZ force Counterpoise=2 noSymm
 ----------------------------------------------
 1/10=7,30=1,38=1,62=2/1,3;
 2/12=2,15=1,17=6,18=5,40=1/2;
 1/10=7,30=1,38=1,53=2,62=2,63=101/22;
 3/5=16,11=2,16=1,25=1,30=1,71=1,74=-13/1,2,3;
 4//1;
 5/5=2,38=5/2;
 6/7=2,8=2,9=2,10=2,28=1/1;
 7/7=1,29=1,30=1,33=-1/1,2,3,16;
 1/10=7,30=1,53=2,62=2,63=101/22;
 3/5=7,6=11,11=2,16=1,25=1,30=1,71=1,74=-13,82=7/1,2,3;
 4//1;
 5/5=2,38=5/2;
 6/7=2,8=2,9=2,10=2,28=1/1;
 7/7=1,29=1,30=1,33=-1/1,2,3,16;
 1/10=7,30=1,53=2,62=2,63=101/22(-5);
 7/9=1,29=1,44=-1/16;
 1/10=7,30=1,62=2/3;
 99//99;
 Leave Link    1 at Tue May 15 03:55:29 2018, MaxMem= 14763950080 cpu:       364.4
 (Enter /cm/shared/gaussian/g09.e01/intel64-sandybridge/g09/l101.exe)
 ---------------------------------------
 forces on chloride comput - NWATER: 128
 ---------------------------------------
 Symbolic Z-matrix:
 Charge = -1 Multiplicity = 1 in supermolecule
 Charge = -1 Multiplicity = 1 in fragment      1.
 Charge =  0 Multiplicity = 1 in fragment      2.
 Br(Fragment=1)        20.       20.       20. 
 O(Fragment=2)         20.78     21.87     22.23 
 H(Fragment=2)         21.53     21.48     22.69 
 H(Fragment=2)         20.6      21.26     21.52 
 O(Fragment=2)         22.63     21.16     18.8 
 H(Fragment=2)         22.39     22.       18.41 
 H(Fragment=2)         21.88     20.93     19.34 
 O(Fragment=2)         17.77     21.05     18.07 
 H(Fragment=2)         17.64     21.98     17.89 
 H(Fragment=2)         18.26     21.03     18.89 
 O(Fragment=2)         19.17     18.7      22.87 
 H(Fragment=2)         18.23     18.63     22.74 
 H(Fragment=2)         19.51     19.01     22.03 
 O(Fragment=2)         20.27     19.65     16.72 
 H(Fragment=2)         19.48     19.12     16.71 
 H(Fragment=2)         20.39     19.87     17.65 
 O(Fragment=2)         19.79     23.38     19.46 
 H(Fragment=2)         20.46     23.54     20.12 
 H(Fragment=2)         19.64     22.43     19.48 
 O(Fragment=2)         19.42     16.6      19.48 
 H(Fragment=2)         19.4      17.55     19.4 
 H(Fragment=2)         19.64     16.29     18.6 
 O(Fragment=2)         17.32     21.51     21.63 
 H(Fragment=2)         18.25     21.3      21.52 
 H(Fragment=2)         17.2      22.33     21.15 
 O(Fragment=2)         23.23     18.53     18.11 
 H(Fragment=2)         23.4      18.26     19.01 
 H(Fragment=2)         22.64     19.28     18.19 
 O(Fragment=2)         15.49     20.24     19.65 
 H(Fragment=2)         16.44     20.3      19.72 
 H(Fragment=2)         15.28     19.36     19.94 
 O(Fragment=2)         16.33     19.11     22.45 
 H(Fragment=2)         16.09     19.37     23.34 
 H(Fragment=2)         16.74     19.89     22.08 
 O(Fragment=2)         18.53     22.01     23.96 
 H(Fragment=2)         17.73     21.87     23.45 
 H(Fragment=2)         19.24     21.76     23.37 
 O(Fragment=2)         23.39     18.11     20.65 
 H(Fragment=2)         23.41     17.21     20.99 
 H(Fragment=2)         23.45     18.66     21.43 
 O(Fragment=2)         18.2      16.09     21.77 
 H(Fragment=2)         18.12     15.14     21.74 
 H(Fragment=2)         18.64     16.32     20.95 
 O(Fragment=2)         20.84     16.66     23.4 
 H(Fragment=2)         20.84     16.3      22.51 
 H(Fragment=2)         20.24     17.4      23.37 
 O(Fragment=2)         21.34     15.22     20.9 
 H(Fragment=2)         20.66     15.69     20.42 
 H(Fragment=2)         21.07     14.31     20.87 
 O(Fragment=2)         20.87     22.27     15.61 
 H(Fragment=2)         20.65     21.37     15.85 
 H(Fragment=2)         20.09     22.61     15.17 
 O(Fragment=2)         18.       18.51     15.98 
 H(Fragment=2)         17.63     17.63     15.95 
 H(Fragment=2)         17.4      19.01     16.53 
 O(Fragment=2)         16.82     23.73     19.98 
 H(Fragment=2)         17.3      23.6      19.16 
 H(Fragment=2)         15.9      23.6      19.75 
 O(Fragment=2)         19.71     19.09     25.46 
 H(Fragment=2)         19.28     19.31     24.64 
 H(Fragment=2)         19.02     19.15     26.12 
 O(Fragment=2)         21.74     24.61     21.21 
 H(Fragment=2)         21.64     24.04     21.97 
 H(Fragment=2)         22.44     25.22     21.45 
 O(Fragment=2)         22.22     23.6      17.41 
 H(Fragment=2)         21.97     24.52     17.35 
 H(Fragment=2)         21.95     23.21     16.58 
 O(Fragment=2)         24.02     19.45     22.87 
 H(Fragment=2)         24.03     19.85     23.74 
 H(Fragment=2)         24.88     19.06     22.77 
 O(Fragment=2)         25.11     21.4      17.2 
 H(Fragment=2)         24.34     21.34     17.77 
 H(Fragment=2)         24.76     21.72     16.37 
 O(Fragment=2)         22.93     15.2      18.21 
 H(Fragment=2)         22.95     16.1      18.54 
 H(Fragment=2)         22.1      15.14     17.73 
 O(Fragment=2)         19.34     25.89     18.71 
 H(Fragment=2)         19.46     24.98     18.99 
 H(Fragment=2)         18.47     25.9      18.31 
 O(Fragment=2)         15.11     22.3      22.86 
 H(Fragment=2)         15.24     23.25     22.97 
 H(Fragment=2)         15.86     22.02     22.33 
 O(Fragment=2)         16.04     16.96     17.53 
 H(Fragment=2)         15.18     17.03     17.12 
 H(Fragment=2)         15.89     17.22     18.44 
 O(Fragment=2)         26.01     18.91     19.36 
 H(Fragment=2)         26.16     19.83     19.14 
 H(Fragment=2)         25.1      18.75     19.11 
 O(Fragment=2)         20.46     18.52     13.85 
 H(Fragment=2)         19.7      18.       13.61 
 H(Fragment=2)         20.4      18.6      14.8 
 O(Fragment=2)         17.02     23.48     17.07 
 H(Fragment=2)         17.51     23.29     16.27 
 H(Fragment=2)         16.95     24.44     17.09 
 O(Fragment=2)         23.63     17.29     15.56 
 H(Fragment=2)         23.42     17.91     16.26 
 H(Fragment=2)         24.55     17.07     15.7 
 O(Fragment=2)         20.65     15.64     16.69 
 H(Fragment=2)         21.01     16.29     16.08 
 H(Fragment=2)         19.88     15.3      16.23 
 O(Fragment=2)         19.45     25.17     23.52 
 H(Fragment=2)         19.53     24.21     23.52 
 H(Fragment=2)         18.53     25.33     23.72 
 O(Fragment=2)         14.93     17.6      20.25 
 H(Fragment=2)         15.35     17.23     21.02 
 H(Fragment=2)         14.03     17.77     20.52 
 O(Fragment=2)         22.39     20.21     25.39 
 H(Fragment=2)         21.96     20.85     25.95 
 H(Fragment=2)         21.73     19.54     25.23 
 O(Fragment=2)         18.23     16.24     24.84 
 H(Fragment=2)         19.17     16.09     24.97 
 H(Fragment=2)         18.16     16.55     23.94 
 O(Fragment=2)         23.31     16.97     24.5 
 H(Fragment=2)         22.59     16.67     23.95 
 H(Fragment=2)         23.59     17.79     24.1 
 O(Fragment=2)         14.37     20.01     17.03 
 H(Fragment=2)         14.08     20.79     16.56 
 H(Fragment=2)         14.62     20.34     17.9 
 O(Fragment=2)         23.87     15.72     21.71 
 H(Fragment=2)         24.53     15.03     21.68 
 H(Fragment=2)         23.06     15.29     21.45 
 O(Fragment=2)         14.49     22.97     19.18 
 H(Fragment=2)         14.91     23.14     18.33 
 H(Fragment=2)         14.59     22.03     19.31 
 O(Fragment=2)         24.51     22.3      23.03 
 H(Fragment=2)         24.74     21.37     23.09 
 H(Fragment=2)         24.81     22.56     22.16 
 O(Fragment=2)         17.58     20.09     13.81 
 H(Fragment=2)         16.82     19.59     13.51 
 H(Fragment=2)         17.88     19.62     14.59 
 O(Fragment=2)         25.46     22.89     20.03 
 H(Fragment=2)         24.98     23.69     19.81 
 H(Fragment=2)         25.44     22.37     19.23 
 O(Fragment=2)         16.83     25.06     23.03 
 H(Fragment=2)         16.01     25.5      22.79 
 H(Fragment=2)         17.24     24.86     22.19 
 O(Fragment=2)         17.82     14.08     18.31 
 H(Fragment=2)         18.05     13.49     17.59 
 H(Fragment=2)         17.56     14.89     17.88 
 O(Fragment=2)         23.01     24.24     23.79 
 H(Fragment=2)         23.53     23.52     23.44 
 H(Fragment=2)         23.41     24.45     24.63 
 O(Fragment=2)         16.08     19.91     24.86 
 H(Fragment=2)         16.71     20.21     25.51 
 H(Fragment=2)         15.31     19.65     25.37 
 O(Fragment=2)         18.63     22.72     14.42 
 H(Fragment=2)         17.97     23.31     14.05 
 H(Fragment=2)         18.34     21.84     14.16 
 O(Fragment=2)         23.27     20.02     13.8 
 H(Fragment=2)         22.37     20.09     13.48 
 H(Fragment=2)         23.21     19.42     14.55 
 O(Fragment=2)         26.35     17.81     21.86 
 H(Fragment=2)         26.05     18.16     21.02 
 H(Fragment=2)         27.3      17.97     21.86 
 O(Fragment=2)         20.       27.1      21.47 
 H(Fragment=2)         20.09     26.57     22.26 
 H(Fragment=2)         20.15     26.49     20.75 
 O(Fragment=2)         21.73     17.55     26.66 
 H(Fragment=2)         20.95     17.88     26.22 
 H(Fragment=2)         22.3      17.26     25.95 
 O(Fragment=2)         26.41     15.96     19.19 
 H(Fragment=2)         25.8      16.66     19.4 
 H(Fragment=2)         26.67     15.6      20.03 
 O(Fragment=2)         13.51     18.35     23.42 
 H(Fragment=2)         13.24     19.23     23.15 
 H(Fragment=2)         14.46     18.42     23.53 
 O(Fragment=2)         22.       26.57     18.05 
 H(Fragment=2)         21.08     26.49     18.3 
 H(Fragment=2)         22.06     27.43     17.63 
 O(Fragment=2)         12.97     20.98     22.43 
 H(Fragment=2)         13.74     21.5      22.23 
 H(Fragment=2)         12.48     21.51     23.06 
 O(Fragment=2)         22.31     13.66     23.71 
 H(Fragment=2)         22.42     14.56     23.41 
 H(Fragment=2)         23.06     13.51     24.29 
 O(Fragment=2)         20.56     23.12     26.26 
 H(Fragment=2)         20.07     23.93     26.2 
 H(Fragment=2)         19.91     22.46     26.5 
 O(Fragment=2)         24.4      25.82     19.4 
 H(Fragment=2)         23.53     25.95     19.03 
 H(Fragment=2)         24.29     25.94     20.34 
 O(Fragment=2)         12.42     18.71     19.25 
 H(Fragment=2)         11.7      18.71     18.62 
 H(Fragment=2)         13.13     19.16     18.81 
 O(Fragment=2)         15.91     23.25     25.47 
 H(Fragment=2)         15.71     22.42     25.03 
 H(Fragment=2)         16.16     23.84     24.76 
 O(Fragment=2)         17.2      13.07     22.15 
 H(Fragment=2)         18.05     13.37     21.82 
 H(Fragment=2)         16.72     12.8      21.37 
 O(Fragment=2)         21.75     15.78     13.78 
 H(Fragment=2)         21.2      16.47     13.4 
 H(Fragment=2)         22.33     16.24     14.38 
 O(Fragment=2)         13.65     17.5      16.32 
 H(Fragment=2)         13.94     18.39     16.52 
 H(Fragment=2)         12.81     17.41     16.76 
 O(Fragment=2)         16.82     26.07     17.87 
 H(Fragment=2)         16.11     26.37     17.3 
 H(Fragment=2)         16.55     26.33     18.75 
 O(Fragment=2)         18.5      15.1      14.96 
 H(Fragment=2)         18.19     15.63     14.22 
 H(Fragment=2)         18.07     14.25     14.85 
 O(Fragment=2)         24.47     25.49     16.11 
 H(Fragment=2)         24.19     26.13     15.45 
 H(Fragment=2)         23.66     25.06     16.38 
 O(Fragment=2)         23.11     12.87     20.32 
 H(Fragment=2)         23.3      13.48     19.61 
 H(Fragment=2)         22.29     12.45     20.07 
 O(Fragment=2)         19.85     13.02     22.7 
 H(Fragment=2)         20.61     13.41     23.13 
 H(Fragment=2)         19.46     12.46     23.36 
 O(Fragment=2)         23.91     26.28     22.19 
 H(Fragment=2)         23.47     25.87     22.93 
 H(Fragment=2)         24.17     27.15     22.5 
 O(Fragment=2)         22.12     13.14     16.09 
 H(Fragment=2)         21.94     12.65     15.29 
 H(Fragment=2)         21.69     13.99     15.97 
 O(Fragment=2)         19.83     20.1      11.81 
 H(Fragment=2)         20.07     19.59     12.58 
 H(Fragment=2)         19.33     20.84     12.17 
 O(Fragment=2)         25.14     22.06     14.05 
 H(Fragment=2)         24.46     21.4      14.21 
 H(Fragment=2)         25.77     21.63     13.48 
 O(Fragment=2)         25.33     14.53     17.29 
 H(Fragment=2)         24.67     14.54     17.97 
 H(Fragment=2)         26.07     15.03     17.65 
 O(Fragment=2)         25.36     22.44     25.62 
 H(Fragment=2)         25.24     22.69     24.71 
 H(Fragment=2)         24.5      22.55     26.02 
 O(Fragment=2)         19.01     27.69     16.51 
 H(Fragment=2)         18.88     28.43     17.11 
 H(Fragment=2)         19.22     26.96     17.09 
 O(Fragment=2)         20.26     25.82     26.01 
 H(Fragment=2)         20.48     25.63     25.1 
 H(Fragment=2)         20.91     26.47     26.29 
 O(Fragment=2)         26.06     16.29     24.15 
 H(Fragment=2)         26.2      16.72     23.31 
 H(Fragment=2)         25.13     16.42     24.34 
 O(Fragment=2)         17.72     16.92     27.41 
 H(Fragment=2)         17.77     16.68     26.48 
 H(Fragment=2)         17.92     17.86     27.42 
 O(Fragment=2)         27.28     18.19     16.88 
 H(Fragment=2)         27.16     18.29     17.83 
 H(Fragment=2)         27.61     19.04     16.59 
 O(Fragment=2)         27.83     23.24     20.96 
 H(Fragment=2)         27.87     23.76     21.76 
 H(Fragment=2)         26.92     23.3      20.68 
 O(Fragment=2)         17.82     19.76     27.46 
 H(Fragment=2)         17.02     19.54     27.94 
 H(Fragment=2)         18.43     20.06     28.13 
 O(Fragment=2)         27.71     20.89     16.32 
 H(Fragment=2)         26.8      21.19     16.41 
 H(Fragment=2)         28.2      21.47     16.9 
 O(Fragment=2)         12.7      24.75     19.77 
 H(Fragment=2)         13.35     24.07     19.59 
 H(Fragment=2)         12.95     25.11     20.61 
 O(Fragment=2)         16.47     12.24     19.76 
 H(Fragment=2)         16.96     12.84     19.2 
 H(Fragment=2)         15.56     12.5      19.66 
 O(Fragment=2)         24.5      19.33     27.44 
 H(Fragment=2)         23.77     19.48     26.84 
 H(Fragment=2)         24.24     19.77     28.25 
 O(Fragment=2)         16.77     14.2      25.86 
 H(Fragment=2)         16.63     13.46     25.28 
 H(Fragment=2)         17.18     14.87     25.31 
 O(Fragment=2)         16.44     27.06     20.66 
 H(Fragment=2)         17.05     27.54     21.22 
 H(Fragment=2)         15.59     27.15     21.09 
 O(Fragment=2)         17.61     16.81     13.04 
 H(Fragment=2)         18.03     16.72     12.19 
 H(Fragment=2)         16.85     17.36     12.88 
 O(Fragment=2)         23.29     22.93     27.18 
 H(Fragment=2)         23.09     22.42     27.97 
 H(Fragment=2)         22.45     23.34     26.94 
 O(Fragment=2)         18.04     22.81     27.79 
 H(Fragment=2)         17.43     22.46     28.44 
 H(Fragment=2)         17.48     23.06     27.05 
 O(Fragment=2)         20.48     11.87     20.3 
 H(Fragment=2)         20.18     11.99     21.2 
 H(Fragment=2)         20.01     11.1      19.99 
 O(Fragment=2)         19.72     25.84     14.39 
 H(Fragment=2)         19.5      25.19     13.72 
 H(Fragment=2)         18.87     26.11     14.74 
 O(Fragment=2)         26.47     19.66     24.91 
 H(Fragment=2)         27.19     19.03     24.94 
 H(Fragment=2)         26.05     19.58     25.76 
 O(Fragment=2)         28.14     20.92     19.43 
 H(Fragment=2)         28.95     21.09     18.94 
 H(Fragment=2)         27.94     21.75     19.85 
 O(Fragment=2)         25.33     13.36     21.73 
 H(Fragment=2)         25.54     12.54     22.2 
 H(Fragment=2)         24.48     13.19     21.33 
 O(Fragment=2)         13.96     13.71     18.57 
 H(Fragment=2)         14.3      14.02     17.73 
 H(Fragment=2)         13.81     14.52     19.07 
 O(Fragment=2)         18.79     28.98     19.05 
 H(Fragment=2)         19.17     29.57     19.7 
 H(Fragment=2)         18.57     28.19     19.54 
 O(Fragment=2)         24.6      15.28     13.42 
 H(Fragment=2)         25.37     15.75     13.74 
 H(Fragment=2)         23.87     15.66     13.91 
 O(Fragment=2)         16.88     24.57     13.59 
 H(Fragment=2)         16.77     25.3      12.98 
 H(Fragment=2)         16.17     23.97     13.39 
 O(Fragment=2)         22.2      26.83     14.35 
 H(Fragment=2)         22.07     27.12     13.44 
 H(Fragment=2)         21.41     26.34     14.56 
 O(Fragment=2)         27.76     22.32     23.94 
 H(Fragment=2)         28.5      21.78     23.66 
 H(Fragment=2)         27.13     21.69     24.3 
 O(Fragment=2)         26.42     16.82     14.58 
 H(Fragment=2)         26.61     17.5      15.23 
 H(Fragment=2)         27.26     16.39     14.43 
 O(Fragment=2)         21.7      29.24     21.04 
 H(Fragment=2)         22.08     29.25     21.92 
 H(Fragment=2)         21.31     28.37     20.97 
 O(Fragment=2)         10.98     19.2      21.63 
 H(Fragment=2)         11.5      19.84     22.12 
 H(Fragment=2)         11.53     18.95     20.9 
 O(Fragment=2)         28.79     18.47     20.81 
 H(Fragment=2)         28.56     19.24     20.28 
 H(Fragment=2)         28.89     17.76     20.18 
 O(Fragment=2)         12.92     21.6      15.3 
 H(Fragment=2)         12.57     20.99     14.65 
 H(Fragment=2)         12.27     22.3      15.36 
 O(Fragment=2)         15.31     18.64     12.84 
 H(Fragment=2)         14.49     18.14     12.88 
 H(Fragment=2)         15.09     19.44     12.37 
 O(Fragment=2)         26.93     26.2      18.38 
 H(Fragment=2)         27.43     26.17     19.19 
 H(Fragment=2)         26.02     26.09     18.65 
 O(Fragment=2)         14.39     23.19     13.46 
 H(Fragment=2)         14.11     22.46     14.02 
 H(Fragment=2)         13.6      23.72     13.34 
 O(Fragment=2)         11.84     16.08     22.22 
 H(Fragment=2)         11.07     16.65     22.29 
 H(Fragment=2)         12.49     16.48     22.8 
 O(Fragment=2)         11.74     16.03     19.61 
 H(Fragment=2)         11.77     16.98     19.46 
 H(Fragment=2)         11.76     15.93     20.56 
 O(Fragment=2)         17.9      28.66     22.27 
 H(Fragment=2)         17.95     29.45     22.81 
 H(Fragment=2)         18.81     28.47     22.05 
 O(Fragment=2)         27.26     24.42     15.94 
 H(Fragment=2)         27.23     25.       16.7 
 H(Fragment=2)         26.34     24.31     15.68 
 O(Fragment=2)         24.53     13.53     24.98 
 H(Fragment=2)         24.69     13.72     25.9 
 H(Fragment=2)         24.96     14.25     24.51 
 O(Fragment=2)         13.44     20.16     26.01 
 H(Fragment=2)         13.04     20.82     25.45 
 H(Fragment=2)         13.5      20.58     26.87 
 O(Fragment=2)         15.02     26.27     15.59 
 H(Fragment=2)         15.37     25.66     14.94 
 H(Fragment=2)         14.13     25.96     15.75 
 O(Fragment=2)         14.47     26.51     22.5 
 H(Fragment=2)         14.22     26.8      23.38 
 H(Fragment=2)         13.83     26.93     21.92 
 O(Fragment=2)         21.38     17.79     29.44 
 H(Fragment=2)         20.71     18.41     29.72 
 H(Fragment=2)         21.2      17.64     28.52 
 O(Fragment=2)         15.19     13.04     15.78 
 H(Fragment=2)         14.8      12.2      16.02 
 H(Fragment=2)         16.1      12.97     16.08 
 O(Fragment=2)         24.19     11.91     17.37 
 H(Fragment=2)         23.3      12.17     17.14 
 H(Fragment=2)         24.75     12.6      16.99 
 O(Fragment=2)         17.79     26.82     26.12 
 H(Fragment=2)         17.34     26.6      26.93 
 H(Fragment=2)         18.64     26.39     26.19 
 O(Fragment=2)         24.73     28.4      17.9 
 H(Fragment=2)         24.89     28.15     16.99 
 H(Fragment=2)         24.77     27.57     18.38 
 O(Fragment=2)         16.24     11.79     24.27 
 H(Fragment=2)         17.05     11.33     24.48 
 H(Fragment=2)         16.48     12.39     23.57 
 O(Fragment=2)         17.69     11.92     16.33 
 H(Fragment=2)         18.45     11.43     16.65 
 H(Fragment=2)         17.54     11.58     15.45 
 O(Fragment=2)         21.51     10.95     23.97 
 H(Fragment=2)         21.82     10.62     24.81 
 H(Fragment=2)         21.89     11.83     23.9 
 O(Fragment=2)         21.61     22.74     10.58 
 H(Fragment=2)         20.95     22.91     11.26 
 H(Fragment=2)         21.26     23.17     9.8 
 
 NAtoms=    385 NQM=      385 NQMF=       0 NMMI=      0 NMMIF=      0
                NMic=       0 NMicF=      0.
                    Isotopes and Nuclear Properties:
 (Nuclear quadrupole moments (NQMom) in fm**2, nuclear magnetic moments (NMagM)
  in nuclear magnetons)

  Atom         1           2           3           4           5           6           7           8           9          10
 IAtWgt=          79          16           1           1          16           1           1          16           1           1
 AtmWgt=  78.9183361  15.9949146   1.0078250   1.0078250  15.9949146   1.0078250   1.0078250  15.9949146   1.0078250   1.0078250
 NucSpn=           3           0           1           1           0           1           1           0           1           1
 AtZEff=   0.0000000   0.0000000   0.0000000   0.0000000   0.0000000   0.0000000   0.0000000   0.0000000   0.0000000   0.0000000
 NQMom=   31.3000000   0.0000000   0.0000000   0.0000000   0.0000000   0.0000000   0.0000000   0.0000000   0.0000000   0.0000000
 NMagM=    2.1063990   0.0000000   2.7928460   2.7928460   0.0000000   2.7928460   2.7928460   0.0000000   2.7928460   2.7928460
 AtZNuc=  35.0000000   8.0000000   1.0000000   1.0000000   8.0000000   1.0000000   1.0000000   8.0000000   1.0000000   1.0000000

  Atom        11          12          13          14          15          16          17          18          19          20
 IAtWgt=          16           1           1          16           1           1          16           1           1          16
 AtmWgt=  15.9949146   1.0078250   1.0078250  15.9949146   1.0078250   1.0078250  15.9949146   1.0078250   1.0078250  15.9949146
 NucSpn=           0           1           1           0           1           1           0           1           1           0
 AtZEff=   0.0000000   0.0000000   0.0000000   0.0000000   0.0000000   0.0000000   0.0000000   0.0000000   0.0000000   0.0000000
 NQMom=    0.0000000   0.0000000   0.0000000   0.0000000   0.0000000   0.0000000   0.0000000   0.0000000   0.0000000   0.0000000
 NMagM=    0.0000000   2.7928460   2.7928460   0.0000000   2.7928460   2.7928460   0.0000000   2.7928460   2.7928460   0.0000000
 AtZNuc=   8.0000000   1.0000000   1.0000000   8.0000000   1.0000000   1.0000000   8.0000000   1.0000000   1.0000000   8.0000000

  Atom        21          22          23          24          25          26          27          28          29          30
 IAtWgt=           1           1          16           1           1          16           1           1          16           1
 AtmWgt=   1.0078250   1.0078250  15.9949146   1.0078250   1.0078250  15.9949146   1.0078250   1.0078250  15.9949146   1.0078250
 NucSpn=           1           1           0           1           1           0           1           1           0           1
 AtZEff=   0.0000000   0.0000000   0.0000000   0.0000000   0.0000000   0.0000000   0.0000000   0.0000000   0.0000000   0.0000000
 NQMom=    0.0000000   0.0000000   0.0000000   0.0000000   0.0000000   0.0000000   0.0000000   0.0000000   0.0000000   0.0000000
 NMagM=    2.7928460   2.7928460   0.0000000   2.7928460   2.7928460   0.0000000   2.7928460   2.7928460   0.0000000   2.7928460
 AtZNuc=   1.0000000   1.0000000   8.0000000   1.0000000   1.0000000   8.0000000   1.0000000   1.0000000   8.0000000   1.0000000

  Atom        31          32          33          34          35          36          37          38          39          40
 IAtWgt=           1          16           1           1          16           1           1          16           1           1
 AtmWgt=   1.0078250  15.9949146   1.0078250   1.0078250  15.9949146   1.0078250   1.0078250  15.9949146   1.0078250   1.0078250
 NucSpn=           1           0           1           1           0           1           1           0           1           1
 AtZEff=   0.0000000   0.0000000   0.0000000   0.0000000   0.0000000   0.0000000   0.0000000   0.0000000   0.0000000   0.0000000
 NQMom=    0.0000000   0.0000000   0.0000000   0.0000000   0.0000000   0.0000000   0.0000000   0.0000000   0.0000000   0.0000000
 NMagM=    2.7928460   0.0000000   2.7928460   2.7928460   0.0000000   2.7928460   2.7928460   0.0000000   2.7928460   2.7928460
 AtZNuc=   1.0000000   8.0000000   1.0000000   1.0000000   8.0000000   1.0000000   1.0000000   8.0000000   1.0000000   1.0000000

  Atom        41          42          43          44          45          46          47          48          49          50
 IAtWgt=          16           1           1          16           1           1          16           1           1          16
 AtmWgt=  15.9949146   1.0078250   1.0078250  15.9949146   1.0078250   1.0078250  15.9949146   1.0078250   1.0078250  15.9949146
 NucSpn=           0           1           1           0           1           1           0           1           1           0
 AtZEff=   0.0000000   0.0000000   0.0000000   0.0000000   0.0000000   0.0000000   0.0000000   0.0000000   0.0000000   0.0000000
 NQMom=    0.0000000   0.0000000   0.0000000   0.0000000   0.0000000   0.0000000   0.0000000   0.0000000   0.0000000   0.0000000
 NMagM=    0.0000000   2.7928460   2.7928460   0.0000000   2.7928460   2.7928460   0.0000000   2.7928460   2.7928460   0.0000000
 AtZNuc=   8.0000000   1.0000000   1.0000000   8.0000000   1.0000000   1.0000000   8.0000000   1.0000000   1.0000000   8.0000000

  Atom        51          52          53          54          55          56          57          58          59          60
 IAtWgt=           1           1          16           1           1          16           1           1          16           1
 AtmWgt=   1.0078250   1.0078250  15.9949146   1.0078250   1.0078250  15.9949146   1.0078250   1.0078250  15.9949146   1.0078250
 NucSpn=           1           1           0           1           1           0           1           1           0           1
 AtZEff=   0.0000000   0.0000000   0.0000000   0.0000000   0.0000000   0.0000000   0.0000000   0.0000000   0.0000000   0.0000000
 NQMom=    0.0000000   0.0000000   0.0000000   0.0000000   0.0000000   0.0000000   0.0000000   0.0000000   0.0000000   0.0000000
 NMagM=    2.7928460   2.7928460   0.0000000   2.7928460   2.7928460   0.0000000   2.7928460   2.7928460   0.0000000   2.7928460
 AtZNuc=   1.0000000   1.0000000   8.0000000   1.0000000   1.0000000   8.0000000   1.0000000   1.0000000   8.0000000   1.0000000

  Atom        61          62          63          64          65          66          67          68          69          70
 IAtWgt=           1          16           1           1          16           1           1          16           1           1
 AtmWgt=   1.0078250  15.9949146   1.0078250   1.0078250  15.9949146   1.0078250   1.0078250  15.9949146   1.0078250   1.0078250
 NucSpn=           1           0           1           1           0           1           1           0           1           1
 AtZEff=   0.0000000   0.0000000   0.0000000   0.0000000   0.0000000   0.0000000   0.0000000   0.0000000   0.0000000   0.0000000
 NQMom=    0.0000000   0.0000000   0.0000000   0.0000000   0.0000000   0.0000000   0.0000000   0.0000000   0.0000000   0.0000000
 NMagM=    2.7928460   0.0000000   2.7928460   2.7928460   0.0000000   2.7928460   2.7928460   0.0000000   2.7928460   2.7928460
 AtZNuc=   1.0000000   8.0000000   1.0000000   1.0000000   8.0000000   1.0000000   1.0000000   8.0000000   1.0000000   1.0000000

  Atom        71          72          73          74          75          76          77          78          79          80
 IAtWgt=          16           1           1          16           1           1          16           1           1          16
 AtmWgt=  15.9949146   1.0078250   1.0078250  15.9949146   1.0078250   1.0078250  15.9949146   1.0078250   1.0078250  15.9949146
 NucSpn=           0           1           1           0           1           1           0           1           1           0
 AtZEff=   0.0000000   0.0000000   0.0000000   0.0000000   0.0000000   0.0000000   0.0000000   0.0000000   0.0000000   0.0000000
 NQMom=    0.0000000   0.0000000   0.0000000   0.0000000   0.0000000   0.0000000   0.0000000   0.0000000   0.0000000   0.0000000
 NMagM=    0.0000000   2.7928460   2.7928460   0.0000000   2.7928460   2.7928460   0.0000000   2.7928460   2.7928460   0.0000000
 AtZNuc=   8.0000000   1.0000000   1.0000000   8.0000000   1.0000000   1.0000000   8.0000000   1.0000000   1.0000000   8.0000000

  Atom        81          82          83          84          85          86          87          88          89          90
 IAtWgt=           1           1          16           1           1          16           1           1          16           1
 AtmWgt=   1.0078250   1.0078250  15.9949146   1.0078250   1.0078250  15.9949146   1.0078250   1.0078250  15.9949146   1.0078250
 NucSpn=           1           1           0           1           1           0           1           1           0           1
 AtZEff=   0.0000000   0.0000000   0.0000000   0.0000000   0.0000000   0.0000000   0.0000000   0.0000000   0.0000000   0.0000000
 NQMom=    0.0000000   0.0000000   0.0000000   0.0000000   0.0000000   0.0000000   0.0000000   0.0000000   0.0000000   0.0000000
 NMagM=    2.7928460   2.7928460   0.0000000   2.7928460   2.7928460   0.0000000   2.7928460   2.7928460   0.0000000   2.7928460
 AtZNuc=   1.0000000   1.0000000   8.0000000   1.0000000   1.0000000   8.0000000   1.0000000   1.0000000   8.0000000   1.0000000

  Atom        91          92          93          94          95          96          97          98          99         100
 IAtWgt=           1          16           1           1          16           1           1          16           1           1
 AtmWgt=   1.0078250  15.9949146   1.0078250   1.0078250  15.9949146   1.0078250   1.0078250  15.9949146   1.0078250   1.0078250
 NucSpn=           1           0           1           1           0           1           1           0           1           1
 AtZEff=   0.0000000   0.0000000   0.0000000   0.0000000   0.0000000   0.0000000   0.0000000   0.0000000   0.0000000   0.0000000
 NQMom=    0.0000000   0.0000000   0.0000000   0.0000000   0.0000000   0.0000000   0.0000000   0.0000000   0.0000000   0.0000000
 NMagM=    2.7928460   0.0000000   2.7928460   2.7928460   0.0000000   2.7928460   2.7928460   0.0000000   2.7928460   2.7928460
 AtZNuc=   1.0000000   8.0000000   1.0000000   1.0000000   8.0000000   1.0000000   1.0000000   8.0000000   1.0000000   1.0000000

  Atom       101         102         103         104         105         106         107         108         109         110
 IAtWgt=          16           1           1          16           1           1          16           1           1          16
 AtmWgt=  15.9949146   1.0078250   1.0078250  15.9949146   1.0078250   1.0078250  15.9949146   1.0078250   1.0078250  15.9949146
 NucSpn=           0           1           1           0           1           1           0           1           1           0
 AtZEff=   0.0000000   0.0000000   0.0000000   0.0000000   0.0000000   0.0000000   0.0000000   0.0000000   0.0000000   0.0000000
 NQMom=    0.0000000   0.0000000   0.0000000   0.0000000   0.0000000   0.0000000   0.0000000   0.0000000   0.0000000   0.0000000
 NMagM=    0.0000000   2.7928460   2.7928460   0.0000000   2.7928460   2.7928460   0.0000000   2.7928460   2.7928460   0.0000000
 AtZNuc=   8.0000000   1.0000000   1.0000000   8.0000000   1.0000000   1.0000000   8.0000000   1.0000000   1.0000000   8.0000000

  Atom       111         112         113         114         115         116         117         118         119         120
 IAtWgt=           1           1          16           1           1          16           1           1          16           1
 AtmWgt=   1.0078250   1.0078250  15.9949146   1.0078250   1.0078250  15.9949146   1.0078250   1.0078250  15.9949146   1.0078250
 NucSpn=           1           1           0           1           1           0           1           1           0           1
 AtZEff=   0.0000000   0.0000000   0.0000000   0.0000000   0.0000000   0.0000000   0.0000000   0.0000000   0.0000000   0.0000000
 NQMom=    0.0000000   0.0000000   0.0000000   0.0000000   0.0000000   0.0000000   0.0000000   0.0000000   0.0000000   0.0000000
 NMagM=    2.7928460   2.7928460   0.0000000   2.7928460   2.7928460   0.0000000   2.7928460   2.7928460   0.0000000   2.7928460
 AtZNuc=   1.0000000   1.0000000   8.0000000   1.0000000   1.0000000   8.0000000   1.0000000   1.0000000   8.0000000   1.0000000

  Atom       121         122         123         124         125         126         127         128         129         130
 IAtWgt=           1          16           1           1          16           1           1          16           1           1
 AtmWgt=   1.0078250  15.9949146   1.0078250   1.0078250  15.9949146   1.0078250   1.0078250  15.9949146   1.0078250   1.0078250
 NucSpn=           1           0           1           1           0           1           1           0           1           1
 AtZEff=   0.0000000   0.0000000   0.0000000   0.0000000   0.0000000   0.0000000   0.0000000   0.0000000   0.0000000   0.0000000
 NQMom=    0.0000000   0.0000000   0.0000000   0.0000000   0.0000000   0.0000000   0.0000000   0.0000000   0.0000000   0.0000000
 NMagM=    2.7928460   0.0000000   2.7928460   2.7928460   0.0000000   2.7928460   2.7928460   0.0000000   2.7928460   2.7928460
 AtZNuc=   1.0000000   8.0000000   1.0000000   1.0000000   8.0000000   1.0000000   1.0000000   8.0000000   1.0000000   1.0000000

  Atom       131         132         133         134         135         136         137         138         139         140
 IAtWgt=          16           1           1          16           1           1          16           1           1          16
 AtmWgt=  15.9949146   1.0078250   1.0078250  15.9949146   1.0078250   1.0078250  15.9949146   1.0078250   1.0078250  15.9949146
 NucSpn=           0           1           1           0           1           1           0           1           1           0
 AtZEff=   0.0000000   0.0000000   0.0000000   0.0000000   0.0000000   0.0000000   0.0000000   0.0000000   0.0000000   0.0000000
 NQMom=    0.0000000   0.0000000   0.0000000   0.0000000   0.0000000   0.0000000   0.0000000   0.0000000   0.0000000   0.0000000
 NMagM=    0.0000000   2.7928460   2.7928460   0.0000000   2.7928460   2.7928460   0.0000000   2.7928460   2.7928460   0.0000000
 AtZNuc=   8.0000000   1.0000000   1.0000000   8.0000000   1.0000000   1.0000000   8.0000000   1.0000000   1.0000000   8.0000000

  Atom       141         142         143         144         145         146         147         148         149         150
 IAtWgt=           1           1          16           1           1          16           1           1          16           1
 AtmWgt=   1.0078250   1.0078250  15.9949146   1.0078250   1.0078250  15.9949146   1.0078250   1.0078250  15.9949146   1.0078250
 NucSpn=           1           1           0           1           1           0           1           1           0           1
 AtZEff=   0.0000000   0.0000000   0.0000000   0.0000000   0.0000000   0.0000000   0.0000000   0.0000000   0.0000000   0.0000000
 NQMom=    0.0000000   0.0000000   0.0000000   0.0000000   0.0000000   0.0000000   0.0000000   0.0000000   0.0000000   0.0000000
 NMagM=    2.7928460   2.7928460   0.0000000   2.7928460   2.7928460   0.0000000   2.7928460   2.7928460   0.0000000   2.7928460
 AtZNuc=   1.0000000   1.0000000   8.0000000   1.0000000   1.0000000   8.0000000   1.0000000   1.0000000   8.0000000   1.0000000

  Atom       151         152         153         154         155         156         157         158         159         160
 IAtWgt=           1          16           1           1          16           1           1          16           1           1
 AtmWgt=   1.0078250  15.9949146   1.0078250   1.0078250  15.9949146   1.0078250   1.0078250  15.9949146   1.0078250   1.0078250
 NucSpn=           1           0           1           1           0           1           1           0           1           1
 AtZEff=   0.0000000   0.0000000   0.0000000   0.0000000   0.0000000   0.0000000   0.0000000   0.0000000   0.0000000   0.0000000
 NQMom=    0.0000000   0.0000000   0.0000000   0.0000000   0.0000000   0.0000000   0.0000000   0.0000000   0.0000000   0.0000000
 NMagM=    2.7928460   0.0000000   2.7928460   2.7928460   0.0000000   2.7928460   2.7928460   0.0000000   2.7928460   2.7928460
 AtZNuc=   1.0000000   8.0000000   1.0000000   1.0000000   8.0000000   1.0000000   1.0000000   8.0000000   1.0000000   1.0000000

  Atom       161         162         163         164         165         166         167         168         169         170
 IAtWgt=          16           1           1          16           1           1          16           1           1          16
 AtmWgt=  15.9949146   1.0078250   1.0078250  15.9949146   1.0078250   1.0078250  15.9949146   1.0078250   1.0078250  15.9949146
 NucSpn=           0           1           1           0           1           1           0           1           1           0
 AtZEff=   0.0000000   0.0000000   0.0000000   0.0000000   0.0000000   0.0000000   0.0000000   0.0000000   0.0000000   0.0000000
 NQMom=    0.0000000   0.0000000   0.0000000   0.0000000   0.0000000   0.0000000   0.0000000   0.0000000   0.0000000   0.0000000
 NMagM=    0.0000000   2.7928460   2.7928460   0.0000000   2.7928460   2.7928460   0.0000000   2.7928460   2.7928460   0.0000000
 AtZNuc=   8.0000000   1.0000000   1.0000000   8.0000000   1.0000000   1.0000000   8.0000000   1.0000000   1.0000000   8.0000000

  Atom       171         172         173         174         175         176         177         178         179         180
 IAtWgt=           1           1          16           1           1          16           1           1          16           1
 AtmWgt=   1.0078250   1.0078250  15.9949146   1.0078250   1.0078250  15.9949146   1.0078250   1.0078250  15.9949146   1.0078250
 NucSpn=           1           1           0           1           1           0           1           1           0           1
 AtZEff=   0.0000000   0.0000000   0.0000000   0.0000000   0.0000000   0.0000000   0.0000000   0.0000000   0.0000000   0.0000000
 NQMom=    0.0000000   0.0000000   0.0000000   0.0000000   0.0000000   0.0000000   0.0000000   0.0000000   0.0000000   0.0000000
 NMagM=    2.7928460   2.7928460   0.0000000   2.7928460   2.7928460   0.0000000   2.7928460   2.7928460   0.0000000   2.7928460
 AtZNuc=   1.0000000   1.0000000   8.0000000   1.0000000   1.0000000   8.0000000   1.0000000   1.0000000   8.0000000   1.0000000

  Atom       181         182         183         184         185         186         187         188         189         190
 IAtWgt=           1          16           1           1          16           1           1          16           1           1
 AtmWgt=   1.0078250  15.9949146   1.0078250   1.0078250  15.9949146   1.0078250   1.0078250  15.9949146   1.0078250   1.0078250
 NucSpn=           1           0           1           1           0           1           1           0           1           1
 AtZEff=   0.0000000   0.0000000   0.0000000   0.0000000   0.0000000   0.0000000   0.0000000   0.0000000   0.0000000   0.0000000
 NQMom=    0.0000000   0.0000000   0.0000000   0.0000000   0.0000000   0.0000000   0.0000000   0.0000000   0.0000000   0.0000000
 NMagM=    2.7928460   0.0000000   2.7928460   2.7928460   0.0000000   2.7928460   2.7928460   0.0000000   2.7928460   2.7928460
 AtZNuc=   1.0000000   8.0000000   1.0000000   1.0000000   8.0000000   1.0000000   1.0000000   8.0000000   1.0000000   1.0000000

  Atom       191         192         193         194         195         196         197         198         199         200
 IAtWgt=          16           1           1          16           1           1          16           1           1          16
 AtmWgt=  15.9949146   1.0078250   1.0078250  15.9949146   1.0078250   1.0078250  15.9949146   1.0078250   1.0078250  15.9949146
 NucSpn=           0           1           1           0           1           1           0           1           1           0
 AtZEff=   0.0000000   0.0000000   0.0000000   0.0000000   0.0000000   0.0000000   0.0000000   0.0000000   0.0000000   0.0000000
 NQMom=    0.0000000   0.0000000   0.0000000   0.0000000   0.0000000   0.0000000   0.0000000   0.0000000   0.0000000   0.0000000
 NMagM=    0.0000000   2.7928460   2.7928460   0.0000000   2.7928460   2.7928460   0.0000000   2.7928460   2.7928460   0.0000000
 AtZNuc=   8.0000000   1.0000000   1.0000000   8.0000000   1.0000000   1.0000000   8.0000000   1.0000000   1.0000000   8.0000000

  Atom       201         202         203         204         205         206         207         208         209         210
 IAtWgt=           1           1          16           1           1          16           1           1          16           1
 AtmWgt=   1.0078250   1.0078250  15.9949146   1.0078250   1.0078250  15.9949146   1.0078250   1.0078250  15.9949146   1.0078250
 NucSpn=           1           1           0           1           1           0           1           1           0           1
 AtZEff=   0.0000000   0.0000000   0.0000000   0.0000000   0.0000000   0.0000000   0.0000000   0.0000000   0.0000000   0.0000000
 NQMom=    0.0000000   0.0000000   0.0000000   0.0000000   0.0000000   0.0000000   0.0000000   0.0000000   0.0000000   0.0000000
 NMagM=    2.7928460   2.7928460   0.0000000   2.7928460   2.7928460   0.0000000   2.7928460   2.7928460   0.0000000   2.7928460
 AtZNuc=   1.0000000   1.0000000   8.0000000   1.0000000   1.0000000   8.0000000   1.0000000   1.0000000   8.0000000   1.0000000

  Atom       211         212         213         214         215         216         217         218         219         220
 IAtWgt=           1          16           1           1          16           1           1          16           1           1
 AtmWgt=   1.0078250  15.9949146   1.0078250   1.0078250  15.9949146   1.0078250   1.0078250  15.9949146   1.0078250   1.0078250
 NucSpn=           1           0           1           1           0           1           1           0           1           1
 AtZEff=   0.0000000   0.0000000   0.0000000   0.0000000   0.0000000   0.0000000   0.0000000   0.0000000   0.0000000   0.0000000
 NQMom=    0.0000000   0.0000000   0.0000000   0.0000000   0.0000000   0.0000000   0.0000000   0.0000000   0.0000000   0.0000000
 NMagM=    2.7928460   0.0000000   2.7928460   2.7928460   0.0000000   2.7928460   2.7928460   0.0000000   2.7928460   2.7928460
 AtZNuc=   1.0000000   8.0000000   1.0000000   1.0000000   8.0000000   1.0000000   1.0000000   8.0000000   1.0000000   1.0000000

  Atom       221         222         223         224         225         226         227         228         229         230
 IAtWgt=          16           1           1          16           1           1          16           1           1          16
 AtmWgt=  15.9949146   1.0078250   1.0078250  15.9949146   1.0078250   1.0078250  15.9949146   1.0078250   1.0078250  15.9949146
 NucSpn=           0           1           1           0           1           1           0           1           1           0
 AtZEff=   0.0000000   0.0000000   0.0000000   0.0000000   0.0000000   0.0000000   0.0000000   0.0000000   0.0000000   0.0000000
 NQMom=    0.0000000   0.0000000   0.0000000   0.0000000   0.0000000   0.0000000   0.0000000   0.0000000   0.0000000   0.0000000
 NMagM=    0.0000000   2.7928460   2.7928460   0.0000000   2.7928460   2.7928460   0.0000000   2.7928460   2.7928460   0.0000000
 AtZNuc=   8.0000000   1.0000000   1.0000000   8.0000000   1.0000000   1.0000000   8.0000000   1.0000000   1.0000000   8.0000000

  Atom       231         232         233         234         235         236         237         238         239         240
 IAtWgt=           1           1          16           1           1          16           1           1          16           1
 AtmWgt=   1.0078250   1.0078250  15.9949146   1.0078250   1.0078250  15.9949146   1.0078250   1.0078250  15.9949146   1.0078250
 NucSpn=           1           1           0           1           1           0           1           1           0           1
 AtZEff=   0.0000000   0.0000000   0.0000000   0.0000000   0.0000000   0.0000000   0.0000000   0.0000000   0.0000000   0.0000000
 NQMom=    0.0000000   0.0000000   0.0000000   0.0000000   0.0000000   0.0000000   0.0000000   0.0000000   0.0000000   0.0000000
 NMagM=    2.7928460   2.7928460   0.0000000   2.7928460   2.7928460   0.0000000   2.7928460   2.7928460   0.0000000   2.7928460
 AtZNuc=   1.0000000   1.0000000   8.0000000   1.0000000   1.0000000   8.0000000   1.0000000   1.0000000   8.0000000   1.0000000

  Atom       241         242         243         244         245         246         247         248         249         250
 IAtWgt=           1          16           1           1          16           1           1          16           1           1
 AtmWgt=   1.0078250  15.9949146   1.0078250   1.0078250  15.9949146   1.0078250   1.0078250  15.9949146   1.0078250   1.0078250
 NucSpn=           1           0           1           1           0           1           1           0           1           1
 AtZEff=   0.0000000   0.0000000   0.0000000   0.0000000   0.0000000   0.0000000   0.0000000   0.0000000   0.0000000   0.0000000
 NQMom=    0.0000000   0.0000000   0.0000000   0.0000000   0.0000000   0.0000000   0.0000000   0.0000000   0.0000000   0.0000000
 NMagM=    2.7928460   0.0000000   2.7928460   2.7928460   0.0000000   2.7928460   2.7928460   0.0000000   2.7928460   2.7928460
 AtZNuc=   1.0000000   8.0000000   1.0000000   1.0000000   8.0000000   1.0000000   1.0000000   8.0000000   1.0000000   1.0000000

  Atom       251         252         253         254         255         256         257         258         259         260
 IAtWgt=          16           1           1          16           1           1          16           1           1          16
 AtmWgt=  15.9949146   1.0078250   1.0078250  15.9949146   1.0078250   1.0078250  15.9949146   1.0078250   1.0078250  15.9949146
 NucSpn=           0           1           1           0           1           1           0           1           1           0
 AtZEff=   0.0000000   0.0000000   0.0000000   0.0000000   0.0000000   0.0000000   0.0000000   0.0000000   0.0000000   0.0000000
 NQMom=    0.0000000   0.0000000   0.0000000   0.0000000   0.0000000   0.0000000   0.0000000   0.0000000   0.0000000   0.0000000
 NMagM=    0.0000000   2.7928460   2.7928460   0.0000000   2.7928460   2.7928460   0.0000000   2.7928460   2.7928460   0.0000000
 AtZNuc=   8.0000000   1.0000000   1.0000000   8.0000000   1.0000000   1.0000000   8.0000000   1.0000000   1.0000000   8.0000000

  Atom       261         262         263         264         265         266         267         268         269         270
 IAtWgt=           1           1          16           1           1          16           1           1          16           1
 AtmWgt=   1.0078250   1.0078250  15.9949146   1.0078250   1.0078250  15.9949146   1.0078250   1.0078250  15.9949146   1.0078250
 NucSpn=           1           1           0           1           1           0           1           1           0           1
 AtZEff=   0.0000000   0.0000000   0.0000000   0.0000000   0.0000000   0.0000000   0.0000000   0.0000000   0.0000000   0.0000000
 NQMom=    0.0000000   0.0000000   0.0000000   0.0000000   0.0000000   0.0000000   0.0000000   0.0000000   0.0000000   0.0000000
 NMagM=    2.7928460   2.7928460   0.0000000   2.7928460   2.7928460   0.0000000   2.7928460   2.7928460   0.0000000   2.7928460
 AtZNuc=   1.0000000   1.0000000   8.0000000   1.0000000   1.0000000   8.0000000   1.0000000   1.0000000   8.0000000   1.0000000

  Atom       271         272         273         274         275         276         277         278         279         280
 IAtWgt=           1          16           1           1          16           1           1          16           1           1
 AtmWgt=   1.0078250  15.9949146   1.0078250   1.0078250  15.9949146   1.0078250   1.0078250  15.9949146   1.0078250   1.0078250
 NucSpn=           1           0           1           1           0           1           1           0           1           1
 AtZEff=   0.0000000   0.0000000   0.0000000   0.0000000   0.0000000   0.0000000   0.0000000   0.0000000   0.0000000   0.0000000
 NQMom=    0.0000000   0.0000000   0.0000000   0.0000000   0.0000000   0.0000000   0.0000000   0.0000000   0.0000000   0.0000000
 NMagM=    2.7928460   0.0000000   2.7928460   2.7928460   0.0000000   2.7928460   2.7928460   0.0000000   2.7928460   2.7928460
 AtZNuc=   1.0000000   8.0000000   1.0000000   1.0000000   8.0000000   1.0000000   1.0000000   8.0000000   1.0000000   1.0000000

  Atom       281         282         283         284         285         286         287         288         289         290
 IAtWgt=          16           1           1          16           1           1          16           1           1          16
 AtmWgt=  15.9949146   1.0078250   1.0078250  15.9949146   1.0078250   1.0078250  15.9949146   1.0078250   1.0078250  15.9949146
 NucSpn=           0           1           1           0           1           1           0           1           1           0
 AtZEff=   0.0000000   0.0000000   0.0000000   0.0000000   0.0000000   0.0000000   0.0000000   0.0000000   0.0000000   0.0000000
 NQMom=    0.0000000   0.0000000   0.0000000   0.0000000   0.0000000   0.0000000   0.0000000   0.0000000   0.0000000   0.0000000
 NMagM=    0.0000000   2.7928460   2.7928460   0.0000000   2.7928460   2.7928460   0.0000000   2.7928460   2.7928460   0.0000000
 AtZNuc=   8.0000000   1.0000000   1.0000000   8.0000000   1.0000000   1.0000000   8.0000000   1.0000000   1.0000000   8.0000000

  Atom       291         292         293         294         295         296         297         298         299         300
 IAtWgt=           1           1          16           1           1          16           1           1          16           1
 AtmWgt=   1.0078250   1.0078250  15.9949146   1.0078250   1.0078250  15.9949146   1.0078250   1.0078250  15.9949146   1.0078250
 NucSpn=           1           1           0           1           1           0           1           1           0           1
 AtZEff=   0.0000000   0.0000000   0.0000000   0.0000000   0.0000000   0.0000000   0.0000000   0.0000000   0.0000000   0.0000000
 NQMom=    0.0000000   0.0000000   0.0000000   0.0000000   0.0000000   0.0000000   0.0000000   0.0000000   0.0000000   0.0000000
 NMagM=    2.7928460   2.7928460   0.0000000   2.7928460   2.7928460   0.0000000   2.7928460   2.7928460   0.0000000   2.7928460
 AtZNuc=   1.0000000   1.0000000   8.0000000   1.0000000   1.0000000   8.0000000   1.0000000   1.0000000   8.0000000   1.0000000

  Atom       301         302         303         304         305         306         307         308         309         310
 IAtWgt=           1          16           1           1          16           1           1          16           1           1
 AtmWgt=   1.0078250  15.9949146   1.0078250   1.0078250  15.9949146   1.0078250   1.0078250  15.9949146   1.0078250   1.0078250
 NucSpn=           1           0           1           1           0           1           1           0           1           1
 AtZEff=   0.0000000   0.0000000   0.0000000   0.0000000   0.0000000   0.0000000   0.0000000   0.0000000   0.0000000   0.0000000
 NQMom=    0.0000000   0.0000000   0.0000000   0.0000000   0.0000000   0.0000000   0.0000000   0.0000000   0.0000000   0.0000000
 NMagM=    2.7928460   0.0000000   2.7928460   2.7928460   0.0000000   2.7928460   2.7928460   0.0000000   2.7928460   2.7928460
 AtZNuc=   1.0000000   8.0000000   1.0000000   1.0000000   8.0000000   1.0000000   1.0000000   8.0000000   1.0000000   1.0000000

  Atom       311         312         313         314         315         316         317         318         319         320
 IAtWgt=          16           1           1          16           1           1          16           1           1          16
 AtmWgt=  15.9949146   1.0078250   1.0078250  15.9949146   1.0078250   1.0078250  15.9949146   1.0078250   1.0078250  15.9949146
 NucSpn=           0           1           1           0           1           1           0           1           1           0
 AtZEff=   0.0000000   0.0000000   0.0000000   0.0000000   0.0000000   0.0000000   0.0000000   0.0000000   0.0000000   0.0000000
 NQMom=    0.0000000   0.0000000   0.0000000   0.0000000   0.0000000   0.0000000   0.0000000   0.0000000   0.0000000   0.0000000
 NMagM=    0.0000000   2.7928460   2.7928460   0.0000000   2.7928460   2.7928460   0.0000000   2.7928460   2.7928460   0.0000000
 AtZNuc=   8.0000000   1.0000000   1.0000000   8.0000000   1.0000000   1.0000000   8.0000000   1.0000000   1.0000000   8.0000000

  Atom       321         322         323         324         325         326         327         328         329         330
 IAtWgt=           1           1          16           1           1          16           1           1          16           1
 AtmWgt=   1.0078250   1.0078250  15.9949146   1.0078250   1.0078250  15.9949146   1.0078250   1.0078250  15.9949146   1.0078250
 NucSpn=           1           1           0           1           1           0           1           1           0           1
 AtZEff=   0.0000000   0.0000000   0.0000000   0.0000000   0.0000000   0.0000000   0.0000000   0.0000000   0.0000000   0.0000000
 NQMom=    0.0000000   0.0000000   0.0000000   0.0000000   0.0000000   0.0000000   0.0000000   0.0000000   0.0000000   0.0000000
 NMagM=    2.7928460   2.7928460   0.0000000   2.7928460   2.7928460   0.0000000   2.7928460   2.7928460   0.0000000   2.7928460
 AtZNuc=   1.0000000   1.0000000   8.0000000   1.0000000   1.0000000   8.0000000   1.0000000   1.0000000   8.0000000   1.0000000

  Atom       331         332         333         334         335         336         337         338         339         340
 IAtWgt=           1          16           1           1          16           1           1          16           1           1
 AtmWgt=   1.0078250  15.9949146   1.0078250   1.0078250  15.9949146   1.0078250   1.0078250  15.9949146   1.0078250   1.0078250
 NucSpn=           1           0           1           1           0           1           1           0           1           1
 AtZEff=   0.0000000   0.0000000   0.0000000   0.0000000   0.0000000   0.0000000   0.0000000   0.0000000   0.0000000   0.0000000
 NQMom=    0.0000000   0.0000000   0.0000000   0.0000000   0.0000000   0.0000000   0.0000000   0.0000000   0.0000000   0.0000000
 NMagM=    2.7928460   0.0000000   2.7928460   2.7928460   0.0000000   2.7928460   2.7928460   0.0000000   2.7928460   2.7928460
 AtZNuc=   1.0000000   8.0000000   1.0000000   1.0000000   8.0000000   1.0000000   1.0000000   8.0000000   1.0000000   1.0000000

  Atom       341         342         343         344         345         346         347         348         349         350
 IAtWgt=          16           1           1          16           1           1          16           1           1          16
 AtmWgt=  15.9949146   1.0078250   1.0078250  15.9949146   1.0078250   1.0078250  15.9949146   1.0078250   1.0078250  15.9949146
 NucSpn=           0           1           1           0           1           1           0           1           1           0
 AtZEff=   0.0000000   0.0000000   0.0000000   0.0000000   0.0000000   0.0000000   0.0000000   0.0000000   0.0000000   0.0000000
 NQMom=    0.0000000   0.0000000   0.0000000   0.0000000   0.0000000   0.0000000   0.0000000   0.0000000   0.0000000   0.0000000
 NMagM=    0.0000000   2.7928460   2.7928460   0.0000000   2.7928460   2.7928460   0.0000000   2.7928460   2.7928460   0.0000000
 AtZNuc=   8.0000000   1.0000000   1.0000000   8.0000000   1.0000000   1.0000000   8.0000000   1.0000000   1.0000000   8.0000000

  Atom       351         352         353         354         355         356         357         358         359         360
 IAtWgt=           1           1          16           1           1          16           1           1          16           1
 AtmWgt=   1.0078250   1.0078250  15.9949146   1.0078250   1.0078250  15.9949146   1.0078250   1.0078250  15.9949146   1.0078250
 NucSpn=           1           1           0           1           1           0           1           1           0           1
 AtZEff=   0.0000000   0.0000000   0.0000000   0.0000000   0.0000000   0.0000000   0.0000000   0.0000000   0.0000000   0.0000000
 NQMom=    0.0000000   0.0000000   0.0000000   0.0000000   0.0000000   0.0000000   0.0000000   0.0000000   0.0000000   0.0000000
 NMagM=    2.7928460   2.7928460   0.0000000   2.7928460   2.7928460   0.0000000   2.7928460   2.7928460   0.0000000   2.7928460
 AtZNuc=   1.0000000   1.0000000   8.0000000   1.0000000   1.0000000   8.0000000   1.0000000   1.0000000   8.0000000   1.0000000

  Atom       361         362         363         364         365         366         367         368         369         370
 IAtWgt=           1          16           1           1          16           1           1          16           1           1
 AtmWgt=   1.0078250  15.9949146   1.0078250   1.0078250  15.9949146   1.0078250   1.0078250  15.9949146   1.0078250   1.0078250
 NucSpn=           1           0           1           1           0           1           1           0           1           1
 AtZEff=   0.0000000   0.0000000   0.0000000   0.0000000   0.0000000   0.0000000   0.0000000   0.0000000   0.0000000   0.0000000
 NQMom=    0.0000000   0.0000000   0.0000000   0.0000000   0.0000000   0.0000000   0.0000000   0.0000000   0.0000000   0.0000000
 NMagM=    2.7928460   0.0000000   2.7928460   2.7928460   0.0000000   2.7928460   2.7928460   0.0000000   2.7928460   2.7928460
 AtZNuc=   1.0000000   8.0000000   1.0000000   1.0000000   8.0000000   1.0000000   1.0000000   8.0000000   1.0000000   1.0000000

  Atom       371         372         373         374         375         376         377         378         379         380
 IAtWgt=          16           1           1          16           1           1          16           1           1          16
 AtmWgt=  15.9949146   1.0078250   1.0078250  15.9949146   1.0078250   1.0078250  15.9949146   1.0078250   1.0078250  15.9949146
 NucSpn=           0           1           1           0           1           1           0           1           1           0
 AtZEff=   0.0000000   0.0000000   0.0000000   0.0000000   0.0000000   0.0000000   0.0000000   0.0000000   0.0000000   0.0000000
 NQMom=    0.0000000   0.0000000   0.0000000   0.0000000   0.0000000   0.0000000   0.0000000   0.0000000   0.0000000   0.0000000
 NMagM=    0.0000000   2.7928460   2.7928460   0.0000000   2.7928460   2.7928460   0.0000000   2.7928460   2.7928460   0.0000000
 AtZNuc=   8.0000000   1.0000000   1.0000000   8.0000000   1.0000000   1.0000000   8.0000000   1.0000000   1.0000000   8.0000000

  Atom       381         382         383         384         385
 IAtWgt=           1           1          16           1           1
 AtmWgt=   1.0078250   1.0078250  15.9949146   1.0078250   1.0078250
 NucSpn=           1           1           0           1           1
 AtZEff=   0.0000000   0.0000000   0.0000000   0.0000000   0.0000000
 NQMom=    0.0000000   0.0000000   0.0000000   0.0000000   0.0000000
 NMagM=    2.7928460   2.7928460   0.0000000   2.7928460   2.7928460
 AtZNuc=   1.0000000   1.0000000   8.0000000   1.0000000   1.0000000
 Leave Link  101 at Tue May 15 03:55:31 2018, MaxMem= 14763950080 cpu:       118.4
 (Enter /cm/shared/gaussian/g09.e01/intel64-sandybridge/g09/l103.exe)

 GradGradGradGradGradGradGradGradGradGradGradGradGradGradGradGradGradGrad
 Berny optimization.
 Initialization pass.
 Trust Radius=3.00D-01 FncErr=1.00D-07 GrdErr=1.00D-07
 Number of steps in this run=      2 maximum allowed number of steps=      2.
 GradGradGradGradGradGradGradGradGradGradGradGradGradGradGradGradGradGrad

 Leave Link  103 at Tue May 15 03:55:31 2018, MaxMem= 14763950080 cpu:         3.7
 (Enter /cm/shared/gaussian/g09.e01/intel64-sandybridge/g09/l202.exe)
 Symmetry turned off by external request.
 Stoichiometry    BrH256O128(1-)
 Framework group  C1[X(BrH256O128)]
 Deg. of freedom  1149
 Full point group                 C1      NOp   1
                          Input orientation:                          
 ---------------------------------------------------------------------
 Center     Atomic      Atomic             Coordinates (Angstroms)
 Number     Number       Type             X           Y           Z
 ---------------------------------------------------------------------
      1         35           0       20.000000   20.000000   20.000000
      2          8           0       20.780000   21.870000   22.230000
      3          1           0       21.530000   21.480000   22.690000
      4          1           0       20.600000   21.260000   21.520000
      5          8           0       22.630000   21.160000   18.800000
      6          1           0       22.390000   22.000000   18.410000
      7          1           0       21.880000   20.930000   19.340000
      8          8           0       17.770000   21.050000   18.070000
      9          1           0       17.640000   21.980000   17.890000
     10          1           0       18.260000   21.030000   18.890000
     11          8           0       19.170000   18.700000   22.870000
     12          1           0       18.230000   18.630000   22.740000
     13          1           0       19.510000   19.010000   22.030000
     14          8           0       20.270000   19.650000   16.720000
     15          1           0       19.480000   19.120000   16.710000
     16          1           0       20.390000   19.870000   17.650000
     17          8           0       19.790000   23.380000   19.460000
     18          1           0       20.460000   23.540000   20.120000
     19          1           0       19.640000   22.430000   19.480000
     20          8           0       19.420000   16.600000   19.480000
     21          1           0       19.400000   17.550000   19.400000
     22          1           0       19.640000   16.290000   18.600000
     23          8           0       17.320000   21.510000   21.630000
     24          1           0       18.250000   21.300000   21.520000
     25          1           0       17.200000   22.330000   21.150000
     26          8           0       23.230000   18.530000   18.110000
     27          1           0       23.400000   18.260000   19.010000
     28          1           0       22.640000   19.280000   18.190000
     29          8           0       15.490000   20.240000   19.650000
     30          1           0       16.440000   20.300000   19.720000
     31          1           0       15.280000   19.360000   19.940000
     32          8           0       16.330000   19.110000   22.450000
     33          1           0       16.090000   19.370000   23.340000
     34          1           0       16.740000   19.890000   22.080000
     35          8           0       18.530000   22.010000   23.960000
     36          1           0       17.730000   21.870000   23.450000
     37          1           0       19.240000   21.760000   23.370000
     38          8           0       23.390000   18.110000   20.650000
     39          1           0       23.410000   17.210000   20.990000
     40          1           0       23.450000   18.660000   21.430000
     41          8           0       18.200000   16.090000   21.770000
     42          1           0       18.120000   15.140000   21.740000
     43          1           0       18.640000   16.320000   20.950000
     44          8           0       20.840000   16.660000   23.400000
     45          1           0       20.840000   16.300000   22.510000
     46          1           0       20.240000   17.400000   23.370000
     47          8           0       21.340000   15.220000   20.900000
     48          1           0       20.660000   15.690000   20.420000
     49          1           0       21.070000   14.310000   20.870000
     50          8           0       20.870000   22.270000   15.610000
     51          1           0       20.650000   21.370000   15.850000
     52          1           0       20.090000   22.610000   15.170000
     53          8           0       18.000000   18.510000   15.980000
     54          1           0       17.630000   17.630000   15.950000
     55          1           0       17.400000   19.010000   16.530000
     56          8           0       16.820000   23.730000   19.980000
     57          1           0       17.300000   23.600000   19.160000
     58          1           0       15.900000   23.600000   19.750000
     59          8           0       19.710000   19.090000   25.460000
     60          1           0       19.280000   19.310000   24.640000
     61          1           0       19.020000   19.150000   26.120000
     62          8           0       21.740000   24.610000   21.210000
     63          1           0       21.640000   24.040000   21.970000
     64          1           0       22.440000   25.220000   21.450000
     65          8           0       22.220000   23.600000   17.410000
     66          1           0       21.970000   24.520000   17.350000
     67          1           0       21.950000   23.210000   16.580000
     68          8           0       24.020000   19.450000   22.870000
     69          1           0       24.030000   19.850000   23.740000
     70          1           0       24.880000   19.060000   22.770000
     71          8           0       25.110000   21.400000   17.200000
     72          1           0       24.340000   21.340000   17.770000
     73          1           0       24.760000   21.720000   16.370000
     74          8           0       22.930000   15.200000   18.210000
     75          1           0       22.950000   16.100000   18.540000
     76          1           0       22.100000   15.140000   17.730000
     77          8           0       19.340000   25.890000   18.710000
     78          1           0       19.460000   24.980000   18.990000
     79          1           0       18.470000   25.900000   18.310000
     80          8           0       15.110000   22.300000   22.860000
     81          1           0       15.240000   23.250000   22.970000
     82          1           0       15.860000   22.020000   22.330000
     83          8           0       16.040000   16.960000   17.530000
     84          1           0       15.180000   17.030000   17.120000
     85          1           0       15.890000   17.220000   18.440000
     86          8           0       26.010000   18.910000   19.360000
     87          1           0       26.160000   19.830000   19.140000
     88          1           0       25.100000   18.750000   19.110000
     89          8           0       20.460000   18.520000   13.850000
     90          1           0       19.700000   18.000000   13.610000
     91          1           0       20.400000   18.600000   14.800000
     92          8           0       17.020000   23.480000   17.070000
     93          1           0       17.510000   23.290000   16.270000
     94          1           0       16.950000   24.440000   17.090000
     95          8           0       23.630000   17.290000   15.560000
     96          1           0       23.420000   17.910000   16.260000
     97          1           0       24.550000   17.070000   15.700000
     98          8           0       20.650000   15.640000   16.690000
     99          1           0       21.010000   16.290000   16.080000
    100          1           0       19.880000   15.300000   16.230000
    101          8           0       19.450000   25.170000   23.520000
    102          1           0       19.530000   24.210000   23.520000
    103          1           0       18.530000   25.330000   23.720000
    104          8           0       14.930000   17.600000   20.250000
    105          1           0       15.350000   17.230000   21.020000
    106          1           0       14.030000   17.770000   20.520000
    107          8           0       22.390000   20.210000   25.390000
    108          1           0       21.960000   20.850000   25.950000
    109          1           0       21.730000   19.540000   25.230000
    110          8           0       18.230000   16.240000   24.840000
    111          1           0       19.170000   16.090000   24.970000
    112          1           0       18.160000   16.550000   23.940000
    113          8           0       23.310000   16.970000   24.500000
    114          1           0       22.590000   16.670000   23.950000
    115          1           0       23.590000   17.790000   24.100000
    116          8           0       14.370000   20.010000   17.030000
    117          1           0       14.080000   20.790000   16.560000
    118          1           0       14.620000   20.340000   17.900000
    119          8           0       23.870000   15.720000   21.710000
    120          1           0       24.530000   15.030000   21.680000
    121          1           0       23.060000   15.290000   21.450000
    122          8           0       14.490000   22.970000   19.180000
    123          1           0       14.910000   23.140000   18.330000
    124          1           0       14.590000   22.030000   19.310000
    125          8           0       24.510000   22.300000   23.030000
    126          1           0       24.740000   21.370000   23.090000
    127          1           0       24.810000   22.560000   22.160000
    128          8           0       17.580000   20.090000   13.810000
    129          1           0       16.820000   19.590000   13.510000
    130          1           0       17.880000   19.620000   14.590000
    131          8           0       25.460000   22.890000   20.030000
    132          1           0       24.980000   23.690000   19.810000
    133          1           0       25.440000   22.370000   19.230000
    134          8           0       16.830000   25.060000   23.030000
    135          1           0       16.010000   25.500000   22.790000
    136          1           0       17.240000   24.860000   22.190000
    137          8           0       17.820000   14.080000   18.310000
    138          1           0       18.050000   13.490000   17.590000
    139          1           0       17.560000   14.890000   17.880000
    140          8           0       23.010000   24.240000   23.790000
    141          1           0       23.530000   23.520000   23.440000
    142          1           0       23.410000   24.450000   24.630000
    143          8           0       16.080000   19.910000   24.860000
    144          1           0       16.710000   20.210000   25.510000
    145          1           0       15.310000   19.650000   25.370000
    146          8           0       18.630000   22.720000   14.420000
    147          1           0       17.970000   23.310000   14.050000
    148          1           0       18.340000   21.840000   14.160000
    149          8           0       23.270000   20.020000   13.800000
    150          1           0       22.370000   20.090000   13.480000
    151          1           0       23.210000   19.420000   14.550000
    152          8           0       26.350000   17.810000   21.860000
    153          1           0       26.050000   18.160000   21.020000
    154          1           0       27.300000   17.970000   21.860000
    155          8           0       20.000000   27.100000   21.470000
    156          1           0       20.090000   26.570000   22.260000
    157          1           0       20.150000   26.490000   20.750000
    158          8           0       21.730000   17.550000   26.660000
    159          1           0       20.950000   17.880000   26.220000
    160          1           0       22.300000   17.260000   25.950000
    161          8           0       26.410000   15.960000   19.190000
    162          1           0       25.800000   16.660000   19.400000
    163          1           0       26.670000   15.600000   20.030000
    164          8           0       13.510000   18.350000   23.420000
    165          1           0       13.240000   19.230000   23.150000
    166          1           0       14.460000   18.420000   23.530000
    167          8           0       22.000000   26.570000   18.050000
    168          1           0       21.080000   26.490000   18.300000
    169          1           0       22.060000   27.430000   17.630000
    170          8           0       12.970000   20.980000   22.430000
    171          1           0       13.740000   21.500000   22.230000
    172          1           0       12.480000   21.510000   23.060000
    173          8           0       22.310000   13.660000   23.710000
    174          1           0       22.420000   14.560000   23.410000
    175          1           0       23.060000   13.510000   24.290000
    176          8           0       20.560000   23.120000   26.260000
    177          1           0       20.070000   23.930000   26.200000
    178          1           0       19.910000   22.460000   26.500000
    179          8           0       24.400000   25.820000   19.400000
    180          1           0       23.530000   25.950000   19.030000
    181          1           0       24.290000   25.940000   20.340000
    182          8           0       12.420000   18.710000   19.250000
    183          1           0       11.700000   18.710000   18.620000
    184          1           0       13.130000   19.160000   18.810000
    185          8           0       15.910000   23.250000   25.470000
    186          1           0       15.710000   22.420000   25.030000
    187          1           0       16.160000   23.840000   24.760000
    188          8           0       17.200000   13.070000   22.150000
    189          1           0       18.050000   13.370000   21.820000
    190          1           0       16.720000   12.800000   21.370000
    191          8           0       21.750000   15.780000   13.780000
    192          1           0       21.200000   16.470000   13.400000
    193          1           0       22.330000   16.240000   14.380000
    194          8           0       13.650000   17.500000   16.320000
    195          1           0       13.940000   18.390000   16.520000
    196          1           0       12.810000   17.410000   16.760000
    197          8           0       16.820000   26.070000   17.870000
    198          1           0       16.110000   26.370000   17.300000
    199          1           0       16.550000   26.330000   18.750000
    200          8           0       18.500000   15.100000   14.960000
    201          1           0       18.190000   15.630000   14.220000
    202          1           0       18.070000   14.250000   14.850000
    203          8           0       24.470000   25.490000   16.110000
    204          1           0       24.190000   26.130000   15.450000
    205          1           0       23.660000   25.060000   16.380000
    206          8           0       23.110000   12.870000   20.320000
    207          1           0       23.300000   13.480000   19.610000
[...]
   Y335      30.38680  -0.01134   0.00000  -0.00910  -0.00880  30.37800
   Z335      41.98971  -0.00132   0.00000   0.00728   0.00747  41.99718
   X336      20.91927  -0.00196   0.00000   0.00035   0.00032  20.91959
   Y336      31.46394   0.00903   0.00000   0.01103   0.01135  31.47529
   Z336      42.12200   0.00413   0.00000   0.00557   0.00569  42.12768
   X337      23.60268   0.00734   0.00000   0.00495   0.00490  23.60758
   Y337      31.14269   0.01088   0.00000   0.01191   0.01225  31.15494
   Z337      43.08576   0.00601   0.00000   0.00196   0.00213  43.08789
   X338      22.18538  -0.00301   0.00000  -0.00457  -0.00453  22.18086
   Y338      30.29231  -0.00358   0.00000  -0.00874  -0.00863  30.28368
   Z338      37.05753  -0.03494   0.00000  -0.02601  -0.02582  37.03171
   X339      22.24208   0.00541   0.00000   0.00932   0.00937  22.25145
   Y339      32.08755  -0.00596   0.00000  -0.00758  -0.00748  32.08007
   Z339      36.77407   0.00679   0.00000   0.00747   0.00759  36.78166
   X340      22.22318   0.00540   0.00000   0.00856   0.00857  22.23175
   Y340      30.10334  -0.00051   0.00000  -0.00157  -0.00139  30.10195
   Z340      38.85277   0.02108   0.00000   0.00576   0.00595  38.85872
   X341      33.82610  -0.01101   0.00000  -0.00242  -0.00238  33.82372
   Y341      54.15955   0.00509   0.00000   0.00454   0.00481  54.16436
   Z341      42.08420   0.00292   0.00000   0.00184   0.00126  42.08546
   X342      33.92058  -0.00343   0.00000  -0.00474  -0.00470  33.91588
   Y342      55.65243   0.00363   0.00000   0.00491   0.00522  55.65765
   Z342      43.10465   0.00269   0.00000   0.00412   0.00349  43.10814
   X343      35.54575   0.01788   0.00000   0.01290   0.01295  35.55869
   Y343      53.80050  -0.00999   0.00000  -0.01258  -0.01233  53.78817
   Z343      41.66846  -0.00656   0.00000  -0.00588  -0.00642  41.66204
   X344      51.51393   0.01108   0.00000   0.00819   0.00839  51.52232
   Y344      46.14711  -0.01285   0.00000  -0.01043  -0.01069  46.13642
   Z344      30.12223  -0.00997   0.00000  -0.00356  -0.00355  30.11868
   X345      51.45724  -0.00605   0.00000  -0.00729  -0.00710  51.45014
   Y345      47.24315   0.00919   0.00000   0.00549   0.00529  47.24844
   Z345      31.55843   0.01117   0.00000   0.00591   0.00587  31.56430
   X346      49.77539  -0.00590   0.00000  -0.00312  -0.00291  49.77248
   Y346      45.93924   0.00352   0.00000   0.00536   0.00508  45.94433
   Z346      29.63091   0.00214   0.00000   0.00345   0.00344  29.63435
   X347      46.35498  -0.00062   0.00000   0.00787   0.00774  46.36272
   Y347      25.56799  -0.01184   0.00000  -0.00771  -0.00728  25.56072
   Z347      47.20536  -0.00404   0.00000  -0.00307  -0.00232  47.20304
   X348      46.65734   0.00175   0.00000   0.00078   0.00063  46.65796
   Y348      25.92704   0.00459   0.00000   0.00474   0.00523  25.93228
   Z348      48.94391   0.01178   0.00000   0.00836   0.00910  48.95301
   X349      47.16756   0.01097   0.00000   0.01263   0.01251  47.18008
   Y349      26.92860   0.00988   0.00000   0.00614   0.00654  26.93513
   Z349      46.31719  -0.00774   0.00000  -0.00749  -0.00679  46.31040
   X350      25.39792   0.00901   0.00000   0.00940   0.00928  25.40720
   Y350      38.09688  -0.01266   0.00000  -0.00848  -0.00790  38.08898
   Z350      49.15178   0.00313   0.00000   0.00263   0.00256  49.15433
   X351      24.64203  -0.00315   0.00000   0.00076   0.00066  24.64269
   Y351      39.34410   0.00756   0.00000   0.00181   0.00236  39.34645
   Z351      48.09353  -0.00687   0.00000  -0.00428  -0.00441  48.08912
   X352      25.51130  -0.00161   0.00000  -0.00253  -0.00267  25.50863
   Y352      38.89056   0.00422   0.00000   0.00331   0.00395  38.89451
   Z352      50.77694   0.00510   0.00000   0.00429   0.00418  50.78112
   X353      28.38369   0.00314   0.00000   0.00165   0.00188  28.38556
   Y353      49.64311   0.00939   0.00000   0.00431   0.00410  49.64721
   Z353      29.46083   0.00803   0.00000   0.00644   0.00596  29.46679
   X354      29.04509   0.00842   0.00000   0.00964   0.00988  29.05497
   Y354      48.49037  -0.00885   0.00000  -0.00606  -0.00633  48.48405
   Z354      28.23251  -0.00614   0.00000  -0.00085  -0.00127  28.23123
   X355      26.70183  -0.00838   0.00000  -0.00657  -0.00635  26.69548
   Y355      49.05729  -0.00306   0.00000  -0.00207  -0.00226  49.05503
   Z355      29.76319   0.00175   0.00000   0.00212   0.00163  29.76482
   X356      27.34434  -0.00355   0.00000  -0.01046  -0.01044  27.33390
   Y356      50.09664  -0.00660   0.00000  -0.00852  -0.00821  50.08843
   Z356      42.51884  -0.00103   0.00000   0.00204   0.00152  42.52036
   X357      26.87191  -0.00128   0.00000  -0.00073  -0.00074  26.87117
   Y357      50.64466   0.00435   0.00000   0.00553   0.00591  50.65057
   Z357      44.18180   0.00688   0.00000   0.00685   0.00631  44.18810
   X358      26.13491  -0.00633   0.00000  -0.00831  -0.00827  26.12664
   Y358      50.89032   0.00178   0.00000   0.00113   0.00140  50.89173
   Z358      41.42280  -0.00190   0.00000  -0.00042  -0.00099  41.42181
   X359      40.40234   0.00779   0.00000   0.00390   0.00367  40.40601
   Y359      33.61823   0.00162   0.00000   0.00076   0.00154  33.61977
   Z359      55.63354   0.02430   0.00000   0.01479   0.01512  55.64866
   X360      39.13623  -0.00718   0.00000  -0.00815  -0.00839  39.12783
   Y360      34.78986   0.00420   0.00000   0.00303   0.00384  34.79370
   Z360      56.16266   0.00137   0.00000   0.00087   0.00114  56.16380
   X361      40.06219   0.00371   0.00000   0.01233   0.01212  40.07431
   Y361      33.33477  -0.00644   0.00000  -0.00728  -0.00657  33.32820
   Z361      53.89499  -0.02498   0.00000  -0.01542  -0.01508  53.87991
   X362      28.70494  -0.00339   0.00000  -0.00213  -0.00200  28.70294
   Y362      24.64203   0.01305   0.00000   0.00912   0.00893  24.65096
   Z362      29.81988  -0.00941   0.00000  -0.01017  -0.00966  29.81022
   X363      27.96795  -0.00180   0.00000  -0.00054  -0.00042  27.96753
   Y363      23.05466  -0.00689   0.00000  -0.00083  -0.00100  23.05366
   Z363      30.27341   0.00569   0.00000   0.00564   0.00621  30.27962
   X364      30.42459   0.00269   0.00000  -0.00216  -0.00203  30.42256
   Y364      24.50975  -0.00292   0.00000  -0.00220  -0.00238  24.50736
   Z364      30.38680   0.00923   0.00000   0.01250   0.01304  30.39983
   X365      45.71248   0.01116   0.00000   0.00840   0.00848  45.72095
   Y365      22.50664  -0.01751   0.00000  -0.01599  -0.01613  22.49051
   Z365      32.82454   0.00821   0.00000   0.00317   0.00403  32.82857
   X366      44.03062  -0.00552   0.00000   0.00257   0.00266  44.03328
   Y366      22.99797   0.01058   0.00000   0.01144   0.01129  23.00926
   Z366      32.38991  -0.00558   0.00000  -0.00493  -0.00412  32.38578
   X367      46.77072  -0.00161   0.00000  -0.00433  -0.00424  46.76649
   Y367      23.81055   0.00826   0.00000   0.00719   0.00702  23.81757
   Z367      32.10645   0.00106   0.00000   0.00565   0.00647  32.11292
   X368      33.61823  -0.01892   0.00000  -0.01513  -0.01521  33.60302
   Y368      50.68245   0.01308   0.00000   0.00683   0.00739  50.68985
   Z368      49.35965  -0.01184   0.00000  -0.00711  -0.00755  49.35209
   X369      32.76785  -0.00450   0.00000  -0.00421  -0.00431  32.76354
   Y369      50.26672  -0.00455   0.00000  -0.00499  -0.00437  50.26234
   Z369      50.89032   0.00988   0.00000   0.00807   0.00763  50.89795
   X370      35.22450   0.01714   0.00000   0.00860   0.00852  35.23301
   Y370      49.86987  -0.00673   0.00000  -0.00051   0.00005  49.86992
   Z370      49.49193   0.00017   0.00000  -0.00278  -0.00317  49.48876
   X371      46.73293  -0.00751   0.00000  -0.01088  -0.01071  46.72221
   Y371      53.66822   0.01424   0.00000   0.01071   0.01061  53.67883
   Z371      33.82610   0.00316   0.00000   0.00127   0.00091  33.82701
   X372      47.03528   0.00304   0.00000   0.00347   0.00366  47.03894
   Y372      53.19579  -0.00761   0.00000  -0.00854  -0.00871  53.18708
   Z372      32.10645  -0.00477   0.00000  -0.00039  -0.00073  32.10572
   X373      46.80852   0.00144   0.00000   0.00155   0.00170  46.81021
   Y373      52.09975  -0.00608   0.00000  -0.00097  -0.00104  52.09871
   Z373      34.73317   0.00162   0.00000   0.00017  -0.00013  34.73303
   X374      30.68915  -0.01894   0.00000  -0.01233  -0.01245  30.67670
   Y374      22.27987  -0.01000   0.00000  -0.00392  -0.00349  22.27639
   Z374      45.86365   0.02180   0.00000   0.01527   0.01590  45.87956
   X375      32.21983   0.00837   0.00000   0.00465   0.00451  32.22434
   Y375      21.41060  -0.00282   0.00000  -0.00214  -0.00169  21.40890
   Z375      46.26050  -0.00017   0.00000  -0.00059   0.00010  46.26059
   X376      31.14269   0.01142   0.00000   0.00942   0.00932  31.15201
   Y376      23.41371   0.01030   0.00000   0.00033   0.00070  23.41441
   Z376      44.54084  -0.02001   0.00000  -0.01375  -0.01315  44.52769
   X377      33.42926  -0.00097   0.00000   0.00293   0.00303  33.43229
   Y377      22.52554   0.00872   0.00000   0.00720   0.00703  22.53257
   Z377      30.85923   0.00387   0.00000  -0.00182  -0.00115  30.85808
   X378      34.86545   0.00599   0.00000   0.00414   0.00424  34.86968
   Y378      21.59957  -0.00425   0.00000  -0.00312  -0.00327  21.59630
   Z378      31.46394   0.00360   0.00000   0.00359   0.00431  31.46825
   X379      33.14580  -0.00058   0.00000   0.00019   0.00032  33.14612
   Y379      21.88303  -0.00517   0.00000  -0.00486  -0.00509  21.87793
   Z379      29.19627  -0.01003   0.00000  -0.00825  -0.00757  29.18870
   X380      40.64801  -0.00995   0.00000  -0.00874  -0.00887  40.63914
   Y380      20.69250  -0.00658   0.00000  -0.00541  -0.00504  20.68746
   Z380      45.29674  -0.00677   0.00000  -0.00395  -0.00310  45.29364
   X381      41.23382   0.00384   0.00000   0.00293   0.00278  41.23660
   Y381      20.06889  -0.00157   0.00000  -0.00023   0.00021  20.06910
   Z381      46.88411   0.00893   0.00000   0.00571   0.00659  46.89070
   X382      41.36611   0.00318   0.00000   0.00101   0.00090  41.36701
   Y382      22.35546   0.00674   0.00000   0.00195   0.00231  22.35777
   Z382      45.16445  -0.00472   0.00000  -0.00874  -0.00794  45.15651
   X383      40.83698   0.00525   0.00000   0.00443   0.00478  40.84176
   Y383      42.97237  -0.00219   0.00000   0.00115   0.00053  42.97290
   Z383      19.99330   0.00432   0.00000   0.00203   0.00200  19.99530
   X384      39.58976  -0.00019   0.00000   0.00030   0.00062  39.59039
   Y384      43.29363  -0.00171   0.00000  -0.00305  -0.00362  43.29001
   Z384      21.27832   0.00026   0.00000   0.00027   0.00021  21.27852
   X385      40.17558  -0.00426   0.00000  -0.00450  -0.00413  40.17145
   Y385      43.78495   0.00320   0.00000   0.00248   0.00179  43.78675
   Z385      18.51932  -0.00480   0.00000  -0.00254  -0.00262  18.51670
         Item               Value     Threshold  Converged?
 Maximum Force            0.037556     0.000450     NO 
 RMS     Force            0.010691     0.000300     NO 
 Maximum Displacement     0.030107     0.001800     NO 
 RMS     Displacement     0.008823     0.001200     NO 
 Predicted change in Energy=-7.499589D-02
 GradGradGradGradGradGradGradGradGradGradGradGradGradGradGradGradGradGrad

 Leave Link  103 at Tue May 15 07:05:01 2018, MaxMem= 14763950080 cpu:      2988.7
 (Enter /cm/shared/gaussian/g09.e01/intel64-sandybridge/g09/l9999.exe)
 1\1\GINC-POPLE03\Force\RPBE1PBE\CC-pVDZ\Br1H256O128(1-)\M.PELUSO\15-Ma
 y-2018\0\\#p PBE1PBE/cc-pvDZ force Counterpoise=2 noSymm\\forces on ch
 loride comput - NWATER: 128\\-1,1\Br,20.,20.,20.\O,20.78,21.87,22.23\H
 ,21.53,21.48,22.69\H,20.6,21.26,21.52\O,22.63,21.16,18.8\H,22.39,22.,1
 8.41\H,21.88,20.93,19.34\O,17.77,21.05,18.07\H,17.64,21.98,17.89\H,18.
 26,21.03,18.89\O,19.17,18.7,22.87\H,18.23,18.63,22.74\H,19.51,19.01,22
 .03\O,20.27,19.65,16.72\H,19.48,19.12,16.71\H,20.39,19.87,17.65\O,19.7
 9,23.38,19.46\H,20.46,23.54,20.12\H,19.64,22.43,19.48\O,19.42,16.6,19.
 48\H,19.4,17.55,19.4\H,19.64,16.29,18.6\O,17.32,21.51,21.63\H,18.25,21
 .3,21.52\H,17.2,22.33,21.15\O,23.23,18.53,18.11\H,23.4,18.26,19.01\H,2
 2.64,19.28,18.19\O,15.49,20.24,19.65\H,16.44,20.3,19.72\H,15.28,19.36,
 19.94\O,16.33,19.11,22.45\H,16.09,19.37,23.34\H,16.74,19.89,22.08\O,18
 .53,22.01,23.96\H,17.73,21.87,23.45\H,19.24,21.76,23.37\O,23.39,18.11,
 20.65\H,23.41,17.21,20.99\H,23.45,18.66,21.43\O,18.2,16.09,21.77\H,18.
 12,15.14,21.74\H,18.64,16.32,20.95\O,20.84,16.66,23.4\H,20.84,16.3,22.
 51\H,20.24,17.4,23.37\O,21.34,15.22,20.9\H,20.66,15.69,20.42\H,21.07,1
 4.31,20.87\O,20.87,22.27,15.61\H,20.65,21.37,15.85\H,20.09,22.61,15.17
 \O,18.,18.51,15.98\H,17.63,17.63,15.95\H,17.4,19.01,16.53\O,16.82,23.7
 3,19.98\H,17.3,23.6,19.16\H,15.9,23.6,19.75\O,19.71,19.09,25.46\H,19.2
 8,19.31,24.64\H,19.02,19.15,26.12\O,21.74,24.61,21.21\H,21.64,24.04,21
 .97\H,22.44,25.22,21.45\O,22.22,23.6,17.41\H,21.97,24.52,17.35\H,21.95
 ,23.21,16.58\O,24.02,19.45,22.87\H,24.03,19.85,23.74\H,24.88,19.06,22.
 77\O,25.11,21.4,17.2\H,24.34,21.34,17.77\H,24.76,21.72,16.37\O,22.93,1
 5.2,18.21\H,22.95,16.1,18.54\H,22.1,15.14,17.73\O,19.34,25.89,18.71\H,
 19.46,24.98,18.99\H,18.47,25.9,18.31\O,15.11,22.3,22.86\H,15.24,23.25,
 22.97\H,15.86,22.02,22.33\O,16.04,16.96,17.53\H,15.18,17.03,17.12\H,15
 .89,17.22,18.44\O,26.01,18.91,19.36\H,26.16,19.83,19.14\H,25.1,18.75,1
 9.11\O,20.46,18.52,13.85\H,19.7,18.,13.61\H,20.4,18.6,14.8\O,17.02,23.
 48,17.07\H,17.51,23.29,16.27\H,16.95,24.44,17.09\O,23.63,17.29,15.56\H
 ,23.42,17.91,16.26\H,24.55,17.07,15.7\O,20.65,15.64,16.69\H,21.01,16.2
 9,16.08\H,19.88,15.3,16.23\O,19.45,25.17,23.52\H,19.53,24.21,23.52\H,1
 8.53,25.33,23.72\O,14.93,17.6,20.25\H,15.35,17.23,21.02\H,14.03,17.77,
 20.52\O,22.39,20.21,25.39\H,21.96,20.85,25.95\H,21.73,19.54,25.23\O,18
 .23,16.24,24.84\H,19.17,16.09,24.97\H,18.16,16.55,23.94\O,23.31,16.97,
 24.5\H,22.59,16.67,23.95\H,23.59,17.79,24.1\O,14.37,20.01,17.03\H,14.0
 8,20.79,16.56\H,14.62,20.34,17.9\O,23.87,15.72,21.71\H,24.53,15.03,21.
 68\H,23.06,15.29,21.45\O,14.49,22.97,19.18\H,14.91,23.14,18.33\H,14.59
 ,22.03,19.31\O,24.51,22.3,23.03\H,24.74,21.37,23.09\H,24.81,22.56,22.1
 6\O,17.58,20.09,13.81\H,16.82,19.59,13.51\H,17.88,19.62,14.59\O,25.46,
 22.89,20.03\H,24.98,23.69,19.81\H,25.44,22.37,19.23\O,16.83,25.06,23.0
 3\H,16.01,25.5,22.79\H,17.24,24.86,22.19\O,17.82,14.08,18.31\H,18.05,1
 3.49,17.59\H,17.56,14.89,17.88\O,23.01,24.24,23.79\H,23.53,23.52,23.44
 \H,23.41,24.45,24.63\O,16.08,19.91,24.86\H,16.71,20.21,25.51\H,15.31,1
 9.65,25.37\O,18.63,22.72,14.42\H,17.97,23.31,14.05\H,18.34,21.84,14.16
 \O,23.27,20.02,13.8\H,22.37,20.09,13.48\H,23.21,19.42,14.55\O,26.35,17
 .81,21.86\H,26.05,18.16,21.02\H,27.3,17.97,21.86\O,20.,27.1,21.47\H,20
 .09,26.57,22.26\H,20.15,26.49,20.75\O,21.73,17.55,26.66\H,20.95,17.88,
 26.22\H,22.3,17.26,25.95\O,26.41,15.96,19.19\H,25.8,16.66,19.4\H,26.67
 ,15.6,20.03\O,13.51,18.35,23.42\H,13.24,19.23,23.15\H,14.46,18.42,23.5
 3\O,22.,26.57,18.05\H,21.08,26.49,18.3\H,22.06,27.43,17.63\O,12.97,20.
 98,22.43\H,13.74,21.5,22.23\H,12.48,21.51,23.06\O,22.31,13.66,23.71\H,
 22.42,14.56,23.41\H,23.06,13.51,24.29\O,20.56,23.12,26.26\H,20.07,23.9
 3,26.2\H,19.91,22.46,26.5\O,24.4,25.82,19.4\H,23.53,25.95,19.03\H,24.2
 9,25.94,20.34\O,12.42,18.71,19.25\H,11.7,18.71,18.62\H,13.13,19.16,18.
 81\O,15.91,23.25,25.47\H,15.71,22.42,25.03\H,16.16,23.84,24.76\O,17.2,
 13.07,22.15\H,18.05,13.37,21.82\H,16.72,12.8,21.37\O,21.75,15.78,13.78
 \H,21.2,16.47,13.4\H,22.33,16.24,14.38\O,13.65,17.5,16.32\H,13.94,18.3
 9,16.52\H,12.81,17.41,16.76\O,16.82,26.07,17.87\H,16.11,26.37,17.3\H,1
 6.55,26.33,18.75\O,18.5,15.1,14.96\H,18.19,15.63,14.22\H,18.07,14.25,1
 4.85\O,24.47,25.49,16.11\H,24.19,26.13,15.45\H,23.66,25.06,16.38\O,23.
 11,12.87,20.32\H,23.3,13.48,19.61\H,22.29,12.45,20.07\O,19.85,13.02,22
 .7\H,20.61,13.41,23.13\H,19.46,12.46,23.36\O,23.91,26.28,22.19\H,23.47
 ,25.87,22.93\H,24.17,27.15,22.5\O,22.12,13.14,16.09\H,21.94,12.65,15.2
 9\H,21.69,13.99,15.97\O,19.83,20.1,11.81\H,20.07,19.59,12.58\H,19.33,2
 0.84,12.17\O,25.14,22.06,14.05\H,24.46,21.4,14.21\H,25.77,21.63,13.48\
 O,25.33,14.53,17.29\H,24.67,14.54,17.97\H,26.07,15.03,17.65\O,25.36,22
 .44,25.62\H,25.24,22.69,24.71\H,24.5,22.55,26.02\O,19.01,27.69,16.51\H
 ,18.88,28.43,17.11\H,19.22,26.96,17.09\O,20.26,25.82,26.01\H,20.48,25.
 63,25.1\H,20.91,26.47,26.29\O,26.06,16.29,24.15\H,26.2,16.72,23.31\H,2
 5.13,16.42,24.34\O,17.72,16.92,27.41\H,17.77,16.68,26.48\H,17.92,17.86
 ,27.42\O,27.28,18.19,16.88\H,27.16,18.29,17.83\H,27.61,19.04,16.59\O,2
 7.83,23.24,20.96\H,27.87,23.76,21.76\H,26.92,23.3,20.68\O,17.82,19.76,
 27.46\H,17.02,19.54,27.94\H,18.43,20.06,28.13\O,27.71,20.89,16.32\H,26
 .8,21.19,16.41\H,28.2,21.47,16.9\O,12.7,24.75,19.77\H,13.35,24.07,19.5
 9\H,12.95,25.11,20.61\O,16.47,12.24,19.76\H,16.96,12.84,19.2\H,15.56,1
 2.5,19.66\O,24.5,19.33,27.44\H,23.77,19.48,26.84\H,24.24,19.77,28.25\O
 ,16.77,14.2,25.86\H,16.63,13.46,25.28\H,17.18,14.87,25.31\O,16.44,27.0
 6,20.66\H,17.05,27.54,21.22\H,15.59,27.15,21.09\O,17.61,16.81,13.04\H,
 18.03,16.72,12.19\H,16.85,17.36,12.88\O,23.29,22.93,27.18\H,23.09,22.4
 2,27.97\H,22.45,23.34,26.94\O,18.04,22.81,27.79\H,17.43,22.46,28.44\H,
 17.48,23.06,27.05\O,20.48,11.87,20.3\H,20.18,11.99,21.2\H,20.01,11.1,1
 9.99\O,19.72,25.84,14.39\H,19.5,25.19,13.72\H,18.87,26.11,14.74\O,26.4
 7,19.66,24.91\H,27.19,19.03,24.94\H,26.05,19.58,25.76\O,28.14,20.92,19
 .43\H,28.95,21.09,18.94\H,27.94,21.75,19.85\O,25.33,13.36,21.73\H,25.5
 4,12.54,22.2\H,24.48,13.19,21.33\O,13.96,13.71,18.57\H,14.3,14.02,17.7
 3\H,13.81,14.52,19.07\O,18.79,28.98,19.05\H,19.17,29.57,19.7\H,18.57,2
 8.19,19.54\O,24.6,15.28,13.42\H,25.37,15.75,13.74\H,23.87,15.66,13.91\
 O,16.88,24.57,13.59\H,16.77,25.3,12.98\H,16.17,23.97,13.39\O,22.2,26.8
 3,14.35\H,22.07,27.12,13.44\H,21.41,26.34,14.56\O,27.76,22.32,23.94\H,
 28.5,21.78,23.66\H,27.13,21.69,24.3\O,26.42,16.82,14.58\H,26.61,17.5,1
 5.23\H,27.26,16.39,14.43\O,21.7,29.24,21.04\H,22.08,29.25,21.92\H,21.3
 1,28.37,20.97\O,10.98,19.2,21.63\H,11.5,19.84,22.12\H,11.53,18.95,20.9
 \O,28.79,18.47,20.81\H,28.56,19.24,20.28\H,28.89,17.76,20.18\O,12.92,2
 1.6,15.3\H,12.57,20.99,14.65\H,12.27,22.3,15.36\O,15.31,18.64,12.84\H,
 14.49,18.14,12.88\H,15.09,19.44,12.37\O,26.93,26.2,18.38\H,27.43,26.17
 ,19.19\H,26.02,26.09,18.65\O,14.39,23.19,13.46\H,14.11,22.46,14.02\H,1
 3.6,23.72,13.34\O,11.84,16.08,22.22\H,11.07,16.65,22.29\H,12.49,16.48,
 22.8\O,11.74,16.03,19.61\H,11.77,16.98,19.46\H,11.76,15.93,20.56\O,17.
 9,28.66,22.27\H,17.95,29.45,22.81\H,18.81,28.47,22.05\O,27.26,24.42,15
 .94\H,27.23,25.,16.7\H,26.34,24.31,15.68\O,24.53,13.53,24.98\H,24.69,1
 3.72,25.9\H,24.96,14.25,24.51\O,13.44,20.16,26.01\H,13.04,20.82,25.45\
 H,13.5,20.58,26.87\O,15.02,26.27,15.59\H,15.37,25.66,14.94\H,14.13,25.
 96,15.75\O,14.47,26.51,22.5\H,14.22,26.8,23.38\H,13.83,26.93,21.92\O,2
 1.38,17.79,29.44\H,20.71,18.41,29.72\H,21.2,17.64,28.52\O,15.19,13.04,
 15.78\H,14.8,12.2,16.02\H,16.1,12.97,16.08\O,24.19,11.91,17.37\H,23.3,
 12.17,17.14\H,24.75,12.6,16.99\O,17.79,26.82,26.12\H,17.34,26.6,26.93\
 H,18.64,26.39,26.19\O,24.73,28.4,17.9\H,24.89,28.15,16.99\H,24.77,27.5
 7,18.38\O,16.24,11.79,24.27\H,17.05,11.33,24.48\H,16.48,12.39,23.57\O,
 17.69,11.92,16.33\H,18.45,11.43,16.65\H,17.54,11.58,15.45\O,21.51,10.9
 5,23.97\H,21.82,10.62,24.81\H,21.89,11.83,23.9\O,21.61,22.74,10.58\H,2
 0.95,22.91,11.26\H,21.26,23.17,9.8\\Version=ES64L-G09RevE.01\HF=-9773.
 4177105\RMSD=8.176e-10\RMSF=1.069e-02\Dipole=-20.0710626,11.6818937,-3
 .1700865\Quadrupole=-1232.5637227,1111.4867512,121.0769715,-1862.35209
 88,-2151.9201963,-999.2901075\PG=C01 [X(Br1H256O128)]\\@


 MEMORIES ARE LIKE AN ENGLISH GRAMMER LESSON -
 PRESENT TENSE, AND PAST PERFECT.
 Job cpu time:       8 days  7 hours  4 minutes 39.3 seconds.
 File lengths (MBytes):  RWF=   7285 Int=      0 D2E=      0 Chk=   2411 Scr=      1
 Normal termination of Gaussian 09 at Tue May 15 07:05:31 2018.
