 Entering Gaussian System, Link 0=/cm/shared/gaussian/g09.e01/intel64-sandybridge/g09/g09
 Initial command:
 /cm/shared/gaussian/g09.e01/intel64-sandybridge/g09/l1.exe "/local/scratch/m.peluso/128_wat/order/Gau-47723.inp" -scrdir="/local/scratch/m.peluso/128_wat/order/"
 Entering Link 1 = /cm/shared/gaussian/g09.e01/intel64-sandybridge/g09/l1.exe PID=     47724.
  
 Copyright (c) 1988,1990,1992,1993,1995,1998,2003,2009,2015,
            Gaussian, Inc.  All Rights Reserved.
  
 This is part of the Gaussian(R) 09 program.  It is based on
 the Gaussian(R) 03 system (copyright 2003, Gaussian, Inc.),
 the Gaussian(R) 98 system (copyright 1998, Gaussian, Inc.),
 the Gaussian(R) 94 system (copyright 1995, Gaussian, Inc.),
 the Gaussian 92(TM) system (copyright 1992, Gaussian, Inc.),
 the Gaussian 90(TM) system (copyright 1990, Gaussian, Inc.),
 the Gaussian 88(TM) system (copyright 1988, Gaussian, Inc.),
 the Gaussian 86(TM) system (copyright 1986, Carnegie Mellon
 University), and the Gaussian 82(TM) system (copyright 1983,
 Carnegie Mellon University). Gaussian is a federally registered
 trademark of Gaussian, Inc.
  
 This software contains proprietary and confidential information,
 including trade secrets, belonging to Gaussian, Inc.
  
 This software is provided under written license and may be
 used, copied, transmitted, or stored only in accord with that
 written license.
  
 The following legend is applicable only to US Government
 contracts under FAR:
  
                    RESTRICTED RIGHTS LEGEND
  
 Use, reproduction and disclosure by the US Government is
 subject to restrictions as set forth in subparagraphs (a)
 and (c) of the Commercial Computer Software - Restricted
 Rights clause in FAR 52.227-19.
  
 Gaussian, Inc.
 340 Quinnipiac St., Bldg. 40, Wallingford CT 06492
  
  
 ---------------------------------------------------------------
 Warning -- This program may not be used in any manner that
 competes with the business of Gaussian, Inc. or will provide
 assistance to any competitor of Gaussian, Inc.  The licensee
 of this program is prohibited from giving any competitor of
 Gaussian, Inc. access to this program.  By using this program,
 the user acknowledges that Gaussian, Inc. is engaged in the
 business of creating and licensing software in the field of
 computational chemistry and represents and warrants to the
 licensee that it is not a competitor of Gaussian, Inc. and that
 it will not use this program in any manner prohibited above.
 ---------------------------------------------------------------
  

 Cite this work as:
 Gaussian 09, Revision E.01,
 M. J. Frisch, G. W. Trucks, H. B. Schlegel, G. E. Scuseria, 
 M. A. Robb, J. R. Cheeseman, G. Scalmani, V. Barone, B. Mennucci, 
 G. A. Petersson, H. Nakatsuji, M. Caricato, X. Li, H. P. Hratchian, 
 A. F. Izmaylov, J. Bloino, G. Zheng, J. L. Sonnenberg, M. Hada, 
 M. Ehara, K. Toyota, R. Fukuda, J. Hasegawa, M. Ishida, T. Nakajima, 
 Y. Honda, O. Kitao, H. Nakai, T. Vreven, J. A. Montgomery, Jr., 
 J. E. Peralta, F. Ogliaro, M. Bearpark, J. J. Heyd, E. Brothers, 
 K. N. Kudin, V. N. Staroverov, T. Keith, R. Kobayashi, J. Normand, 
 K. Raghavachari, A. Rendell, J. C. Burant, S. S. Iyengar, J. Tomasi, 
 M. Cossi, N. Rega, J. M. Millam, M. Klene, J. E. Knox, J. B. Cross, 
 V. Bakken, C. Adamo, J. Jaramillo, R. Gomperts, R. E. Stratmann, 
 O. Yazyev, A. J. Austin, R. Cammi, C. Pomelli, J. W. Ochterski, 
 R. L. Martin, K. Morokuma, V. G. Zakrzewski, G. A. Voth, 
 P. Salvador, J. J. Dannenberg, S. Dapprich, A. D. Daniels, 
 O. Farkas, J. B. Foresman, J. V. Ortiz, J. Cioslowski, 
 and D. J. Fox, Gaussian, Inc., Wallingford CT, 2013.
 
 ******************************************
 Gaussian 09:  ES64L-G09RevE.01 30-Nov-2015
                14-May-2018 
 ******************************************
 %Mem=110GB
 %NProcShared=64
 Will use up to   64 processors via shared memory.
 %chk=snap30.chk
 ----------------------------------------------
 #p PBE1PBE/cc-pvDZ force Counterpoise=2 noSymm
 ----------------------------------------------
 1/10=7,30=1,38=1,62=2/1,3;
 2/12=2,15=1,17=6,18=5,40=1/2;
 1/10=7,30=1,38=1,53=2,62=2,63=101/22;
 3/5=16,11=2,16=1,25=1,30=1,71=1,74=-13/1,2,3;
 4//1;
 5/5=2,38=5/2;
 6/7=2,8=2,9=2,10=2,28=1/1;
 7/7=1,29=1,30=1,33=-1/1,2,3,16;
 1/10=7,30=1,53=2,62=2,63=101/22;
 3/5=7,6=11,11=2,16=1,25=1,30=1,71=1,74=-13,82=7/1,2,3;
 4//1;
 5/5=2,38=5/2;
 6/7=2,8=2,9=2,10=2,28=1/1;
 7/7=1,29=1,30=1,33=-1/1,2,3,16;
 1/10=7,30=1,53=2,62=2,63=101/22(-5);
 7/9=1,29=1,44=-1/16;
 1/10=7,30=1,62=2/3;
 99//99;
 Leave Link    1 at Mon May 14 00:27:32 2018, MaxMem= 14763950080 cpu:        43.8
 (Enter /cm/shared/gaussian/g09.e01/intel64-sandybridge/g09/l101.exe)
 ---------------------------------------
 forces on chloride comput - NWATER: 128
 ---------------------------------------
 Symbolic Z-matrix:
 Charge = -1 Multiplicity = 1 in supermolecule
 Charge = -1 Multiplicity = 1 in fragment      1.
 Charge =  0 Multiplicity = 1 in fragment      2.
 Br(Fragment=1)        20.       20.       20. 
 O(Fragment=2)         21.45     17.22     20.39 
 H(Fragment=2)         21.13     18.09     20.18 
 H(Fragment=2)         20.94     16.95     21.16 
 O(Fragment=2)         18.25     18.56     22.32 
 H(Fragment=2)         18.9      18.95     21.72 
 H(Fragment=2)         18.65     18.62     23.18 
 O(Fragment=2)         19.24     22.96     18.89 
 H(Fragment=2)         19.66     22.11     19.04 
 H(Fragment=2)         18.62     23.05     19.61 
 O(Fragment=2)         20.45     19.12     16.67 
 H(Fragment=2)         21.29     19.58     16.67 
 H(Fragment=2)         20.25     18.98     17.6 
 O(Fragment=2)         16.76     21.44     20.68 
 H(Fragment=2)         16.96     22.27     21.12 
 H(Fragment=2)         17.62     21.08     20.46 
 O(Fragment=2)         17.05     18.75     18.11 
 H(Fragment=2)         16.66     17.99     18.54 
 H(Fragment=2)         17.79     18.99     18.67 
 O(Fragment=2)         21.16     20.72     23.47 
 H(Fragment=2)         22.09     20.91     23.62 
 H(Fragment=2)         21.11     20.52     22.54 
 O(Fragment=2)         23.18     21.97     20.43 
 H(Fragment=2)         24.02     21.54     20.25 
 H(Fragment=2)         22.53     21.37     20.07 
 O(Fragment=2)         18.48     21.61     23.55 
 H(Fragment=2)         19.06     22.33     23.79 
 H(Fragment=2)         19.07     20.92     23.23 
 O(Fragment=2)         21.34     23.75     21.48 
 H(Fragment=2)         21.28     24.36     20.74 
 H(Fragment=2)         21.86     23.02     21.15 
 O(Fragment=2)         22.8      20.17     17.36 
 H(Fragment=2)         23.4      20.02     16.63 
 H(Fragment=2)         23.23     19.76     18.11 
 O(Fragment=2)         20.78     15.78     18.16 
 H(Fragment=2)         21.28     15.08     18.58 
 H(Fragment=2)         20.65     16.43     18.86 
 O(Fragment=2)         16.69     17.06     20.78 
 H(Fragment=2)         16.77     16.21     21.22 
 H(Fragment=2)         17.29     17.63     21.26 
 O(Fragment=2)         19.63     21.78     15.74 
 H(Fragment=2)         19.89     21.06     16.32 
 H(Fragment=2)         19.1      22.34     16.29 
 O(Fragment=2)         24.2      19.19     19.73 
 H(Fragment=2)         25.05     19.58     19.94 
 H(Fragment=2)         23.83     18.95     20.58 
 O(Fragment=2)         23.17     22.88     17.1 
 H(Fragment=2)         23.84     23.07     17.76 
 H(Fragment=2)         22.89     21.99     17.3 
 O(Fragment=2)         19.68     18.95     24.76 
 H(Fragment=2)         19.3      19.32     25.56 
 H(Fragment=2)         20.23     19.66     24.42 
 O(Fragment=2)         20.75     24.53     17.25 
 H(Fragment=2)         20.25     23.94     17.82 
 H(Fragment=2)         21.21     23.94     16.64 
 O(Fragment=2)         16.55     20.87     16.31 
 H(Fragment=2)         16.65     21.74     16.7 
 H(Fragment=2)         16.53     20.27     17.05 
 O(Fragment=2)         16.01     20.86     23.29 
 H(Fragment=2)         16.06     20.7      22.35 
 H(Fragment=2)         16.92     20.96     23.57 
 O(Fragment=2)         23.88     16.61     19.18 
 H(Fragment=2)         23.18     16.49     19.83 
 H(Fragment=2)         24.03     17.55     19.17 
 O(Fragment=2)         23.22     22.72     23.36 
 H(Fragment=2)         22.68     23.51     23.33 
 H(Fragment=2)         23.26     22.42     22.45 
 O(Fragment=2)         20.25     23.69     24. 
 H(Fragment=2)         20.32     24.62     24.2 
 H(Fragment=2)         20.37     23.64     23.05 
 O(Fragment=2)         19.67     15.49     21.82 
 H(Fragment=2)         19.57     15.75     22.73 
 H(Fragment=2)         18.8      15.19     21.56 
 O(Fragment=2)         17.15     16.85     16.07 
 H(Fragment=2)         16.2      16.87     16.19 
 H(Fragment=2)         17.47     17.6      16.57 
 O(Fragment=2)         17.8      24.22     21.5 
 H(Fragment=2)         17.1      24.85     21.33 
 H(Fragment=2)         18.05     24.38     22.41 
 O(Fragment=2)         14.21     20.86     19.91 
 H(Fragment=2)         14.32     19.91     19.9 
 H(Fragment=2)         15.09     21.21     20.01 
 O(Fragment=2)         19.35     19.03     14.02 
 H(Fragment=2)         18.45     19.18     13.73 
 H(Fragment=2)         19.36     19.32     14.93 
 O(Fragment=2)         22.58     16.52     16.1 
 H(Fragment=2)         22.19     16.81     15.28 
 H(Fragment=2)         21.83     16.44     16.7 
 O(Fragment=2)         14.41     18.35     21.05 
 H(Fragment=2)         14.2      17.93     21.88 
 H(Fragment=2)         15.13     17.82     20.7 
 O(Fragment=2)         24.87     18.93     22.34 
 H(Fragment=2)         25.77     19.26     22.37 
 H(Fragment=2)         24.48     19.24     23.16 
 O(Fragment=2)         21.56     14.19     20.37 
 H(Fragment=2)         22.42     14.1      20.77 
 H(Fragment=2)         21.04     14.68     21. 
 O(Fragment=2)         19.47     16.31     24.56 
 H(Fragment=2)         19.06     15.92     25.33 
 H(Fragment=2)         19.7      17.2      24.83 
 O(Fragment=2)         18.52     14.67     16.75 
 H(Fragment=2)         17.88     15.36     16.55 
 H(Fragment=2)         19.19     15.11     17.26 
 O(Fragment=2)         16.96     23.89     16.64 
 H(Fragment=2)         16.62     24.69     16.24 
 H(Fragment=2)         16.63     23.91     17.54 
 O(Fragment=2)         25.05     16.02     21.96 
 H(Fragment=2)         25.9      16.28     22.33 
 H(Fragment=2)         24.52     16.82     22. 
 O(Fragment=2)         19.9      22.13     26.37 
 H(Fragment=2)         20.04     22.33     25.44 
 H(Fragment=2)         20.46     22.75     26.83 
 O(Fragment=2)         18.73     26.28     18.88 
 H(Fragment=2)         19.29     25.86     19.53 
 H(Fragment=2)         18.87     25.77     18.08 
 O(Fragment=2)         21.84     25.79     19.71 
 H(Fragment=2)         22.68     25.59     20.11 
 H(Fragment=2)         21.94     25.53     18.79 
 O(Fragment=2)         23.46     19.55     24.94 
 H(Fragment=2)         23.7      20.41     25.28 
 H(Fragment=2)         22.72     19.27     25.48 
 O(Fragment=2)         17.71     20.82     26.4 
 H(Fragment=2)         18.56     21.25     26.41 
 H(Fragment=2)         17.34     21.04     25.54 
 O(Fragment=2)         21.81     21.3      13.66 
 H(Fragment=2)         20.93     21.48     14. 
 H(Fragment=2)         21.8      20.35     13.49 
 O(Fragment=2)         26.23     20.87     19.93 
 H(Fragment=2)         26.96     20.7      20.52 
 H(Fragment=2)         26.2      21.82     19.85 
 O(Fragment=2)         24.58     19.47     15.63 
 H(Fragment=2)         24.75     18.71     15.08 
 H(Fragment=2)         25.38     19.6      16.14 
 O(Fragment=2)         15.17     23.66     23.74 
 H(Fragment=2)         15.6      22.8      23.75 
 H(Fragment=2)         15.12     23.91     24.66 
 O(Fragment=2)         23.31     23.66     14.59 
 H(Fragment=2)         22.93     22.87     14.21 
 H(Fragment=2)         23.28     23.51     15.53 
 O(Fragment=2)         25.89     23.55     20.72 
 H(Fragment=2)         25.12     23.99     21.08 
 H(Fragment=2)         26.51     23.51     21.45 
 O(Fragment=2)         22.95     13.89     17.21 
 H(Fragment=2)         23.28     13.56     16.38 
 H(Fragment=2)         23.05     14.84     17.15 
 O(Fragment=2)         21.67     17.45     13.65 
 H(Fragment=2)         21.66     17.18     12.73 
 H(Fragment=2)         20.97     18.1      13.71 
 O(Fragment=2)         15.02     19.19     25.43 
 H(Fragment=2)         14.25     18.89     24.96 
 H(Fragment=2)         15.44     19.82     24.84 
 O(Fragment=2)         17.05     17.46     26.12 
 H(Fragment=2)         16.97     17.17     25.21 
 H(Fragment=2)         16.4      18.16     26.21 
 O(Fragment=2)         23.2      22.15     26.11 
 H(Fragment=2)         23.35     22.45     25.21 
 H(Fragment=2)         22.74     22.89     26.52 
 O(Fragment=2)         17.18     14.38     22.27 
 H(Fragment=2)         17.74     13.61     22.14 
 H(Fragment=2)         16.54     14.09     22.92 
 O(Fragment=2)         25.38     16.72     16.54 
 H(Fragment=2)         25.49     17.14     17.39 
 H(Fragment=2)         24.47     16.42     16.54 
 O(Fragment=2)         23.94     25.5      21.36 
 H(Fragment=2)         23.99     26.46     21.33 
 H(Fragment=2)         23.46     25.31     22.16 
 O(Fragment=2)         13.97     19.8      15.48 
 H(Fragment=2)         13.38     20.36     15.98 
 H(Fragment=2)         14.84     20.2      15.6 
 O(Fragment=2)         19.29     12.61     21.02 
 H(Fragment=2)         19.99     13.25     20.92 
 H(Fragment=2)         18.85     12.61     20.17 
 O(Fragment=2)         24.51     16.96     25. 
 H(Fragment=2)         25.01     16.99     24.18 
 H(Fragment=2)         24.12     17.83     25.07 
 O(Fragment=2)         20.19     27.06     21.96 
 H(Fragment=2)         20.49     26.79     21.09 
 H(Fragment=2)         20.92     27.57     22.32 
 O(Fragment=2)         12.86     21.13     22.29 
 H(Fragment=2)         13.73     21.09     22.67 
 H(Fragment=2)         12.99     20.97     21.36 
 O(Fragment=2)         26.79     19.58     17.26 
 H(Fragment=2)         26.7      18.93     17.96 
 H(Fragment=2)         26.53     20.41     17.67 
 O(Fragment=2)         18.29     15.75     13.89 
 H(Fragment=2)         18.74     15.03     14.32 
 H(Fragment=2)         17.79     16.18     14.58 
 O(Fragment=2)         25.55     24.51     18.29 
 H(Fragment=2)         25.62     24.19     19.19 
 H(Fragment=2)         25.48     25.46     18.38 
 O(Fragment=2)         17.85     12.98     18.69 
 H(Fragment=2)         17.58     12.14     18.31 
 H(Fragment=2)         18.19     13.48     17.96 
 O(Fragment=2)         16.66     19.86     13.24 
 H(Fragment=2)         16.86     20.71     12.85 
 H(Fragment=2)         16.16     20.06     14.03 
 O(Fragment=2)         26.82     17.12     19.11 
 H(Fragment=2)         27.62     17.19     19.64 
 H(Fragment=2)         26.24     16.56     19.62 
 O(Fragment=2)         15.73     25.73     20.65 
 H(Fragment=2)         15.96     26.66     20.7 
 H(Fragment=2)         15.29     25.64     19.8 
 O(Fragment=2)         17.77     22.78     12.76 
 H(Fragment=2)         16.87     22.76     13.09 
 H(Fragment=2)         18.31     22.65     13.54 
 O(Fragment=2)         22.21     14.83     25.41 
 H(Fragment=2)         23.11     14.52     25.41 
 H(Fragment=2)         22.28     15.79     25.38 
 O(Fragment=2)         25.32     13.95     19.25 
 H(Fragment=2)         24.97     13.57     20.06 
 H(Fragment=2)         25.02     14.86     19.26 
 O(Fragment=2)         12.39     22.99     20.07 
 H(Fragment=2)         12.34     23.43     20.92 
 H(Fragment=2)         13.16     22.42     20.14 
 O(Fragment=2)         24.       13.65     21.63 
 H(Fragment=2)         24.28     13.14     22.39 
 H(Fragment=2)         24.41     14.51     21.76 
 O(Fragment=2)         14.49     17.22     15.84 
 H(Fragment=2)         13.71     16.83     15.46 
 H(Fragment=2)         14.47     18.13     15.55 
 O(Fragment=2)         25.04     21.42     13.82 
 H(Fragment=2)         24.53     22.2      14.04 
 H(Fragment=2)         24.83     20.79     14.52 
 O(Fragment=2)         12.47     21.35     17.19 
 H(Fragment=2)         13.03     21.31     17.97 
 H(Fragment=2)         12.27     22.28     17.09 
 O(Fragment=2)         21.94     26.17     15.04 
 H(Fragment=2)         22.5      26.54     15.72 
 H(Fragment=2)         22.13     25.24     15.05 
 O(Fragment=2)         15.29     13.46     19.41 
 H(Fragment=2)         14.8      13.93     18.74 
 H(Fragment=2)         16.2      13.5      19.1 
 O(Fragment=2)         13.94     15.35     17.78 
 H(Fragment=2)         14.15     16.04     17.15 
 H(Fragment=2)         13.18     15.69     18.26 
 O(Fragment=2)         13.74     14.77     21.52 
 H(Fragment=2)         14.46     14.47     20.97 
 H(Fragment=2)         14.05     15.6      21.88 
 O(Fragment=2)         16.4      26.14     23.44 
 H(Fragment=2)         16.25     26.19     22.5 
 H(Fragment=2)         15.78     25.48     23.74 
 O(Fragment=2)         22.87     25.82     24.08 
 H(Fragment=2)         22.67     26.66     24.49 
 H(Fragment=2)         23.73     25.57     24.44 
 O(Fragment=2)         13.79     16.85     23.24 
 H(Fragment=2)         14.15     16.47     24.03 
 H(Fragment=2)         12.86     16.98     23.44 
 O(Fragment=2)         21.44     12.22     18.49 
 H(Fragment=2)         21.66     12.5      19.38 
 H(Fragment=2)         22.03     12.72     17.93 
 O(Fragment=2)         18.83     26.68     24.49 
 H(Fragment=2)         19.34     26.74     23.68 
 H(Fragment=2)         17.92     26.63     24.21 
 O(Fragment=2)         24.36     17.7      13.5 
 H(Fragment=2)         23.65     17.14     13.8 
 H(Fragment=2)         23.93     18.35     12.94 
 O(Fragment=2)         20.37     12.96     14.92 
 H(Fragment=2)         21.17     12.46     15.1 
 H(Fragment=2)         20.28     13.55     15.67 
 O(Fragment=2)         27.48     22.36     17.71 
 H(Fragment=2)         28.13     22.51     17.02 
 H(Fragment=2)         26.8      23.01     17.54 
 O(Fragment=2)         20.46     28.34     18.33 
 H(Fragment=2)         20.89     28.73     19.09 
 H(Fragment=2)         19.81     27.74     18.71 
 O(Fragment=2)         13.98     24.9      18.79 
 H(Fragment=2)         13.5      25.57     18.31 
 H(Fragment=2)         13.3      24.27     19.06 
 O(Fragment=2)         19.14     17.8      27.87 
 H(Fragment=2)         18.32     17.84     27.38 
 H(Fragment=2)         18.98     18.32     28.65 
 O(Fragment=2)         22.4      18.06     27.31 
 H(Fragment=2)         21.54     17.95     27.7 
 H(Fragment=2)         23.02     17.98     28.04 
 O(Fragment=2)         18.77     27.3      15.48 
 H(Fragment=2)         18.87     26.79     14.67 
 H(Fragment=2)         19.46     26.98     16.06 
 O(Fragment=2)         27.84     20.44     22.3 
 H(Fragment=2)         28.57     20.75     21.78 
 H(Fragment=2)         28.23     20.19     23.14 
 O(Fragment=2)         12.6      24.71     22.1 
 H(Fragment=2)         13.53     24.53     22.26 
 H(Fragment=2)         12.48     25.62     22.38 
 O(Fragment=2)         16.54     12.85     15.89 
 H(Fragment=2)         16.57     12.14     16.54 
 H(Fragment=2)         17.38     13.29     15.99 
 O(Fragment=2)         18.59     28.92     20.69 
 H(Fragment=2)         19.06     28.26     21.19 
 H(Fragment=2)         18.8      29.75     21.13 
 O(Fragment=2)         13.69     23.63     15.48 
 H(Fragment=2)         14.28     24.37     15.59 
 H(Fragment=2)         12.81     24.01     15.53 
 O(Fragment=2)         20.12     13.41     26.19 
 H(Fragment=2)         20.01     12.58     25.74 
 H(Fragment=2)         20.87     13.82     25.76 
 O(Fragment=2)         14.88     15.87     25.42 
 H(Fragment=2)         15.36     16.23     26.17 
 H(Fragment=2)         14.05     15.57     25.79 
 O(Fragment=2)         19.25     16.7      11.24 
 H(Fragment=2)         19.14     16.66     12.19 
 H(Fragment=2)         18.58     17.33     10.95 
 O(Fragment=2)         23.45     21.01     28.76 
 H(Fragment=2)         23.38     21.04     27.8 
 H(Fragment=2)         22.55     21.12     29.07 
 O(Fragment=2)         26.47     14.28     16.08 
 H(Fragment=2)         27.24     14.4      16.64 
 H(Fragment=2)         25.93     15.05     16.23 
 O(Fragment=2)         23.31     28.1      17.61 
 H(Fragment=2)         22.41     27.98     17.9 
 H(Fragment=2)         23.53     29.       17.86 
 O(Fragment=2)         16.68     21.06     28.87 
 H(Fragment=2)         17.2      20.82     28.1 
 H(Fragment=2)         16.03     21.67     28.53 
 O(Fragment=2)         27.26     17.21     23.73 
 H(Fragment=2)         27.57     18.06     24.05 
 H(Fragment=2)         27.86     16.98     23.02 
 O(Fragment=2)         21.7      24.06     27.5 
 H(Fragment=2)         21.12     24.83     27.47 
 H(Fragment=2)         22.12     24.11     28.35 
 O(Fragment=2)         17.67     18.82     10.8 
 H(Fragment=2)         17.77     19.76     10.61 
 H(Fragment=2)         17.51     18.79     11.75 
 O(Fragment=2)         20.49     26.23     26.56 
 H(Fragment=2)         19.96     26.49     25.81 
 H(Fragment=2)         21.33     26.67     26.42 
 O(Fragment=2)         29.14     21.46     19.71 
 H(Fragment=2)         29.89     22.05     19.78 
 H(Fragment=2)         28.48     21.96     19.23 
 O(Fragment=2)         25.47     25.       24.66 
 H(Fragment=2)         26.09     24.27     24.59 
 H(Fragment=2)         26.02     25.78     24.75 
 O(Fragment=2)         23.51     19.55     11.63 
 H(Fragment=2)         23.95     20.26     12.1 
 H(Fragment=2)         23.31     19.93     10.77 
 O(Fragment=2)         25.41     26.41     15.83 
 H(Fragment=2)         25.28     25.51     15.54 
 H(Fragment=2)         25.42     26.37     16.78 
 O(Fragment=2)         22.75     11.28     21.39 
 H(Fragment=2)         23.19     11.95     21.92 
 H(Fragment=2)         22.15     10.85     22. 
 O(Fragment=2)         15.09     22.37     12.95 
 H(Fragment=2)         14.56     22.05     12.22 
 H(Fragment=2)         14.44     22.65     13.6 
 O(Fragment=2)         15.29     13.33     24.02 
 H(Fragment=2)         15.01     14.12     24.47 
 H(Fragment=2)         14.71     12.64     24.37 
 O(Fragment=2)         10.84     18.75     17.78 
 H(Fragment=2)         10.44     18.74     16.92 
 H(Fragment=2)         11.34     19.57     17.81 
 O(Fragment=2)         15.01     26.03     15.64 
 H(Fragment=2)         14.37     26.06     14.93 
 H(Fragment=2)         14.67     26.63     16.3 
 O(Fragment=2)         25.51     27.05     18.51 
 H(Fragment=2)         25.73     27.59     19.27 
 H(Fragment=2)         24.69     27.42     18.18 
 O(Fragment=2)         17.87     25.4      27.68 
 H(Fragment=2)         18.48     25.47     26.94 
 H(Fragment=2)         18.44     25.27     28.44 
 O(Fragment=2)         10.64     19.72     22.7 
 H(Fragment=2)         10.11     19.5      21.94 
 H(Fragment=2)         11.33     20.29     22.36 
 O(Fragment=2)         25.21     23.94     27.3 
 H(Fragment=2)         25.67     24.46     26.64 
 H(Fragment=2)         24.94     23.15     26.83 
 O(Fragment=2)         28.41     20.4      14.92 
 H(Fragment=2)         28.69     19.62     14.43 
 H(Fragment=2)         27.89     20.04     15.64 
 O(Fragment=2)         19.7      10.99     16.88 
 H(Fragment=2)         20.36     11.35     17.46 
 H(Fragment=2)         19.44     10.16     17.29 
 O(Fragment=2)         18.3      10.62     22.58 
 H(Fragment=2)         18.86     11.35     22.3 
 H(Fragment=2)         17.89     10.94     23.39 
 O(Fragment=2)         15.36     14.32     14.08 
 H(Fragment=2)         14.83     14.82     14.7 
 H(Fragment=2)         15.83     13.69     14.61 
 O(Fragment=2)         23.11     22.33     10.9 
 H(Fragment=2)         22.41     22.27     11.55 
 H(Fragment=2)         23.28     23.27     10.81 
 O(Fragment=2)         25.15     15.39     27.14 
 H(Fragment=2)         24.92     14.56     26.74 
 H(Fragment=2)         25.02     16.04     26.45 
 O(Fragment=2)         27.34     22.96     25.07 
 H(Fragment=2)         27.4      22.02     24.9 
 H(Fragment=2)         28.07     23.15     25.66 
 
 NAtoms=    385 NQM=      385 NQMF=       0 NMMI=      0 NMMIF=      0
                NMic=       0 NMicF=      0.
                    Isotopes and Nuclear Properties:
 (Nuclear quadrupole moments (NQMom) in fm**2, nuclear magnetic moments (NMagM)
  in nuclear magnetons)

  Atom         1           2           3           4           5           6           7           8           9          10
 IAtWgt=          79          16           1           1          16           1           1          16           1           1
 AtmWgt=  78.9183361  15.9949146   1.0078250   1.0078250  15.9949146   1.0078250   1.0078250  15.9949146   1.0078250   1.0078250
 NucSpn=           3           0           1           1           0           1           1           0           1           1
 AtZEff=   0.0000000   0.0000000   0.0000000   0.0000000   0.0000000   0.0000000   0.0000000   0.0000000   0.0000000   0.0000000
 NQMom=   31.3000000   0.0000000   0.0000000   0.0000000   0.0000000   0.0000000   0.0000000   0.0000000   0.0000000   0.0000000
 NMagM=    2.1063990   0.0000000   2.7928460   2.7928460   0.0000000   2.7928460   2.7928460   0.0000000   2.7928460   2.7928460
 AtZNuc=  35.0000000   8.0000000   1.0000000   1.0000000   8.0000000   1.0000000   1.0000000   8.0000000   1.0000000   1.0000000

  Atom        11          12          13          14          15          16          17          18          19          20
 IAtWgt=          16           1           1          16           1           1          16           1           1          16
 AtmWgt=  15.9949146   1.0078250   1.0078250  15.9949146   1.0078250   1.0078250  15.9949146   1.0078250   1.0078250  15.9949146
 NucSpn=           0           1           1           0           1           1           0           1           1           0
 AtZEff=   0.0000000   0.0000000   0.0000000   0.0000000   0.0000000   0.0000000   0.0000000   0.0000000   0.0000000   0.0000000
 NQMom=    0.0000000   0.0000000   0.0000000   0.0000000   0.0000000   0.0000000   0.0000000   0.0000000   0.0000000   0.0000000
 NMagM=    0.0000000   2.7928460   2.7928460   0.0000000   2.7928460   2.7928460   0.0000000   2.7928460   2.7928460   0.0000000
 AtZNuc=   8.0000000   1.0000000   1.0000000   8.0000000   1.0000000   1.0000000   8.0000000   1.0000000   1.0000000   8.0000000

  Atom        21          22          23          24          25          26          27          28          29          30
 IAtWgt=           1           1          16           1           1          16           1           1          16           1
 AtmWgt=   1.0078250   1.0078250  15.9949146   1.0078250   1.0078250  15.9949146   1.0078250   1.0078250  15.9949146   1.0078250
 NucSpn=           1           1           0           1           1           0           1           1           0           1
 AtZEff=   0.0000000   0.0000000   0.0000000   0.0000000   0.0000000   0.0000000   0.0000000   0.0000000   0.0000000   0.0000000
 NQMom=    0.0000000   0.0000000   0.0000000   0.0000000   0.0000000   0.0000000   0.0000000   0.0000000   0.0000000   0.0000000
 NMagM=    2.7928460   2.7928460   0.0000000   2.7928460   2.7928460   0.0000000   2.7928460   2.7928460   0.0000000   2.7928460
 AtZNuc=   1.0000000   1.0000000   8.0000000   1.0000000   1.0000000   8.0000000   1.0000000   1.0000000   8.0000000   1.0000000

  Atom        31          32          33          34          35          36          37          38          39          40
 IAtWgt=           1          16           1           1          16           1           1          16           1           1
 AtmWgt=   1.0078250  15.9949146   1.0078250   1.0078250  15.9949146   1.0078250   1.0078250  15.9949146   1.0078250   1.0078250
 NucSpn=           1           0           1           1           0           1           1           0           1           1
 AtZEff=   0.0000000   0.0000000   0.0000000   0.0000000   0.0000000   0.0000000   0.0000000   0.0000000   0.0000000   0.0000000
 NQMom=    0.0000000   0.0000000   0.0000000   0.0000000   0.0000000   0.0000000   0.0000000   0.0000000   0.0000000   0.0000000
 NMagM=    2.7928460   0.0000000   2.7928460   2.7928460   0.0000000   2.7928460   2.7928460   0.0000000   2.7928460   2.7928460
 AtZNuc=   1.0000000   8.0000000   1.0000000   1.0000000   8.0000000   1.0000000   1.0000000   8.0000000   1.0000000   1.0000000

  Atom        41          42          43          44          45          46          47          48          49          50
 IAtWgt=          16           1           1          16           1           1          16           1           1          16
 AtmWgt=  15.9949146   1.0078250   1.0078250  15.9949146   1.0078250   1.0078250  15.9949146   1.0078250   1.0078250  15.9949146
 NucSpn=           0           1           1           0           1           1           0           1           1           0
 AtZEff=   0.0000000   0.0000000   0.0000000   0.0000000   0.0000000   0.0000000   0.0000000   0.0000000   0.0000000   0.0000000
 NQMom=    0.0000000   0.0000000   0.0000000   0.0000000   0.0000000   0.0000000   0.0000000   0.0000000   0.0000000   0.0000000
 NMagM=    0.0000000   2.7928460   2.7928460   0.0000000   2.7928460   2.7928460   0.0000000   2.7928460   2.7928460   0.0000000
 AtZNuc=   8.0000000   1.0000000   1.0000000   8.0000000   1.0000000   1.0000000   8.0000000   1.0000000   1.0000000   8.0000000

  Atom        51          52          53          54          55          56          57          58          59          60
 IAtWgt=           1           1          16           1           1          16           1           1          16           1
 AtmWgt=   1.0078250   1.0078250  15.9949146   1.0078250   1.0078250  15.9949146   1.0078250   1.0078250  15.9949146   1.0078250
 NucSpn=           1           1           0           1           1           0           1           1           0           1
 AtZEff=   0.0000000   0.0000000   0.0000000   0.0000000   0.0000000   0.0000000   0.0000000   0.0000000   0.0000000   0.0000000
 NQMom=    0.0000000   0.0000000   0.0000000   0.0000000   0.0000000   0.0000000   0.0000000   0.0000000   0.0000000   0.0000000
 NMagM=    2.7928460   2.7928460   0.0000000   2.7928460   2.7928460   0.0000000   2.7928460   2.7928460   0.0000000   2.7928460
 AtZNuc=   1.0000000   1.0000000   8.0000000   1.0000000   1.0000000   8.0000000   1.0000000   1.0000000   8.0000000   1.0000000

  Atom        61          62          63          64          65          66          67          68          69          70
 IAtWgt=           1          16           1           1          16           1           1          16           1           1
 AtmWgt=   1.0078250  15.9949146   1.0078250   1.0078250  15.9949146   1.0078250   1.0078250  15.9949146   1.0078250   1.0078250
 NucSpn=           1           0           1           1           0           1           1           0           1           1
 AtZEff=   0.0000000   0.0000000   0.0000000   0.0000000   0.0000000   0.0000000   0.0000000   0.0000000   0.0000000   0.0000000
 NQMom=    0.0000000   0.0000000   0.0000000   0.0000000   0.0000000   0.0000000   0.0000000   0.0000000   0.0000000   0.0000000
 NMagM=    2.7928460   0.0000000   2.7928460   2.7928460   0.0000000   2.7928460   2.7928460   0.0000000   2.7928460   2.7928460
 AtZNuc=   1.0000000   8.0000000   1.0000000   1.0000000   8.0000000   1.0000000   1.0000000   8.0000000   1.0000000   1.0000000

  Atom        71          72          73          74          75          76          77          78          79          80
 IAtWgt=          16           1           1          16           1           1          16           1           1          16
 AtmWgt=  15.9949146   1.0078250   1.0078250  15.9949146   1.0078250   1.0078250  15.9949146   1.0078250   1.0078250  15.9949146
 NucSpn=           0           1           1           0           1           1           0           1           1           0
 AtZEff=   0.0000000   0.0000000   0.0000000   0.0000000   0.0000000   0.0000000   0.0000000   0.0000000   0.0000000   0.0000000
 NQMom=    0.0000000   0.0000000   0.0000000   0.0000000   0.0000000   0.0000000   0.0000000   0.0000000   0.0000000   0.0000000
 NMagM=    0.0000000   2.7928460   2.7928460   0.0000000   2.7928460   2.7928460   0.0000000   2.7928460   2.7928460   0.0000000
 AtZNuc=   8.0000000   1.0000000   1.0000000   8.0000000   1.0000000   1.0000000   8.0000000   1.0000000   1.0000000   8.0000000

  Atom        81          82          83          84          85          86          87          88          89          90
 IAtWgt=           1           1          16           1           1          16           1           1          16           1
 AtmWgt=   1.0078250   1.0078250  15.9949146   1.0078250   1.0078250  15.9949146   1.0078250   1.0078250  15.9949146   1.0078250
 NucSpn=           1           1           0           1           1           0           1           1           0           1
 AtZEff=   0.0000000   0.0000000   0.0000000   0.0000000   0.0000000   0.0000000   0.0000000   0.0000000   0.0000000   0.0000000
 NQMom=    0.0000000   0.0000000   0.0000000   0.0000000   0.0000000   0.0000000   0.0000000   0.0000000   0.0000000   0.0000000
 NMagM=    2.7928460   2.7928460   0.0000000   2.7928460   2.7928460   0.0000000   2.7928460   2.7928460   0.0000000   2.7928460
 AtZNuc=   1.0000000   1.0000000   8.0000000   1.0000000   1.0000000   8.0000000   1.0000000   1.0000000   8.0000000   1.0000000

  Atom        91          92          93          94          95          96          97          98          99         100
 IAtWgt=           1          16           1           1          16           1           1          16           1           1
 AtmWgt=   1.0078250  15.9949146   1.0078250   1.0078250  15.9949146   1.0078250   1.0078250  15.9949146   1.0078250   1.0078250
 NucSpn=           1           0           1           1           0           1           1           0           1           1
 AtZEff=   0.0000000   0.0000000   0.0000000   0.0000000   0.0000000   0.0000000   0.0000000   0.0000000   0.0000000   0.0000000
 NQMom=    0.0000000   0.0000000   0.0000000   0.0000000   0.0000000   0.0000000   0.0000000   0.0000000   0.0000000   0.0000000
 NMagM=    2.7928460   0.0000000   2.7928460   2.7928460   0.0000000   2.7928460   2.7928460   0.0000000   2.7928460   2.7928460
 AtZNuc=   1.0000000   8.0000000   1.0000000   1.0000000   8.0000000   1.0000000   1.0000000   8.0000000   1.0000000   1.0000000

  Atom       101         102         103         104         105         106         107         108         109         110
 IAtWgt=          16           1           1          16           1           1          16           1           1          16
 AtmWgt=  15.9949146   1.0078250   1.0078250  15.9949146   1.0078250   1.0078250  15.9949146   1.0078250   1.0078250  15.9949146
 NucSpn=           0           1           1           0           1           1           0           1           1           0
 AtZEff=   0.0000000   0.0000000   0.0000000   0.0000000   0.0000000   0.0000000   0.0000000   0.0000000   0.0000000   0.0000000
 NQMom=    0.0000000   0.0000000   0.0000000   0.0000000   0.0000000   0.0000000   0.0000000   0.0000000   0.0000000   0.0000000
 NMagM=    0.0000000   2.7928460   2.7928460   0.0000000   2.7928460   2.7928460   0.0000000   2.7928460   2.7928460   0.0000000
 AtZNuc=   8.0000000   1.0000000   1.0000000   8.0000000   1.0000000   1.0000000   8.0000000   1.0000000   1.0000000   8.0000000

  Atom       111         112         113         114         115         116         117         118         119         120
 IAtWgt=           1           1          16           1           1          16           1           1          16           1
 AtmWgt=   1.0078250   1.0078250  15.9949146   1.0078250   1.0078250  15.9949146   1.0078250   1.0078250  15.9949146   1.0078250
 NucSpn=           1           1           0           1           1           0           1           1           0           1
 AtZEff=   0.0000000   0.0000000   0.0000000   0.0000000   0.0000000   0.0000000   0.0000000   0.0000000   0.0000000   0.0000000
 NQMom=    0.0000000   0.0000000   0.0000000   0.0000000   0.0000000   0.0000000   0.0000000   0.0000000   0.0000000   0.0000000
 NMagM=    2.7928460   2.7928460   0.0000000   2.7928460   2.7928460   0.0000000   2.7928460   2.7928460   0.0000000   2.7928460
 AtZNuc=   1.0000000   1.0000000   8.0000000   1.0000000   1.0000000   8.0000000   1.0000000   1.0000000   8.0000000   1.0000000

  Atom       121         122         123         124         125         126         127         128         129         130
 IAtWgt=           1          16           1           1          16           1           1          16           1           1
 AtmWgt=   1.0078250  15.9949146   1.0078250   1.0078250  15.9949146   1.0078250   1.0078250  15.9949146   1.0078250   1.0078250
 NucSpn=           1           0           1           1           0           1           1           0           1           1
 AtZEff=   0.0000000   0.0000000   0.0000000   0.0000000   0.0000000   0.0000000   0.0000000   0.0000000   0.0000000   0.0000000
 NQMom=    0.0000000   0.0000000   0.0000000   0.0000000   0.0000000   0.0000000   0.0000000   0.0000000   0.0000000   0.0000000
 NMagM=    2.7928460   0.0000000   2.7928460   2.7928460   0.0000000   2.7928460   2.7928460   0.0000000   2.7928460   2.7928460
 AtZNuc=   1.0000000   8.0000000   1.0000000   1.0000000   8.0000000   1.0000000   1.0000000   8.0000000   1.0000000   1.0000000

  Atom       131         132         133         134         135         136         137         138         139         140
 IAtWgt=          16           1           1          16           1           1          16           1           1          16
 AtmWgt=  15.9949146   1.0078250   1.0078250  15.9949146   1.0078250   1.0078250  15.9949146   1.0078250   1.0078250  15.9949146
 NucSpn=           0           1           1           0           1           1           0           1           1           0
 AtZEff=   0.0000000   0.0000000   0.0000000   0.0000000   0.0000000   0.0000000   0.0000000   0.0000000   0.0000000   0.0000000
 NQMom=    0.0000000   0.0000000   0.0000000   0.0000000   0.0000000   0.0000000   0.0000000   0.0000000   0.0000000   0.0000000
 NMagM=    0.0000000   2.7928460   2.7928460   0.0000000   2.7928460   2.7928460   0.0000000   2.7928460   2.7928460   0.0000000
 AtZNuc=   8.0000000   1.0000000   1.0000000   8.0000000   1.0000000   1.0000000   8.0000000   1.0000000   1.0000000   8.0000000

  Atom       141         142         143         144         145         146         147         148         149         150
 IAtWgt=           1           1          16           1           1          16           1           1          16           1
 AtmWgt=   1.0078250   1.0078250  15.9949146   1.0078250   1.0078250  15.9949146   1.0078250   1.0078250  15.9949146   1.0078250
 NucSpn=           1           1           0           1           1           0           1           1           0           1
 AtZEff=   0.0000000   0.0000000   0.0000000   0.0000000   0.0000000   0.0000000   0.0000000   0.0000000   0.0000000   0.0000000
 NQMom=    0.0000000   0.0000000   0.0000000   0.0000000   0.0000000   0.0000000   0.0000000   0.0000000   0.0000000   0.0000000
 NMagM=    2.7928460   2.7928460   0.0000000   2.7928460   2.7928460   0.0000000   2.7928460   2.7928460   0.0000000   2.7928460
 AtZNuc=   1.0000000   1.0000000   8.0000000   1.0000000   1.0000000   8.0000000   1.0000000   1.0000000   8.0000000   1.0000000

  Atom       151         152         153         154         155         156         157         158         159         160
 IAtWgt=           1          16           1           1          16           1           1          16           1           1
 AtmWgt=   1.0078250  15.9949146   1.0078250   1.0078250  15.9949146   1.0078250   1.0078250  15.9949146   1.0078250   1.0078250
 NucSpn=           1           0           1           1           0           1           1           0           1           1
 AtZEff=   0.0000000   0.0000000   0.0000000   0.0000000   0.0000000   0.0000000   0.0000000   0.0000000   0.0000000   0.0000000
 NQMom=    0.0000000   0.0000000   0.0000000   0.0000000   0.0000000   0.0000000   0.0000000   0.0000000   0.0000000   0.0000000
 NMagM=    2.7928460   0.0000000   2.7928460   2.7928460   0.0000000   2.7928460   2.7928460   0.0000000   2.7928460   2.7928460
 AtZNuc=   1.0000000   8.0000000   1.0000000   1.0000000   8.0000000   1.0000000   1.0000000   8.0000000   1.0000000   1.0000000

  Atom       161         162         163         164         165         166         167         168         169         170
 IAtWgt=          16           1           1          16           1           1          16           1           1          16
 AtmWgt=  15.9949146   1.0078250   1.0078250  15.9949146   1.0078250   1.0078250  15.9949146   1.0078250   1.0078250  15.9949146
 NucSpn=           0           1           1           0           1           1           0           1           1           0
 AtZEff=   0.0000000   0.0000000   0.0000000   0.0000000   0.0000000   0.0000000   0.0000000   0.0000000   0.0000000   0.0000000
 NQMom=    0.0000000   0.0000000   0.0000000   0.0000000   0.0000000   0.0000000   0.0000000   0.0000000   0.0000000   0.0000000
 NMagM=    0.0000000   2.7928460   2.7928460   0.0000000   2.7928460   2.7928460   0.0000000   2.7928460   2.7928460   0.0000000
 AtZNuc=   8.0000000   1.0000000   1.0000000   8.0000000   1.0000000   1.0000000   8.0000000   1.0000000   1.0000000   8.0000000

  Atom       171         172         173         174         175         176         177         178         179         180
 IAtWgt=           1           1          16           1           1          16           1           1          16           1
 AtmWgt=   1.0078250   1.0078250  15.9949146   1.0078250   1.0078250  15.9949146   1.0078250   1.0078250  15.9949146   1.0078250
 NucSpn=           1           1           0           1           1           0           1           1           0           1
 AtZEff=   0.0000000   0.0000000   0.0000000   0.0000000   0.0000000   0.0000000   0.0000000   0.0000000   0.0000000   0.0000000
 NQMom=    0.0000000   0.0000000   0.0000000   0.0000000   0.0000000   0.0000000   0.0000000   0.0000000   0.0000000   0.0000000
 NMagM=    2.7928460   2.7928460   0.0000000   2.7928460   2.7928460   0.0000000   2.7928460   2.7928460   0.0000000   2.7928460
 AtZNuc=   1.0000000   1.0000000   8.0000000   1.0000000   1.0000000   8.0000000   1.0000000   1.0000000   8.0000000   1.0000000

  Atom       181         182         183         184         185         186         187         188         189         190
 IAtWgt=           1          16           1           1          16           1           1          16           1           1
 AtmWgt=   1.0078250  15.9949146   1.0078250   1.0078250  15.9949146   1.0078250   1.0078250  15.9949146   1.0078250   1.0078250
 NucSpn=           1           0           1           1           0           1           1           0           1           1
 AtZEff=   0.0000000   0.0000000   0.0000000   0.0000000   0.0000000   0.0000000   0.0000000   0.0000000   0.0000000   0.0000000
 NQMom=    0.0000000   0.0000000   0.0000000   0.0000000   0.0000000   0.0000000   0.0000000   0.0000000   0.0000000   0.0000000
 NMagM=    2.7928460   0.0000000   2.7928460   2.7928460   0.0000000   2.7928460   2.7928460   0.0000000   2.7928460   2.7928460
 AtZNuc=   1.0000000   8.0000000   1.0000000   1.0000000   8.0000000   1.0000000   1.0000000   8.0000000   1.0000000   1.0000000

  Atom       191         192         193         194         195         196         197         198         199         200
 IAtWgt=          16           1           1          16           1           1          16           1           1          16
 AtmWgt=  15.9949146   1.0078250   1.0078250  15.9949146   1.0078250   1.0078250  15.9949146   1.0078250   1.0078250  15.9949146
 NucSpn=           0           1           1           0           1           1           0           1           1           0
 AtZEff=   0.0000000   0.0000000   0.0000000   0.0000000   0.0000000   0.0000000   0.0000000   0.0000000   0.0000000   0.0000000
 NQMom=    0.0000000   0.0000000   0.0000000   0.0000000   0.0000000   0.0000000   0.0000000   0.0000000   0.0000000   0.0000000
 NMagM=    0.0000000   2.7928460   2.7928460   0.0000000   2.7928460   2.7928460   0.0000000   2.7928460   2.7928460   0.0000000
 AtZNuc=   8.0000000   1.0000000   1.0000000   8.0000000   1.0000000   1.0000000   8.0000000   1.0000000   1.0000000   8.0000000

  Atom       201         202         203         204         205         206         207         208         209         210
 IAtWgt=           1           1          16           1           1          16           1           1          16           1
 AtmWgt=   1.0078250   1.0078250  15.9949146   1.0078250   1.0078250  15.9949146   1.0078250   1.0078250  15.9949146   1.0078250
 NucSpn=           1           1           0           1           1           0           1           1           0           1
 AtZEff=   0.0000000   0.0000000   0.0000000   0.0000000   0.0000000   0.0000000   0.0000000   0.0000000   0.0000000   0.0000000
 NQMom=    0.0000000   0.0000000   0.0000000   0.0000000   0.0000000   0.0000000   0.0000000   0.0000000   0.0000000   0.0000000
 NMagM=    2.7928460   2.7928460   0.0000000   2.7928460   2.7928460   0.0000000   2.7928460   2.7928460   0.0000000   2.7928460
 AtZNuc=   1.0000000   1.0000000   8.0000000   1.0000000   1.0000000   8.0000000   1.0000000   1.0000000   8.0000000   1.0000000

  Atom       211         212         213         214         215         216         217         218         219         220
 IAtWgt=           1          16           1           1          16           1           1          16           1           1
 AtmWgt=   1.0078250  15.9949146   1.0078250   1.0078250  15.9949146   1.0078250   1.0078250  15.9949146   1.0078250   1.0078250
 NucSpn=           1           0           1           1           0           1           1           0           1           1
 AtZEff=   0.0000000   0.0000000   0.0000000   0.0000000   0.0000000   0.0000000   0.0000000   0.0000000   0.0000000   0.0000000
 NQMom=    0.0000000   0.0000000   0.0000000   0.0000000   0.0000000   0.0000000   0.0000000   0.0000000   0.0000000   0.0000000
 NMagM=    2.7928460   0.0000000   2.7928460   2.7928460   0.0000000   2.7928460   2.7928460   0.0000000   2.7928460   2.7928460
 AtZNuc=   1.0000000   8.0000000   1.0000000   1.0000000   8.0000000   1.0000000   1.0000000   8.0000000   1.0000000   1.0000000

  Atom       221         222         223         224         225         226         227         228         229         230
 IAtWgt=          16           1           1          16           1           1          16           1           1          16
 AtmWgt=  15.9949146   1.0078250   1.0078250  15.9949146   1.0078250   1.0078250  15.9949146   1.0078250   1.0078250  15.9949146
 NucSpn=           0           1           1           0           1           1           0           1           1           0
 AtZEff=   0.0000000   0.0000000   0.0000000   0.0000000   0.0000000   0.0000000   0.0000000   0.0000000   0.0000000   0.0000000
 NQMom=    0.0000000   0.0000000   0.0000000   0.0000000   0.0000000   0.0000000   0.0000000   0.0000000   0.0000000   0.0000000
 NMagM=    0.0000000   2.7928460   2.7928460   0.0000000   2.7928460   2.7928460   0.0000000   2.7928460   2.7928460   0.0000000
 AtZNuc=   8.0000000   1.0000000   1.0000000   8.0000000   1.0000000   1.0000000   8.0000000   1.0000000   1.0000000   8.0000000

  Atom       231         232         233         234         235         236         237         238         239         240
 IAtWgt=           1           1          16           1           1          16           1           1          16           1
 AtmWgt=   1.0078250   1.0078250  15.9949146   1.0078250   1.0078250  15.9949146   1.0078250   1.0078250  15.9949146   1.0078250
 NucSpn=           1           1           0           1           1           0           1           1           0           1
 AtZEff=   0.0000000   0.0000000   0.0000000   0.0000000   0.0000000   0.0000000   0.0000000   0.0000000   0.0000000   0.0000000
 NQMom=    0.0000000   0.0000000   0.0000000   0.0000000   0.0000000   0.0000000   0.0000000   0.0000000   0.0000000   0.0000000
 NMagM=    2.7928460   2.7928460   0.0000000   2.7928460   2.7928460   0.0000000   2.7928460   2.7928460   0.0000000   2.7928460
 AtZNuc=   1.0000000   1.0000000   8.0000000   1.0000000   1.0000000   8.0000000   1.0000000   1.0000000   8.0000000   1.0000000

  Atom       241         242         243         244         245         246         247         248         249         250
 IAtWgt=           1          16           1           1          16           1           1          16           1           1
 AtmWgt=   1.0078250  15.9949146   1.0078250   1.0078250  15.9949146   1.0078250   1.0078250  15.9949146   1.0078250   1.0078250
 NucSpn=           1           0           1           1           0           1           1           0           1           1
 AtZEff=   0.0000000   0.0000000   0.0000000   0.0000000   0.0000000   0.0000000   0.0000000   0.0000000   0.0000000   0.0000000
 NQMom=    0.0000000   0.0000000   0.0000000   0.0000000   0.0000000   0.0000000   0.0000000   0.0000000   0.0000000   0.0000000
 NMagM=    2.7928460   0.0000000   2.7928460   2.7928460   0.0000000   2.7928460   2.7928460   0.0000000   2.7928460   2.7928460
 AtZNuc=   1.0000000   8.0000000   1.0000000   1.0000000   8.0000000   1.0000000   1.0000000   8.0000000   1.0000000   1.0000000

  Atom       251         252         253         254         255         256         257         258         259         260
 IAtWgt=          16           1           1          16           1           1          16           1           1          16
 AtmWgt=  15.9949146   1.0078250   1.0078250  15.9949146   1.0078250   1.0078250  15.9949146   1.0078250   1.0078250  15.9949146
 NucSpn=           0           1           1           0           1           1           0           1           1           0
 AtZEff=   0.0000000   0.0000000   0.0000000   0.0000000   0.0000000   0.0000000   0.0000000   0.0000000   0.0000000   0.0000000
 NQMom=    0.0000000   0.0000000   0.0000000   0.0000000   0.0000000   0.0000000   0.0000000   0.0000000   0.0000000   0.0000000
 NMagM=    0.0000000   2.7928460   2.7928460   0.0000000   2.7928460   2.7928460   0.0000000   2.7928460   2.7928460   0.0000000
 AtZNuc=   8.0000000   1.0000000   1.0000000   8.0000000   1.0000000   1.0000000   8.0000000   1.0000000   1.0000000   8.0000000

  Atom       261         262         263         264         265         266         267         268         269         270
 IAtWgt=           1           1          16           1           1          16           1           1          16           1
 AtmWgt=   1.0078250   1.0078250  15.9949146   1.0078250   1.0078250  15.9949146   1.0078250   1.0078250  15.9949146   1.0078250
 NucSpn=           1           1           0           1           1           0           1           1           0           1
 AtZEff=   0.0000000   0.0000000   0.0000000   0.0000000   0.0000000   0.0000000   0.0000000   0.0000000   0.0000000   0.0000000
 NQMom=    0.0000000   0.0000000   0.0000000   0.0000000   0.0000000   0.0000000   0.0000000   0.0000000   0.0000000   0.0000000
 NMagM=    2.7928460   2.7928460   0.0000000   2.7928460   2.7928460   0.0000000   2.7928460   2.7928460   0.0000000   2.7928460
 AtZNuc=   1.0000000   1.0000000   8.0000000   1.0000000   1.0000000   8.0000000   1.0000000   1.0000000   8.0000000   1.0000000

  Atom       271         272         273         274         275         276         277         278         279         280
 IAtWgt=           1          16           1           1          16           1           1          16           1           1
 AtmWgt=   1.0078250  15.9949146   1.0078250   1.0078250  15.9949146   1.0078250   1.0078250  15.9949146   1.0078250   1.0078250
 NucSpn=           1           0           1           1           0           1           1           0           1           1
 AtZEff=   0.0000000   0.0000000   0.0000000   0.0000000   0.0000000   0.0000000   0.0000000   0.0000000   0.0000000   0.0000000
 NQMom=    0.0000000   0.0000000   0.0000000   0.0000000   0.0000000   0.0000000   0.0000000   0.0000000   0.0000000   0.0000000
 NMagM=    2.7928460   0.0000000   2.7928460   2.7928460   0.0000000   2.7928460   2.7928460   0.0000000   2.7928460   2.7928460
 AtZNuc=   1.0000000   8.0000000   1.0000000   1.0000000   8.0000000   1.0000000   1.0000000   8.0000000   1.0000000   1.0000000

  Atom       281         282         283         284         285         286         287         288         289         290
 IAtWgt=          16           1           1          16           1           1          16           1           1          16
 AtmWgt=  15.9949146   1.0078250   1.0078250  15.9949146   1.0078250   1.0078250  15.9949146   1.0078250   1.0078250  15.9949146
 NucSpn=           0           1           1           0           1           1           0           1           1           0
 AtZEff=   0.0000000   0.0000000   0.0000000   0.0000000   0.0000000   0.0000000   0.0000000   0.0000000   0.0000000   0.0000000
 NQMom=    0.0000000   0.0000000   0.0000000   0.0000000   0.0000000   0.0000000   0.0000000   0.0000000   0.0000000   0.0000000
 NMagM=    0.0000000   2.7928460   2.7928460   0.0000000   2.7928460   2.7928460   0.0000000   2.7928460   2.7928460   0.0000000
 AtZNuc=   8.0000000   1.0000000   1.0000000   8.0000000   1.0000000   1.0000000   8.0000000   1.0000000   1.0000000   8.0000000

  Atom       291         292         293         294         295         296         297         298         299         300
 IAtWgt=           1           1          16           1           1          16           1           1          16           1
 AtmWgt=   1.0078250   1.0078250  15.9949146   1.0078250   1.0078250  15.9949146   1.0078250   1.0078250  15.9949146   1.0078250
 NucSpn=           1           1           0           1           1           0           1           1           0           1
 AtZEff=   0.0000000   0.0000000   0.0000000   0.0000000   0.0000000   0.0000000   0.0000000   0.0000000   0.0000000   0.0000000
 NQMom=    0.0000000   0.0000000   0.0000000   0.0000000   0.0000000   0.0000000   0.0000000   0.0000000   0.0000000   0.0000000
 NMagM=    2.7928460   2.7928460   0.0000000   2.7928460   2.7928460   0.0000000   2.7928460   2.7928460   0.0000000   2.7928460
 AtZNuc=   1.0000000   1.0000000   8.0000000   1.0000000   1.0000000   8.0000000   1.0000000   1.0000000   8.0000000   1.0000000

  Atom       301         302         303         304         305         306         307         308         309         310
 IAtWgt=           1          16           1           1          16           1           1          16           1           1
 AtmWgt=   1.0078250  15.9949146   1.0078250   1.0078250  15.9949146   1.0078250   1.0078250  15.9949146   1.0078250   1.0078250
 NucSpn=           1           0           1           1           0           1           1           0           1           1
 AtZEff=   0.0000000   0.0000000   0.0000000   0.0000000   0.0000000   0.0000000   0.0000000   0.0000000   0.0000000   0.0000000
 NQMom=    0.0000000   0.0000000   0.0000000   0.0000000   0.0000000   0.0000000   0.0000000   0.0000000   0.0000000   0.0000000
 NMagM=    2.7928460   0.0000000   2.7928460   2.7928460   0.0000000   2.7928460   2.7928460   0.0000000   2.7928460   2.7928460
 AtZNuc=   1.0000000   8.0000000   1.0000000   1.0000000   8.0000000   1.0000000   1.0000000   8.0000000   1.0000000   1.0000000

  Atom       311         312         313         314         315         316         317         318         319         320
 IAtWgt=          16           1           1          16           1           1          16           1           1          16
 AtmWgt=  15.9949146   1.0078250   1.0078250  15.9949146   1.0078250   1.0078250  15.9949146   1.0078250   1.0078250  15.9949146
 NucSpn=           0           1           1           0           1           1           0           1           1           0
 AtZEff=   0.0000000   0.0000000   0.0000000   0.0000000   0.0000000   0.0000000   0.0000000   0.0000000   0.0000000   0.0000000
 NQMom=    0.0000000   0.0000000   0.0000000   0.0000000   0.0000000   0.0000000   0.0000000   0.0000000   0.0000000   0.0000000
 NMagM=    0.0000000   2.7928460   2.7928460   0.0000000   2.7928460   2.7928460   0.0000000   2.7928460   2.7928460   0.0000000
 AtZNuc=   8.0000000   1.0000000   1.0000000   8.0000000   1.0000000   1.0000000   8.0000000   1.0000000   1.0000000   8.0000000

  Atom       321         322         323         324         325         326         327         328         329         330
 IAtWgt=           1           1          16           1           1          16           1           1          16           1
 AtmWgt=   1.0078250   1.0078250  15.9949146   1.0078250   1.0078250  15.9949146   1.0078250   1.0078250  15.9949146   1.0078250
 NucSpn=           1           1           0           1           1           0           1           1           0           1
 AtZEff=   0.0000000   0.0000000   0.0000000   0.0000000   0.0000000   0.0000000   0.0000000   0.0000000   0.0000000   0.0000000
 NQMom=    0.0000000   0.0000000   0.0000000   0.0000000   0.0000000   0.0000000   0.0000000   0.0000000   0.0000000   0.0000000
 NMagM=    2.7928460   2.7928460   0.0000000   2.7928460   2.7928460   0.0000000   2.7928460   2.7928460   0.0000000   2.7928460
 AtZNuc=   1.0000000   1.0000000   8.0000000   1.0000000   1.0000000   8.0000000   1.0000000   1.0000000   8.0000000   1.0000000

  Atom       331         332         333         334         335         336         337         338         339         340
 IAtWgt=           1          16           1           1          16           1           1          16           1           1
 AtmWgt=   1.0078250  15.9949146   1.0078250   1.0078250  15.9949146   1.0078250   1.0078250  15.9949146   1.0078250   1.0078250
 NucSpn=           1           0           1           1           0           1           1           0           1           1
 AtZEff=   0.0000000   0.0000000   0.0000000   0.0000000   0.0000000   0.0000000   0.0000000   0.0000000   0.0000000   0.0000000
 NQMom=    0.0000000   0.0000000   0.0000000   0.0000000   0.0000000   0.0000000   0.0000000   0.0000000   0.0000000   0.0000000
 NMagM=    2.7928460   0.0000000   2.7928460   2.7928460   0.0000000   2.7928460   2.7928460   0.0000000   2.7928460   2.7928460
 AtZNuc=   1.0000000   8.0000000   1.0000000   1.0000000   8.0000000   1.0000000   1.0000000   8.0000000   1.0000000   1.0000000

  Atom       341         342         343         344         345         346         347         348         349         350
 IAtWgt=          16           1           1          16           1           1          16           1           1          16
 AtmWgt=  15.9949146   1.0078250   1.0078250  15.9949146   1.0078250   1.0078250  15.9949146   1.0078250   1.0078250  15.9949146
 NucSpn=           0           1           1           0           1           1           0           1           1           0
 AtZEff=   0.0000000   0.0000000   0.0000000   0.0000000   0.0000000   0.0000000   0.0000000   0.0000000   0.0000000   0.0000000
 NQMom=    0.0000000   0.0000000   0.0000000   0.0000000   0.0000000   0.0000000   0.0000000   0.0000000   0.0000000   0.0000000
 NMagM=    0.0000000   2.7928460   2.7928460   0.0000000   2.7928460   2.7928460   0.0000000   2.7928460   2.7928460   0.0000000
 AtZNuc=   8.0000000   1.0000000   1.0000000   8.0000000   1.0000000   1.0000000   8.0000000   1.0000000   1.0000000   8.0000000

  Atom       351         352         353         354         355         356         357         358         359         360
 IAtWgt=           1           1          16           1           1          16           1           1          16           1
 AtmWgt=   1.0078250   1.0078250  15.9949146   1.0078250   1.0078250  15.9949146   1.0078250   1.0078250  15.9949146   1.0078250
 NucSpn=           1           1           0           1           1           0           1           1           0           1
 AtZEff=   0.0000000   0.0000000   0.0000000   0.0000000   0.0000000   0.0000000   0.0000000   0.0000000   0.0000000   0.0000000
 NQMom=    0.0000000   0.0000000   0.0000000   0.0000000   0.0000000   0.0000000   0.0000000   0.0000000   0.0000000   0.0000000
 NMagM=    2.7928460   2.7928460   0.0000000   2.7928460   2.7928460   0.0000000   2.7928460   2.7928460   0.0000000   2.7928460
 AtZNuc=   1.0000000   1.0000000   8.0000000   1.0000000   1.0000000   8.0000000   1.0000000   1.0000000   8.0000000   1.0000000

  Atom       361         362         363         364         365         366         367         368         369         370
 IAtWgt=           1          16           1           1          16           1           1          16           1           1
 AtmWgt=   1.0078250  15.9949146   1.0078250   1.0078250  15.9949146   1.0078250   1.0078250  15.9949146   1.0078250   1.0078250
 NucSpn=           1           0           1           1           0           1           1           0           1           1
 AtZEff=   0.0000000   0.0000000   0.0000000   0.0000000   0.0000000   0.0000000   0.0000000   0.0000000   0.0000000   0.0000000
 NQMom=    0.0000000   0.0000000   0.0000000   0.0000000   0.0000000   0.0000000   0.0000000   0.0000000   0.0000000   0.0000000
 NMagM=    2.7928460   0.0000000   2.7928460   2.7928460   0.0000000   2.7928460   2.7928460   0.0000000   2.7928460   2.7928460
 AtZNuc=   1.0000000   8.0000000   1.0000000   1.0000000   8.0000000   1.0000000   1.0000000   8.0000000   1.0000000   1.0000000

  Atom       371         372         373         374         375         376         377         378         379         380
 IAtWgt=          16           1           1          16           1           1          16           1           1          16
 AtmWgt=  15.9949146   1.0078250   1.0078250  15.9949146   1.0078250   1.0078250  15.9949146   1.0078250   1.0078250  15.9949146
 NucSpn=           0           1           1           0           1           1           0           1           1           0
 AtZEff=   0.0000000   0.0000000   0.0000000   0.0000000   0.0000000   0.0000000   0.0000000   0.0000000   0.0000000   0.0000000
 NQMom=    0.0000000   0.0000000   0.0000000   0.0000000   0.0000000   0.0000000   0.0000000   0.0000000   0.0000000   0.0000000
 NMagM=    0.0000000   2.7928460   2.7928460   0.0000000   2.7928460   2.7928460   0.0000000   2.7928460   2.7928460   0.0000000
 AtZNuc=   8.0000000   1.0000000   1.0000000   8.0000000   1.0000000   1.0000000   8.0000000   1.0000000   1.0000000   8.0000000

  Atom       381         382         383         384         385
 IAtWgt=           1           1          16           1           1
 AtmWgt=   1.0078250   1.0078250  15.9949146   1.0078250   1.0078250
 NucSpn=           1           1           0           1           1
 AtZEff=   0.0000000   0.0000000   0.0000000   0.0000000   0.0000000
 NQMom=    0.0000000   0.0000000   0.0000000   0.0000000   0.0000000
 NMagM=    2.7928460   2.7928460   0.0000000   2.7928460   2.7928460
 AtZNuc=   1.0000000   1.0000000   8.0000000   1.0000000   1.0000000
 Leave Link  101 at Mon May 14 00:27:34 2018, MaxMem= 14763950080 cpu:        90.0
 (Enter /cm/shared/gaussian/g09.e01/intel64-sandybridge/g09/l103.exe)

 GradGradGradGradGradGradGradGradGradGradGradGradGradGradGradGradGradGrad
 Berny optimization.
 Initialization pass.
 Trust Radius=3.00D-01 FncErr=1.00D-07 GrdErr=1.00D-07
 Number of steps in this run=      2 maximum allowed number of steps=      2.
 GradGradGradGradGradGradGradGradGradGradGradGradGradGradGradGradGradGrad

 Leave Link  103 at Mon May 14 00:27:34 2018, MaxMem= 14763950080 cpu:         3.7
 (Enter /cm/shared/gaussian/g09.e01/intel64-sandybridge/g09/l202.exe)
 Symmetry turned off by external request.
 Stoichiometry    BrH256O128(1-)
 Framework group  C1[X(BrH256O128)]
 Deg. of freedom  1149
 Full point group                 C1      NOp   1
                          Input orientation:                          
 ---------------------------------------------------------------------
 Center     Atomic      Atomic             Coordinates (Angstroms)
 Number     Number       Type             X           Y           Z
 ---------------------------------------------------------------------
      1         35           0       20.000000   20.000000   20.000000
      2          8           0       21.450000   17.220000   20.390000
      3          1           0       21.130000   18.090000   20.180000
      4          1           0       20.940000   16.950000   21.160000
      5          8           0       18.250000   18.560000   22.320000
      6          1           0       18.900000   18.950000   21.720000
      7          1           0       18.650000   18.620000   23.180000
      8          8           0       19.240000   22.960000   18.890000
      9          1           0       19.660000   22.110000   19.040000
     10          1           0       18.620000   23.050000   19.610000
     11          8           0       20.450000   19.120000   16.670000
     12          1           0       21.290000   19.580000   16.670000
     13          1           0       20.250000   18.980000   17.600000
     14          8           0       16.760000   21.440000   20.680000
     15          1           0       16.960000   22.270000   21.120000
     16          1           0       17.620000   21.080000   20.460000
     17          8           0       17.050000   18.750000   18.110000
     18          1           0       16.660000   17.990000   18.540000
     19          1           0       17.790000   18.990000   18.670000
     20          8           0       21.160000   20.720000   23.470000
     21          1           0       22.090000   20.910000   23.620000
     22          1           0       21.110000   20.520000   22.540000
     23          8           0       23.180000   21.970000   20.430000
     24          1           0       24.020000   21.540000   20.250000
     25          1           0       22.530000   21.370000   20.070000
     26          8           0       18.480000   21.610000   23.550000
     27          1           0       19.060000   22.330000   23.790000
     28          1           0       19.070000   20.920000   23.230000
     29          8           0       21.340000   23.750000   21.480000
     30          1           0       21.280000   24.360000   20.740000
     31          1           0       21.860000   23.020000   21.150000
     32          8           0       22.800000   20.170000   17.360000
     33          1           0       23.400000   20.020000   16.630000
     34          1           0       23.230000   19.760000   18.110000
     35          8           0       20.780000   15.780000   18.160000
     36          1           0       21.280000   15.080000   18.580000
     37          1           0       20.650000   16.430000   18.860000
     38          8           0       16.690000   17.060000   20.780000
     39          1           0       16.770000   16.210000   21.220000
     40          1           0       17.290000   17.630000   21.260000
     41          8           0       19.630000   21.780000   15.740000
     42          1           0       19.890000   21.060000   16.320000
     43          1           0       19.100000   22.340000   16.290000
     44          8           0       24.200000   19.190000   19.730000
     45          1           0       25.050000   19.580000   19.940000
     46          1           0       23.830000   18.950000   20.580000
     47          8           0       23.170000   22.880000   17.100000
     48          1           0       23.840000   23.070000   17.760000
     49          1           0       22.890000   21.990000   17.300000
     50          8           0       19.680000   18.950000   24.760000
     51          1           0       19.300000   19.320000   25.560000
     52          1           0       20.230000   19.660000   24.420000
     53          8           0       20.750000   24.530000   17.250000
     54          1           0       20.250000   23.940000   17.820000
     55          1           0       21.210000   23.940000   16.640000
     56          8           0       16.550000   20.870000   16.310000
     57          1           0       16.650000   21.740000   16.700000
     58          1           0       16.530000   20.270000   17.050000
     59          8           0       16.010000   20.860000   23.290000
     60          1           0       16.060000   20.700000   22.350000
     61          1           0       16.920000   20.960000   23.570000
     62          8           0       23.880000   16.610000   19.180000
     63          1           0       23.180000   16.490000   19.830000
     64          1           0       24.030000   17.550000   19.170000
     65          8           0       23.220000   22.720000   23.360000
     66          1           0       22.680000   23.510000   23.330000
     67          1           0       23.260000   22.420000   22.450000
     68          8           0       20.250000   23.690000   24.000000
     69          1           0       20.320000   24.620000   24.200000
     70          1           0       20.370000   23.640000   23.050000
     71          8           0       19.670000   15.490000   21.820000
     72          1           0       19.570000   15.750000   22.730000
     73          1           0       18.800000   15.190000   21.560000
     74          8           0       17.150000   16.850000   16.070000
     75          1           0       16.200000   16.870000   16.190000
     76          1           0       17.470000   17.600000   16.570000
     77          8           0       17.800000   24.220000   21.500000
     78          1           0       17.100000   24.850000   21.330000
     79          1           0       18.050000   24.380000   22.410000
     80          8           0       14.210000   20.860000   19.910000
     81          1           0       14.320000   19.910000   19.900000
     82          1           0       15.090000   21.210000   20.010000
     83          8           0       19.350000   19.030000   14.020000
     84          1           0       18.450000   19.180000   13.730000
     85          1           0       19.360000   19.320000   14.930000
     86          8           0       22.580000   16.520000   16.100000
     87          1           0       22.190000   16.810000   15.280000
     88          1           0       21.830000   16.440000   16.700000
     89          8           0       14.410000   18.350000   21.050000
     90          1           0       14.200000   17.930000   21.880000
     91          1           0       15.130000   17.820000   20.700000
     92          8           0       24.870000   18.930000   22.340000
     93          1           0       25.770000   19.260000   22.370000
     94          1           0       24.480000   19.240000   23.160000
     95          8           0       21.560000   14.190000   20.370000
     96          1           0       22.420000   14.100000   20.770000
     97          1           0       21.040000   14.680000   21.000000
     98          8           0       19.470000   16.310000   24.560000
     99          1           0       19.060000   15.920000   25.330000
    100          1           0       19.700000   17.200000   24.830000
    101          8           0       18.520000   14.670000   16.750000
    102          1           0       17.880000   15.360000   16.550000
    103          1           0       19.190000   15.110000   17.260000
    104          8           0       16.960000   23.890000   16.640000
    105          1           0       16.620000   24.690000   16.240000
    106          1           0       16.630000   23.910000   17.540000
    107          8           0       25.050000   16.020000   21.960000
    108          1           0       25.900000   16.280000   22.330000
    109          1           0       24.520000   16.820000   22.000000
    110          8           0       19.900000   22.130000   26.370000
    111          1           0       20.040000   22.330000   25.440000
    112          1           0       20.460000   22.750000   26.830000
    113          8           0       18.730000   26.280000   18.880000
    114          1           0       19.290000   25.860000   19.530000
    115          1           0       18.870000   25.770000   18.080000
    116          8           0       21.840000   25.790000   19.710000
    117          1           0       22.680000   25.590000   20.110000
    118          1           0       21.940000   25.530000   18.790000
    119          8           0       23.460000   19.550000   24.940000
    120          1           0       23.700000   20.410000   25.280000
    121          1           0       22.720000   19.270000   25.480000
    122          8           0       17.710000   20.820000   26.400000
    123          1           0       18.560000   21.250000   26.410000
    124          1           0       17.340000   21.040000   25.540000
    125          8           0       21.810000   21.300000   13.660000
    126          1           0       20.930000   21.480000   14.000000
    127          1           0       21.800000   20.350000   13.490000
    128          8           0       26.230000   20.870000   19.930000
    129          1           0       26.960000   20.700000   20.520000
    130          1           0       26.200000   21.820000   19.850000
    131          8           0       24.580000   19.470000   15.630000
    132          1           0       24.750000   18.710000   15.080000
    133          1           0       25.380000   19.600000   16.140000
    134          8           0       15.170000   23.660000   23.740000
    135          1           0       15.600000   22.800000   23.750000
    136          1           0       15.120000   23.910000   24.660000
    137          8           0       23.310000   23.660000   14.590000
    138          1           0       22.930000   22.870000   14.210000
    139          1           0       23.280000   23.510000   15.530000
    140          8           0       25.890000   23.550000   20.720000
    141          1           0       25.120000   23.990000   21.080000
    142          1           0       26.510000   23.510000   21.450000
    143          8           0       22.950000   13.890000   17.210000
    144          1           0       23.280000   13.560000   16.380000
    145          1           0       23.050000   14.840000   17.150000
    146          8           0       21.670000   17.450000   13.650000
    147          1           0       21.660000   17.180000   12.730000
    148          1           0       20.970000   18.100000   13.710000
    149          8           0       15.020000   19.190000   25.430000
    150          1           0       14.250000   18.890000   24.960000
    151          1           0       15.440000   19.820000   24.840000
    152          8           0       17.050000   17.460000   26.120000
    153          1           0       16.970000   17.170000   25.210000
    154          1           0       16.400000   18.160000   26.210000
    155          8           0       23.200000   22.150000   26.110000
    156          1           0       23.350000   22.450000   25.210000
    157          1           0       22.740000   22.890000   26.520000
    158          8           0       17.180000   14.380000   22.270000
    159          1           0       17.740000   13.610000   22.140000
    160          1           0       16.540000   14.090000   22.920000
    161          8           0       25.380000   16.720000   16.540000
    162          1           0       25.490000   17.140000   17.390000
    163          1           0       24.470000   16.420000   16.540000
    164          8           0       23.940000   25.500000   21.360000
    165          1           0       23.990000   26.460000   21.330000
    166          1           0       23.460000   25.310000   22.160000
    167          8           0       13.970000   19.800000   15.480000
    168          1           0       13.380000   20.360000   15.980000
    169          1           0       14.840000   20.200000   15.600000
    170          8           0       19.290000   12.610000   21.020000
    171          1           0       19.990000   13.250000   20.920000
    172          1           0       18.850000   12.610000   20.170000
    173          8           0       24.510000   16.960000   25.000000
    174          1           0       25.010000   16.990000   24.180000
    175          1           0       24.120000   17.830000   25.070000
    176          8           0       20.190000   27.060000   21.960000
    177          1           0       20.490000   26.790000   21.090000
    178          1           0       20.920000   27.570000   22.320000
    179          8           0       12.860000   21.130000   22.290000
    180          1           0       13.730000   21.090000   22.670000
    181          1           0       12.990000   20.970000   21.360000
    182          8           0       26.790000   19.580000   17.260000
    183          1           0       26.700000   18.930000   17.960000
    184          1           0       26.530000   20.410000   17.670000
    185          8           0       18.290000   15.750000   13.890000
    186          1           0       18.740000   15.030000   14.320000
    187          1           0       17.790000   16.180000   14.580000
    188          8           0       25.550000   24.510000   18.290000
    189          1           0       25.620000   24.190000   19.190000
    190          1           0       25.480000   25.460000   18.380000
    191          8           0       17.850000   12.980000   18.690000
    192          1           0       17.580000   12.140000   18.310000
    193          1           0       18.190000   13.480000   17.960000
    194          8           0       16.660000   19.860000   13.240000
    195          1           0       16.860000   20.710000   12.850000
    196          1           0       16.160000   20.060000   14.030000
    197          8           0       26.820000   17.120000   19.110000
    198          1           0       27.620000   17.190000   19.640000
    199          1           0       26.240000   16.560000   19.620000
    200          8           0       15.730000   25.730000   20.650000
    201          1           0       15.960000   26.660000   20.700000
    202          1           0       15.290000   25.640000   19.800000
    203          8           0       17.770000   22.780000   12.760000
    204          1           0       16.870000   22.760000   13.090000
    205          1           0       18.310000   22.650000   13.540000
    206          8           0       22.210000   14.830000   25.410000
    207          1           0       23.110000   14.520000   25.410000
[...]
   Z335      29.91436  -0.01206   0.00000  -0.01343  -0.01311  29.90125
   X336      47.77228  -0.00406   0.00000  -0.00565  -0.00532  47.76696
   Y336      48.20691  -0.01100   0.00000  -0.00802  -0.00781  48.19910
   Z336      29.36634  -0.00319   0.00000  -0.00395  -0.00366  29.36268
   X337      48.03684   0.00599   0.00000   0.01032   0.01063  48.04747
   Y337      49.83208  -0.00260   0.00000  -0.00243  -0.00227  49.82981
   Z337      31.70960   0.00335   0.00000  -0.00410  -0.00379  31.70582
   X338      42.99127   0.00549   0.00000   0.00425   0.00413  42.99540
   Y338      21.31611  -0.00358   0.00000  -0.01111  -0.01103  21.30509
   Z338      40.42124  -0.00350   0.00000  -0.00258  -0.00278  40.41846
   X339      43.82275  -0.00838   0.00000  -0.01255  -0.01268  43.81007
   Y339      22.58223  -0.00278   0.00000  -0.00234  -0.00228  22.57995
   Z339      41.42280  -0.00427   0.00000  -0.00599  -0.00616  41.41664
   X340      41.85743  -0.00732   0.00000  -0.00897  -0.00912  41.84831
   Y340      20.50353  -0.00218   0.00000  -0.00149  -0.00141  20.50212
   Z340      41.57397   0.00305   0.00000   0.00106   0.00082  41.57480
   X341      28.51597   0.00198   0.00000  -0.00374  -0.00338  28.51259
   Y341      42.27317   0.00378   0.00000   0.00533   0.00579  42.27897
   Z341      24.47195   0.00253   0.00000   0.00371   0.00358  24.47553
   X342      27.51441  -0.00123   0.00000   0.00063   0.00101  27.51542
   Y342      41.66846  -0.00465   0.00000  -0.00566  -0.00516  41.66330
   Z342      23.09245  -0.00615   0.00000  -0.00441  -0.00457  23.08789
   X343      27.28765  -0.00497   0.00000  -0.00524  -0.00490  27.28274
   Y343      42.80230   0.00171   0.00000   0.00043   0.00089  42.80319
   Z343      25.70028   0.01133   0.00000   0.01449   0.01435  25.71462
   X344      28.89391   0.00406   0.00000   0.00683   0.00666  28.90057
   Y344      25.19005  -0.01624   0.00000  -0.00877  -0.00862  25.18143
   Z344      45.39122   0.00010   0.00000   0.00620   0.00582  45.39704
   X345      28.36479  -0.00254   0.00000   0.00056   0.00039  28.36518
   Y345      26.68293   0.01487   0.00000   0.01063   0.01077  26.69370
   Z345      46.24160   0.00805   0.00000   0.00603   0.00566  46.24726
   X346      27.79787   0.00298   0.00000   0.00093   0.00074  27.79861
   Y346      23.88614   0.00209   0.00000  -0.00096  -0.00082  23.88532
   Z346      46.05263  -0.00662   0.00000  -0.00840  -0.00882  46.04380
   X347      20.48463   0.00375   0.00000   0.00221   0.00234  20.48698
   Y347      35.43236  -0.00810   0.00000  -0.00586  -0.00545  35.42691
   Z347      33.59933   0.01845   0.00000   0.01233   0.01196  33.61129
   X348      19.72874  -0.00443   0.00000  -0.00074  -0.00057  19.72817
   Y348      35.41347   0.00300   0.00000   0.00282   0.00326  35.41673
   Z348      31.97417  -0.01499   0.00000  -0.00762  -0.00801  31.96615
   X349      21.42949   0.00158   0.00000  -0.00034  -0.00019  21.42930
   Y349      36.98194   0.00702   0.00000   0.00520   0.00560  36.98754
   Z349      33.65602  -0.00489   0.00000  -0.00605  -0.00639  33.64963
   X350      28.36479   0.00899   0.00000   0.00285   0.00319  28.36798
   Y350      49.18957  -0.00919   0.00000  -0.00812  -0.00773  49.18184
   Z350      29.55532   0.00001   0.00000   0.00056   0.00054  29.55585
   X351      27.15536  -0.00358   0.00000   0.00090   0.00127  27.15663
   Y351      49.24626   0.00617   0.00000   0.00963   0.01006  49.25632
   Z351      28.21361  -0.01074   0.00000  -0.01125  -0.01130  28.20232
   X352      27.72228  -0.00185   0.00000   0.00139   0.00173  27.72401
   Y352      50.32341   0.00821   0.00000   0.00637   0.00675  50.33016
   Z352      30.80254   0.00691   0.00000   0.00418   0.00415  30.80669
   X353      48.20691   0.02153   0.00000   0.00876   0.00903  48.21594
   Y353      51.11709  -0.00043   0.00000   0.00722   0.00733  51.12442
   Z353      34.97883   0.01750   0.00000   0.01366   0.01400  34.99283
   X354      48.62265   0.00546   0.00000   0.00923   0.00948  48.63214
   Y354      52.13754   0.00175   0.00000   0.00655   0.00663  52.14418
   Z354      36.41502   0.00238   0.00000   0.00759   0.00796  36.42298
   X355      46.65734  -0.02975   0.00000  -0.02355  -0.02326  46.63408
   Y355      51.81629   0.00962   0.00000   0.00489   0.00503  51.82132
   Z355      34.35522  -0.01122   0.00000  -0.00725  -0.00692  34.34830
   X356      33.76941  -0.00865   0.00000  -0.00749  -0.00755  33.76185
   Y356      47.99904  -0.00002   0.00000  -0.00082  -0.00083  47.99821
   Z356      52.30762  -0.00345   0.00000  -0.00232  -0.00228  52.30534
   X357      34.92214   0.00224   0.00000   0.00156   0.00152  34.92366
   Y357      48.13132  -0.00093   0.00000  -0.00155  -0.00155  48.12977
   Z357      50.90922   0.00110   0.00000   0.00244   0.00251  50.91173
   X358      34.84655   0.00423   0.00000   0.00234   0.00226  34.84881
   Y358      47.75338  -0.00054   0.00000  -0.00008  -0.00012  47.75326
   Z358      53.74381   0.00187   0.00000  -0.00108  -0.00102  53.74280
   X359      20.10669  -0.01048   0.00000  -0.01052  -0.01053  20.09616
   Y359      37.26540  -0.01058   0.00000  -0.00995  -0.00968  37.25572
   Z359      42.89678   0.01422   0.00000   0.00972   0.00936  42.90615
   X360      19.10513  -0.00550   0.00000  -0.00425  -0.00424  19.10090
   Y360      36.84966  -0.00311   0.00000  -0.00357  -0.00327  36.84639
   Z360      41.46059  -0.01045   0.00000  -0.00937  -0.00974  41.45085
   X361      21.41060   0.01199   0.00000   0.00788   0.00790  21.41849
   Y361      38.34254   0.00697   0.00000   0.00114   0.00141  38.34395
   Z361      42.25428   0.00325   0.00000   0.01286   0.01254  42.26682
   X362      47.64000   0.00373   0.00000   0.00573   0.00566  47.64565
   Y362      45.24004   0.00647   0.00000   0.00249   0.00235  45.24239
   Z362      51.58952   0.01571   0.00000   0.01383   0.01407  51.60360
   X363      48.50927  -0.00302   0.00000  -0.00733  -0.00737  48.50190
   Y363      46.22270   0.00000   0.00000  -0.00134  -0.00147  46.22123
   Z363      50.34230  -0.00611   0.00000  -0.00594  -0.00567  50.33663
   X364      47.12977  -0.00541   0.00000  -0.00631  -0.00638  47.12339
   Y364      43.74716  -0.00763   0.00000  -0.00269  -0.00280  43.74436
   Z364      50.70135  -0.00401   0.00000   0.00109   0.00130  50.70265
   X365      53.68712   0.00914   0.00000   0.00860   0.00886  53.69598
   Y365      38.55041   0.00865   0.00000   0.00618   0.00634  38.55675
   Z365      28.19471  -0.00347   0.00000   0.00257   0.00281  28.19752
   X366      54.21624  -0.00237   0.00000  -0.00429  -0.00403  54.21221
   Y366      37.07643  -0.00094   0.00000   0.00081   0.00097  37.07740
   Z366      27.26875  -0.00058   0.00000  -0.00083  -0.00060  27.26815
   X367      52.70446  -0.00685   0.00000  -0.00518  -0.00495  52.69951
   Y367      37.87011  -0.00656   0.00000  -0.00541  -0.00526  37.86485
   Z367      29.55532   0.00813   0.00000   0.00465   0.00487  29.56019
   X368      37.22760  -0.02791   0.00000  -0.01966  -0.01964  37.20796
   Y368      20.76809  -0.01266   0.00000  -0.00767  -0.00740  20.76069
   Z368      31.89858  -0.02195   0.00000  -0.01134  -0.01165  31.88692
   X369      38.47482   0.01744   0.00000   0.00363   0.00364  38.47846
   Y369      21.44839   0.01173   0.00000   0.00752   0.00776  21.45615
   Z369      32.99462   0.02351   0.00000   0.01582   0.01554  33.01016
   X370      36.73628   0.00310   0.00000   0.00328   0.00327  36.73954
   Y370      19.19962  -0.00145   0.00000  -0.00468  -0.00442  19.19520
   Z370      32.67336   0.00314   0.00000   0.00463   0.00428  32.67765
   X371      34.58199  -0.00390   0.00000   0.00262   0.00245  34.58443
   Y371      20.06889  -0.01173   0.00000  -0.01009  -0.00996  20.05893
   Z371      42.67002   0.00967   0.00000   0.01187   0.01150  42.68152
   X372      35.64023   0.00377   0.00000  -0.00191  -0.00206  35.63818
   Y372      21.44839   0.00838   0.00000   0.00345   0.00358  21.45197
   Z372      42.14089  -0.01094   0.00000  -0.01437  -0.01470  42.12620
   X373      33.80720  -0.00144   0.00000  -0.00290  -0.00309  33.80411
   Y373      20.67360   0.00217   0.00000   0.00429   0.00440  20.67801
   Z373      44.20069   0.00014   0.00000   0.00164   0.00127  44.20197
   X374      29.02619  -0.01422   0.00000  -0.01194  -0.01177  29.01442
   Y374      27.06088   0.01875   0.00000   0.01236   0.01279  27.07367
   Z374      26.60734  -0.02747   0.00000  -0.02073  -0.02108  26.58626
   X375      28.02464   0.00043   0.00000   0.00159   0.00176  28.02639
   Y375      28.00574  -0.00026   0.00000  -0.00083  -0.00041  28.00533
   Z375      27.77897   0.00773   0.00000   0.00809   0.00773  27.78671
   X376      29.91436   0.00656   0.00000  -0.00264  -0.00249  29.91187
   Y376      25.87035  -0.01467   0.00000  -0.00612  -0.00572  25.86463
   Z376      27.60890   0.01461   0.00000   0.00486   0.00450  27.61340
   X377      43.67157   0.00554   0.00000  -0.00089  -0.00046  43.67111
   Y377      42.19758  -0.00555   0.00000  -0.00509  -0.00471  42.19287
   Z377      20.59801  -0.01054   0.00000  -0.00895  -0.00882  20.58919
   X378      42.34876  -0.00689   0.00000  -0.00227  -0.00187  42.34689
   Y378      42.08420  -0.00189   0.00000  -0.00366  -0.00329  42.08091
   Z378      21.82634   0.01128   0.00000   0.01020   0.01030  21.83664
   X379      43.99282   0.00029   0.00000   0.00008   0.00053  43.99335
   Y379      43.97393   0.00365   0.00000   0.00112   0.00149  43.97542
   Z379      20.42794   0.00224   0.00000   0.00356   0.00372  20.43166
   X380      47.52661   0.00799   0.00000   0.00665   0.00642  47.53303
   Y380      29.08289   0.00120   0.00000   0.00128   0.00115  29.08403
   Z380      51.28717   0.02270   0.00000   0.01522   0.01521  51.30238
   X381      47.09198  -0.00347   0.00000  -0.00161  -0.00184  47.09013
   Y381      27.51441  -0.01066   0.00000  -0.00604  -0.00616  27.50826
   Z381      50.53128  -0.00592   0.00000  -0.00155  -0.00159  50.52969
   X382      47.28095  -0.00386   0.00000  -0.00322  -0.00342  47.27753
   Y382      30.31121   0.00813   0.00000   0.00290   0.00279  30.31400
   Z382      49.98326  -0.01401   0.00000  -0.00882  -0.00881  49.97445
   X383      51.66511  -0.00574   0.00000  -0.00142  -0.00145  51.66367
   Y383      43.38811   0.00829   0.00000   0.00749   0.00737  43.39549
   Z383      47.37543  -0.00795   0.00000  -0.00951  -0.00923  47.36621
   X384      51.77850  -0.00109   0.00000  -0.00312  -0.00316  51.77534
   Y384      41.61177  -0.00615   0.00000  -0.00256  -0.00267  41.60910
   Z384      47.05418  -0.00125   0.00000  -0.00143  -0.00118  47.05300
   X385      53.04461   0.00436   0.00000   0.00038   0.00034  53.04495
   Y385      43.74716   0.00053   0.00000   0.00013  -0.00002  43.74714
   Z385      48.49037   0.00675   0.00000   0.00590   0.00621  48.49658
         Item               Value     Threshold  Converged?
 Maximum Force            0.033213     0.000450     NO 
 RMS     Force            0.010745     0.000300     NO 
 Maximum Displacement     0.030660     0.001800     NO 
 RMS     Displacement     0.008826     0.001200     NO 
 Predicted change in Energy=-7.526107D-02
 GradGradGradGradGradGradGradGradGradGradGradGradGradGradGradGradGradGrad

 Leave Link  103 at Mon May 14 03:32:39 2018, MaxMem= 14763950080 cpu:      3192.0
 (Enter /cm/shared/gaussian/g09.e01/intel64-sandybridge/g09/l9999.exe)
 1\1\GINC-POPLE03\Force\RPBE1PBE\CC-pVDZ\Br1H256O128(1-)\M.PELUSO\14-Ma
 y-2018\0\\#p PBE1PBE/cc-pvDZ force Counterpoise=2 noSymm\\forces on ch
 loride comput - NWATER: 128\\-1,1\Br,20.,20.,20.\O,21.45,17.22,20.39\H
 ,21.13,18.09,20.18\H,20.94,16.95,21.16\O,18.25,18.56,22.32\H,18.9,18.9
 5,21.72\H,18.65,18.62,23.18\O,19.24,22.96,18.89\H,19.66,22.11,19.04\H,
 18.62,23.05,19.61\O,20.45,19.12,16.67\H,21.29,19.58,16.67\H,20.25,18.9
 8,17.6\O,16.76,21.44,20.68\H,16.96,22.27,21.12\H,17.62,21.08,20.46\O,1
 7.05,18.75,18.11\H,16.66,17.99,18.54\H,17.79,18.99,18.67\O,21.16,20.72
 ,23.47\H,22.09,20.91,23.62\H,21.11,20.52,22.54\O,23.18,21.97,20.43\H,2
 4.02,21.54,20.25\H,22.53,21.37,20.07\O,18.48,21.61,23.55\H,19.06,22.33
 ,23.79\H,19.07,20.92,23.23\O,21.34,23.75,21.48\H,21.28,24.36,20.74\H,2
 1.86,23.02,21.15\O,22.8,20.17,17.36\H,23.4,20.02,16.63\H,23.23,19.76,1
 8.11\O,20.78,15.78,18.16\H,21.28,15.08,18.58\H,20.65,16.43,18.86\O,16.
 69,17.06,20.78\H,16.77,16.21,21.22\H,17.29,17.63,21.26\O,19.63,21.78,1
 5.74\H,19.89,21.06,16.32\H,19.1,22.34,16.29\O,24.2,19.19,19.73\H,25.05
 ,19.58,19.94\H,23.83,18.95,20.58\O,23.17,22.88,17.1\H,23.84,23.07,17.7
 6\H,22.89,21.99,17.3\O,19.68,18.95,24.76\H,19.3,19.32,25.56\H,20.23,19
 .66,24.42\O,20.75,24.53,17.25\H,20.25,23.94,17.82\H,21.21,23.94,16.64\
 O,16.55,20.87,16.31\H,16.65,21.74,16.7\H,16.53,20.27,17.05\O,16.01,20.
 86,23.29\H,16.06,20.7,22.35\H,16.92,20.96,23.57\O,23.88,16.61,19.18\H,
 23.18,16.49,19.83\H,24.03,17.55,19.17\O,23.22,22.72,23.36\H,22.68,23.5
 1,23.33\H,23.26,22.42,22.45\O,20.25,23.69,24.\H,20.32,24.62,24.2\H,20.
 37,23.64,23.05\O,19.67,15.49,21.82\H,19.57,15.75,22.73\H,18.8,15.19,21
 .56\O,17.15,16.85,16.07\H,16.2,16.87,16.19\H,17.47,17.6,16.57\O,17.8,2
 4.22,21.5\H,17.1,24.85,21.33\H,18.05,24.38,22.41\O,14.21,20.86,19.91\H
 ,14.32,19.91,19.9\H,15.09,21.21,20.01\O,19.35,19.03,14.02\H,18.45,19.1
 8,13.73\H,19.36,19.32,14.93\O,22.58,16.52,16.1\H,22.19,16.81,15.28\H,2
 1.83,16.44,16.7\O,14.41,18.35,21.05\H,14.2,17.93,21.88\H,15.13,17.82,2
 0.7\O,24.87,18.93,22.34\H,25.77,19.26,22.37\H,24.48,19.24,23.16\O,21.5
 6,14.19,20.37\H,22.42,14.1,20.77\H,21.04,14.68,21.\O,19.47,16.31,24.56
 \H,19.06,15.92,25.33\H,19.7,17.2,24.83\O,18.52,14.67,16.75\H,17.88,15.
 36,16.55\H,19.19,15.11,17.26\O,16.96,23.89,16.64\H,16.62,24.69,16.24\H
 ,16.63,23.91,17.54\O,25.05,16.02,21.96\H,25.9,16.28,22.33\H,24.52,16.8
 2,22.\O,19.9,22.13,26.37\H,20.04,22.33,25.44\H,20.46,22.75,26.83\O,18.
 73,26.28,18.88\H,19.29,25.86,19.53\H,18.87,25.77,18.08\O,21.84,25.79,1
 9.71\H,22.68,25.59,20.11\H,21.94,25.53,18.79\O,23.46,19.55,24.94\H,23.
 7,20.41,25.28\H,22.72,19.27,25.48\O,17.71,20.82,26.4\H,18.56,21.25,26.
 41\H,17.34,21.04,25.54\O,21.81,21.3,13.66\H,20.93,21.48,14.\H,21.8,20.
 35,13.49\O,26.23,20.87,19.93\H,26.96,20.7,20.52\H,26.2,21.82,19.85\O,2
 4.58,19.47,15.63\H,24.75,18.71,15.08\H,25.38,19.6,16.14\O,15.17,23.66,
 23.74\H,15.6,22.8,23.75\H,15.12,23.91,24.66\O,23.31,23.66,14.59\H,22.9
 3,22.87,14.21\H,23.28,23.51,15.53\O,25.89,23.55,20.72\H,25.12,23.99,21
 .08\H,26.51,23.51,21.45\O,22.95,13.89,17.21\H,23.28,13.56,16.38\H,23.0
 5,14.84,17.15\O,21.67,17.45,13.65\H,21.66,17.18,12.73\H,20.97,18.1,13.
 71\O,15.02,19.19,25.43\H,14.25,18.89,24.96\H,15.44,19.82,24.84\O,17.05
 ,17.46,26.12\H,16.97,17.17,25.21\H,16.4,18.16,26.21\O,23.2,22.15,26.11
 \H,23.35,22.45,25.21\H,22.74,22.89,26.52\O,17.18,14.38,22.27\H,17.74,1
 3.61,22.14\H,16.54,14.09,22.92\O,25.38,16.72,16.54\H,25.49,17.14,17.39
 \H,24.47,16.42,16.54\O,23.94,25.5,21.36\H,23.99,26.46,21.33\H,23.46,25
 .31,22.16\O,13.97,19.8,15.48\H,13.38,20.36,15.98\H,14.84,20.2,15.6\O,1
 9.29,12.61,21.02\H,19.99,13.25,20.92\H,18.85,12.61,20.17\O,24.51,16.96
 ,25.\H,25.01,16.99,24.18\H,24.12,17.83,25.07\O,20.19,27.06,21.96\H,20.
 49,26.79,21.09\H,20.92,27.57,22.32\O,12.86,21.13,22.29\H,13.73,21.09,2
 2.67\H,12.99,20.97,21.36\O,26.79,19.58,17.26\H,26.7,18.93,17.96\H,26.5
 3,20.41,17.67\O,18.29,15.75,13.89\H,18.74,15.03,14.32\H,17.79,16.18,14
 .58\O,25.55,24.51,18.29\H,25.62,24.19,19.19\H,25.48,25.46,18.38\O,17.8
 5,12.98,18.69\H,17.58,12.14,18.31\H,18.19,13.48,17.96\O,16.66,19.86,13
 .24\H,16.86,20.71,12.85\H,16.16,20.06,14.03\O,26.82,17.12,19.11\H,27.6
 2,17.19,19.64\H,26.24,16.56,19.62\O,15.73,25.73,20.65\H,15.96,26.66,20
 .7\H,15.29,25.64,19.8\O,17.77,22.78,12.76\H,16.87,22.76,13.09\H,18.31,
 22.65,13.54\O,22.21,14.83,25.41\H,23.11,14.52,25.41\H,22.28,15.79,25.3
 8\O,25.32,13.95,19.25\H,24.97,13.57,20.06\H,25.02,14.86,19.26\O,12.39,
 22.99,20.07\H,12.34,23.43,20.92\H,13.16,22.42,20.14\O,24.,13.65,21.63\
 H,24.28,13.14,22.39\H,24.41,14.51,21.76\O,14.49,17.22,15.84\H,13.71,16
 .83,15.46\H,14.47,18.13,15.55\O,25.04,21.42,13.82\H,24.53,22.2,14.04\H
 ,24.83,20.79,14.52\O,12.47,21.35,17.19\H,13.03,21.31,17.97\H,12.27,22.
 28,17.09\O,21.94,26.17,15.04\H,22.5,26.54,15.72\H,22.13,25.24,15.05\O,
 15.29,13.46,19.41\H,14.8,13.93,18.74\H,16.2,13.5,19.1\O,13.94,15.35,17
 .78\H,14.15,16.04,17.15\H,13.18,15.69,18.26\O,13.74,14.77,21.52\H,14.4
 6,14.47,20.97\H,14.05,15.6,21.88\O,16.4,26.14,23.44\H,16.25,26.19,22.5
 \H,15.78,25.48,23.74\O,22.87,25.82,24.08\H,22.67,26.66,24.49\H,23.73,2
 5.57,24.44\O,13.79,16.85,23.24\H,14.15,16.47,24.03\H,12.86,16.98,23.44
 \O,21.44,12.22,18.49\H,21.66,12.5,19.38\H,22.03,12.72,17.93\O,18.83,26
 .68,24.49\H,19.34,26.74,23.68\H,17.92,26.63,24.21\O,24.36,17.7,13.5\H,
 23.65,17.14,13.8\H,23.93,18.35,12.94\O,20.37,12.96,14.92\H,21.17,12.46
 ,15.1\H,20.28,13.55,15.67\O,27.48,22.36,17.71\H,28.13,22.51,17.02\H,26
 .8,23.01,17.54\O,20.46,28.34,18.33\H,20.89,28.73,19.09\H,19.81,27.74,1
 8.71\O,13.98,24.9,18.79\H,13.5,25.57,18.31\H,13.3,24.27,19.06\O,19.14,
 17.8,27.87\H,18.32,17.84,27.38\H,18.98,18.32,28.65\O,22.4,18.06,27.31\
 H,21.54,17.95,27.7\H,23.02,17.98,28.04\O,18.77,27.3,15.48\H,18.87,26.7
 9,14.67\H,19.46,26.98,16.06\O,27.84,20.44,22.3\H,28.57,20.75,21.78\H,2
 8.23,20.19,23.14\O,12.6,24.71,22.1\H,13.53,24.53,22.26\H,12.48,25.62,2
 2.38\O,16.54,12.85,15.89\H,16.57,12.14,16.54\H,17.38,13.29,15.99\O,18.
 59,28.92,20.69\H,19.06,28.26,21.19\H,18.8,29.75,21.13\O,13.69,23.63,15
 .48\H,14.28,24.37,15.59\H,12.81,24.01,15.53\O,20.12,13.41,26.19\H,20.0
 1,12.58,25.74\H,20.87,13.82,25.76\O,14.88,15.87,25.42\H,15.36,16.23,26
 .17\H,14.05,15.57,25.79\O,19.25,16.7,11.24\H,19.14,16.66,12.19\H,18.58
 ,17.33,10.95\O,23.45,21.01,28.76\H,23.38,21.04,27.8\H,22.55,21.12,29.0
 7\O,26.47,14.28,16.08\H,27.24,14.4,16.64\H,25.93,15.05,16.23\O,23.31,2
 8.1,17.61\H,22.41,27.98,17.9\H,23.53,29.,17.86\O,16.68,21.06,28.87\H,1
 7.2,20.82,28.1\H,16.03,21.67,28.53\O,27.26,17.21,23.73\H,27.57,18.06,2
 4.05\H,27.86,16.98,23.02\O,21.7,24.06,27.5\H,21.12,24.83,27.47\H,22.12
 ,24.11,28.35\O,17.67,18.82,10.8\H,17.77,19.76,10.61\H,17.51,18.79,11.7
 5\O,20.49,26.23,26.56\H,19.96,26.49,25.81\H,21.33,26.67,26.42\O,29.14,
 21.46,19.71\H,29.89,22.05,19.78\H,28.48,21.96,19.23\O,25.47,25.,24.66\
 H,26.09,24.27,24.59\H,26.02,25.78,24.75\O,23.51,19.55,11.63\H,23.95,20
 .26,12.1\H,23.31,19.93,10.77\O,25.41,26.41,15.83\H,25.28,25.51,15.54\H
 ,25.42,26.37,16.78\O,22.75,11.28,21.39\H,23.19,11.95,21.92\H,22.15,10.
 85,22.\O,15.09,22.37,12.95\H,14.56,22.05,12.22\H,14.44,22.65,13.6\O,15
 .29,13.33,24.02\H,15.01,14.12,24.47\H,14.71,12.64,24.37\O,10.84,18.75,
 17.78\H,10.44,18.74,16.92\H,11.34,19.57,17.81\O,15.01,26.03,15.64\H,14
 .37,26.06,14.93\H,14.67,26.63,16.3\O,25.51,27.05,18.51\H,25.73,27.59,1
 9.27\H,24.69,27.42,18.18\O,17.87,25.4,27.68\H,18.48,25.47,26.94\H,18.4
 4,25.27,28.44\O,10.64,19.72,22.7\H,10.11,19.5,21.94\H,11.33,20.29,22.3
 6\O,25.21,23.94,27.3\H,25.67,24.46,26.64\H,24.94,23.15,26.83\O,28.41,2
 0.4,14.92\H,28.69,19.62,14.43\H,27.89,20.04,15.64\O,19.7,10.99,16.88\H
 ,20.36,11.35,17.46\H,19.44,10.16,17.29\O,18.3,10.62,22.58\H,18.86,11.3
 5,22.3\H,17.89,10.94,23.39\O,15.36,14.32,14.08\H,14.83,14.82,14.7\H,15
 .83,13.69,14.61\O,23.11,22.33,10.9\H,22.41,22.27,11.55\H,23.28,23.27,1
 0.81\O,25.15,15.39,27.14\H,24.92,14.56,26.74\H,25.02,16.04,26.45\O,27.
 34,22.96,25.07\H,27.4,22.02,24.9\H,28.07,23.15,25.66\\Version=ES64L-G0
 9RevE.01\HF=-9773.3946189\RMSD=2.096e-09\RMSF=1.075e-02\Dipole=6.95433
 18,22.3591678,18.2434628\Quadrupole=-525.0787337,511.0266899,14.052043
 8,-329.6332851,-320.7799148,76.6770049\PG=C01 [X(Br1H256O128)]\\@


 THERE IS MUCH PLEASURE TO BE GAINED FROM USELESS KNOWLEDGE

                                       -- BERTRAND RUSSELL
 Job cpu time:       8 days  2 hours 11 minutes 58.0 seconds.
 File lengths (MBytes):  RWF=   7285 Int=      0 D2E=      0 Chk=   2411 Scr=      1
 Normal termination of Gaussian 09 at Mon May 14 03:33:23 2018.
