 Entering Gaussian System, Link 0=/cm/shared/gaussian/g09.e01/intel64-sandybridge/g09/g09
 Initial command:
 /cm/shared/gaussian/g09.e01/intel64-sandybridge/g09/l1.exe "/local/scratch/m.peluso/128_wat/order/Gau-39285.inp" -scrdir="/local/scratch/m.peluso/128_wat/order/"
 Entering Link 1 = /cm/shared/gaussian/g09.e01/intel64-sandybridge/g09/l1.exe PID=     39286.
  
 Copyright (c) 1988,1990,1992,1993,1995,1998,2003,2009,2015,
            Gaussian, Inc.  All Rights Reserved.
  
 This is part of the Gaussian(R) 09 program.  It is based on
 the Gaussian(R) 03 system (copyright 2003, Gaussian, Inc.),
 the Gaussian(R) 98 system (copyright 1998, Gaussian, Inc.),
 the Gaussian(R) 94 system (copyright 1995, Gaussian, Inc.),
 the Gaussian 92(TM) system (copyright 1992, Gaussian, Inc.),
 the Gaussian 90(TM) system (copyright 1990, Gaussian, Inc.),
 the Gaussian 88(TM) system (copyright 1988, Gaussian, Inc.),
 the Gaussian 86(TM) system (copyright 1986, Carnegie Mellon
 University), and the Gaussian 82(TM) system (copyright 1983,
 Carnegie Mellon University). Gaussian is a federally registered
 trademark of Gaussian, Inc.
  
 This software contains proprietary and confidential information,
 including trade secrets, belonging to Gaussian, Inc.
  
 This software is provided under written license and may be
 used, copied, transmitted, or stored only in accord with that
 written license.
  
 The following legend is applicable only to US Government
 contracts under FAR:
  
                    RESTRICTED RIGHTS LEGEND
  
 Use, reproduction and disclosure by the US Government is
 subject to restrictions as set forth in subparagraphs (a)
 and (c) of the Commercial Computer Software - Restricted
 Rights clause in FAR 52.227-19.
  
 Gaussian, Inc.
 340 Quinnipiac St., Bldg. 40, Wallingford CT 06492
  
  
 ---------------------------------------------------------------
 Warning -- This program may not be used in any manner that
 competes with the business of Gaussian, Inc. or will provide
 assistance to any competitor of Gaussian, Inc.  The licensee
 of this program is prohibited from giving any competitor of
 Gaussian, Inc. access to this program.  By using this program,
 the user acknowledges that Gaussian, Inc. is engaged in the
 business of creating and licensing software in the field of
 computational chemistry and represents and warrants to the
 licensee that it is not a competitor of Gaussian, Inc. and that
 it will not use this program in any manner prohibited above.
 ---------------------------------------------------------------
  

 Cite this work as:
 Gaussian 09, Revision E.01,
 M. J. Frisch, G. W. Trucks, H. B. Schlegel, G. E. Scuseria, 
 M. A. Robb, J. R. Cheeseman, G. Scalmani, V. Barone, B. Mennucci, 
 G. A. Petersson, H. Nakatsuji, M. Caricato, X. Li, H. P. Hratchian, 
 A. F. Izmaylov, J. Bloino, G. Zheng, J. L. Sonnenberg, M. Hada, 
 M. Ehara, K. Toyota, R. Fukuda, J. Hasegawa, M. Ishida, T. Nakajima, 
 Y. Honda, O. Kitao, H. Nakai, T. Vreven, J. A. Montgomery, Jr., 
 J. E. Peralta, F. Ogliaro, M. Bearpark, J. J. Heyd, E. Brothers, 
 K. N. Kudin, V. N. Staroverov, T. Keith, R. Kobayashi, J. Normand, 
 K. Raghavachari, A. Rendell, J. C. Burant, S. S. Iyengar, J. Tomasi, 
 M. Cossi, N. Rega, J. M. Millam, M. Klene, J. E. Knox, J. B. Cross, 
 V. Bakken, C. Adamo, J. Jaramillo, R. Gomperts, R. E. Stratmann, 
 O. Yazyev, A. J. Austin, R. Cammi, C. Pomelli, J. W. Ochterski, 
 R. L. Martin, K. Morokuma, V. G. Zakrzewski, G. A. Voth, 
 P. Salvador, J. J. Dannenberg, S. Dapprich, A. D. Daniels, 
 O. Farkas, J. B. Foresman, J. V. Ortiz, J. Cioslowski, 
 and D. J. Fox, Gaussian, Inc., Wallingford CT, 2013.
 
 ******************************************
 Gaussian 09:  ES64L-G09RevE.01 30-Nov-2015
                16-May-2018 
 ******************************************
 %Mem=110GB
 %NProcShared=64
 Will use up to   64 processors via shared memory.
 %chk=snap102.chk
 ----------------------------------------------
 #p PBE1PBE/cc-pvDZ force Counterpoise=2 noSymm
 ----------------------------------------------
 1/10=7,30=1,38=1,62=2/1,3;
 2/12=2,15=1,17=6,18=5,40=1/2;
 1/10=7,30=1,38=1,53=2,62=2,63=101/22;
 3/5=16,11=2,16=1,25=1,30=1,71=1,74=-13/1,2,3;
 4//1;
 5/5=2,38=5/2;
 6/7=2,8=2,9=2,10=2,28=1/1;
 7/7=1,29=1,30=1,33=-1/1,2,3,16;
 1/10=7,30=1,53=2,62=2,63=101/22;
 3/5=7,6=11,11=2,16=1,25=1,30=1,71=1,74=-13,82=7/1,2,3;
 4//1;
 5/5=2,38=5/2;
 6/7=2,8=2,9=2,10=2,28=1/1;
 7/7=1,29=1,30=1,33=-1/1,2,3,16;
 1/10=7,30=1,53=2,62=2,63=101/22(-5);
 7/9=1,29=1,44=-1/16;
 1/10=7,30=1,62=2/3;
 99//99;
 Leave Link    1 at Wed May 16 05:52:38 2018, MaxMem= 14763950080 cpu:         6.1
 (Enter /cm/shared/gaussian/g09.e01/intel64-sandybridge/g09/l101.exe)
 ---------------------------------------
 forces on chloride comput - NWATER: 128
 ---------------------------------------
 Symbolic Z-matrix:
 Charge = -1 Multiplicity = 1 in supermolecule
 Charge = -1 Multiplicity = 1 in fragment      1.
 Charge =  0 Multiplicity = 1 in fragment      2.
 Br(Fragment=1)        20.       20.       20. 
 O(Fragment=2)         17.89     22.24     19.09 
 H(Fragment=2)         18.58     21.61     19.32 
 H(Fragment=2)         17.18     22.04     19.71 
 O(Fragment=2)         22.04     22.17     21.29 
 H(Fragment=2)         21.46     21.48     20.97 
 H(Fragment=2)         22.87     21.72     21.46 
 O(Fragment=2)         17.54     18.88     21.75 
 H(Fragment=2)         18.14     19.4      21.21 
 H(Fragment=2)         18.04     18.7      22.55 
 O(Fragment=2)         20.84     17.81     17.55 
 H(Fragment=2)         20.42     18.3      18.26 
 H(Fragment=2)         20.33     18.04     16.77 
 O(Fragment=2)         21.41     22.28     17.67 
 H(Fragment=2)         22.17     21.93     17.2 
 H(Fragment=2)         21.05     21.53     18.13 
 O(Fragment=2)         22.56     17.81     22.07 
 H(Fragment=2)         22.87     17.09     21.52 
 H(Fragment=2)         22.03     18.36     21.48 
 O(Fragment=2)         17.16     17.8      18.12 
 H(Fragment=2)         17.68     18.56     17.84 
 H(Fragment=2)         16.33     18.17     18.42 
 O(Fragment=2)         18.12     16.48     20.5 
 H(Fragment=2)         17.69     16.43     19.65 
 H(Fragment=2)         17.88     17.35     20.83 
 O(Fragment=2)         20.96     21.55     23.86 
 H(Fragment=2)         21.66     22.06     24.26 
 H(Fragment=2)         21.1      21.66     22.91 
 O(Fragment=2)         16.21     21.17     20.79 
 H(Fragment=2)         16.68     20.48     21.27 
 H(Fragment=2)         15.33     20.8      20.65 
 O(Fragment=2)         17.75     21.29     16.43 
 H(Fragment=2)         18.06     21.49     17.31 
 H(Fragment=2)         16.82     21.53     16.45 
 O(Fragment=2)         18.15     21.53     23.91 
 H(Fragment=2)         17.91     22.44     23.74 
 H(Fragment=2)         19.08     21.48     23.67 
 O(Fragment=2)         19.63     17.44     23.95 
 H(Fragment=2)         18.87     16.94     23.67 
 H(Fragment=2)         20.25     17.37     23.23 
 O(Fragment=2)         20.7      15.2      20.36 
 H(Fragment=2)         21.25     15.97     20.45 
 H(Fragment=2)         19.81     15.55     20.3 
 O(Fragment=2)         23.69     18.3      17.51 
 H(Fragment=2)         24.1      18.       16.7 
 H(Fragment=2)         22.77     18.05     17.43 
 O(Fragment=2)         21.14     24.83     20.49 
 H(Fragment=2)         21.41     23.97     20.79 
 H(Fragment=2)         20.99     24.73     19.55 
 O(Fragment=2)         19.72     24.32     17.95 
 H(Fragment=2)         18.97     23.85     18.3 
 H(Fragment=2)         20.32     23.64     17.65 
 O(Fragment=2)         23.44     21.03     16.77 
 H(Fragment=2)         23.56     20.7      15.88 
 H(Fragment=2)         23.41     20.25     17.32 
 O(Fragment=2)         23.51     16.7      19.71 
 H(Fragment=2)         23.53     17.39     19.04 
 H(Fragment=2)         24.43     16.49     19.87 
 O(Fragment=2)         17.42     23.91     22.06 
 H(Fragment=2)         16.97     24.52     21.48 
 H(Fragment=2)         17.08     23.05     21.83 
 O(Fragment=2)         19.95     22.92     15.36 
 H(Fragment=2)         20.33     22.66     16.2 
 H(Fragment=2)         19.24     22.29     15.21 
 O(Fragment=2)         22.82     18.64     24.68 
 H(Fragment=2)         22.02     19.11     24.89 
 H(Fragment=2)         22.74     18.41     23.75 
 O(Fragment=2)         17.29     16.12     23.06 
 H(Fragment=2)         17.58     16.04     22.15 
 H(Fragment=2)         16.4      15.77     23.06 
 O(Fragment=2)         19.41     18.65     15.07 
 H(Fragment=2)         18.54     19.03     14.97 
 H(Fragment=2)         19.93     19.06     14.37 
 O(Fragment=2)         24.23     21.08     22.84 
 H(Fragment=2)         24.23     20.73     23.73 
 H(Fragment=2)         24.62     20.39     22.31 
 O(Fragment=2)         14.81     19.24     18.88 
 H(Fragment=2)         14.92     18.75     19.7 
 H(Fragment=2)         13.94     18.99     18.56 
 O(Fragment=2)         25.87     19.22     18.82 
 H(Fragment=2)         25.03     18.92     18.47 
 H(Fragment=2)         25.85     20.18     18.7 
 O(Fragment=2)         17.03     19.9      14.28 
 H(Fragment=2)         17.31     20.43     15.03 
 H(Fragment=2)         16.15     20.23     14.07 
 O(Fragment=2)         16.53     15.73     16.09 
 H(Fragment=2)         16.8      16.43     16.69 
 H(Fragment=2)         15.83     16.13     15.57 
 O(Fragment=2)         19.32     25.88     22.54 
 H(Fragment=2)         18.69     25.17     22.36 
 H(Fragment=2)         20.04     25.72     21.93 
 O(Fragment=2)         22.35     14.24     17.45 
 H(Fragment=2)         22.4      15.05     17.97 
 H(Fragment=2)         23.       14.35     16.76 
 O(Fragment=2)         14.96     20.81     23.77 
 H(Fragment=2)         14.87     20.72     22.82 
 H(Fragment=2)         14.62     19.98     24.12 
 O(Fragment=2)         20.42     19.13     26.24 
 H(Fragment=2)         20.25     18.32     25.76 
 H(Fragment=2)         19.58     19.59     26.23 
 O(Fragment=2)         15.       24.48     19.05 
 H(Fragment=2)         15.8      24.21     18.58 
 H(Fragment=2)         14.43     23.72     19. 
 O(Fragment=2)         17.29     25.26     17.1 
 H(Fragment=2)         18.24     25.27     17.24 
 H(Fragment=2)         17.08     26.14     16.8 
 O(Fragment=2)         14.69     21.36     16.58 
 H(Fragment=2)         14.44     21.13     17.48 
 H(Fragment=2)         13.93     21.13     16.05 
 O(Fragment=2)         21.41     13.07     21.83 
 H(Fragment=2)         21.25     13.83     21.28 
 H(Fragment=2)         22.3      12.8      21.6 
 O(Fragment=2)         23.28     19.14     14.54 
 H(Fragment=2)         22.51     19.41     14.04 
 H(Fragment=2)         23.61     18.37     14.08 
 O(Fragment=2)         18.98     15.68     14.64 
 H(Fragment=2)         19.09     16.62     14.52 
 H(Fragment=2)         18.09     15.59     14.97 
 O(Fragment=2)         17.85     20.39     26.66 
 H(Fragment=2)         17.34     20.8      25.96 
 H(Fragment=2)         17.42     19.55     26.8 
 O(Fragment=2)         25.       23.08     15.93 
 H(Fragment=2)         24.07     23.27     15.9 
 H(Fragment=2)         25.08     22.34     16.54 
 O(Fragment=2)         23.02     26.83     20.23 
 H(Fragment=2)         22.57     26.06     20.6 
 H(Fragment=2)         22.36     27.52     20.26 
 O(Fragment=2)         23.04     24.44     23.87 
 H(Fragment=2)         23.53     23.77     24.35 
 H(Fragment=2)         22.25     24.57     24.38 
 O(Fragment=2)         16.53     24.74     24.76 
 H(Fragment=2)         16.83     24.36     23.94 
 H(Fragment=2)         16.34     25.66     24.55 
 O(Fragment=2)         19.94     22.79     26.63 
 H(Fragment=2)         19.13     23.28     26.82 
 H(Fragment=2)         19.64     21.89     26.49 
 O(Fragment=2)         13.35     17.69     20.95 
 H(Fragment=2)         14.01     17.05     21.23 
 H(Fragment=2)         12.51     17.26     21.14 
 O(Fragment=2)         14.24     17.89     23.8 
 H(Fragment=2)         14.67     17.26     23.23 
 H(Fragment=2)         14.64     17.75     24.66 
 O(Fragment=2)         24.58     16.22     24.37 
 H(Fragment=2)         23.91     16.85     24.63 
 H(Fragment=2)         24.11     15.39     24.32 
 O(Fragment=2)         13.26     20.43     21.38 
 H(Fragment=2)         13.23     19.51     21.61 
 H(Fragment=2)         12.39     20.62     21.03 
 O(Fragment=2)         18.72     24.89     14. 
 H(Fragment=2)         19.23     24.32     14.58 
 H(Fragment=2)         18.9      25.77     14.3 
 O(Fragment=2)         26.12     16.08     21.07 
 H(Fragment=2)         26.99     15.75     21.31 
 H(Fragment=2)         25.74     16.38     21.89 
 O(Fragment=2)         17.23     13.68     24.21 
 H(Fragment=2)         17.46     14.53     23.82 
 H(Fragment=2)         17.59     13.03     23.61 
 O(Fragment=2)         17.48     26.76     20.49 
 H(Fragment=2)         17.03     26.5      19.68 
 H(Fragment=2)         18.13     27.4      20.21 
 O(Fragment=2)         14.84     15.35     21.72 
 H(Fragment=2)         14.31     15.       22.44 
 H(Fragment=2)         15.15     14.57     21.25 
 O(Fragment=2)         15.65     22.31     25.73 
 H(Fragment=2)         15.84     23.17     25.34 
 H(Fragment=2)         15.22     21.82     25.04 
 O(Fragment=2)         21.14     19.28     12.87 
 H(Fragment=2)         20.87     19.95     12.24 
 H(Fragment=2)         21.11     18.46     12.39 
 O(Fragment=2)         28.11     19.39     20.8 
 H(Fragment=2)         27.27     19.33     20.35 
 H(Fragment=2)         27.93     19.12     21.7 
 O(Fragment=2)         15.5      23.26     14.19 
 H(Fragment=2)         15.95     23.47     15. 
 H(Fragment=2)         15.09     22.4      14.35 
 O(Fragment=2)         14.64     14.32     17.91 
 H(Fragment=2)         14.95     14.77     18.7 
 H(Fragment=2)         15.35     14.4      17.28 
 O(Fragment=2)         16.13     13.38     20.36 
 H(Fragment=2)         17.03     13.21     20.06 
 H(Fragment=2)         15.67     12.56     20.2 
 O(Fragment=2)         27.82     22.53     20.66 
 H(Fragment=2)         28.58     22.23     21.17 
 H(Fragment=2)         27.12     21.92     20.9 
 O(Fragment=2)         18.05     18.25     12.23 
 H(Fragment=2)         17.64     18.44     13.08 
 H(Fragment=2)         18.07     19.09     11.78 
 O(Fragment=2)         21.09     27.49     17.82 
 H(Fragment=2)         20.55     26.95     17.25 
 H(Fragment=2)         21.95     27.07     17.8 
 O(Fragment=2)         21.52     12.19     18.78 
 H(Fragment=2)         21.88     12.94     18.31 
 H(Fragment=2)         20.69     12.51     19.14 
 O(Fragment=2)         12.97     22.28     18.72 
 H(Fragment=2)         12.56     22.47     19.57 
 H(Fragment=2)         12.31     21.77     18.25 
 O(Fragment=2)         19.62     21.71     12.36 
 H(Fragment=2)         19.51     22.47     12.93 
 H(Fragment=2)         20.2      22.01     11.66 
 O(Fragment=2)         26.57     24.22     23.1 
 H(Fragment=2)         26.03     25.01     23.01 
 H(Fragment=2)         25.95     23.5      22.98 
 O(Fragment=2)         22.31     22.07     27.65 
 H(Fragment=2)         23.07     22.43     27.2 
 H(Fragment=2)         21.57     22.28     27.08 
 O(Fragment=2)         24.86     26.16     22.74 
 H(Fragment=2)         24.09     25.67     23.03 
 H(Fragment=2)         24.51     26.81     22.12 
 O(Fragment=2)         20.63     13.13     24.38 
 H(Fragment=2)         21.36     13.52     24.86 
 H(Fragment=2)         20.89     13.18     23.46 
 O(Fragment=2)         25.83     20.24     25.07 
 H(Fragment=2)         26.21     19.54     24.54 
 H(Fragment=2)         25.98     19.96     25.98 
 O(Fragment=2)         27.29     16.44     18.17 
 H(Fragment=2)         27.17     16.15     19.07 
 H(Fragment=2)         27.01     17.36     18.17 
 O(Fragment=2)         22.36     23.97     12.92 
 H(Fragment=2)         22.54     23.92     13.86 
 H(Fragment=2)         22.46     24.9      12.7 
 O(Fragment=2)         21.37     25.3      26.1 
 H(Fragment=2)         22.       25.15     26.82 
 H(Fragment=2)         20.73     24.6      26.19 
 O(Fragment=2)         24.36     22.95     25.81 
 H(Fragment=2)         24.95     23.68     25.98 
 H(Fragment=2)         24.93     22.22     25.6 
 O(Fragment=2)         21.78     17.86     28.18 
 H(Fragment=2)         22.22     18.67     28.44 
 H(Fragment=2)         21.19     18.13     27.47 
 O(Fragment=2)         20.29     13.15     14.71 
 H(Fragment=2)         19.83     12.92     13.9 
 H(Fragment=2)         19.71     13.77     15.15 
 O(Fragment=2)         13.51     18.22     15.07 
 H(Fragment=2)         13.36     18.24     16.02 
 H(Fragment=2)         12.76     17.74     14.72 
 O(Fragment=2)         21.53     15.55     13.01 
 H(Fragment=2)         21.84     16.34     12.57 
 H(Fragment=2)         20.65     15.77     13.31 
 O(Fragment=2)         24.83     25.64     16.13 
 H(Fragment=2)         25.6      26.11     15.83 
 H(Fragment=2)         25.04     24.72     16. 
 O(Fragment=2)         18.31     12.19     19.26 
 H(Fragment=2)         18.68     11.65     19.95 
 H(Fragment=2)         18.38     11.65     18.47 
 O(Fragment=2)         16.74     27.41     23.28 
 H(Fragment=2)         16.95     27.04     22.42 
 H(Fragment=2)         16.01     28.01     23.11 
 O(Fragment=2)         16.93     12.92     15.47 
 H(Fragment=2)         16.96     13.84     15.73 
 H(Fragment=2)         16.38     12.91     14.69 
 O(Fragment=2)         24.31     16.69     13.65 
 H(Fragment=2)         25.12     16.9      14.12 
 H(Fragment=2)         23.91     15.98     14.16 
 O(Fragment=2)         27.45     21.24     17.05 
 H(Fragment=2)         27.51     21.48     16.13 
 H(Fragment=2)         27.96     21.91     17.51 
 O(Fragment=2)         12.34     18.36     17.88 
 H(Fragment=2)         11.88     19.08     17.46 
 H(Fragment=2)         11.89     18.24     18.72 
 O(Fragment=2)         14.24     26.84     20.2 
 H(Fragment=2)         14.41     25.96     19.86 
 H(Fragment=2)         13.93     26.71     21.09 
 O(Fragment=2)         27.27     18.56     23.45 
 H(Fragment=2)         27.24     17.62     23.58 
 H(Fragment=2)         28.14     18.82     23.74 
 O(Fragment=2)         17.41     23.59     27.53 
 H(Fragment=2)         16.81     24.32     27.37 
 H(Fragment=2)         17.02     22.85     27.06 
 O(Fragment=2)         24.76     17.38     27.01 
 H(Fragment=2)         25.       16.99     26.17 
 H(Fragment=2)         23.91     17.79     26.85 
 O(Fragment=2)         19.25     20.48     29.09 
 H(Fragment=2)         18.33     20.2      29.13 
 H(Fragment=2)         19.51     20.3      28.18 
 O(Fragment=2)         27.12     25.13     19.99 
 H(Fragment=2)         27.26     24.18     20.07 
 H(Fragment=2)         26.31     25.29     20.48 
 O(Fragment=2)         12.06     22.38     23.33 
 H(Fragment=2)         12.28     22.97     24.04 
 H(Fragment=2)         12.66     21.64     23.43 
 O(Fragment=2)         19.27     28.33     19.36 
 H(Fragment=2)         18.99     29.24     19.22 
 H(Fragment=2)         19.95     28.19     18.71 
 O(Fragment=2)         24.16     14.45     15.44 
 H(Fragment=2)         24.01     14.06     14.57 
 H(Fragment=2)         25.1      14.34     15.58 
 O(Fragment=2)         15.34     15.96     26.3 
 H(Fragment=2)         15.57     15.76     27.21 
 H(Fragment=2)         16.02     15.52     25.78 
 O(Fragment=2)         24.85     27.47     18.26 
 H(Fragment=2)         24.29     27.54     19.04 
 H(Fragment=2)         24.56     26.66     17.83 
 O(Fragment=2)         20.09     28.8      21.83 
 H(Fragment=2)         19.65     28.82     20.98 
 H(Fragment=2)         19.72     28.04     22.28 
 O(Fragment=2)         18.2      15.66     11.92 
 H(Fragment=2)         17.56     16.19     11.45 
 H(Fragment=2)         18.26     16.08     12.78 
 O(Fragment=2)         19.96     27.75     24.87 
 H(Fragment=2)         20.66     27.17     25.14 
 H(Fragment=2)         19.64     27.37     24.05 
 O(Fragment=2)         13.65     25.98     17.03 
 H(Fragment=2)         13.98     25.49     17.78 
 H(Fragment=2)         14.4      26.49     16.72 
 O(Fragment=2)         28.03     21.82     23.9 
 H(Fragment=2)         27.77     22.68     23.58 
 H(Fragment=2)         27.22     21.43     24.22 
 O(Fragment=2)         14.4      20.65     13.61 
 H(Fragment=2)         14.29     20.31     12.72 
 H(Fragment=2)         13.78     20.14     14.13 
 O(Fragment=2)         27.25     16.06     24.1 
 H(Fragment=2)         26.31     15.86     24.06 
 H(Fragment=2)         27.66     15.42     23.52 
 O(Fragment=2)         19.94     10.75     20.99 
 H(Fragment=2)         20.52     10.06     21.32 
 H(Fragment=2)         20.25     11.55     21.41 
 O(Fragment=2)         26.66     17.4      15.13 
 H(Fragment=2)         27.35     17.63     15.75 
 H(Fragment=2)         27.12     17.27     14.3 
 O(Fragment=2)         16.95     18.39     27.99 
 H(Fragment=2)         16.06     18.06     27.94 
 H(Fragment=2)         17.41     17.74     28.54 
 O(Fragment=2)         22.97     27.61     15.31 
 H(Fragment=2)         23.35     27.01     15.96 
 H(Fragment=2)         22.96     27.11     14.5 
 O(Fragment=2)         14.94     21.13     28.14 
 H(Fragment=2)         15.45     21.4      27.38 
 H(Fragment=2)         14.88     20.18     28.06 
 O(Fragment=2)         23.62     13.77     25.11 
 H(Fragment=2)         24.19     13.04     24.86 
 H(Fragment=2)         23.8      13.91     26.04 
 O(Fragment=2)         26.73     13.77     17.38 
 H(Fragment=2)         26.64     14.72     17.31 
 H(Fragment=2)         27.43     13.64     18.02 
 O(Fragment=2)         19.14     27.54     15.33 
 H(Fragment=2)         18.75     28.       16.07 
 H(Fragment=2)         18.72     27.92     14.56 
 O(Fragment=2)         11.61     18.05     24.83 
 H(Fragment=2)         12.38     18.22     24.28 
 H(Fragment=2)         11.83     18.44     25.68 
 O(Fragment=2)         24.32     12.37     21.97 
 H(Fragment=2)         24.64     12.27     21.08 
 H(Fragment=2)         25.1      12.5      22.5 
 O(Fragment=2)         12.09     21.01     15.8 
 H(Fragment=2)         11.49     21.17     16.53 
 H(Fragment=2)         11.7      21.49     15.07 
 O(Fragment=2)         16.41     28.04     17.6 
 H(Fragment=2)         15.81     28.41     18.25 
 H(Fragment=2)         16.79     28.8      17.16 
 O(Fragment=2)         29.85     20.56     18.7 
 H(Fragment=2)         29.13     20.32     19.28 
 H(Fragment=2)         29.55     21.36     18.26 
 O(Fragment=2)         18.75     11.38     16.57 
 H(Fragment=2)         18.04     11.84     16.11 
 H(Fragment=2)         19.55     11.7      16.14 
 O(Fragment=2)         11.42     23.67     20.6 
 H(Fragment=2)         11.42     23.       21.29 
 H(Fragment=2)         10.5      23.76     20.35 
 O(Fragment=2)         26.88     23.8      13.6 
 H(Fragment=2)         26.13     23.64     14.16 
 H(Fragment=2)         27.2      24.66     13.87 
 O(Fragment=2)         13.96     15.34     14.71 
 H(Fragment=2)         13.28     15.08     15.33 
 H(Fragment=2)         13.48     15.69     13.96 
 O(Fragment=2)         13.66     14.58     24.2 
 H(Fragment=2)         13.46     13.69     24.49 
 H(Fragment=2)         13.93     15.04     24.99 
 O(Fragment=2)         23.65     19.82     28.98 
 H(Fragment=2)         23.11     20.59     28.78 
 H(Fragment=2)         23.56     19.71     29.93 
 O(Fragment=2)         12.37     25.66     22.23 
 H(Fragment=2)         12.17     24.8      21.88 
 H(Fragment=2)         11.89     26.27     21.68 
 O(Fragment=2)         11.71     14.65     17.11 
 H(Fragment=2)         12.37     15.08     17.66 
 H(Fragment=2)         10.92     14.67     17.64 
 O(Fragment=2)         21.09     23.51     29.33 
 H(Fragment=2)         20.36     23.52     28.73 
 H(Fragment=2)         21.75     22.97     28.9 
 O(Fragment=2)         11.       24.77     18.02 
 H(Fragment=2)         11.77     24.23     18.18 
 H(Fragment=2)         10.5      24.72     18.83 
 O(Fragment=2)         13.35     25.19     13.87 
 H(Fragment=2)         13.94     24.7      14.44 
 H(Fragment=2)         13.73     25.08     12.99 
 
 NAtoms=    385 NQM=      385 NQMF=       0 NMMI=      0 NMMIF=      0
                NMic=       0 NMicF=      0.
                    Isotopes and Nuclear Properties:
 (Nuclear quadrupole moments (NQMom) in fm**2, nuclear magnetic moments (NMagM)
  in nuclear magnetons)

  Atom         1           2           3           4           5           6           7           8           9          10
 IAtWgt=          79          16           1           1          16           1           1          16           1           1
 AtmWgt=  78.9183361  15.9949146   1.0078250   1.0078250  15.9949146   1.0078250   1.0078250  15.9949146   1.0078250   1.0078250
 NucSpn=           3           0           1           1           0           1           1           0           1           1
 AtZEff=   0.0000000   0.0000000   0.0000000   0.0000000   0.0000000   0.0000000   0.0000000   0.0000000   0.0000000   0.0000000
 NQMom=   31.3000000   0.0000000   0.0000000   0.0000000   0.0000000   0.0000000   0.0000000   0.0000000   0.0000000   0.0000000
 NMagM=    2.1063990   0.0000000   2.7928460   2.7928460   0.0000000   2.7928460   2.7928460   0.0000000   2.7928460   2.7928460
 AtZNuc=  35.0000000   8.0000000   1.0000000   1.0000000   8.0000000   1.0000000   1.0000000   8.0000000   1.0000000   1.0000000

  Atom        11          12          13          14          15          16          17          18          19          20
 IAtWgt=          16           1           1          16           1           1          16           1           1          16
 AtmWgt=  15.9949146   1.0078250   1.0078250  15.9949146   1.0078250   1.0078250  15.9949146   1.0078250   1.0078250  15.9949146
 NucSpn=           0           1           1           0           1           1           0           1           1           0
 AtZEff=   0.0000000   0.0000000   0.0000000   0.0000000   0.0000000   0.0000000   0.0000000   0.0000000   0.0000000   0.0000000
 NQMom=    0.0000000   0.0000000   0.0000000   0.0000000   0.0000000   0.0000000   0.0000000   0.0000000   0.0000000   0.0000000
 NMagM=    0.0000000   2.7928460   2.7928460   0.0000000   2.7928460   2.7928460   0.0000000   2.7928460   2.7928460   0.0000000
 AtZNuc=   8.0000000   1.0000000   1.0000000   8.0000000   1.0000000   1.0000000   8.0000000   1.0000000   1.0000000   8.0000000

  Atom        21          22          23          24          25          26          27          28          29          30
 IAtWgt=           1           1          16           1           1          16           1           1          16           1
 AtmWgt=   1.0078250   1.0078250  15.9949146   1.0078250   1.0078250  15.9949146   1.0078250   1.0078250  15.9949146   1.0078250
 NucSpn=           1           1           0           1           1           0           1           1           0           1
 AtZEff=   0.0000000   0.0000000   0.0000000   0.0000000   0.0000000   0.0000000   0.0000000   0.0000000   0.0000000   0.0000000
 NQMom=    0.0000000   0.0000000   0.0000000   0.0000000   0.0000000   0.0000000   0.0000000   0.0000000   0.0000000   0.0000000
 NMagM=    2.7928460   2.7928460   0.0000000   2.7928460   2.7928460   0.0000000   2.7928460   2.7928460   0.0000000   2.7928460
 AtZNuc=   1.0000000   1.0000000   8.0000000   1.0000000   1.0000000   8.0000000   1.0000000   1.0000000   8.0000000   1.0000000

  Atom        31          32          33          34          35          36          37          38          39          40
 IAtWgt=           1          16           1           1          16           1           1          16           1           1
 AtmWgt=   1.0078250  15.9949146   1.0078250   1.0078250  15.9949146   1.0078250   1.0078250  15.9949146   1.0078250   1.0078250
 NucSpn=           1           0           1           1           0           1           1           0           1           1
 AtZEff=   0.0000000   0.0000000   0.0000000   0.0000000   0.0000000   0.0000000   0.0000000   0.0000000   0.0000000   0.0000000
 NQMom=    0.0000000   0.0000000   0.0000000   0.0000000   0.0000000   0.0000000   0.0000000   0.0000000   0.0000000   0.0000000
 NMagM=    2.7928460   0.0000000   2.7928460   2.7928460   0.0000000   2.7928460   2.7928460   0.0000000   2.7928460   2.7928460
 AtZNuc=   1.0000000   8.0000000   1.0000000   1.0000000   8.0000000   1.0000000   1.0000000   8.0000000   1.0000000   1.0000000

  Atom        41          42          43          44          45          46          47          48          49          50
 IAtWgt=          16           1           1          16           1           1          16           1           1          16
 AtmWgt=  15.9949146   1.0078250   1.0078250  15.9949146   1.0078250   1.0078250  15.9949146   1.0078250   1.0078250  15.9949146
 NucSpn=           0           1           1           0           1           1           0           1           1           0
 AtZEff=   0.0000000   0.0000000   0.0000000   0.0000000   0.0000000   0.0000000   0.0000000   0.0000000   0.0000000   0.0000000
 NQMom=    0.0000000   0.0000000   0.0000000   0.0000000   0.0000000   0.0000000   0.0000000   0.0000000   0.0000000   0.0000000
 NMagM=    0.0000000   2.7928460   2.7928460   0.0000000   2.7928460   2.7928460   0.0000000   2.7928460   2.7928460   0.0000000
 AtZNuc=   8.0000000   1.0000000   1.0000000   8.0000000   1.0000000   1.0000000   8.0000000   1.0000000   1.0000000   8.0000000

  Atom        51          52          53          54          55          56          57          58          59          60
 IAtWgt=           1           1          16           1           1          16           1           1          16           1
 AtmWgt=   1.0078250   1.0078250  15.9949146   1.0078250   1.0078250  15.9949146   1.0078250   1.0078250  15.9949146   1.0078250
 NucSpn=           1           1           0           1           1           0           1           1           0           1
 AtZEff=   0.0000000   0.0000000   0.0000000   0.0000000   0.0000000   0.0000000   0.0000000   0.0000000   0.0000000   0.0000000
 NQMom=    0.0000000   0.0000000   0.0000000   0.0000000   0.0000000   0.0000000   0.0000000   0.0000000   0.0000000   0.0000000
 NMagM=    2.7928460   2.7928460   0.0000000   2.7928460   2.7928460   0.0000000   2.7928460   2.7928460   0.0000000   2.7928460
 AtZNuc=   1.0000000   1.0000000   8.0000000   1.0000000   1.0000000   8.0000000   1.0000000   1.0000000   8.0000000   1.0000000

  Atom        61          62          63          64          65          66          67          68          69          70
 IAtWgt=           1          16           1           1          16           1           1          16           1           1
 AtmWgt=   1.0078250  15.9949146   1.0078250   1.0078250  15.9949146   1.0078250   1.0078250  15.9949146   1.0078250   1.0078250
 NucSpn=           1           0           1           1           0           1           1           0           1           1
 AtZEff=   0.0000000   0.0000000   0.0000000   0.0000000   0.0000000   0.0000000   0.0000000   0.0000000   0.0000000   0.0000000
 NQMom=    0.0000000   0.0000000   0.0000000   0.0000000   0.0000000   0.0000000   0.0000000   0.0000000   0.0000000   0.0000000
 NMagM=    2.7928460   0.0000000   2.7928460   2.7928460   0.0000000   2.7928460   2.7928460   0.0000000   2.7928460   2.7928460
 AtZNuc=   1.0000000   8.0000000   1.0000000   1.0000000   8.0000000   1.0000000   1.0000000   8.0000000   1.0000000   1.0000000

  Atom        71          72          73          74          75          76          77          78          79          80
 IAtWgt=          16           1           1          16           1           1          16           1           1          16
 AtmWgt=  15.9949146   1.0078250   1.0078250  15.9949146   1.0078250   1.0078250  15.9949146   1.0078250   1.0078250  15.9949146
 NucSpn=           0           1           1           0           1           1           0           1           1           0
 AtZEff=   0.0000000   0.0000000   0.0000000   0.0000000   0.0000000   0.0000000   0.0000000   0.0000000   0.0000000   0.0000000
 NQMom=    0.0000000   0.0000000   0.0000000   0.0000000   0.0000000   0.0000000   0.0000000   0.0000000   0.0000000   0.0000000
 NMagM=    0.0000000   2.7928460   2.7928460   0.0000000   2.7928460   2.7928460   0.0000000   2.7928460   2.7928460   0.0000000
 AtZNuc=   8.0000000   1.0000000   1.0000000   8.0000000   1.0000000   1.0000000   8.0000000   1.0000000   1.0000000   8.0000000

  Atom        81          82          83          84          85          86          87          88          89          90
 IAtWgt=           1           1          16           1           1          16           1           1          16           1
 AtmWgt=   1.0078250   1.0078250  15.9949146   1.0078250   1.0078250  15.9949146   1.0078250   1.0078250  15.9949146   1.0078250
 NucSpn=           1           1           0           1           1           0           1           1           0           1
 AtZEff=   0.0000000   0.0000000   0.0000000   0.0000000   0.0000000   0.0000000   0.0000000   0.0000000   0.0000000   0.0000000
 NQMom=    0.0000000   0.0000000   0.0000000   0.0000000   0.0000000   0.0000000   0.0000000   0.0000000   0.0000000   0.0000000
 NMagM=    2.7928460   2.7928460   0.0000000   2.7928460   2.7928460   0.0000000   2.7928460   2.7928460   0.0000000   2.7928460
 AtZNuc=   1.0000000   1.0000000   8.0000000   1.0000000   1.0000000   8.0000000   1.0000000   1.0000000   8.0000000   1.0000000

  Atom        91          92          93          94          95          96          97          98          99         100
 IAtWgt=           1          16           1           1          16           1           1          16           1           1
 AtmWgt=   1.0078250  15.9949146   1.0078250   1.0078250  15.9949146   1.0078250   1.0078250  15.9949146   1.0078250   1.0078250
 NucSpn=           1           0           1           1           0           1           1           0           1           1
 AtZEff=   0.0000000   0.0000000   0.0000000   0.0000000   0.0000000   0.0000000   0.0000000   0.0000000   0.0000000   0.0000000
 NQMom=    0.0000000   0.0000000   0.0000000   0.0000000   0.0000000   0.0000000   0.0000000   0.0000000   0.0000000   0.0000000
 NMagM=    2.7928460   0.0000000   2.7928460   2.7928460   0.0000000   2.7928460   2.7928460   0.0000000   2.7928460   2.7928460
 AtZNuc=   1.0000000   8.0000000   1.0000000   1.0000000   8.0000000   1.0000000   1.0000000   8.0000000   1.0000000   1.0000000

  Atom       101         102         103         104         105         106         107         108         109         110
 IAtWgt=          16           1           1          16           1           1          16           1           1          16
 AtmWgt=  15.9949146   1.0078250   1.0078250  15.9949146   1.0078250   1.0078250  15.9949146   1.0078250   1.0078250  15.9949146
 NucSpn=           0           1           1           0           1           1           0           1           1           0
 AtZEff=   0.0000000   0.0000000   0.0000000   0.0000000   0.0000000   0.0000000   0.0000000   0.0000000   0.0000000   0.0000000
 NQMom=    0.0000000   0.0000000   0.0000000   0.0000000   0.0000000   0.0000000   0.0000000   0.0000000   0.0000000   0.0000000
 NMagM=    0.0000000   2.7928460   2.7928460   0.0000000   2.7928460   2.7928460   0.0000000   2.7928460   2.7928460   0.0000000
 AtZNuc=   8.0000000   1.0000000   1.0000000   8.0000000   1.0000000   1.0000000   8.0000000   1.0000000   1.0000000   8.0000000

  Atom       111         112         113         114         115         116         117         118         119         120
 IAtWgt=           1           1          16           1           1          16           1           1          16           1
 AtmWgt=   1.0078250   1.0078250  15.9949146   1.0078250   1.0078250  15.9949146   1.0078250   1.0078250  15.9949146   1.0078250
 NucSpn=           1           1           0           1           1           0           1           1           0           1
 AtZEff=   0.0000000   0.0000000   0.0000000   0.0000000   0.0000000   0.0000000   0.0000000   0.0000000   0.0000000   0.0000000
 NQMom=    0.0000000   0.0000000   0.0000000   0.0000000   0.0000000   0.0000000   0.0000000   0.0000000   0.0000000   0.0000000
 NMagM=    2.7928460   2.7928460   0.0000000   2.7928460   2.7928460   0.0000000   2.7928460   2.7928460   0.0000000   2.7928460
 AtZNuc=   1.0000000   1.0000000   8.0000000   1.0000000   1.0000000   8.0000000   1.0000000   1.0000000   8.0000000   1.0000000

  Atom       121         122         123         124         125         126         127         128         129         130
 IAtWgt=           1          16           1           1          16           1           1          16           1           1
 AtmWgt=   1.0078250  15.9949146   1.0078250   1.0078250  15.9949146   1.0078250   1.0078250  15.9949146   1.0078250   1.0078250
 NucSpn=           1           0           1           1           0           1           1           0           1           1
 AtZEff=   0.0000000   0.0000000   0.0000000   0.0000000   0.0000000   0.0000000   0.0000000   0.0000000   0.0000000   0.0000000
 NQMom=    0.0000000   0.0000000   0.0000000   0.0000000   0.0000000   0.0000000   0.0000000   0.0000000   0.0000000   0.0000000
 NMagM=    2.7928460   0.0000000   2.7928460   2.7928460   0.0000000   2.7928460   2.7928460   0.0000000   2.7928460   2.7928460
 AtZNuc=   1.0000000   8.0000000   1.0000000   1.0000000   8.0000000   1.0000000   1.0000000   8.0000000   1.0000000   1.0000000

  Atom       131         132         133         134         135         136         137         138         139         140
 IAtWgt=          16           1           1          16           1           1          16           1           1          16
 AtmWgt=  15.9949146   1.0078250   1.0078250  15.9949146   1.0078250   1.0078250  15.9949146   1.0078250   1.0078250  15.9949146
 NucSpn=           0           1           1           0           1           1           0           1           1           0
 AtZEff=   0.0000000   0.0000000   0.0000000   0.0000000   0.0000000   0.0000000   0.0000000   0.0000000   0.0000000   0.0000000
 NQMom=    0.0000000   0.0000000   0.0000000   0.0000000   0.0000000   0.0000000   0.0000000   0.0000000   0.0000000   0.0000000
 NMagM=    0.0000000   2.7928460   2.7928460   0.0000000   2.7928460   2.7928460   0.0000000   2.7928460   2.7928460   0.0000000
 AtZNuc=   8.0000000   1.0000000   1.0000000   8.0000000   1.0000000   1.0000000   8.0000000   1.0000000   1.0000000   8.0000000

  Atom       141         142         143         144         145         146         147         148         149         150
 IAtWgt=           1           1          16           1           1          16           1           1          16           1
 AtmWgt=   1.0078250   1.0078250  15.9949146   1.0078250   1.0078250  15.9949146   1.0078250   1.0078250  15.9949146   1.0078250
 NucSpn=           1           1           0           1           1           0           1           1           0           1
 AtZEff=   0.0000000   0.0000000   0.0000000   0.0000000   0.0000000   0.0000000   0.0000000   0.0000000   0.0000000   0.0000000
 NQMom=    0.0000000   0.0000000   0.0000000   0.0000000   0.0000000   0.0000000   0.0000000   0.0000000   0.0000000   0.0000000
 NMagM=    2.7928460   2.7928460   0.0000000   2.7928460   2.7928460   0.0000000   2.7928460   2.7928460   0.0000000   2.7928460
 AtZNuc=   1.0000000   1.0000000   8.0000000   1.0000000   1.0000000   8.0000000   1.0000000   1.0000000   8.0000000   1.0000000

  Atom       151         152         153         154         155         156         157         158         159         160
 IAtWgt=           1          16           1           1          16           1           1          16           1           1
 AtmWgt=   1.0078250  15.9949146   1.0078250   1.0078250  15.9949146   1.0078250   1.0078250  15.9949146   1.0078250   1.0078250
 NucSpn=           1           0           1           1           0           1           1           0           1           1
 AtZEff=   0.0000000   0.0000000   0.0000000   0.0000000   0.0000000   0.0000000   0.0000000   0.0000000   0.0000000   0.0000000
 NQMom=    0.0000000   0.0000000   0.0000000   0.0000000   0.0000000   0.0000000   0.0000000   0.0000000   0.0000000   0.0000000
 NMagM=    2.7928460   0.0000000   2.7928460   2.7928460   0.0000000   2.7928460   2.7928460   0.0000000   2.7928460   2.7928460
 AtZNuc=   1.0000000   8.0000000   1.0000000   1.0000000   8.0000000   1.0000000   1.0000000   8.0000000   1.0000000   1.0000000

  Atom       161         162         163         164         165         166         167         168         169         170
 IAtWgt=          16           1           1          16           1           1          16           1           1          16
 AtmWgt=  15.9949146   1.0078250   1.0078250  15.9949146   1.0078250   1.0078250  15.9949146   1.0078250   1.0078250  15.9949146
 NucSpn=           0           1           1           0           1           1           0           1           1           0
 AtZEff=   0.0000000   0.0000000   0.0000000   0.0000000   0.0000000   0.0000000   0.0000000   0.0000000   0.0000000   0.0000000
 NQMom=    0.0000000   0.0000000   0.0000000   0.0000000   0.0000000   0.0000000   0.0000000   0.0000000   0.0000000   0.0000000
 NMagM=    0.0000000   2.7928460   2.7928460   0.0000000   2.7928460   2.7928460   0.0000000   2.7928460   2.7928460   0.0000000
 AtZNuc=   8.0000000   1.0000000   1.0000000   8.0000000   1.0000000   1.0000000   8.0000000   1.0000000   1.0000000   8.0000000

  Atom       171         172         173         174         175         176         177         178         179         180
 IAtWgt=           1           1          16           1           1          16           1           1          16           1
 AtmWgt=   1.0078250   1.0078250  15.9949146   1.0078250   1.0078250  15.9949146   1.0078250   1.0078250  15.9949146   1.0078250
 NucSpn=           1           1           0           1           1           0           1           1           0           1
 AtZEff=   0.0000000   0.0000000   0.0000000   0.0000000   0.0000000   0.0000000   0.0000000   0.0000000   0.0000000   0.0000000
 NQMom=    0.0000000   0.0000000   0.0000000   0.0000000   0.0000000   0.0000000   0.0000000   0.0000000   0.0000000   0.0000000
 NMagM=    2.7928460   2.7928460   0.0000000   2.7928460   2.7928460   0.0000000   2.7928460   2.7928460   0.0000000   2.7928460
 AtZNuc=   1.0000000   1.0000000   8.0000000   1.0000000   1.0000000   8.0000000   1.0000000   1.0000000   8.0000000   1.0000000

  Atom       181         182         183         184         185         186         187         188         189         190
 IAtWgt=           1          16           1           1          16           1           1          16           1           1
 AtmWgt=   1.0078250  15.9949146   1.0078250   1.0078250  15.9949146   1.0078250   1.0078250  15.9949146   1.0078250   1.0078250
 NucSpn=           1           0           1           1           0           1           1           0           1           1
 AtZEff=   0.0000000   0.0000000   0.0000000   0.0000000   0.0000000   0.0000000   0.0000000   0.0000000   0.0000000   0.0000000
 NQMom=    0.0000000   0.0000000   0.0000000   0.0000000   0.0000000   0.0000000   0.0000000   0.0000000   0.0000000   0.0000000
 NMagM=    2.7928460   0.0000000   2.7928460   2.7928460   0.0000000   2.7928460   2.7928460   0.0000000   2.7928460   2.7928460
 AtZNuc=   1.0000000   8.0000000   1.0000000   1.0000000   8.0000000   1.0000000   1.0000000   8.0000000   1.0000000   1.0000000

  Atom       191         192         193         194         195         196         197         198         199         200
 IAtWgt=          16           1           1          16           1           1          16           1           1          16
 AtmWgt=  15.9949146   1.0078250   1.0078250  15.9949146   1.0078250   1.0078250  15.9949146   1.0078250   1.0078250  15.9949146
 NucSpn=           0           1           1           0           1           1           0           1           1           0
 AtZEff=   0.0000000   0.0000000   0.0000000   0.0000000   0.0000000   0.0000000   0.0000000   0.0000000   0.0000000   0.0000000
 NQMom=    0.0000000   0.0000000   0.0000000   0.0000000   0.0000000   0.0000000   0.0000000   0.0000000   0.0000000   0.0000000
 NMagM=    0.0000000   2.7928460   2.7928460   0.0000000   2.7928460   2.7928460   0.0000000   2.7928460   2.7928460   0.0000000
 AtZNuc=   8.0000000   1.0000000   1.0000000   8.0000000   1.0000000   1.0000000   8.0000000   1.0000000   1.0000000   8.0000000

  Atom       201         202         203         204         205         206         207         208         209         210
 IAtWgt=           1           1          16           1           1          16           1           1          16           1
 AtmWgt=   1.0078250   1.0078250  15.9949146   1.0078250   1.0078250  15.9949146   1.0078250   1.0078250  15.9949146   1.0078250
 NucSpn=           1           1           0           1           1           0           1           1           0           1
 AtZEff=   0.0000000   0.0000000   0.0000000   0.0000000   0.0000000   0.0000000   0.0000000   0.0000000   0.0000000   0.0000000
 NQMom=    0.0000000   0.0000000   0.0000000   0.0000000   0.0000000   0.0000000   0.0000000   0.0000000   0.0000000   0.0000000
 NMagM=    2.7928460   2.7928460   0.0000000   2.7928460   2.7928460   0.0000000   2.7928460   2.7928460   0.0000000   2.7928460
 AtZNuc=   1.0000000   1.0000000   8.0000000   1.0000000   1.0000000   8.0000000   1.0000000   1.0000000   8.0000000   1.0000000

  Atom       211         212         213         214         215         216         217         218         219         220
 IAtWgt=           1          16           1           1          16           1           1          16           1           1
 AtmWgt=   1.0078250  15.9949146   1.0078250   1.0078250  15.9949146   1.0078250   1.0078250  15.9949146   1.0078250   1.0078250
 NucSpn=           1           0           1           1           0           1           1           0           1           1
 AtZEff=   0.0000000   0.0000000   0.0000000   0.0000000   0.0000000   0.0000000   0.0000000   0.0000000   0.0000000   0.0000000
 NQMom=    0.0000000   0.0000000   0.0000000   0.0000000   0.0000000   0.0000000   0.0000000   0.0000000   0.0000000   0.0000000
 NMagM=    2.7928460   0.0000000   2.7928460   2.7928460   0.0000000   2.7928460   2.7928460   0.0000000   2.7928460   2.7928460
 AtZNuc=   1.0000000   8.0000000   1.0000000   1.0000000   8.0000000   1.0000000   1.0000000   8.0000000   1.0000000   1.0000000

  Atom       221         222         223         224         225         226         227         228         229         230
 IAtWgt=          16           1           1          16           1           1          16           1           1          16
 AtmWgt=  15.9949146   1.0078250   1.0078250  15.9949146   1.0078250   1.0078250  15.9949146   1.0078250   1.0078250  15.9949146
 NucSpn=           0           1           1           0           1           1           0           1           1           0
 AtZEff=   0.0000000   0.0000000   0.0000000   0.0000000   0.0000000   0.0000000   0.0000000   0.0000000   0.0000000   0.0000000
 NQMom=    0.0000000   0.0000000   0.0000000   0.0000000   0.0000000   0.0000000   0.0000000   0.0000000   0.0000000   0.0000000
 NMagM=    0.0000000   2.7928460   2.7928460   0.0000000   2.7928460   2.7928460   0.0000000   2.7928460   2.7928460   0.0000000
 AtZNuc=   8.0000000   1.0000000   1.0000000   8.0000000   1.0000000   1.0000000   8.0000000   1.0000000   1.0000000   8.0000000

  Atom       231         232         233         234         235         236         237         238         239         240
 IAtWgt=           1           1          16           1           1          16           1           1          16           1
 AtmWgt=   1.0078250   1.0078250  15.9949146   1.0078250   1.0078250  15.9949146   1.0078250   1.0078250  15.9949146   1.0078250
 NucSpn=           1           1           0           1           1           0           1           1           0           1
 AtZEff=   0.0000000   0.0000000   0.0000000   0.0000000   0.0000000   0.0000000   0.0000000   0.0000000   0.0000000   0.0000000
 NQMom=    0.0000000   0.0000000   0.0000000   0.0000000   0.0000000   0.0000000   0.0000000   0.0000000   0.0000000   0.0000000
 NMagM=    2.7928460   2.7928460   0.0000000   2.7928460   2.7928460   0.0000000   2.7928460   2.7928460   0.0000000   2.7928460
 AtZNuc=   1.0000000   1.0000000   8.0000000   1.0000000   1.0000000   8.0000000   1.0000000   1.0000000   8.0000000   1.0000000

  Atom       241         242         243         244         245         246         247         248         249         250
 IAtWgt=           1          16           1           1          16           1           1          16           1           1
 AtmWgt=   1.0078250  15.9949146   1.0078250   1.0078250  15.9949146   1.0078250   1.0078250  15.9949146   1.0078250   1.0078250
 NucSpn=           1           0           1           1           0           1           1           0           1           1
 AtZEff=   0.0000000   0.0000000   0.0000000   0.0000000   0.0000000   0.0000000   0.0000000   0.0000000   0.0000000   0.0000000
 NQMom=    0.0000000   0.0000000   0.0000000   0.0000000   0.0000000   0.0000000   0.0000000   0.0000000   0.0000000   0.0000000
 NMagM=    2.7928460   0.0000000   2.7928460   2.7928460   0.0000000   2.7928460   2.7928460   0.0000000   2.7928460   2.7928460
 AtZNuc=   1.0000000   8.0000000   1.0000000   1.0000000   8.0000000   1.0000000   1.0000000   8.0000000   1.0000000   1.0000000

  Atom       251         252         253         254         255         256         257         258         259         260
 IAtWgt=          16           1           1          16           1           1          16           1           1          16
 AtmWgt=  15.9949146   1.0078250   1.0078250  15.9949146   1.0078250   1.0078250  15.9949146   1.0078250   1.0078250  15.9949146
 NucSpn=           0           1           1           0           1           1           0           1           1           0
 AtZEff=   0.0000000   0.0000000   0.0000000   0.0000000   0.0000000   0.0000000   0.0000000   0.0000000   0.0000000   0.0000000
 NQMom=    0.0000000   0.0000000   0.0000000   0.0000000   0.0000000   0.0000000   0.0000000   0.0000000   0.0000000   0.0000000
 NMagM=    0.0000000   2.7928460   2.7928460   0.0000000   2.7928460   2.7928460   0.0000000   2.7928460   2.7928460   0.0000000
 AtZNuc=   8.0000000   1.0000000   1.0000000   8.0000000   1.0000000   1.0000000   8.0000000   1.0000000   1.0000000   8.0000000

  Atom       261         262         263         264         265         266         267         268         269         270
 IAtWgt=           1           1          16           1           1          16           1           1          16           1
 AtmWgt=   1.0078250   1.0078250  15.9949146   1.0078250   1.0078250  15.9949146   1.0078250   1.0078250  15.9949146   1.0078250
 NucSpn=           1           1           0           1           1           0           1           1           0           1
 AtZEff=   0.0000000   0.0000000   0.0000000   0.0000000   0.0000000   0.0000000   0.0000000   0.0000000   0.0000000   0.0000000
 NQMom=    0.0000000   0.0000000   0.0000000   0.0000000   0.0000000   0.0000000   0.0000000   0.0000000   0.0000000   0.0000000
 NMagM=    2.7928460   2.7928460   0.0000000   2.7928460   2.7928460   0.0000000   2.7928460   2.7928460   0.0000000   2.7928460
 AtZNuc=   1.0000000   1.0000000   8.0000000   1.0000000   1.0000000   8.0000000   1.0000000   1.0000000   8.0000000   1.0000000

  Atom       271         272         273         274         275         276         277         278         279         280
 IAtWgt=           1          16           1           1          16           1           1          16           1           1
 AtmWgt=   1.0078250  15.9949146   1.0078250   1.0078250  15.9949146   1.0078250   1.0078250  15.9949146   1.0078250   1.0078250
 NucSpn=           1           0           1           1           0           1           1           0           1           1
 AtZEff=   0.0000000   0.0000000   0.0000000   0.0000000   0.0000000   0.0000000   0.0000000   0.0000000   0.0000000   0.0000000
 NQMom=    0.0000000   0.0000000   0.0000000   0.0000000   0.0000000   0.0000000   0.0000000   0.0000000   0.0000000   0.0000000
 NMagM=    2.7928460   0.0000000   2.7928460   2.7928460   0.0000000   2.7928460   2.7928460   0.0000000   2.7928460   2.7928460
 AtZNuc=   1.0000000   8.0000000   1.0000000   1.0000000   8.0000000   1.0000000   1.0000000   8.0000000   1.0000000   1.0000000

  Atom       281         282         283         284         285         286         287         288         289         290
 IAtWgt=          16           1           1          16           1           1          16           1           1          16
 AtmWgt=  15.9949146   1.0078250   1.0078250  15.9949146   1.0078250   1.0078250  15.9949146   1.0078250   1.0078250  15.9949146
 NucSpn=           0           1           1           0           1           1           0           1           1           0
 AtZEff=   0.0000000   0.0000000   0.0000000   0.0000000   0.0000000   0.0000000   0.0000000   0.0000000   0.0000000   0.0000000
 NQMom=    0.0000000   0.0000000   0.0000000   0.0000000   0.0000000   0.0000000   0.0000000   0.0000000   0.0000000   0.0000000
 NMagM=    0.0000000   2.7928460   2.7928460   0.0000000   2.7928460   2.7928460   0.0000000   2.7928460   2.7928460   0.0000000
 AtZNuc=   8.0000000   1.0000000   1.0000000   8.0000000   1.0000000   1.0000000   8.0000000   1.0000000   1.0000000   8.0000000

  Atom       291         292         293         294         295         296         297         298         299         300
 IAtWgt=           1           1          16           1           1          16           1           1          16           1
 AtmWgt=   1.0078250   1.0078250  15.9949146   1.0078250   1.0078250  15.9949146   1.0078250   1.0078250  15.9949146   1.0078250
 NucSpn=           1           1           0           1           1           0           1           1           0           1
 AtZEff=   0.0000000   0.0000000   0.0000000   0.0000000   0.0000000   0.0000000   0.0000000   0.0000000   0.0000000   0.0000000
 NQMom=    0.0000000   0.0000000   0.0000000   0.0000000   0.0000000   0.0000000   0.0000000   0.0000000   0.0000000   0.0000000
 NMagM=    2.7928460   2.7928460   0.0000000   2.7928460   2.7928460   0.0000000   2.7928460   2.7928460   0.0000000   2.7928460
 AtZNuc=   1.0000000   1.0000000   8.0000000   1.0000000   1.0000000   8.0000000   1.0000000   1.0000000   8.0000000   1.0000000

  Atom       301         302         303         304         305         306         307         308         309         310
 IAtWgt=           1          16           1           1          16           1           1          16           1           1
 AtmWgt=   1.0078250  15.9949146   1.0078250   1.0078250  15.9949146   1.0078250   1.0078250  15.9949146   1.0078250   1.0078250
 NucSpn=           1           0           1           1           0           1           1           0           1           1
 AtZEff=   0.0000000   0.0000000   0.0000000   0.0000000   0.0000000   0.0000000   0.0000000   0.0000000   0.0000000   0.0000000
 NQMom=    0.0000000   0.0000000   0.0000000   0.0000000   0.0000000   0.0000000   0.0000000   0.0000000   0.0000000   0.0000000
 NMagM=    2.7928460   0.0000000   2.7928460   2.7928460   0.0000000   2.7928460   2.7928460   0.0000000   2.7928460   2.7928460
 AtZNuc=   1.0000000   8.0000000   1.0000000   1.0000000   8.0000000   1.0000000   1.0000000   8.0000000   1.0000000   1.0000000

  Atom       311         312         313         314         315         316         317         318         319         320
 IAtWgt=          16           1           1          16           1           1          16           1           1          16
 AtmWgt=  15.9949146   1.0078250   1.0078250  15.9949146   1.0078250   1.0078250  15.9949146   1.0078250   1.0078250  15.9949146
 NucSpn=           0           1           1           0           1           1           0           1           1           0
 AtZEff=   0.0000000   0.0000000   0.0000000   0.0000000   0.0000000   0.0000000   0.0000000   0.0000000   0.0000000   0.0000000
 NQMom=    0.0000000   0.0000000   0.0000000   0.0000000   0.0000000   0.0000000   0.0000000   0.0000000   0.0000000   0.0000000
 NMagM=    0.0000000   2.7928460   2.7928460   0.0000000   2.7928460   2.7928460   0.0000000   2.7928460   2.7928460   0.0000000
 AtZNuc=   8.0000000   1.0000000   1.0000000   8.0000000   1.0000000   1.0000000   8.0000000   1.0000000   1.0000000   8.0000000

  Atom       321         322         323         324         325         326         327         328         329         330
 IAtWgt=           1           1          16           1           1          16           1           1          16           1
 AtmWgt=   1.0078250   1.0078250  15.9949146   1.0078250   1.0078250  15.9949146   1.0078250   1.0078250  15.9949146   1.0078250
 NucSpn=           1           1           0           1           1           0           1           1           0           1
 AtZEff=   0.0000000   0.0000000   0.0000000   0.0000000   0.0000000   0.0000000   0.0000000   0.0000000   0.0000000   0.0000000
 NQMom=    0.0000000   0.0000000   0.0000000   0.0000000   0.0000000   0.0000000   0.0000000   0.0000000   0.0000000   0.0000000
 NMagM=    2.7928460   2.7928460   0.0000000   2.7928460   2.7928460   0.0000000   2.7928460   2.7928460   0.0000000   2.7928460
 AtZNuc=   1.0000000   1.0000000   8.0000000   1.0000000   1.0000000   8.0000000   1.0000000   1.0000000   8.0000000   1.0000000

  Atom       331         332         333         334         335         336         337         338         339         340
 IAtWgt=           1          16           1           1          16           1           1          16           1           1
 AtmWgt=   1.0078250  15.9949146   1.0078250   1.0078250  15.9949146   1.0078250   1.0078250  15.9949146   1.0078250   1.0078250
 NucSpn=           1           0           1           1           0           1           1           0           1           1
 AtZEff=   0.0000000   0.0000000   0.0000000   0.0000000   0.0000000   0.0000000   0.0000000   0.0000000   0.0000000   0.0000000
 NQMom=    0.0000000   0.0000000   0.0000000   0.0000000   0.0000000   0.0000000   0.0000000   0.0000000   0.0000000   0.0000000
 NMagM=    2.7928460   0.0000000   2.7928460   2.7928460   0.0000000   2.7928460   2.7928460   0.0000000   2.7928460   2.7928460
 AtZNuc=   1.0000000   8.0000000   1.0000000   1.0000000   8.0000000   1.0000000   1.0000000   8.0000000   1.0000000   1.0000000

  Atom       341         342         343         344         345         346         347         348         349         350
 IAtWgt=          16           1           1          16           1           1          16           1           1          16
 AtmWgt=  15.9949146   1.0078250   1.0078250  15.9949146   1.0078250   1.0078250  15.9949146   1.0078250   1.0078250  15.9949146
 NucSpn=           0           1           1           0           1           1           0           1           1           0
 AtZEff=   0.0000000   0.0000000   0.0000000   0.0000000   0.0000000   0.0000000   0.0000000   0.0000000   0.0000000   0.0000000
 NQMom=    0.0000000   0.0000000   0.0000000   0.0000000   0.0000000   0.0000000   0.0000000   0.0000000   0.0000000   0.0000000
 NMagM=    0.0000000   2.7928460   2.7928460   0.0000000   2.7928460   2.7928460   0.0000000   2.7928460   2.7928460   0.0000000
 AtZNuc=   8.0000000   1.0000000   1.0000000   8.0000000   1.0000000   1.0000000   8.0000000   1.0000000   1.0000000   8.0000000

  Atom       351         352         353         354         355         356         357         358         359         360
 IAtWgt=           1           1          16           1           1          16           1           1          16           1
 AtmWgt=   1.0078250   1.0078250  15.9949146   1.0078250   1.0078250  15.9949146   1.0078250   1.0078250  15.9949146   1.0078250
 NucSpn=           1           1           0           1           1           0           1           1           0           1
 AtZEff=   0.0000000   0.0000000   0.0000000   0.0000000   0.0000000   0.0000000   0.0000000   0.0000000   0.0000000   0.0000000
 NQMom=    0.0000000   0.0000000   0.0000000   0.0000000   0.0000000   0.0000000   0.0000000   0.0000000   0.0000000   0.0000000
 NMagM=    2.7928460   2.7928460   0.0000000   2.7928460   2.7928460   0.0000000   2.7928460   2.7928460   0.0000000   2.7928460
 AtZNuc=   1.0000000   1.0000000   8.0000000   1.0000000   1.0000000   8.0000000   1.0000000   1.0000000   8.0000000   1.0000000

  Atom       361         362         363         364         365         366         367         368         369         370
 IAtWgt=           1          16           1           1          16           1           1          16           1           1
 AtmWgt=   1.0078250  15.9949146   1.0078250   1.0078250  15.9949146   1.0078250   1.0078250  15.9949146   1.0078250   1.0078250
 NucSpn=           1           0           1           1           0           1           1           0           1           1
 AtZEff=   0.0000000   0.0000000   0.0000000   0.0000000   0.0000000   0.0000000   0.0000000   0.0000000   0.0000000   0.0000000
 NQMom=    0.0000000   0.0000000   0.0000000   0.0000000   0.0000000   0.0000000   0.0000000   0.0000000   0.0000000   0.0000000
 NMagM=    2.7928460   0.0000000   2.7928460   2.7928460   0.0000000   2.7928460   2.7928460   0.0000000   2.7928460   2.7928460
 AtZNuc=   1.0000000   8.0000000   1.0000000   1.0000000   8.0000000   1.0000000   1.0000000   8.0000000   1.0000000   1.0000000

  Atom       371         372         373         374         375         376         377         378         379         380
 IAtWgt=          16           1           1          16           1           1          16           1           1          16
 AtmWgt=  15.9949146   1.0078250   1.0078250  15.9949146   1.0078250   1.0078250  15.9949146   1.0078250   1.0078250  15.9949146
 NucSpn=           0           1           1           0           1           1           0           1           1           0
 AtZEff=   0.0000000   0.0000000   0.0000000   0.0000000   0.0000000   0.0000000   0.0000000   0.0000000   0.0000000   0.0000000
 NQMom=    0.0000000   0.0000000   0.0000000   0.0000000   0.0000000   0.0000000   0.0000000   0.0000000   0.0000000   0.0000000
 NMagM=    0.0000000   2.7928460   2.7928460   0.0000000   2.7928460   2.7928460   0.0000000   2.7928460   2.7928460   0.0000000
 AtZNuc=   8.0000000   1.0000000   1.0000000   8.0000000   1.0000000   1.0000000   8.0000000   1.0000000   1.0000000   8.0000000

  Atom       381         382         383         384         385
 IAtWgt=           1           1          16           1           1
 AtmWgt=   1.0078250   1.0078250  15.9949146   1.0078250   1.0078250
 NucSpn=           1           1           0           1           1
 AtZEff=   0.0000000   0.0000000   0.0000000   0.0000000   0.0000000
 NQMom=    0.0000000   0.0000000   0.0000000   0.0000000   0.0000000
 NMagM=    2.7928460   2.7928460   0.0000000   2.7928460   2.7928460
 AtZNuc=   1.0000000   1.0000000   8.0000000   1.0000000   1.0000000
 Leave Link  101 at Wed May 16 05:52:40 2018, MaxMem= 14763950080 cpu:        77.9
 (Enter /cm/shared/gaussian/g09.e01/intel64-sandybridge/g09/l103.exe)

 GradGradGradGradGradGradGradGradGradGradGradGradGradGradGradGradGradGrad
 Berny optimization.
 Initialization pass.
 Trust Radius=3.00D-01 FncErr=1.00D-07 GrdErr=1.00D-07
 Number of steps in this run=      2 maximum allowed number of steps=      2.
 GradGradGradGradGradGradGradGradGradGradGradGradGradGradGradGradGradGrad

 Leave Link  103 at Wed May 16 05:52:55 2018, MaxMem= 14763950080 cpu:       969.7
 (Enter /cm/shared/gaussian/g09.e01/intel64-sandybridge/g09/l202.exe)
 Symmetry turned off by external request.
 Stoichiometry    BrH256O128(1-)
 Framework group  C1[X(BrH256O128)]
 Deg. of freedom  1149
 Full point group                 C1      NOp   1
                          Input orientation:                          
 ---------------------------------------------------------------------
 Center     Atomic      Atomic             Coordinates (Angstroms)
 Number     Number       Type             X           Y           Z
 ---------------------------------------------------------------------
      1         35           0       20.000000   20.000000   20.000000
      2          8           0       17.890000   22.240000   19.090000
      3          1           0       18.580000   21.610000   19.320000
      4          1           0       17.180000   22.040000   19.710000
      5          8           0       22.040000   22.170000   21.290000
      6          1           0       21.460000   21.480000   20.970000
      7          1           0       22.870000   21.720000   21.460000
      8          8           0       17.540000   18.880000   21.750000
      9          1           0       18.140000   19.400000   21.210000
     10          1           0       18.040000   18.700000   22.550000
     11          8           0       20.840000   17.810000   17.550000
     12          1           0       20.420000   18.300000   18.260000
     13          1           0       20.330000   18.040000   16.770000
     14          8           0       21.410000   22.280000   17.670000
     15          1           0       22.170000   21.930000   17.200000
     16          1           0       21.050000   21.530000   18.130000
     17          8           0       22.560000   17.810000   22.070000
     18          1           0       22.870000   17.090000   21.520000
     19          1           0       22.030000   18.360000   21.480000
     20          8           0       17.160000   17.800000   18.120000
     21          1           0       17.680000   18.560000   17.840000
     22          1           0       16.330000   18.170000   18.420000
     23          8           0       18.120000   16.480000   20.500000
     24          1           0       17.690000   16.430000   19.650000
     25          1           0       17.880000   17.350000   20.830000
     26          8           0       20.960000   21.550000   23.860000
     27          1           0       21.660000   22.060000   24.260000
     28          1           0       21.100000   21.660000   22.910000
     29          8           0       16.210000   21.170000   20.790000
     30          1           0       16.680000   20.480000   21.270000
     31          1           0       15.330000   20.800000   20.650000
     32          8           0       17.750000   21.290000   16.430000
     33          1           0       18.060000   21.490000   17.310000
     34          1           0       16.820000   21.530000   16.450000
     35          8           0       18.150000   21.530000   23.910000
     36          1           0       17.910000   22.440000   23.740000
     37          1           0       19.080000   21.480000   23.670000
     38          8           0       19.630000   17.440000   23.950000
     39          1           0       18.870000   16.940000   23.670000
     40          1           0       20.250000   17.370000   23.230000
     41          8           0       20.700000   15.200000   20.360000
     42          1           0       21.250000   15.970000   20.450000
     43          1           0       19.810000   15.550000   20.300000
     44          8           0       23.690000   18.300000   17.510000
     45          1           0       24.100000   18.000000   16.700000
     46          1           0       22.770000   18.050000   17.430000
     47          8           0       21.140000   24.830000   20.490000
     48          1           0       21.410000   23.970000   20.790000
     49          1           0       20.990000   24.730000   19.550000
     50          8           0       19.720000   24.320000   17.950000
     51          1           0       18.970000   23.850000   18.300000
     52          1           0       20.320000   23.640000   17.650000
     53          8           0       23.440000   21.030000   16.770000
     54          1           0       23.560000   20.700000   15.880000
     55          1           0       23.410000   20.250000   17.320000
     56          8           0       23.510000   16.700000   19.710000
     57          1           0       23.530000   17.390000   19.040000
     58          1           0       24.430000   16.490000   19.870000
     59          8           0       17.420000   23.910000   22.060000
     60          1           0       16.970000   24.520000   21.480000
     61          1           0       17.080000   23.050000   21.830000
     62          8           0       19.950000   22.920000   15.360000
     63          1           0       20.330000   22.660000   16.200000
     64          1           0       19.240000   22.290000   15.210000
     65          8           0       22.820000   18.640000   24.680000
     66          1           0       22.020000   19.110000   24.890000
     67          1           0       22.740000   18.410000   23.750000
     68          8           0       17.290000   16.120000   23.060000
     69          1           0       17.580000   16.040000   22.150000
     70          1           0       16.400000   15.770000   23.060000
     71          8           0       19.410000   18.650000   15.070000
     72          1           0       18.540000   19.030000   14.970000
     73          1           0       19.930000   19.060000   14.370000
     74          8           0       24.230000   21.080000   22.840000
     75          1           0       24.230000   20.730000   23.730000
     76          1           0       24.620000   20.390000   22.310000
     77          8           0       14.810000   19.240000   18.880000
     78          1           0       14.920000   18.750000   19.700000
     79          1           0       13.940000   18.990000   18.560000
     80          8           0       25.870000   19.220000   18.820000
     81          1           0       25.030000   18.920000   18.470000
     82          1           0       25.850000   20.180000   18.700000
     83          8           0       17.030000   19.900000   14.280000
     84          1           0       17.310000   20.430000   15.030000
     85          1           0       16.150000   20.230000   14.070000
     86          8           0       16.530000   15.730000   16.090000
     87          1           0       16.800000   16.430000   16.690000
     88          1           0       15.830000   16.130000   15.570000
     89          8           0       19.320000   25.880000   22.540000
     90          1           0       18.690000   25.170000   22.360000
     91          1           0       20.040000   25.720000   21.930000
     92          8           0       22.350000   14.240000   17.450000
     93          1           0       22.400000   15.050000   17.970000
     94          1           0       23.000000   14.350000   16.760000
     95          8           0       14.960000   20.810000   23.770000
     96          1           0       14.870000   20.720000   22.820000
     97          1           0       14.620000   19.980000   24.120000
     98          8           0       20.420000   19.130000   26.240000
     99          1           0       20.250000   18.320000   25.760000
    100          1           0       19.580000   19.590000   26.230000
    101          8           0       15.000000   24.480000   19.050000
    102          1           0       15.800000   24.210000   18.580000
    103          1           0       14.430000   23.720000   19.000000
    104          8           0       17.290000   25.260000   17.100000
    105          1           0       18.240000   25.270000   17.240000
    106          1           0       17.080000   26.140000   16.800000
    107          8           0       14.690000   21.360000   16.580000
    108          1           0       14.440000   21.130000   17.480000
    109          1           0       13.930000   21.130000   16.050000
    110          8           0       21.410000   13.070000   21.830000
    111          1           0       21.250000   13.830000   21.280000
    112          1           0       22.300000   12.800000   21.600000
    113          8           0       23.280000   19.140000   14.540000
    114          1           0       22.510000   19.410000   14.040000
    115          1           0       23.610000   18.370000   14.080000
    116          8           0       18.980000   15.680000   14.640000
    117          1           0       19.090000   16.620000   14.520000
    118          1           0       18.090000   15.590000   14.970000
    119          8           0       17.850000   20.390000   26.660000
    120          1           0       17.340000   20.800000   25.960000
    121          1           0       17.420000   19.550000   26.800000
    122          8           0       25.000000   23.080000   15.930000
    123          1           0       24.070000   23.270000   15.900000
    124          1           0       25.080000   22.340000   16.540000
    125          8           0       23.020000   26.830000   20.230000
    126          1           0       22.570000   26.060000   20.600000
    127          1           0       22.360000   27.520000   20.260000
    128          8           0       23.040000   24.440000   23.870000
    129          1           0       23.530000   23.770000   24.350000
    130          1           0       22.250000   24.570000   24.380000
    131          8           0       16.530000   24.740000   24.760000
    132          1           0       16.830000   24.360000   23.940000
    133          1           0       16.340000   25.660000   24.550000
    134          8           0       19.940000   22.790000   26.630000
    135          1           0       19.130000   23.280000   26.820000
    136          1           0       19.640000   21.890000   26.490000
    137          8           0       13.350000   17.690000   20.950000
    138          1           0       14.010000   17.050000   21.230000
    139          1           0       12.510000   17.260000   21.140000
    140          8           0       14.240000   17.890000   23.800000
    141          1           0       14.670000   17.260000   23.230000
    142          1           0       14.640000   17.750000   24.660000
    143          8           0       24.580000   16.220000   24.370000
    144          1           0       23.910000   16.850000   24.630000
    145          1           0       24.110000   15.390000   24.320000
    146          8           0       13.260000   20.430000   21.380000
    147          1           0       13.230000   19.510000   21.610000
    148          1           0       12.390000   20.620000   21.030000
    149          8           0       18.720000   24.890000   14.000000
    150          1           0       19.230000   24.320000   14.580000
    151          1           0       18.900000   25.770000   14.300000
    152          8           0       26.120000   16.080000   21.070000
    153          1           0       26.990000   15.750000   21.310000
    154          1           0       25.740000   16.380000   21.890000
    155          8           0       17.230000   13.680000   24.210000
    156          1           0       17.460000   14.530000   23.820000
    157          1           0       17.590000   13.030000   23.610000
    158          8           0       17.480000   26.760000   20.490000
    159          1           0       17.030000   26.500000   19.680000
    160          1           0       18.130000   27.400000   20.210000
    161          8           0       14.840000   15.350000   21.720000
    162          1           0       14.310000   15.000000   22.440000
    163          1           0       15.150000   14.570000   21.250000
    164          8           0       15.650000   22.310000   25.730000
    165          1           0       15.840000   23.170000   25.340000
    166          1           0       15.220000   21.820000   25.040000
    167          8           0       21.140000   19.280000   12.870000
    168          1           0       20.870000   19.950000   12.240000
    169          1           0       21.110000   18.460000   12.390000
    170          8           0       28.110000   19.390000   20.800000
    171          1           0       27.270000   19.330000   20.350000
    172          1           0       27.930000   19.120000   21.700000
    173          8           0       15.500000   23.260000   14.190000
    174          1           0       15.950000   23.470000   15.000000
    175          1           0       15.090000   22.400000   14.350000
    176          8           0       14.640000   14.320000   17.910000
    177          1           0       14.950000   14.770000   18.700000
    178          1           0       15.350000   14.400000   17.280000
    179          8           0       16.130000   13.380000   20.360000
    180          1           0       17.030000   13.210000   20.060000
    181          1           0       15.670000   12.560000   20.200000
    182          8           0       27.820000   22.530000   20.660000
    183          1           0       28.580000   22.230000   21.170000
    184          1           0       27.120000   21.920000   20.900000
    185          8           0       18.050000   18.250000   12.230000
    186          1           0       17.640000   18.440000   13.080000
    187          1           0       18.070000   19.090000   11.780000
    188          8           0       21.090000   27.490000   17.820000
    189          1           0       20.550000   26.950000   17.250000
    190          1           0       21.950000   27.070000   17.800000
    191          8           0       21.520000   12.190000   18.780000
    192          1           0       21.880000   12.940000   18.310000
    193          1           0       20.690000   12.510000   19.140000
    194          8           0       12.970000   22.280000   18.720000
    195          1           0       12.560000   22.470000   19.570000
    196          1           0       12.310000   21.770000   18.250000
    197          8           0       19.620000   21.710000   12.360000
    198          1           0       19.510000   22.470000   12.930000
    199          1           0       20.200000   22.010000   11.660000
    200          8           0       26.570000   24.220000   23.100000
    201          1           0       26.030000   25.010000   23.010000
    202          1           0       25.950000   23.500000   22.980000
    203          8           0       22.310000   22.070000   27.650000
    204          1           0       23.070000   22.430000   27.200000
    205          1           0       21.570000   22.280000   27.080000
    206          8           0       24.860000   26.160000   22.740000
    207          1           0       24.090000   25.670000   23.030000
[...]
   Z335      28.96950   0.00028   0.00000   0.00116   0.00050  28.97000
   X336      35.43236  -0.00430   0.00000  -0.00227  -0.00270  35.42966
   Y336      52.91233   0.00447   0.00000   0.00215   0.00198  52.91431
   Z336      30.36790   0.00772   0.00000   0.00646   0.00578  30.37368
   X337      35.37567  -0.00421   0.00000  -0.00167  -0.00219  35.37348
   Y337      52.76115   0.00611   0.00000   0.00606   0.00577  52.76693
   Z337      27.51441  -0.00664   0.00000  -0.00318  -0.00385  27.51056
   X338      21.93972  -0.01055   0.00000  -0.00949  -0.00953  21.93019
   Y338      34.10956  -0.00087   0.00000   0.00170   0.00231  34.11186
   Z338      46.92190  -0.00100   0.00000  -0.00309  -0.00258  46.91932
   X339      23.39481   0.00796   0.00000   0.00714   0.00706  23.40187
   Y339      34.43081  -0.00305   0.00000  -0.00808  -0.00753  34.42328
   Z339      45.88255  -0.00074   0.00000   0.00226   0.00272  45.88527
   X340      22.35546   0.00174   0.00000   0.00094   0.00095  22.35641
   Y340      34.84655   0.00216   0.00000   0.00129   0.00196  34.84851
   Z340      48.52817   0.00181   0.00000  -0.00052  -0.00005  48.52812
   X341      45.95814  -0.01713   0.00000  -0.01075  -0.01104  45.94710
   Y341      23.37591   0.00035   0.00000   0.00011   0.00032  23.37624
   Z341      41.51728   0.00860   0.00000   0.00394   0.00414  41.52142
   X342      46.56285   0.00561   0.00000   0.00230   0.00195  46.56480
   Y342      23.18694  -0.00178   0.00000  -0.00156  -0.00142  23.18552
   Z342      39.83543  -0.01512   0.00000  -0.01057  -0.01037  39.82505
   X343      47.43213   0.01033   0.00000   0.00719   0.00693  47.43906
   Y343      23.62158   0.00178   0.00000   0.00143   0.00168  23.62326
   Z343      42.51884   0.00311   0.00000  -0.00019  -0.00005  42.51879
   X344      22.84679   0.00173   0.00000  -0.00632  -0.00687  22.83992
   Y344      39.70315  -0.01478   0.00000  -0.01755  -0.01766  39.68549
   Z344      29.85767   0.00523   0.00000   0.00085   0.00111  29.85878
   X345      21.71295  -0.00673   0.00000  -0.00869  -0.00918  21.70377
   Y345      40.00550   0.00708   0.00000   0.01145   0.01141  40.01691
   Z345      31.23717  -0.00017   0.00000  -0.00249  -0.00221  31.23497
   X346      22.10980  -0.00306   0.00000   0.00192   0.00134  22.11114
   Y346      40.61021   0.00884   0.00000   0.00843   0.00828  40.61849
   Z346      28.47817  -0.00834   0.00000  -0.00517  -0.00492  28.47325
   X347      31.01041   0.00470   0.00000   0.00342   0.00308  31.01348
   Y347      52.98792  -0.01001   0.00000  -0.00631  -0.00633  52.98159
   Z347      33.25918  -0.00739   0.00000  -0.00653  -0.00707  33.25211
   X348      29.87657  -0.00635   0.00000  -0.00342  -0.00372  29.87285
   Y348      53.68712  -0.00074   0.00000  -0.00736  -0.00732  53.67980
   Z348      34.48750   0.00826   0.00000   0.00680   0.00626  34.49377
   X349      31.72850  -0.00090   0.00000  -0.00360  -0.00396  31.72454
   Y349      54.42411   0.00849   0.00000   0.00955   0.00949  54.43360
   Z349      32.42770  -0.00144   0.00000   0.00032  -0.00030  32.42740
   X350      56.40833   0.01379   0.00000   0.01064   0.01027  56.41859
   Y350      38.85277   0.00268   0.00000  -0.00031  -0.00042  38.85235
   Z350      35.33788  -0.00931   0.00000  -0.00318  -0.00394  35.33394
   X351      55.04772  -0.00923   0.00000  -0.00172  -0.00207  55.04565
   Y351      38.39924  -0.00378   0.00000  -0.00284  -0.00289  38.39634
   Z351      36.43392   0.01195   0.00000   0.01096   0.01026  36.44418
   X352      55.84141   0.00115   0.00000   0.00269   0.00230  55.84370
   Y352      40.36455  -0.00129   0.00000  -0.00095  -0.00109  40.36346
   Z352      34.50640   0.00280   0.00000   0.00442   0.00362  34.51002
   X353      35.43236   0.00106   0.00000   0.00282   0.00220  35.43456
   Y353      21.50508  -0.01535   0.00000  -0.01548  -0.01561  21.48947
   Z353      31.31276   0.01347   0.00000   0.00955   0.01016  31.32292
   X354      34.09066  -0.00336   0.00000   0.00230   0.00165  34.09231
   Y354      22.37436   0.00393   0.00000  -0.00011  -0.00026  22.37410
   Z354      30.44349  -0.00486   0.00000  -0.00161  -0.00100  30.44249
   X355      36.94415   0.00667   0.00000   0.00480   0.00415  36.94830
   Y355      22.10980   0.00550   0.00000   0.00512   0.00495  22.11475
   Z355      30.50018  -0.00111   0.00000   0.00399   0.00453  30.50471
   X356      21.58067   0.00830   0.00000   0.00597   0.00575  21.58642
   Y356      44.72982  -0.00882   0.00000  -0.02275  -0.02247  44.70735
   Z356      38.92836  -0.00544   0.00000  -0.00550  -0.00541  38.92295
   X357      21.58067  -0.00040   0.00000  -0.00075  -0.00094  21.57974
   Y357      43.46370  -0.00460   0.00000  -0.00148  -0.00115  43.46255
   Z357      40.23227   0.02014   0.00000   0.02937   0.02951  40.26178
   X358      19.84212  -0.00840   0.00000  -0.00544  -0.00567  19.83645
   Y358      44.89989  -0.00091   0.00000  -0.00291  -0.00263  44.89726
   Z358      38.45593   0.00153   0.00000   0.00547   0.00561  38.46154
   X359      50.79584   0.01235   0.00000   0.00754   0.00690  50.80274
   Y359      44.97548  -0.00482   0.00000  -0.00344  -0.00390  44.97158
   Z359      25.70028  -0.01319   0.00000  -0.00541  -0.00625  25.69403
   X360      49.37854  -0.01457   0.00000  -0.00828  -0.00889  49.36966
   Y360      44.67313  -0.00436   0.00000  -0.00497  -0.00538  44.66774
   Z360      26.75852   0.01286   0.00000   0.00988   0.00910  26.76762
   X361      51.40055   0.00169   0.00000   0.00168   0.00107  51.40162
   Y361      46.60065   0.00645   0.00000   0.00471   0.00426  46.60490
   Z361      26.21050   0.00332   0.00000   0.00350   0.00258  26.21308
   X362      26.38058   0.01409   0.00000   0.00948   0.00880  26.38938
   Y362      28.98840   0.00073   0.00000   0.00011  -0.00010  28.98830
   Z362      27.79787  -0.00150   0.00000   0.00076   0.00134  27.79921
   X363      25.09556  -0.01008   0.00000  -0.00531  -0.00595  25.08961
   Y363      28.49707  -0.00564   0.00000  -0.00586  -0.00602  28.49105
   Z363      28.96950   0.01007   0.00000   0.00754   0.00819  28.97769
   X364      25.47351  -0.00247   0.00000   0.00074   0.00001  25.47352
   Y364      29.64980   0.00090   0.00000  -0.00101  -0.00127  29.64854
   Z364      26.38058  -0.00534   0.00000  -0.00421  -0.00362  26.37696
   X365      25.81366  -0.00518   0.00000  -0.00443  -0.00456  25.80910
   Y365      27.55221   0.00126   0.00000   0.00297   0.00350  27.55571
   Z365      45.73137  -0.02011   0.00000  -0.01346  -0.01280  45.71858
   X366      25.43571   0.00130   0.00000   0.00390   0.00378  25.43950
   Y366      25.87035  -0.00640   0.00000  -0.00416  -0.00360  25.86675
   Z366      46.27939   0.00237   0.00000  -0.00060   0.00014  46.27954
   X367      26.32389   0.00606   0.00000   0.00491   0.00483  26.32872
   Y367      28.42148   0.00828   0.00000   0.00526   0.00585  28.42733
   Z367      47.22426   0.01585   0.00000   0.00859   0.00921  47.23346
   X368      44.69202   0.00560   0.00000   0.00208   0.00230  44.69432
   Y368      37.45437  -0.00503   0.00000  -0.00056   0.00021  37.45459
   Z368      54.76426  -0.00182   0.00000  -0.00110  -0.00144  54.76282
   X369      43.67157  -0.00754   0.00000  -0.00655  -0.00633  43.66524
   Y369      38.90946   0.01044   0.00000   0.00811   0.00886  38.91833
   Z369      54.38632  -0.00543   0.00000  -0.00699  -0.00736  54.37896
   X370      44.52195  -0.00125   0.00000  -0.00203  -0.00175  44.52020
   Y370      37.24650  -0.00001   0.00000  -0.00004   0.00080  37.24730
   Z370      56.55950   0.00392   0.00000   0.00299   0.00266  56.56217
   X371      23.37591   0.01522   0.00000   0.01014   0.01004  23.38596
   Y371      48.49037   0.01249   0.00000   0.01120   0.01159  48.50196
   Z371      42.00861   0.02444   0.00000   0.02075   0.02063  42.02924
   X372      22.99797  -0.00349   0.00000   0.00112   0.00099  22.99896
   Y372      46.86521  -0.00917   0.00000   0.00178   0.00215  46.86736
   Z372      41.34721  -0.01160   0.00000  -0.00964  -0.00968  41.33753
   X373      22.46884  -0.00725   0.00000  -0.00270  -0.00282  22.46602
   Y373      49.64311   0.00540   0.00000   0.00178   0.00214  49.64524
   Z373      40.96926  -0.01103   0.00000  -0.00751  -0.00765  40.96162
   X374      22.12869   0.00566   0.00000   0.00310   0.00255  22.13125
   Y374      27.68449   0.00379   0.00000   0.01066   0.01067  27.69516
   Z374      32.33321  -0.01384   0.00000  -0.01325  -0.01248  32.32074
   X375      23.37591   0.01063   0.00000   0.01460   0.01409  23.39000
   Y375      28.49707  -0.00325   0.00000  -0.00939  -0.00935  28.48772
   Z375      33.37256   0.00356   0.00000   0.00170   0.00240  33.37496
   X376      20.63581  -0.01072   0.00000  -0.00587  -0.00639  20.62942
   Y376      27.72228  -0.00077   0.00000  -0.00183  -0.00177  27.72051
   Z376      33.33477   0.00607   0.00000   0.00154   0.00236  33.33713
   X377      39.85432   0.00293   0.00000   0.00055   0.00085  39.85517
   Y377      44.42746   0.02607   0.00000   0.02883   0.02966  44.45712
   Z377      55.42567   0.03344   0.00000   0.02650   0.02602  55.45169
   X378      38.47482  -0.01404   0.00000  -0.00871  -0.00845  38.46638
   Y378      44.44636  -0.00631   0.00000  -0.00889  -0.00810  44.43826
   Z378      54.29183  -0.01179   0.00000  -0.00103  -0.00146  54.29037
   X379      41.10154   0.00260   0.00000  -0.00823  -0.00796  41.09358
   Y379      43.40701  -0.00847   0.00000  -0.00176  -0.00097  43.40604
   Z379      54.61309  -0.00824   0.00000   0.00041  -0.00005  54.61303
   X380      20.78699  -0.01238   0.00000  -0.01249  -0.01285  20.77414
   Y380      46.80852   0.00156   0.00000  -0.00744  -0.00736  46.80116
   Z380      34.05286  -0.01363   0.00000  -0.01518  -0.01515  34.03771
   X381      22.24208   0.01183   0.00000   0.00969   0.00933  22.25141
   Y381      45.78806  -0.00350   0.00000   0.00260   0.00268  45.79075
   Z381      34.35522   0.00279   0.00000   0.00140   0.00143  34.35665
   X382      19.84212  -0.00052   0.00000   0.00193   0.00162  19.84374
   Y382      46.71403   0.00441   0.00000   0.00902   0.00917  46.72320
   Z382      35.58354   0.00462   0.00000   0.00227   0.00234  35.58588
   X383      25.22784  -0.01593   0.00000  -0.01277  -0.01337  25.21447
   Y383      47.60220   0.00972   0.00000   0.00614   0.00587  47.60808
   Z383      26.21050  -0.00860   0.00000  -0.00452  -0.00466  26.20584
   X384      26.34278   0.01116   0.00000   0.00740   0.00682  26.34960
   Y384      46.67624  -0.00763   0.00000  -0.00344  -0.00367  46.67257
   Z384      27.28765   0.00281   0.00000  -0.00330  -0.00344  27.28421
   X385      25.94594   0.00470   0.00000   0.00712   0.00646  25.95240
   Y385      47.39433  -0.00310   0.00000  -0.00379  -0.00413  47.39021
   Z385      24.54754   0.00498   0.00000   0.00674   0.00659  24.55413
         Item               Value     Threshold  Converged?
 Maximum Force            0.036698     0.000450     NO 
 RMS     Force            0.010192     0.000300     NO 
 Maximum Displacement     0.031583     0.001800     NO 
 RMS     Displacement     0.008841     0.001200     NO 
 Predicted change in Energy=-7.113066D-02
 GradGradGradGradGradGradGradGradGradGradGradGradGradGradGradGradGradGrad

 Leave Link  103 at Wed May 16 08:59:33 2018, MaxMem= 14763950080 cpu:      3193.1
 (Enter /cm/shared/gaussian/g09.e01/intel64-sandybridge/g09/l9999.exe)
 1\1\GINC-POPLE03\Force\RPBE1PBE\CC-pVDZ\Br1H256O128(1-)\M.PELUSO\16-Ma
 y-2018\0\\#p PBE1PBE/cc-pvDZ force Counterpoise=2 noSymm\\forces on ch
 loride comput - NWATER: 128\\-1,1\Br,20.,20.,20.\O,17.89,22.24,19.09\H
 ,18.58,21.61,19.32\H,17.18,22.04,19.71\O,22.04,22.17,21.29\H,21.46,21.
 48,20.97\H,22.87,21.72,21.46\O,17.54,18.88,21.75\H,18.14,19.4,21.21\H,
 18.04,18.7,22.55\O,20.84,17.81,17.55\H,20.42,18.3,18.26\H,20.33,18.04,
 16.77\O,21.41,22.28,17.67\H,22.17,21.93,17.2\H,21.05,21.53,18.13\O,22.
 56,17.81,22.07\H,22.87,17.09,21.52\H,22.03,18.36,21.48\O,17.16,17.8,18
 .12\H,17.68,18.56,17.84\H,16.33,18.17,18.42\O,18.12,16.48,20.5\H,17.69
 ,16.43,19.65\H,17.88,17.35,20.83\O,20.96,21.55,23.86\H,21.66,22.06,24.
 26\H,21.1,21.66,22.91\O,16.21,21.17,20.79\H,16.68,20.48,21.27\H,15.33,
 20.8,20.65\O,17.75,21.29,16.43\H,18.06,21.49,17.31\H,16.82,21.53,16.45
 \O,18.15,21.53,23.91\H,17.91,22.44,23.74\H,19.08,21.48,23.67\O,19.63,1
 7.44,23.95\H,18.87,16.94,23.67\H,20.25,17.37,23.23\O,20.7,15.2,20.36\H
 ,21.25,15.97,20.45\H,19.81,15.55,20.3\O,23.69,18.3,17.51\H,24.1,18.,16
 .7\H,22.77,18.05,17.43\O,21.14,24.83,20.49\H,21.41,23.97,20.79\H,20.99
 ,24.73,19.55\O,19.72,24.32,17.95\H,18.97,23.85,18.3\H,20.32,23.64,17.6
 5\O,23.44,21.03,16.77\H,23.56,20.7,15.88\H,23.41,20.25,17.32\O,23.51,1
 6.7,19.71\H,23.53,17.39,19.04\H,24.43,16.49,19.87\O,17.42,23.91,22.06\
 H,16.97,24.52,21.48\H,17.08,23.05,21.83\O,19.95,22.92,15.36\H,20.33,22
 .66,16.2\H,19.24,22.29,15.21\O,22.82,18.64,24.68\H,22.02,19.11,24.89\H
 ,22.74,18.41,23.75\O,17.29,16.12,23.06\H,17.58,16.04,22.15\H,16.4,15.7
 7,23.06\O,19.41,18.65,15.07\H,18.54,19.03,14.97\H,19.93,19.06,14.37\O,
 24.23,21.08,22.84\H,24.23,20.73,23.73\H,24.62,20.39,22.31\O,14.81,19.2
 4,18.88\H,14.92,18.75,19.7\H,13.94,18.99,18.56\O,25.87,19.22,18.82\H,2
 5.03,18.92,18.47\H,25.85,20.18,18.7\O,17.03,19.9,14.28\H,17.31,20.43,1
 5.03\H,16.15,20.23,14.07\O,16.53,15.73,16.09\H,16.8,16.43,16.69\H,15.8
 3,16.13,15.57\O,19.32,25.88,22.54\H,18.69,25.17,22.36\H,20.04,25.72,21
 .93\O,22.35,14.24,17.45\H,22.4,15.05,17.97\H,23.,14.35,16.76\O,14.96,2
 0.81,23.77\H,14.87,20.72,22.82\H,14.62,19.98,24.12\O,20.42,19.13,26.24
 \H,20.25,18.32,25.76\H,19.58,19.59,26.23\O,15.,24.48,19.05\H,15.8,24.2
 1,18.58\H,14.43,23.72,19.\O,17.29,25.26,17.1\H,18.24,25.27,17.24\H,17.
 08,26.14,16.8\O,14.69,21.36,16.58\H,14.44,21.13,17.48\H,13.93,21.13,16
 .05\O,21.41,13.07,21.83\H,21.25,13.83,21.28\H,22.3,12.8,21.6\O,23.28,1
 9.14,14.54\H,22.51,19.41,14.04\H,23.61,18.37,14.08\O,18.98,15.68,14.64
 \H,19.09,16.62,14.52\H,18.09,15.59,14.97\O,17.85,20.39,26.66\H,17.34,2
 0.8,25.96\H,17.42,19.55,26.8\O,25.,23.08,15.93\H,24.07,23.27,15.9\H,25
 .08,22.34,16.54\O,23.02,26.83,20.23\H,22.57,26.06,20.6\H,22.36,27.52,2
 0.26\O,23.04,24.44,23.87\H,23.53,23.77,24.35\H,22.25,24.57,24.38\O,16.
 53,24.74,24.76\H,16.83,24.36,23.94\H,16.34,25.66,24.55\O,19.94,22.79,2
 6.63\H,19.13,23.28,26.82\H,19.64,21.89,26.49\O,13.35,17.69,20.95\H,14.
 01,17.05,21.23\H,12.51,17.26,21.14\O,14.24,17.89,23.8\H,14.67,17.26,23
 .23\H,14.64,17.75,24.66\O,24.58,16.22,24.37\H,23.91,16.85,24.63\H,24.1
 1,15.39,24.32\O,13.26,20.43,21.38\H,13.23,19.51,21.61\H,12.39,20.62,21
 .03\O,18.72,24.89,14.\H,19.23,24.32,14.58\H,18.9,25.77,14.3\O,26.12,16
 .08,21.07\H,26.99,15.75,21.31\H,25.74,16.38,21.89\O,17.23,13.68,24.21\
 H,17.46,14.53,23.82\H,17.59,13.03,23.61\O,17.48,26.76,20.49\H,17.03,26
 .5,19.68\H,18.13,27.4,20.21\O,14.84,15.35,21.72\H,14.31,15.,22.44\H,15
 .15,14.57,21.25\O,15.65,22.31,25.73\H,15.84,23.17,25.34\H,15.22,21.82,
 25.04\O,21.14,19.28,12.87\H,20.87,19.95,12.24\H,21.11,18.46,12.39\O,28
 .11,19.39,20.8\H,27.27,19.33,20.35\H,27.93,19.12,21.7\O,15.5,23.26,14.
 19\H,15.95,23.47,15.\H,15.09,22.4,14.35\O,14.64,14.32,17.91\H,14.95,14
 .77,18.7\H,15.35,14.4,17.28\O,16.13,13.38,20.36\H,17.03,13.21,20.06\H,
 15.67,12.56,20.2\O,27.82,22.53,20.66\H,28.58,22.23,21.17\H,27.12,21.92
 ,20.9\O,18.05,18.25,12.23\H,17.64,18.44,13.08\H,18.07,19.09,11.78\O,21
 .09,27.49,17.82\H,20.55,26.95,17.25\H,21.95,27.07,17.8\O,21.52,12.19,1
 8.78\H,21.88,12.94,18.31\H,20.69,12.51,19.14\O,12.97,22.28,18.72\H,12.
 56,22.47,19.57\H,12.31,21.77,18.25\O,19.62,21.71,12.36\H,19.51,22.47,1
 2.93\H,20.2,22.01,11.66\O,26.57,24.22,23.1\H,26.03,25.01,23.01\H,25.95
 ,23.5,22.98\O,22.31,22.07,27.65\H,23.07,22.43,27.2\H,21.57,22.28,27.08
 \O,24.86,26.16,22.74\H,24.09,25.67,23.03\H,24.51,26.81,22.12\O,20.63,1
 3.13,24.38\H,21.36,13.52,24.86\H,20.89,13.18,23.46\O,25.83,20.24,25.07
 \H,26.21,19.54,24.54\H,25.98,19.96,25.98\O,27.29,16.44,18.17\H,27.17,1
 6.15,19.07\H,27.01,17.36,18.17\O,22.36,23.97,12.92\H,22.54,23.92,13.86
 \H,22.46,24.9,12.7\O,21.37,25.3,26.1\H,22.,25.15,26.82\H,20.73,24.6,26
 .19\O,24.36,22.95,25.81\H,24.95,23.68,25.98\H,24.93,22.22,25.6\O,21.78
 ,17.86,28.18\H,22.22,18.67,28.44\H,21.19,18.13,27.47\O,20.29,13.15,14.
 71\H,19.83,12.92,13.9\H,19.71,13.77,15.15\O,13.51,18.22,15.07\H,13.36,
 18.24,16.02\H,12.76,17.74,14.72\O,21.53,15.55,13.01\H,21.84,16.34,12.5
 7\H,20.65,15.77,13.31\O,24.83,25.64,16.13\H,25.6,26.11,15.83\H,25.04,2
 4.72,16.\O,18.31,12.19,19.26\H,18.68,11.65,19.95\H,18.38,11.65,18.47\O
 ,16.74,27.41,23.28\H,16.95,27.04,22.42\H,16.01,28.01,23.11\O,16.93,12.
 92,15.47\H,16.96,13.84,15.73\H,16.38,12.91,14.69\O,24.31,16.69,13.65\H
 ,25.12,16.9,14.12\H,23.91,15.98,14.16\O,27.45,21.24,17.05\H,27.51,21.4
 8,16.13\H,27.96,21.91,17.51\O,12.34,18.36,17.88\H,11.88,19.08,17.46\H,
 11.89,18.24,18.72\O,14.24,26.84,20.2\H,14.41,25.96,19.86\H,13.93,26.71
 ,21.09\O,27.27,18.56,23.45\H,27.24,17.62,23.58\H,28.14,18.82,23.74\O,1
 7.41,23.59,27.53\H,16.81,24.32,27.37\H,17.02,22.85,27.06\O,24.76,17.38
 ,27.01\H,25.,16.99,26.17\H,23.91,17.79,26.85\O,19.25,20.48,29.09\H,18.
 33,20.2,29.13\H,19.51,20.3,28.18\O,27.12,25.13,19.99\H,27.26,24.18,20.
 07\H,26.31,25.29,20.48\O,12.06,22.38,23.33\H,12.28,22.97,24.04\H,12.66
 ,21.64,23.43\O,19.27,28.33,19.36\H,18.99,29.24,19.22\H,19.95,28.19,18.
 71\O,24.16,14.45,15.44\H,24.01,14.06,14.57\H,25.1,14.34,15.58\O,15.34,
 15.96,26.3\H,15.57,15.76,27.21\H,16.02,15.52,25.78\O,24.85,27.47,18.26
 \H,24.29,27.54,19.04\H,24.56,26.66,17.83\O,20.09,28.8,21.83\H,19.65,28
 .82,20.98\H,19.72,28.04,22.28\O,18.2,15.66,11.92\H,17.56,16.19,11.45\H
 ,18.26,16.08,12.78\O,19.96,27.75,24.87\H,20.66,27.17,25.14\H,19.64,27.
 37,24.05\O,13.65,25.98,17.03\H,13.98,25.49,17.78\H,14.4,26.49,16.72\O,
 28.03,21.82,23.9\H,27.77,22.68,23.58\H,27.22,21.43,24.22\O,14.4,20.65,
 13.61\H,14.29,20.31,12.72\H,13.78,20.14,14.13\O,27.25,16.06,24.1\H,26.
 31,15.86,24.06\H,27.66,15.42,23.52\O,19.94,10.75,20.99\H,20.52,10.06,2
 1.32\H,20.25,11.55,21.41\O,26.66,17.4,15.13\H,27.35,17.63,15.75\H,27.1
 2,17.27,14.3\O,16.95,18.39,27.99\H,16.06,18.06,27.94\H,17.41,17.74,28.
 54\O,22.97,27.61,15.31\H,23.35,27.01,15.96\H,22.96,27.11,14.5\O,14.94,
 21.13,28.14\H,15.45,21.4,27.38\H,14.88,20.18,28.06\O,23.62,13.77,25.11
 \H,24.19,13.04,24.86\H,23.8,13.91,26.04\O,26.73,13.77,17.38\H,26.64,14
 .72,17.31\H,27.43,13.64,18.02\O,19.14,27.54,15.33\H,18.75,28.,16.07\H,
 18.72,27.92,14.56\O,11.61,18.05,24.83\H,12.38,18.22,24.28\H,11.83,18.4
 4,25.68\O,24.32,12.37,21.97\H,24.64,12.27,21.08\H,25.1,12.5,22.5\O,12.
 09,21.01,15.8\H,11.49,21.17,16.53\H,11.7,21.49,15.07\O,16.41,28.04,17.
 6\H,15.81,28.41,18.25\H,16.79,28.8,17.16\O,29.85,20.56,18.7\H,29.13,20
 .32,19.28\H,29.55,21.36,18.26\O,18.75,11.38,16.57\H,18.04,11.84,16.11\
 H,19.55,11.7,16.14\O,11.42,23.67,20.6\H,11.42,23.,21.29\H,10.5,23.76,2
 0.35\O,26.88,23.8,13.6\H,26.13,23.64,14.16\H,27.2,24.66,13.87\O,13.96,
 15.34,14.71\H,13.28,15.08,15.33\H,13.48,15.69,13.96\O,13.66,14.58,24.2
 \H,13.46,13.69,24.49\H,13.93,15.04,24.99\O,23.65,19.82,28.98\H,23.11,2
 0.59,28.78\H,23.56,19.71,29.93\O,12.37,25.66,22.23\H,12.17,24.8,21.88\
 H,11.89,26.27,21.68\O,11.71,14.65,17.11\H,12.37,15.08,17.66\H,10.92,14
 .67,17.64\O,21.09,23.51,29.33\H,20.36,23.52,28.73\H,21.75,22.97,28.9\O
 ,11.,24.77,18.02\H,11.77,24.23,18.18\H,10.5,24.72,18.83\O,13.35,25.19,
 13.87\H,13.94,24.7,14.44\H,13.73,25.08,12.99\\Version=ES64L-G09RevE.01
 \HF=-9773.2757209\RMSD=2.470e-09\RMSF=1.019e-02\Dipole=-11.8168089,-9.
 2212596,-6.9750557\Quadrupole=47.9712548,-144.4543341,96.4830793,-2262
 .6813255,-2131.0322322,-2193.6587497\PG=C01 [X(Br1H256O128)]\\@


 THE PROMISED LAND ALWAYS LIES ON THE OTHER SIDE OF A WILDERNESS.

                         -- HAVELOCK ELLIS
 Job cpu time:       8 days  3 hours 58 minutes 38.9 seconds.
 File lengths (MBytes):  RWF=   7285 Int=      0 D2E=      0 Chk=   2411 Scr=      1
 Normal termination of Gaussian 09 at Wed May 16 09:00:03 2018.
