 Entering Gaussian System, Link 0=/cm/shared/gaussian/g09.e01/intel64-sandybridge/g09/g09
 Initial command:
 /cm/shared/gaussian/g09.e01/intel64-sandybridge/g09/l1.exe "/local/scratch/m.peluso/128_wat/order/Gau-10805.inp" -scrdir="/local/scratch/m.peluso/128_wat/order/"
 Entering Link 1 = /cm/shared/gaussian/g09.e01/intel64-sandybridge/g09/l1.exe PID=     10806.
  
 Copyright (c) 1988,1990,1992,1993,1995,1998,2003,2009,2015,
            Gaussian, Inc.  All Rights Reserved.
  
 This is part of the Gaussian(R) 09 program.  It is based on
 the Gaussian(R) 03 system (copyright 2003, Gaussian, Inc.),
 the Gaussian(R) 98 system (copyright 1998, Gaussian, Inc.),
 the Gaussian(R) 94 system (copyright 1995, Gaussian, Inc.),
 the Gaussian 92(TM) system (copyright 1992, Gaussian, Inc.),
 the Gaussian 90(TM) system (copyright 1990, Gaussian, Inc.),
 the Gaussian 88(TM) system (copyright 1988, Gaussian, Inc.),
 the Gaussian 86(TM) system (copyright 1986, Carnegie Mellon
 University), and the Gaussian 82(TM) system (copyright 1983,
 Carnegie Mellon University). Gaussian is a federally registered
 trademark of Gaussian, Inc.
  
 This software contains proprietary and confidential information,
 including trade secrets, belonging to Gaussian, Inc.
  
 This software is provided under written license and may be
 used, copied, transmitted, or stored only in accord with that
 written license.
  
 The following legend is applicable only to US Government
 contracts under FAR:
  
                    RESTRICTED RIGHTS LEGEND
  
 Use, reproduction and disclosure by the US Government is
 subject to restrictions as set forth in subparagraphs (a)
 and (c) of the Commercial Computer Software - Restricted
 Rights clause in FAR 52.227-19.
  
 Gaussian, Inc.
 340 Quinnipiac St., Bldg. 40, Wallingford CT 06492
  
  
 ---------------------------------------------------------------
 Warning -- This program may not be used in any manner that
 competes with the business of Gaussian, Inc. or will provide
 assistance to any competitor of Gaussian, Inc.  The licensee
 of this program is prohibited from giving any competitor of
 Gaussian, Inc. access to this program.  By using this program,
 the user acknowledges that Gaussian, Inc. is engaged in the
 business of creating and licensing software in the field of
 computational chemistry and represents and warrants to the
 licensee that it is not a competitor of Gaussian, Inc. and that
 it will not use this program in any manner prohibited above.
 ---------------------------------------------------------------
  

 Cite this work as:
 Gaussian 09, Revision E.01,
 M. J. Frisch, G. W. Trucks, H. B. Schlegel, G. E. Scuseria, 
 M. A. Robb, J. R. Cheeseman, G. Scalmani, V. Barone, B. Mennucci, 
 G. A. Petersson, H. Nakatsuji, M. Caricato, X. Li, H. P. Hratchian, 
 A. F. Izmaylov, J. Bloino, G. Zheng, J. L. Sonnenberg, M. Hada, 
 M. Ehara, K. Toyota, R. Fukuda, J. Hasegawa, M. Ishida, T. Nakajima, 
 Y. Honda, O. Kitao, H. Nakai, T. Vreven, J. A. Montgomery, Jr., 
 J. E. Peralta, F. Ogliaro, M. Bearpark, J. J. Heyd, E. Brothers, 
 K. N. Kudin, V. N. Staroverov, T. Keith, R. Kobayashi, J. Normand, 
 K. Raghavachari, A. Rendell, J. C. Burant, S. S. Iyengar, J. Tomasi, 
 M. Cossi, N. Rega, J. M. Millam, M. Klene, J. E. Knox, J. B. Cross, 
 V. Bakken, C. Adamo, J. Jaramillo, R. Gomperts, R. E. Stratmann, 
 O. Yazyev, A. J. Austin, R. Cammi, C. Pomelli, J. W. Ochterski, 
 R. L. Martin, K. Morokuma, V. G. Zakrzewski, G. A. Voth, 
 P. Salvador, J. J. Dannenberg, S. Dapprich, A. D. Daniels, 
 O. Farkas, J. B. Foresman, J. V. Ortiz, J. Cioslowski, 
 and D. J. Fox, Gaussian, Inc., Wallingford CT, 2013.
 
 ******************************************
 Gaussian 09:  ES64L-G09RevE.01 30-Nov-2015
                13-May-2018 
 ******************************************
 %Mem=110GB
 %NProcShared=64
 Will use up to   64 processors via shared memory.
 %chk=snap97.chk
 ----------------------------------------------
 #p PBE1PBE/cc-pvDZ force Counterpoise=2 noSymm
 ----------------------------------------------
 1/10=7,30=1,38=1,62=2/1,3;
 2/12=2,15=1,17=6,18=5,40=1/2;
 1/10=7,30=1,38=1,53=2,62=2,63=101/22;
 3/5=16,11=2,16=1,25=1,30=1,71=1,74=-13/1,2,3;
 4//1;
 5/5=2,38=5/2;
 6/7=2,8=2,9=2,10=2,28=1/1;
 7/7=1,29=1,30=1,33=-1/1,2,3,16;
 1/10=7,30=1,53=2,62=2,63=101/22;
 3/5=7,6=11,11=2,16=1,25=1,30=1,71=1,74=-13,82=7/1,2,3;
 4//1;
 5/5=2,38=5/2;
 6/7=2,8=2,9=2,10=2,28=1/1;
 7/7=1,29=1,30=1,33=-1/1,2,3,16;
 1/10=7,30=1,53=2,62=2,63=101/22(-5);
 7/9=1,29=1,44=-1/16;
 1/10=7,30=1,62=2/3;
 99//99;
 Leave Link    1 at Sun May 13 16:41:01 2018, MaxMem= 14763950080 cpu:         6.1
 (Enter /cm/shared/gaussian/g09.e01/intel64-sandybridge/g09/l101.exe)
 ---------------------------------------
 forces on chloride comput - NWATER: 128
 ---------------------------------------
 Symbolic Z-matrix:
 Charge = -1 Multiplicity = 1 in supermolecule
 Charge = -1 Multiplicity = 1 in fragment      1.
 Charge =  0 Multiplicity = 1 in fragment      2.
 Br(Fragment=1)        20.       20.       20. 
 O(Fragment=2)         20.28     17.66     22.11 
 H(Fragment=2)         20.15     18.4      21.52 
 H(Fragment=2)         21.24     17.56     22.16 
 O(Fragment=2)         19.05     22.39     21.79 
 H(Fragment=2)         19.11     21.62     21.22 
 H(Fragment=2)         18.12     22.61     21.79 
 O(Fragment=2)         19.47     17.22     18.42 
 H(Fragment=2)         19.7      17.91     19.05 
 H(Fragment=2)         19.13     16.51     18.96 
 O(Fragment=2)         23.14     20.13     19.7 
 H(Fragment=2)         23.11     19.98     20.64 
 H(Fragment=2)         22.23     20.28     19.44 
 O(Fragment=2)         16.71     18.97     19.58 
 H(Fragment=2)         16.84     18.06     19.85 
 H(Fragment=2)         17.58     19.35     19.58 
 O(Fragment=2)         22.04     22.68     21.51 
 H(Fragment=2)         22.29     22.49     22.41 
 H(Fragment=2)         21.21     22.21     21.38 
 O(Fragment=2)         19.7      18.97     16.25 
 H(Fragment=2)         18.92     19.48     16.49 
 H(Fragment=2)         19.8      18.33     16.95 
 O(Fragment=2)         22.68     19.04     17.1 
 H(Fragment=2)         22.83     19.73     17.74 
 H(Fragment=2)         21.83     19.25     16.71 
 O(Fragment=2)         19.44     20.66     24.5 
 H(Fragment=2)         19.18     20.41     23.61 
 H(Fragment=2)         20.3      20.25     24.62 
 O(Fragment=2)         19.09     24.31     19.43 
 H(Fragment=2)         19.06     23.69     20.17 
 H(Fragment=2)         19.87     24.84     19.6 
 O(Fragment=2)         17.54     17.79     22.98 
 H(Fragment=2)         18.37     17.65     22.54 
 H(Fragment=2)         17.65     17.41     23.85 
 O(Fragment=2)         23.13     17.01     19.52 
 H(Fragment=2)         23.05     17.58     18.76 
 H(Fragment=2)         22.72     16.19     19.24 
 O(Fragment=2)         16.4      18.56     16.79 
 H(Fragment=2)         16.72     18.67     17.68 
 H(Fragment=2)         16.37     19.44     16.43 
 O(Fragment=2)         18.01     23.45     16.92 
 H(Fragment=2)         18.42     23.25     17.77 
 H(Fragment=2)         18.73     23.38     16.29 
 O(Fragment=2)         24.46     21.1      17.64 
 H(Fragment=2)         24.17     20.84     18.51 
 H(Fragment=2)         25.39     20.86     17.61 
 O(Fragment=2)         19.86     14.73     20.46 
 H(Fragment=2)         20.       14.02     21.08 
 H(Fragment=2)         20.27     15.49     20.88 
 O(Fragment=2)         22.53     22.79     16.91 
 H(Fragment=2)         22.64     23.1      17.8 
 H(Fragment=2)         23.23     22.14     16.8 
 O(Fragment=2)         19.72     23.69     24.2 
 H(Fragment=2)         19.68     22.97     24.83 
 H(Fragment=2)         19.69     23.26     23.34 
 O(Fragment=2)         17.56     20.89     15.63 
 H(Fragment=2)         16.93     21.52     15.28 
 H(Fragment=2)         18.35     21.4      15.77 
 O(Fragment=2)         22.94     16.35     21.92 
 H(Fragment=2)         23.38     15.53     22.15 
 H(Fragment=2)         23.07     16.43     20.97 
 O(Fragment=2)         15.69     19.7      23.54 
 H(Fragment=2)         16.49     19.28     23.23 
 H(Fragment=2)         15.13     18.97     23.81 
 O(Fragment=2)         17.98     16.41     16.05 
 H(Fragment=2)         17.15     16.88     16.17 
 H(Fragment=2)         18.55     16.75     16.73 
 O(Fragment=2)         23.82     23.96     19.49 
 H(Fragment=2)         23.73     23.13     19.97 
 H(Fragment=2)         23.04     24.46     19.74 
 O(Fragment=2)         16.17     22.93     21.44 
 H(Fragment=2)         15.45     22.31     21.49 
 H(Fragment=2)         16.05     23.38     20.61 
 O(Fragment=2)         19.91     16.34     24.67 
 H(Fragment=2)         20.61     15.73     24.9 
 H(Fragment=2)         20.27     16.87     23.96 
 O(Fragment=2)         20.03     22.22     15.43 
 H(Fragment=2)         20.24     21.62     14.71 
 H(Fragment=2)         20.88     22.55     15.71 
 O(Fragment=2)         17.01     15.82     19.91 
 H(Fragment=2)         16.94     15.22     20.66 
 H(Fragment=2)         16.84     15.27     19.15 
 O(Fragment=2)         25.43     18.27     21.33 
 H(Fragment=2)         25.53     17.67     22.07 
 H(Fragment=2)         24.64     17.97     20.88 
 O(Fragment=2)         15.09     17.07     21.72 
 H(Fragment=2)         15.21     16.87     20.79 
 H(Fragment=2)         15.89     17.52     21.98 
 O(Fragment=2)         21.69     19.6      25.04 
 H(Fragment=2)         21.91     19.66     25.97 
 H(Fragment=2)         22.27     18.92     24.7 
 O(Fragment=2)         21.22     19.84     13.94 
 H(Fragment=2)         21.54     19.07     13.47 
 H(Fragment=2)         20.8      19.49     14.73 
 O(Fragment=2)         13.98     20.29     18.59 
 H(Fragment=2)         13.87     19.34     18.52 
 H(Fragment=2)         14.7      20.4      19.21 
 O(Fragment=2)         25.03     17.8      17.44 
 H(Fragment=2)         25.66     18.46     17.73 
 H(Fragment=2)         24.28     18.31     17.13 
 O(Fragment=2)         22.93     22.41     24. 
 H(Fragment=2)         22.68     21.76     24.65 
 H(Fragment=2)         22.61     23.25     24.35 
 O(Fragment=2)         15.9      23.86     18.89 
 H(Fragment=2)         15.45     24.69     18.72 
 H(Fragment=2)         16.27     23.61     18.04 
 O(Fragment=2)         22.85     17.28     15.13 
 H(Fragment=2)         23.53     17.36     14.47 
 H(Fragment=2)         22.89     18.11     15.62 
 O(Fragment=2)         20.54     25.58     22.35 
 H(Fragment=2)         20.4      24.85     22.95 
 H(Fragment=2)         19.66     25.81     22.04 
 O(Fragment=2)         21.69     25.65     19.8 
 H(Fragment=2)         21.46     25.65     20.73 
 H(Fragment=2)         21.77     26.58     19.58 
 O(Fragment=2)         17.8      25.71     21.71 
 H(Fragment=2)         17.64     25.33     20.85 
 H(Fragment=2)         17.4      26.58     21.67 
 O(Fragment=2)         16.22     22.18     24.66 
 H(Fragment=2)         16.29     22.79     23.93 
 H(Fragment=2)         16.07     21.33     24.24 
 O(Fragment=2)         17.25     19.42     26.26 
 H(Fragment=2)         16.37     19.25     25.93 
 H(Fragment=2)         17.72     19.77     25.5 
 O(Fragment=2)         22.34     14.18     19.37 
 H(Fragment=2)         21.39     14.22     19.47 
 H(Fragment=2)         22.47     13.63     18.59 
 O(Fragment=2)         18.21     26.15     17.33 
 H(Fragment=2)         17.51     25.99     16.7 
 H(Fragment=2)         18.25     25.35     17.86 
 O(Fragment=2)         23.96     18.33     24.25 
 H(Fragment=2)         24.74     17.77     24.29 
 H(Fragment=2)         24.3      19.22     24.17 
 O(Fragment=2)         13.95     21.44     21.32 
 H(Fragment=2)         13.8      21.61     20.39 
 H(Fragment=2)         13.68     20.53     21.44 
 O(Fragment=2)         26.42     20.86     20.83 
 H(Fragment=2)         26.45     20.71     19.88 
 H(Fragment=2)         26.25     19.99     21.2 
 O(Fragment=2)         20.51     16.11     14.31 
 H(Fragment=2)         21.11     16.81     14.54 
 H(Fragment=2)         19.65     16.53     14.28 
 O(Fragment=2)         20.98     14.16     16.25 
 H(Fragment=2)         20.82     15.05     15.94 
 H(Fragment=2)         21.35     13.71     15.49 
 O(Fragment=2)         13.06     18.57     20.9 
 H(Fragment=2)         13.87     18.23     21.26 
 H(Fragment=2)         12.69     17.85     20.39 
 O(Fragment=2)         17.18     24.9      24.14 
 H(Fragment=2)         17.39     25.03     23.21 
 H(Fragment=2)         17.98     24.55     24.52 
 O(Fragment=2)         13.9      21.87     16.32 
 H(Fragment=2)         14.33     21.27     16.93 
 H(Fragment=2)         14.25     21.64     15.46 
 O(Fragment=2)         22.56     24.52     14.66 
 H(Fragment=2)         22.49     24.16     15.55 
 H(Fragment=2)         23.44     24.9      14.63 
 O(Fragment=2)         25.46     24.14     22.82 
 H(Fragment=2)         26.35     23.82     22.72 
 H(Fragment=2)         24.99     23.79     22.06 
 O(Fragment=2)         17.65     17.47     13.42 
 H(Fragment=2)         18.26     18.17     13.18 
 H(Fragment=2)         17.53     17.58     14.36 
 O(Fragment=2)         26.09     24.17     17.9 
 H(Fragment=2)         25.34     23.92     18.45 
 H(Fragment=2)         26.77     24.42     18.53 
 O(Fragment=2)         23.97     14.79     16.03 
 H(Fragment=2)         23.49     15.61     16.04 
 H(Fragment=2)         24.44     14.8      15.19 
 O(Fragment=2)         13.62     17.45     18.18 
 H(Fragment=2)         13.09     17.66     17.41 
 H(Fragment=2)         14.22     16.77     17.89 
 O(Fragment=2)         23.41     26.61     22.73 
 H(Fragment=2)         22.8      25.89     22.6 
 H(Fragment=2)         23.9      26.37     23.52 
 O(Fragment=2)         20.57     13.45     22.93 
 H(Fragment=2)         21.32     12.97     23.27 
 H(Fragment=2)         19.92     13.4      23.63 
 O(Fragment=2)         27.       19.8      18.1 
 H(Fragment=2)         27.51     19.19     18.64 
 H(Fragment=2)         27.42     19.76     17.24 
 O(Fragment=2)         20.32     12.27     18.43 
 H(Fragment=2)         19.53     12.3      18.97 
 H(Fragment=2)         20.28     13.05     17.89 
 O(Fragment=2)         16.5      13.79     21.95 
 H(Fragment=2)         15.7      13.97     22.43 
 H(Fragment=2)         17.19     13.81     22.62 
 O(Fragment=2)         18.17     13.6      24.65 
 H(Fragment=2)         18.66     13.57     25.47 
 H(Fragment=2)         18.12     14.53     24.44 
 O(Fragment=2)         16.9      13.71     18. 
 H(Fragment=2)         17.19     13.49     17.11 
 H(Fragment=2)         17.2      12.97     18.53 
 O(Fragment=2)         25.74     14.07     19.8 
 H(Fragment=2)         26.58     14.36     19.45 
 H(Fragment=2)         25.31     14.88     20.09 
 O(Fragment=2)         23.85     13.55     22.12 
 H(Fragment=2)         24.69     13.85     21.77 
 H(Fragment=2)         23.28     13.48     21.35 
 O(Fragment=2)         26.91     15.88     18.11 
 H(Fragment=2)         27.46     16.63     18.31 
 H(Fragment=2)         26.07     16.25     17.88 
 O(Fragment=2)         14.32     15.24     23.51 
 H(Fragment=2)         14.86     15.5      24.25 
 H(Fragment=2)         14.43     15.95     22.87 
 O(Fragment=2)         17.07     22.62     27.36 
 H(Fragment=2)         16.74     21.81     27.75 
 H(Fragment=2)         17.08     22.45     26.42 
 O(Fragment=2)         22.13     24.45     25.65 
 H(Fragment=2)         21.22     24.74     25.64 
 H(Fragment=2)         22.64     25.25     25.58 
 O(Fragment=2)         18.16     13.52     15.4 
 H(Fragment=2)         17.65     13.78     14.64 
 H(Fragment=2)         18.88     14.16     15.44 
 O(Fragment=2)         14.53     14.76     17.22 
 H(Fragment=2)         14.5      14.38     16.34 
 H(Fragment=2)         15.41     14.58     17.53 
 O(Fragment=2)         18.27     16.8      27.3 
 H(Fragment=2)         18.73     16.3      26.62 
 H(Fragment=2)         18.09     17.64     26.89 
 O(Fragment=2)         20.42     27.17     24.5 
 H(Fragment=2)         19.53     27.36     24.81 
 H(Fragment=2)         20.29     26.67     23.69 
 O(Fragment=2)         15.55     22.24     14.21 
 H(Fragment=2)         16.02     21.89     13.45 
 H(Fragment=2)         15.05     22.97     13.86 
 O(Fragment=2)         21.14     21.69     11.87 
 H(Fragment=2)         20.42     22.28     12.09 
 H(Fragment=2)         21.05     20.96     12.48 
 O(Fragment=2)         16.25     15.94     25.32 
 H(Fragment=2)         15.95     16.69     25.84 
 H(Fragment=2)         16.16     15.19     25.9 
 O(Fragment=2)         24.4      26.84     17.92 
 H(Fragment=2)         24.38     25.92     17.66 
 H(Fragment=2)         24.       26.86     18.79 
 O(Fragment=2)         25.43     23.55     25.48 
 H(Fragment=2)         25.62     23.81     24.58 
 H(Fragment=2)         24.68     22.96     25.4 
 O(Fragment=2)         18.31     12.29     20.18 
 H(Fragment=2)         17.57     12.68     20.64 
 H(Fragment=2)         18.71     11.71     20.82 
 O(Fragment=2)         25.84     17.34     14.65 
 H(Fragment=2)         25.88     16.42     14.38 
 H(Fragment=2)         25.87     17.32     15.6 
 O(Fragment=2)         26.1      16.71     23.65 
 H(Fragment=2)         26.29     15.93     23.13 
 H(Fragment=2)         26.57     16.56     24.48 
 O(Fragment=2)         27.75     22.81     22.11 
 H(Fragment=2)         28.33     22.51     22.81 
 H(Fragment=2)         27.4      22.       21.73 
 O(Fragment=2)         13.98     24.93     16.29 
 H(Fragment=2)         13.41     24.53     15.62 
 H(Fragment=2)         14.06     24.26     16.96 
 O(Fragment=2)         20.53     28.02     17.77 
 H(Fragment=2)         20.94     27.39     17.18 
 H(Fragment=2)         19.6      27.77     17.78 
 O(Fragment=2)         21.36     26.76     15.38 
 H(Fragment=2)         21.76     27.45     14.86 
 H(Fragment=2)         21.54     25.96     14.89 
 O(Fragment=2)         12.97     18.73     23.65 
 H(Fragment=2)         12.76     17.92     24.11 
 H(Fragment=2)         12.51     18.65     22.81 
 O(Fragment=2)         23.48     18.85     12.56 
 H(Fragment=2)         24.4      18.65     12.38 
 H(Fragment=2)         23.46     19.78     12.76 
 O(Fragment=2)         26.37     20.85     14.98 
 H(Fragment=2)         25.69     20.78     14.3 
 H(Fragment=2)         26.34     21.76     15.25 
 O(Fragment=2)         12.53     15.81     20.09 
 H(Fragment=2)         12.75     14.93     19.79 
 H(Fragment=2)         12.79     16.38     19.37 
 O(Fragment=2)         20.68     21.91     28.22 
 H(Fragment=2)         20.51     20.98     28.04 
 H(Fragment=2)         19.81     22.32     28.18 
 O(Fragment=2)         25.23     20.34     26.63 
 H(Fragment=2)         24.37     19.97     26.84 
 H(Fragment=2)         25.24     21.19     27.06 
 O(Fragment=2)         23.09     18.91     27.44 
 H(Fragment=2)         22.22     18.86     27.85 
 H(Fragment=2)         23.53     18.1      27.71 
 O(Fragment=2)         23.35     27.73     20.24 
 H(Fragment=2)         24.09     28.33     20.25 
 H(Fragment=2)         23.26     27.42     21.14 
 O(Fragment=2)         25.46     24.03     15.3 
 H(Fragment=2)         25.94     24.09     16.13 
 H(Fragment=2)         25.08     24.9      15.18 
 O(Fragment=2)         23.2      22.58     27.64 
 H(Fragment=2)         22.54     22.22     28.23 
 H(Fragment=2)         22.72     23.19     27.08 
 O(Fragment=2)         17.03     14.75     13.31 
 H(Fragment=2)         17.43     15.6      13.47 
 H(Fragment=2)         16.11     14.86     13.54 
 O(Fragment=2)         11.6      22.41     17.53 
 H(Fragment=2)         12.33     21.8      17.44 
 H(Fragment=2)         11.73     23.05     16.84 
 O(Fragment=2)         10.8      20.35     19.41 
 H(Fragment=2)         10.87     21.13     18.87 
 H(Fragment=2)         11.7      20.11     19.61 
 O(Fragment=2)         11.97     21.55     23.5 
 H(Fragment=2)         12.5      20.75     23.57 
 H(Fragment=2)         12.15     21.87     22.61 
 O(Fragment=2)         22.14     11.31     21.45 
 H(Fragment=2)         21.27     10.94     21.58 
 H(Fragment=2)         22.04     11.91     20.71 
 O(Fragment=2)         17.04     19.88     28.83 
 H(Fragment=2)         16.16     19.54     28.96 
 H(Fragment=2)         17.23     19.71     27.9 
 O(Fragment=2)         16.2      26.05     15.47 
 H(Fragment=2)         15.86     26.72     14.88 
 H(Fragment=2)         15.41     25.66     15.86 
 O(Fragment=2)         14.27     26.09     19.22 
 H(Fragment=2)         13.56     26.15     18.57 
 H(Fragment=2)         13.94     26.57     19.97 
 O(Fragment=2)         14.07     23.32     26.43 
 H(Fragment=2)         13.8      22.44     26.67 
 H(Fragment=2)         14.69     23.21     25.71 
 O(Fragment=2)         20.54     19.08     28.41 
 H(Fragment=2)         20.82     18.49     29.11 
 H(Fragment=2)         19.6      18.96     28.36 
 O(Fragment=2)         19.37     24.91     27.92 
 H(Fragment=2)         18.93     24.67     28.74 
 H(Fragment=2)         19.14     24.21     27.31 
 O(Fragment=2)         20.28     18.03     11.73 
 H(Fragment=2)         19.76     18.1      10.93 
 H(Fragment=2)         21.18     17.89     11.43 
 O(Fragment=2)         13.61     19.89     13.76 
 H(Fragment=2)         13.75     19.1      14.29 
 H(Fragment=2)         12.73     20.19     14. 
 O(Fragment=2)         17.9      27.34     25.08 
 H(Fragment=2)         17.27     28.       25.36 
 H(Fragment=2)         17.46     26.88     24.36 
 O(Fragment=2)         19.12     23.53     12.28 
 H(Fragment=2)         18.82     24.38     12.57 
 H(Fragment=2)         18.41     23.2      11.73 
 O(Fragment=2)         14.57     18.55     26.45 
 H(Fragment=2)         14.35     18.95     27.28 
 H(Fragment=2)         13.88     18.83     25.85 
 O(Fragment=2)         24.38     21.44     12.69 
 H(Fragment=2)         23.73     22.14     12.61 
 H(Fragment=2)         25.19     21.81     12.34 
 O(Fragment=2)         25.06     12.86     17.45 
 H(Fragment=2)         24.66     13.53     16.89 
 H(Fragment=2)         25.03     13.24     18.33 
 O(Fragment=2)         20.4      13.83     12.81 
 H(Fragment=2)         20.29     14.18     11.93 
 H(Fragment=2)         20.59     14.6      13.35 
 O(Fragment=2)         14.3      26.3      23.91 
 H(Fragment=2)         13.57     25.8      24.29 
 H(Fragment=2)         15.07     25.78     24.11 
 O(Fragment=2)         18.27     20.09     10.61 
 H(Fragment=2)         18.39     20.43     11.49 
 H(Fragment=2)         18.44     20.83     10.03 
 O(Fragment=2)         23.57     12.63     24.67 
 H(Fragment=2)         23.51     11.7      24.45 
 H(Fragment=2)         23.84     13.06     23.85 
 O(Fragment=2)         26.39     26.97     21.58 
 H(Fragment=2)         25.58     26.57     21.91 
 H(Fragment=2)         26.79     26.29     21.04 
 O(Fragment=2)         28.49     17.68     19.21 
 H(Fragment=2)         29.41     17.8      19.01 
 H(Fragment=2)         28.48     17.32     20.1 
 O(Fragment=2)         13.91     17.02     14.24 
 H(Fragment=2)         12.96     17.08     14.28 
 H(Fragment=2)         14.1      16.09     14.28 
 O(Fragment=2)         20.13     29.36     20.23 
 H(Fragment=2)         20.47     28.88     19.48 
 H(Fragment=2)         20.72     29.13     20.95 
 O(Fragment=2)         18.31     25.96     13.15 
 H(Fragment=2)         18.71     26.77     13.46 
 H(Fragment=2)         17.54     25.84     13.7 
 O(Fragment=2)         22.47     14.37     26.7 
 H(Fragment=2)         23.       13.74     26.21 
 H(Fragment=2)         23.07     15.11     26.85 
 O(Fragment=2)         26.35     17.92     26.75 
 H(Fragment=2)         27.26     18.1      26.94 
 H(Fragment=2)         25.95     18.78     26.62 
 O(Fragment=2)         17.03     28.28     21.95 
 H(Fragment=2)         17.26     28.71     22.77 
 H(Fragment=2)         16.21     28.7      21.68 
 O(Fragment=2)         27.72     24.95     20.23 
 H(Fragment=2)         28.61     25.23     19.99 
 H(Fragment=2)         27.85     24.39     21. 
 O(Fragment=2)         29.16     23.13     18.24 
 H(Fragment=2)         29.86     23.72     18.52 
 H(Fragment=2)         28.53     23.14     18.96 
 
 NAtoms=    385 NQM=      385 NQMF=       0 NMMI=      0 NMMIF=      0
                NMic=       0 NMicF=      0.
                    Isotopes and Nuclear Properties:
 (Nuclear quadrupole moments (NQMom) in fm**2, nuclear magnetic moments (NMagM)
  in nuclear magnetons)

  Atom         1           2           3           4           5           6           7           8           9          10
 IAtWgt=          79          16           1           1          16           1           1          16           1           1
 AtmWgt=  78.9183361  15.9949146   1.0078250   1.0078250  15.9949146   1.0078250   1.0078250  15.9949146   1.0078250   1.0078250
 NucSpn=           3           0           1           1           0           1           1           0           1           1
 AtZEff=   0.0000000   0.0000000   0.0000000   0.0000000   0.0000000   0.0000000   0.0000000   0.0000000   0.0000000   0.0000000
 NQMom=   31.3000000   0.0000000   0.0000000   0.0000000   0.0000000   0.0000000   0.0000000   0.0000000   0.0000000   0.0000000
 NMagM=    2.1063990   0.0000000   2.7928460   2.7928460   0.0000000   2.7928460   2.7928460   0.0000000   2.7928460   2.7928460
 AtZNuc=  35.0000000   8.0000000   1.0000000   1.0000000   8.0000000   1.0000000   1.0000000   8.0000000   1.0000000   1.0000000

  Atom        11          12          13          14          15          16          17          18          19          20
 IAtWgt=          16           1           1          16           1           1          16           1           1          16
 AtmWgt=  15.9949146   1.0078250   1.0078250  15.9949146   1.0078250   1.0078250  15.9949146   1.0078250   1.0078250  15.9949146
 NucSpn=           0           1           1           0           1           1           0           1           1           0
 AtZEff=   0.0000000   0.0000000   0.0000000   0.0000000   0.0000000   0.0000000   0.0000000   0.0000000   0.0000000   0.0000000
 NQMom=    0.0000000   0.0000000   0.0000000   0.0000000   0.0000000   0.0000000   0.0000000   0.0000000   0.0000000   0.0000000
 NMagM=    0.0000000   2.7928460   2.7928460   0.0000000   2.7928460   2.7928460   0.0000000   2.7928460   2.7928460   0.0000000
 AtZNuc=   8.0000000   1.0000000   1.0000000   8.0000000   1.0000000   1.0000000   8.0000000   1.0000000   1.0000000   8.0000000

  Atom        21          22          23          24          25          26          27          28          29          30
 IAtWgt=           1           1          16           1           1          16           1           1          16           1
 AtmWgt=   1.0078250   1.0078250  15.9949146   1.0078250   1.0078250  15.9949146   1.0078250   1.0078250  15.9949146   1.0078250
 NucSpn=           1           1           0           1           1           0           1           1           0           1
 AtZEff=   0.0000000   0.0000000   0.0000000   0.0000000   0.0000000   0.0000000   0.0000000   0.0000000   0.0000000   0.0000000
 NQMom=    0.0000000   0.0000000   0.0000000   0.0000000   0.0000000   0.0000000   0.0000000   0.0000000   0.0000000   0.0000000
 NMagM=    2.7928460   2.7928460   0.0000000   2.7928460   2.7928460   0.0000000   2.7928460   2.7928460   0.0000000   2.7928460
 AtZNuc=   1.0000000   1.0000000   8.0000000   1.0000000   1.0000000   8.0000000   1.0000000   1.0000000   8.0000000   1.0000000

  Atom        31          32          33          34          35          36          37          38          39          40
 IAtWgt=           1          16           1           1          16           1           1          16           1           1
 AtmWgt=   1.0078250  15.9949146   1.0078250   1.0078250  15.9949146   1.0078250   1.0078250  15.9949146   1.0078250   1.0078250
 NucSpn=           1           0           1           1           0           1           1           0           1           1
 AtZEff=   0.0000000   0.0000000   0.0000000   0.0000000   0.0000000   0.0000000   0.0000000   0.0000000   0.0000000   0.0000000
 NQMom=    0.0000000   0.0000000   0.0000000   0.0000000   0.0000000   0.0000000   0.0000000   0.0000000   0.0000000   0.0000000
 NMagM=    2.7928460   0.0000000   2.7928460   2.7928460   0.0000000   2.7928460   2.7928460   0.0000000   2.7928460   2.7928460
 AtZNuc=   1.0000000   8.0000000   1.0000000   1.0000000   8.0000000   1.0000000   1.0000000   8.0000000   1.0000000   1.0000000

  Atom        41          42          43          44          45          46          47          48          49          50
 IAtWgt=          16           1           1          16           1           1          16           1           1          16
 AtmWgt=  15.9949146   1.0078250   1.0078250  15.9949146   1.0078250   1.0078250  15.9949146   1.0078250   1.0078250  15.9949146
 NucSpn=           0           1           1           0           1           1           0           1           1           0
 AtZEff=   0.0000000   0.0000000   0.0000000   0.0000000   0.0000000   0.0000000   0.0000000   0.0000000   0.0000000   0.0000000
 NQMom=    0.0000000   0.0000000   0.0000000   0.0000000   0.0000000   0.0000000   0.0000000   0.0000000   0.0000000   0.0000000
 NMagM=    0.0000000   2.7928460   2.7928460   0.0000000   2.7928460   2.7928460   0.0000000   2.7928460   2.7928460   0.0000000
 AtZNuc=   8.0000000   1.0000000   1.0000000   8.0000000   1.0000000   1.0000000   8.0000000   1.0000000   1.0000000   8.0000000

  Atom        51          52          53          54          55          56          57          58          59          60
 IAtWgt=           1           1          16           1           1          16           1           1          16           1
 AtmWgt=   1.0078250   1.0078250  15.9949146   1.0078250   1.0078250  15.9949146   1.0078250   1.0078250  15.9949146   1.0078250
 NucSpn=           1           1           0           1           1           0           1           1           0           1
 AtZEff=   0.0000000   0.0000000   0.0000000   0.0000000   0.0000000   0.0000000   0.0000000   0.0000000   0.0000000   0.0000000
 NQMom=    0.0000000   0.0000000   0.0000000   0.0000000   0.0000000   0.0000000   0.0000000   0.0000000   0.0000000   0.0000000
 NMagM=    2.7928460   2.7928460   0.0000000   2.7928460   2.7928460   0.0000000   2.7928460   2.7928460   0.0000000   2.7928460
 AtZNuc=   1.0000000   1.0000000   8.0000000   1.0000000   1.0000000   8.0000000   1.0000000   1.0000000   8.0000000   1.0000000

  Atom        61          62          63          64          65          66          67          68          69          70
 IAtWgt=           1          16           1           1          16           1           1          16           1           1
 AtmWgt=   1.0078250  15.9949146   1.0078250   1.0078250  15.9949146   1.0078250   1.0078250  15.9949146   1.0078250   1.0078250
 NucSpn=           1           0           1           1           0           1           1           0           1           1
 AtZEff=   0.0000000   0.0000000   0.0000000   0.0000000   0.0000000   0.0000000   0.0000000   0.0000000   0.0000000   0.0000000
 NQMom=    0.0000000   0.0000000   0.0000000   0.0000000   0.0000000   0.0000000   0.0000000   0.0000000   0.0000000   0.0000000
 NMagM=    2.7928460   0.0000000   2.7928460   2.7928460   0.0000000   2.7928460   2.7928460   0.0000000   2.7928460   2.7928460
 AtZNuc=   1.0000000   8.0000000   1.0000000   1.0000000   8.0000000   1.0000000   1.0000000   8.0000000   1.0000000   1.0000000

  Atom        71          72          73          74          75          76          77          78          79          80
 IAtWgt=          16           1           1          16           1           1          16           1           1          16
 AtmWgt=  15.9949146   1.0078250   1.0078250  15.9949146   1.0078250   1.0078250  15.9949146   1.0078250   1.0078250  15.9949146
 NucSpn=           0           1           1           0           1           1           0           1           1           0
 AtZEff=   0.0000000   0.0000000   0.0000000   0.0000000   0.0000000   0.0000000   0.0000000   0.0000000   0.0000000   0.0000000
 NQMom=    0.0000000   0.0000000   0.0000000   0.0000000   0.0000000   0.0000000   0.0000000   0.0000000   0.0000000   0.0000000
 NMagM=    0.0000000   2.7928460   2.7928460   0.0000000   2.7928460   2.7928460   0.0000000   2.7928460   2.7928460   0.0000000
 AtZNuc=   8.0000000   1.0000000   1.0000000   8.0000000   1.0000000   1.0000000   8.0000000   1.0000000   1.0000000   8.0000000

  Atom        81          82          83          84          85          86          87          88          89          90
 IAtWgt=           1           1          16           1           1          16           1           1          16           1
 AtmWgt=   1.0078250   1.0078250  15.9949146   1.0078250   1.0078250  15.9949146   1.0078250   1.0078250  15.9949146   1.0078250
 NucSpn=           1           1           0           1           1           0           1           1           0           1
 AtZEff=   0.0000000   0.0000000   0.0000000   0.0000000   0.0000000   0.0000000   0.0000000   0.0000000   0.0000000   0.0000000
 NQMom=    0.0000000   0.0000000   0.0000000   0.0000000   0.0000000   0.0000000   0.0000000   0.0000000   0.0000000   0.0000000
 NMagM=    2.7928460   2.7928460   0.0000000   2.7928460   2.7928460   0.0000000   2.7928460   2.7928460   0.0000000   2.7928460
 AtZNuc=   1.0000000   1.0000000   8.0000000   1.0000000   1.0000000   8.0000000   1.0000000   1.0000000   8.0000000   1.0000000

  Atom        91          92          93          94          95          96          97          98          99         100
 IAtWgt=           1          16           1           1          16           1           1          16           1           1
 AtmWgt=   1.0078250  15.9949146   1.0078250   1.0078250  15.9949146   1.0078250   1.0078250  15.9949146   1.0078250   1.0078250
 NucSpn=           1           0           1           1           0           1           1           0           1           1
 AtZEff=   0.0000000   0.0000000   0.0000000   0.0000000   0.0000000   0.0000000   0.0000000   0.0000000   0.0000000   0.0000000
 NQMom=    0.0000000   0.0000000   0.0000000   0.0000000   0.0000000   0.0000000   0.0000000   0.0000000   0.0000000   0.0000000
 NMagM=    2.7928460   0.0000000   2.7928460   2.7928460   0.0000000   2.7928460   2.7928460   0.0000000   2.7928460   2.7928460
 AtZNuc=   1.0000000   8.0000000   1.0000000   1.0000000   8.0000000   1.0000000   1.0000000   8.0000000   1.0000000   1.0000000

  Atom       101         102         103         104         105         106         107         108         109         110
 IAtWgt=          16           1           1          16           1           1          16           1           1          16
 AtmWgt=  15.9949146   1.0078250   1.0078250  15.9949146   1.0078250   1.0078250  15.9949146   1.0078250   1.0078250  15.9949146
 NucSpn=           0           1           1           0           1           1           0           1           1           0
 AtZEff=   0.0000000   0.0000000   0.0000000   0.0000000   0.0000000   0.0000000   0.0000000   0.0000000   0.0000000   0.0000000
 NQMom=    0.0000000   0.0000000   0.0000000   0.0000000   0.0000000   0.0000000   0.0000000   0.0000000   0.0000000   0.0000000
 NMagM=    0.0000000   2.7928460   2.7928460   0.0000000   2.7928460   2.7928460   0.0000000   2.7928460   2.7928460   0.0000000
 AtZNuc=   8.0000000   1.0000000   1.0000000   8.0000000   1.0000000   1.0000000   8.0000000   1.0000000   1.0000000   8.0000000

  Atom       111         112         113         114         115         116         117         118         119         120
 IAtWgt=           1           1          16           1           1          16           1           1          16           1
 AtmWgt=   1.0078250   1.0078250  15.9949146   1.0078250   1.0078250  15.9949146   1.0078250   1.0078250  15.9949146   1.0078250
 NucSpn=           1           1           0           1           1           0           1           1           0           1
 AtZEff=   0.0000000   0.0000000   0.0000000   0.0000000   0.0000000   0.0000000   0.0000000   0.0000000   0.0000000   0.0000000
 NQMom=    0.0000000   0.0000000   0.0000000   0.0000000   0.0000000   0.0000000   0.0000000   0.0000000   0.0000000   0.0000000
 NMagM=    2.7928460   2.7928460   0.0000000   2.7928460   2.7928460   0.0000000   2.7928460   2.7928460   0.0000000   2.7928460
 AtZNuc=   1.0000000   1.0000000   8.0000000   1.0000000   1.0000000   8.0000000   1.0000000   1.0000000   8.0000000   1.0000000

  Atom       121         122         123         124         125         126         127         128         129         130
 IAtWgt=           1          16           1           1          16           1           1          16           1           1
 AtmWgt=   1.0078250  15.9949146   1.0078250   1.0078250  15.9949146   1.0078250   1.0078250  15.9949146   1.0078250   1.0078250
 NucSpn=           1           0           1           1           0           1           1           0           1           1
 AtZEff=   0.0000000   0.0000000   0.0000000   0.0000000   0.0000000   0.0000000   0.0000000   0.0000000   0.0000000   0.0000000
 NQMom=    0.0000000   0.0000000   0.0000000   0.0000000   0.0000000   0.0000000   0.0000000   0.0000000   0.0000000   0.0000000
 NMagM=    2.7928460   0.0000000   2.7928460   2.7928460   0.0000000   2.7928460   2.7928460   0.0000000   2.7928460   2.7928460
 AtZNuc=   1.0000000   8.0000000   1.0000000   1.0000000   8.0000000   1.0000000   1.0000000   8.0000000   1.0000000   1.0000000

  Atom       131         132         133         134         135         136         137         138         139         140
 IAtWgt=          16           1           1          16           1           1          16           1           1          16
 AtmWgt=  15.9949146   1.0078250   1.0078250  15.9949146   1.0078250   1.0078250  15.9949146   1.0078250   1.0078250  15.9949146
 NucSpn=           0           1           1           0           1           1           0           1           1           0
 AtZEff=   0.0000000   0.0000000   0.0000000   0.0000000   0.0000000   0.0000000   0.0000000   0.0000000   0.0000000   0.0000000
 NQMom=    0.0000000   0.0000000   0.0000000   0.0000000   0.0000000   0.0000000   0.0000000   0.0000000   0.0000000   0.0000000
 NMagM=    0.0000000   2.7928460   2.7928460   0.0000000   2.7928460   2.7928460   0.0000000   2.7928460   2.7928460   0.0000000
 AtZNuc=   8.0000000   1.0000000   1.0000000   8.0000000   1.0000000   1.0000000   8.0000000   1.0000000   1.0000000   8.0000000

  Atom       141         142         143         144         145         146         147         148         149         150
 IAtWgt=           1           1          16           1           1          16           1           1          16           1
 AtmWgt=   1.0078250   1.0078250  15.9949146   1.0078250   1.0078250  15.9949146   1.0078250   1.0078250  15.9949146   1.0078250
 NucSpn=           1           1           0           1           1           0           1           1           0           1
 AtZEff=   0.0000000   0.0000000   0.0000000   0.0000000   0.0000000   0.0000000   0.0000000   0.0000000   0.0000000   0.0000000
 NQMom=    0.0000000   0.0000000   0.0000000   0.0000000   0.0000000   0.0000000   0.0000000   0.0000000   0.0000000   0.0000000
 NMagM=    2.7928460   2.7928460   0.0000000   2.7928460   2.7928460   0.0000000   2.7928460   2.7928460   0.0000000   2.7928460
 AtZNuc=   1.0000000   1.0000000   8.0000000   1.0000000   1.0000000   8.0000000   1.0000000   1.0000000   8.0000000   1.0000000

  Atom       151         152         153         154         155         156         157         158         159         160
 IAtWgt=           1          16           1           1          16           1           1          16           1           1
 AtmWgt=   1.0078250  15.9949146   1.0078250   1.0078250  15.9949146   1.0078250   1.0078250  15.9949146   1.0078250   1.0078250
 NucSpn=           1           0           1           1           0           1           1           0           1           1
 AtZEff=   0.0000000   0.0000000   0.0000000   0.0000000   0.0000000   0.0000000   0.0000000   0.0000000   0.0000000   0.0000000
 NQMom=    0.0000000   0.0000000   0.0000000   0.0000000   0.0000000   0.0000000   0.0000000   0.0000000   0.0000000   0.0000000
 NMagM=    2.7928460   0.0000000   2.7928460   2.7928460   0.0000000   2.7928460   2.7928460   0.0000000   2.7928460   2.7928460
 AtZNuc=   1.0000000   8.0000000   1.0000000   1.0000000   8.0000000   1.0000000   1.0000000   8.0000000   1.0000000   1.0000000

  Atom       161         162         163         164         165         166         167         168         169         170
 IAtWgt=          16           1           1          16           1           1          16           1           1          16
 AtmWgt=  15.9949146   1.0078250   1.0078250  15.9949146   1.0078250   1.0078250  15.9949146   1.0078250   1.0078250  15.9949146
 NucSpn=           0           1           1           0           1           1           0           1           1           0
 AtZEff=   0.0000000   0.0000000   0.0000000   0.0000000   0.0000000   0.0000000   0.0000000   0.0000000   0.0000000   0.0000000
 NQMom=    0.0000000   0.0000000   0.0000000   0.0000000   0.0000000   0.0000000   0.0000000   0.0000000   0.0000000   0.0000000
 NMagM=    0.0000000   2.7928460   2.7928460   0.0000000   2.7928460   2.7928460   0.0000000   2.7928460   2.7928460   0.0000000
 AtZNuc=   8.0000000   1.0000000   1.0000000   8.0000000   1.0000000   1.0000000   8.0000000   1.0000000   1.0000000   8.0000000

  Atom       171         172         173         174         175         176         177         178         179         180
 IAtWgt=           1           1          16           1           1          16           1           1          16           1
 AtmWgt=   1.0078250   1.0078250  15.9949146   1.0078250   1.0078250  15.9949146   1.0078250   1.0078250  15.9949146   1.0078250
 NucSpn=           1           1           0           1           1           0           1           1           0           1
 AtZEff=   0.0000000   0.0000000   0.0000000   0.0000000   0.0000000   0.0000000   0.0000000   0.0000000   0.0000000   0.0000000
 NQMom=    0.0000000   0.0000000   0.0000000   0.0000000   0.0000000   0.0000000   0.0000000   0.0000000   0.0000000   0.0000000
 NMagM=    2.7928460   2.7928460   0.0000000   2.7928460   2.7928460   0.0000000   2.7928460   2.7928460   0.0000000   2.7928460
 AtZNuc=   1.0000000   1.0000000   8.0000000   1.0000000   1.0000000   8.0000000   1.0000000   1.0000000   8.0000000   1.0000000

  Atom       181         182         183         184         185         186         187         188         189         190
 IAtWgt=           1          16           1           1          16           1           1          16           1           1
 AtmWgt=   1.0078250  15.9949146   1.0078250   1.0078250  15.9949146   1.0078250   1.0078250  15.9949146   1.0078250   1.0078250
 NucSpn=           1           0           1           1           0           1           1           0           1           1
 AtZEff=   0.0000000   0.0000000   0.0000000   0.0000000   0.0000000   0.0000000   0.0000000   0.0000000   0.0000000   0.0000000
 NQMom=    0.0000000   0.0000000   0.0000000   0.0000000   0.0000000   0.0000000   0.0000000   0.0000000   0.0000000   0.0000000
 NMagM=    2.7928460   0.0000000   2.7928460   2.7928460   0.0000000   2.7928460   2.7928460   0.0000000   2.7928460   2.7928460
 AtZNuc=   1.0000000   8.0000000   1.0000000   1.0000000   8.0000000   1.0000000   1.0000000   8.0000000   1.0000000   1.0000000

  Atom       191         192         193         194         195         196         197         198         199         200
 IAtWgt=          16           1           1          16           1           1          16           1           1          16
 AtmWgt=  15.9949146   1.0078250   1.0078250  15.9949146   1.0078250   1.0078250  15.9949146   1.0078250   1.0078250  15.9949146
 NucSpn=           0           1           1           0           1           1           0           1           1           0
 AtZEff=   0.0000000   0.0000000   0.0000000   0.0000000   0.0000000   0.0000000   0.0000000   0.0000000   0.0000000   0.0000000
 NQMom=    0.0000000   0.0000000   0.0000000   0.0000000   0.0000000   0.0000000   0.0000000   0.0000000   0.0000000   0.0000000
 NMagM=    0.0000000   2.7928460   2.7928460   0.0000000   2.7928460   2.7928460   0.0000000   2.7928460   2.7928460   0.0000000
 AtZNuc=   8.0000000   1.0000000   1.0000000   8.0000000   1.0000000   1.0000000   8.0000000   1.0000000   1.0000000   8.0000000

  Atom       201         202         203         204         205         206         207         208         209         210
 IAtWgt=           1           1          16           1           1          16           1           1          16           1
 AtmWgt=   1.0078250   1.0078250  15.9949146   1.0078250   1.0078250  15.9949146   1.0078250   1.0078250  15.9949146   1.0078250
 NucSpn=           1           1           0           1           1           0           1           1           0           1
 AtZEff=   0.0000000   0.0000000   0.0000000   0.0000000   0.0000000   0.0000000   0.0000000   0.0000000   0.0000000   0.0000000
 NQMom=    0.0000000   0.0000000   0.0000000   0.0000000   0.0000000   0.0000000   0.0000000   0.0000000   0.0000000   0.0000000
 NMagM=    2.7928460   2.7928460   0.0000000   2.7928460   2.7928460   0.0000000   2.7928460   2.7928460   0.0000000   2.7928460
 AtZNuc=   1.0000000   1.0000000   8.0000000   1.0000000   1.0000000   8.0000000   1.0000000   1.0000000   8.0000000   1.0000000

  Atom       211         212         213         214         215         216         217         218         219         220
 IAtWgt=           1          16           1           1          16           1           1          16           1           1
 AtmWgt=   1.0078250  15.9949146   1.0078250   1.0078250  15.9949146   1.0078250   1.0078250  15.9949146   1.0078250   1.0078250
 NucSpn=           1           0           1           1           0           1           1           0           1           1
 AtZEff=   0.0000000   0.0000000   0.0000000   0.0000000   0.0000000   0.0000000   0.0000000   0.0000000   0.0000000   0.0000000
 NQMom=    0.0000000   0.0000000   0.0000000   0.0000000   0.0000000   0.0000000   0.0000000   0.0000000   0.0000000   0.0000000
 NMagM=    2.7928460   0.0000000   2.7928460   2.7928460   0.0000000   2.7928460   2.7928460   0.0000000   2.7928460   2.7928460
 AtZNuc=   1.0000000   8.0000000   1.0000000   1.0000000   8.0000000   1.0000000   1.0000000   8.0000000   1.0000000   1.0000000

  Atom       221         222         223         224         225         226         227         228         229         230
 IAtWgt=          16           1           1          16           1           1          16           1           1          16
 AtmWgt=  15.9949146   1.0078250   1.0078250  15.9949146   1.0078250   1.0078250  15.9949146   1.0078250   1.0078250  15.9949146
 NucSpn=           0           1           1           0           1           1           0           1           1           0
 AtZEff=   0.0000000   0.0000000   0.0000000   0.0000000   0.0000000   0.0000000   0.0000000   0.0000000   0.0000000   0.0000000
 NQMom=    0.0000000   0.0000000   0.0000000   0.0000000   0.0000000   0.0000000   0.0000000   0.0000000   0.0000000   0.0000000
 NMagM=    0.0000000   2.7928460   2.7928460   0.0000000   2.7928460   2.7928460   0.0000000   2.7928460   2.7928460   0.0000000
 AtZNuc=   8.0000000   1.0000000   1.0000000   8.0000000   1.0000000   1.0000000   8.0000000   1.0000000   1.0000000   8.0000000

  Atom       231         232         233         234         235         236         237         238         239         240
 IAtWgt=           1           1          16           1           1          16           1           1          16           1
 AtmWgt=   1.0078250   1.0078250  15.9949146   1.0078250   1.0078250  15.9949146   1.0078250   1.0078250  15.9949146   1.0078250
 NucSpn=           1           1           0           1           1           0           1           1           0           1
 AtZEff=   0.0000000   0.0000000   0.0000000   0.0000000   0.0000000   0.0000000   0.0000000   0.0000000   0.0000000   0.0000000
 NQMom=    0.0000000   0.0000000   0.0000000   0.0000000   0.0000000   0.0000000   0.0000000   0.0000000   0.0000000   0.0000000
 NMagM=    2.7928460   2.7928460   0.0000000   2.7928460   2.7928460   0.0000000   2.7928460   2.7928460   0.0000000   2.7928460
 AtZNuc=   1.0000000   1.0000000   8.0000000   1.0000000   1.0000000   8.0000000   1.0000000   1.0000000   8.0000000   1.0000000

  Atom       241         242         243         244         245         246         247         248         249         250
 IAtWgt=           1          16           1           1          16           1           1          16           1           1
 AtmWgt=   1.0078250  15.9949146   1.0078250   1.0078250  15.9949146   1.0078250   1.0078250  15.9949146   1.0078250   1.0078250
 NucSpn=           1           0           1           1           0           1           1           0           1           1
 AtZEff=   0.0000000   0.0000000   0.0000000   0.0000000   0.0000000   0.0000000   0.0000000   0.0000000   0.0000000   0.0000000
 NQMom=    0.0000000   0.0000000   0.0000000   0.0000000   0.0000000   0.0000000   0.0000000   0.0000000   0.0000000   0.0000000
 NMagM=    2.7928460   0.0000000   2.7928460   2.7928460   0.0000000   2.7928460   2.7928460   0.0000000   2.7928460   2.7928460
 AtZNuc=   1.0000000   8.0000000   1.0000000   1.0000000   8.0000000   1.0000000   1.0000000   8.0000000   1.0000000   1.0000000

  Atom       251         252         253         254         255         256         257         258         259         260
 IAtWgt=          16           1           1          16           1           1          16           1           1          16
 AtmWgt=  15.9949146   1.0078250   1.0078250  15.9949146   1.0078250   1.0078250  15.9949146   1.0078250   1.0078250  15.9949146
 NucSpn=           0           1           1           0           1           1           0           1           1           0
 AtZEff=   0.0000000   0.0000000   0.0000000   0.0000000   0.0000000   0.0000000   0.0000000   0.0000000   0.0000000   0.0000000
 NQMom=    0.0000000   0.0000000   0.0000000   0.0000000   0.0000000   0.0000000   0.0000000   0.0000000   0.0000000   0.0000000
 NMagM=    0.0000000   2.7928460   2.7928460   0.0000000   2.7928460   2.7928460   0.0000000   2.7928460   2.7928460   0.0000000
 AtZNuc=   8.0000000   1.0000000   1.0000000   8.0000000   1.0000000   1.0000000   8.0000000   1.0000000   1.0000000   8.0000000

  Atom       261         262         263         264         265         266         267         268         269         270
 IAtWgt=           1           1          16           1           1          16           1           1          16           1
 AtmWgt=   1.0078250   1.0078250  15.9949146   1.0078250   1.0078250  15.9949146   1.0078250   1.0078250  15.9949146   1.0078250
 NucSpn=           1           1           0           1           1           0           1           1           0           1
 AtZEff=   0.0000000   0.0000000   0.0000000   0.0000000   0.0000000   0.0000000   0.0000000   0.0000000   0.0000000   0.0000000
 NQMom=    0.0000000   0.0000000   0.0000000   0.0000000   0.0000000   0.0000000   0.0000000   0.0000000   0.0000000   0.0000000
 NMagM=    2.7928460   2.7928460   0.0000000   2.7928460   2.7928460   0.0000000   2.7928460   2.7928460   0.0000000   2.7928460
 AtZNuc=   1.0000000   1.0000000   8.0000000   1.0000000   1.0000000   8.0000000   1.0000000   1.0000000   8.0000000   1.0000000

  Atom       271         272         273         274         275         276         277         278         279         280
 IAtWgt=           1          16           1           1          16           1           1          16           1           1
 AtmWgt=   1.0078250  15.9949146   1.0078250   1.0078250  15.9949146   1.0078250   1.0078250  15.9949146   1.0078250   1.0078250
 NucSpn=           1           0           1           1           0           1           1           0           1           1
 AtZEff=   0.0000000   0.0000000   0.0000000   0.0000000   0.0000000   0.0000000   0.0000000   0.0000000   0.0000000   0.0000000
 NQMom=    0.0000000   0.0000000   0.0000000   0.0000000   0.0000000   0.0000000   0.0000000   0.0000000   0.0000000   0.0000000
 NMagM=    2.7928460   0.0000000   2.7928460   2.7928460   0.0000000   2.7928460   2.7928460   0.0000000   2.7928460   2.7928460
 AtZNuc=   1.0000000   8.0000000   1.0000000   1.0000000   8.0000000   1.0000000   1.0000000   8.0000000   1.0000000   1.0000000

  Atom       281         282         283         284         285         286         287         288         289         290
 IAtWgt=          16           1           1          16           1           1          16           1           1          16
 AtmWgt=  15.9949146   1.0078250   1.0078250  15.9949146   1.0078250   1.0078250  15.9949146   1.0078250   1.0078250  15.9949146
 NucSpn=           0           1           1           0           1           1           0           1           1           0
 AtZEff=   0.0000000   0.0000000   0.0000000   0.0000000   0.0000000   0.0000000   0.0000000   0.0000000   0.0000000   0.0000000
 NQMom=    0.0000000   0.0000000   0.0000000   0.0000000   0.0000000   0.0000000   0.0000000   0.0000000   0.0000000   0.0000000
 NMagM=    0.0000000   2.7928460   2.7928460   0.0000000   2.7928460   2.7928460   0.0000000   2.7928460   2.7928460   0.0000000
 AtZNuc=   8.0000000   1.0000000   1.0000000   8.0000000   1.0000000   1.0000000   8.0000000   1.0000000   1.0000000   8.0000000

  Atom       291         292         293         294         295         296         297         298         299         300
 IAtWgt=           1           1          16           1           1          16           1           1          16           1
 AtmWgt=   1.0078250   1.0078250  15.9949146   1.0078250   1.0078250  15.9949146   1.0078250   1.0078250  15.9949146   1.0078250
 NucSpn=           1           1           0           1           1           0           1           1           0           1
 AtZEff=   0.0000000   0.0000000   0.0000000   0.0000000   0.0000000   0.0000000   0.0000000   0.0000000   0.0000000   0.0000000
 NQMom=    0.0000000   0.0000000   0.0000000   0.0000000   0.0000000   0.0000000   0.0000000   0.0000000   0.0000000   0.0000000
 NMagM=    2.7928460   2.7928460   0.0000000   2.7928460   2.7928460   0.0000000   2.7928460   2.7928460   0.0000000   2.7928460
 AtZNuc=   1.0000000   1.0000000   8.0000000   1.0000000   1.0000000   8.0000000   1.0000000   1.0000000   8.0000000   1.0000000

  Atom       301         302         303         304         305         306         307         308         309         310
 IAtWgt=           1          16           1           1          16           1           1          16           1           1
 AtmWgt=   1.0078250  15.9949146   1.0078250   1.0078250  15.9949146   1.0078250   1.0078250  15.9949146   1.0078250   1.0078250
 NucSpn=           1           0           1           1           0           1           1           0           1           1
 AtZEff=   0.0000000   0.0000000   0.0000000   0.0000000   0.0000000   0.0000000   0.0000000   0.0000000   0.0000000   0.0000000
 NQMom=    0.0000000   0.0000000   0.0000000   0.0000000   0.0000000   0.0000000   0.0000000   0.0000000   0.0000000   0.0000000
 NMagM=    2.7928460   0.0000000   2.7928460   2.7928460   0.0000000   2.7928460   2.7928460   0.0000000   2.7928460   2.7928460
 AtZNuc=   1.0000000   8.0000000   1.0000000   1.0000000   8.0000000   1.0000000   1.0000000   8.0000000   1.0000000   1.0000000

  Atom       311         312         313         314         315         316         317         318         319         320
 IAtWgt=          16           1           1          16           1           1          16           1           1          16
 AtmWgt=  15.9949146   1.0078250   1.0078250  15.9949146   1.0078250   1.0078250  15.9949146   1.0078250   1.0078250  15.9949146
 NucSpn=           0           1           1           0           1           1           0           1           1           0
 AtZEff=   0.0000000   0.0000000   0.0000000   0.0000000   0.0000000   0.0000000   0.0000000   0.0000000   0.0000000   0.0000000
 NQMom=    0.0000000   0.0000000   0.0000000   0.0000000   0.0000000   0.0000000   0.0000000   0.0000000   0.0000000   0.0000000
 NMagM=    0.0000000   2.7928460   2.7928460   0.0000000   2.7928460   2.7928460   0.0000000   2.7928460   2.7928460   0.0000000
 AtZNuc=   8.0000000   1.0000000   1.0000000   8.0000000   1.0000000   1.0000000   8.0000000   1.0000000   1.0000000   8.0000000

  Atom       321         322         323         324         325         326         327         328         329         330
 IAtWgt=           1           1          16           1           1          16           1           1          16           1
 AtmWgt=   1.0078250   1.0078250  15.9949146   1.0078250   1.0078250  15.9949146   1.0078250   1.0078250  15.9949146   1.0078250
 NucSpn=           1           1           0           1           1           0           1           1           0           1
 AtZEff=   0.0000000   0.0000000   0.0000000   0.0000000   0.0000000   0.0000000   0.0000000   0.0000000   0.0000000   0.0000000
 NQMom=    0.0000000   0.0000000   0.0000000   0.0000000   0.0000000   0.0000000   0.0000000   0.0000000   0.0000000   0.0000000
 NMagM=    2.7928460   2.7928460   0.0000000   2.7928460   2.7928460   0.0000000   2.7928460   2.7928460   0.0000000   2.7928460
 AtZNuc=   1.0000000   1.0000000   8.0000000   1.0000000   1.0000000   8.0000000   1.0000000   1.0000000   8.0000000   1.0000000

  Atom       331         332         333         334         335         336         337         338         339         340
 IAtWgt=           1          16           1           1          16           1           1          16           1           1
 AtmWgt=   1.0078250  15.9949146   1.0078250   1.0078250  15.9949146   1.0078250   1.0078250  15.9949146   1.0078250   1.0078250
 NucSpn=           1           0           1           1           0           1           1           0           1           1
 AtZEff=   0.0000000   0.0000000   0.0000000   0.0000000   0.0000000   0.0000000   0.0000000   0.0000000   0.0000000   0.0000000
 NQMom=    0.0000000   0.0000000   0.0000000   0.0000000   0.0000000   0.0000000   0.0000000   0.0000000   0.0000000   0.0000000
 NMagM=    2.7928460   0.0000000   2.7928460   2.7928460   0.0000000   2.7928460   2.7928460   0.0000000   2.7928460   2.7928460
 AtZNuc=   1.0000000   8.0000000   1.0000000   1.0000000   8.0000000   1.0000000   1.0000000   8.0000000   1.0000000   1.0000000

  Atom       341         342         343         344         345         346         347         348         349         350
 IAtWgt=          16           1           1          16           1           1          16           1           1          16
 AtmWgt=  15.9949146   1.0078250   1.0078250  15.9949146   1.0078250   1.0078250  15.9949146   1.0078250   1.0078250  15.9949146
 NucSpn=           0           1           1           0           1           1           0           1           1           0
 AtZEff=   0.0000000   0.0000000   0.0000000   0.0000000   0.0000000   0.0000000   0.0000000   0.0000000   0.0000000   0.0000000
 NQMom=    0.0000000   0.0000000   0.0000000   0.0000000   0.0000000   0.0000000   0.0000000   0.0000000   0.0000000   0.0000000
 NMagM=    0.0000000   2.7928460   2.7928460   0.0000000   2.7928460   2.7928460   0.0000000   2.7928460   2.7928460   0.0000000
 AtZNuc=   8.0000000   1.0000000   1.0000000   8.0000000   1.0000000   1.0000000   8.0000000   1.0000000   1.0000000   8.0000000

  Atom       351         352         353         354         355         356         357         358         359         360
 IAtWgt=           1           1          16           1           1          16           1           1          16           1
 AtmWgt=   1.0078250   1.0078250  15.9949146   1.0078250   1.0078250  15.9949146   1.0078250   1.0078250  15.9949146   1.0078250
 NucSpn=           1           1           0           1           1           0           1           1           0           1
 AtZEff=   0.0000000   0.0000000   0.0000000   0.0000000   0.0000000   0.0000000   0.0000000   0.0000000   0.0000000   0.0000000
 NQMom=    0.0000000   0.0000000   0.0000000   0.0000000   0.0000000   0.0000000   0.0000000   0.0000000   0.0000000   0.0000000
 NMagM=    2.7928460   2.7928460   0.0000000   2.7928460   2.7928460   0.0000000   2.7928460   2.7928460   0.0000000   2.7928460
 AtZNuc=   1.0000000   1.0000000   8.0000000   1.0000000   1.0000000   8.0000000   1.0000000   1.0000000   8.0000000   1.0000000

  Atom       361         362         363         364         365         366         367         368         369         370
 IAtWgt=           1          16           1           1          16           1           1          16           1           1
 AtmWgt=   1.0078250  15.9949146   1.0078250   1.0078250  15.9949146   1.0078250   1.0078250  15.9949146   1.0078250   1.0078250
 NucSpn=           1           0           1           1           0           1           1           0           1           1
 AtZEff=   0.0000000   0.0000000   0.0000000   0.0000000   0.0000000   0.0000000   0.0000000   0.0000000   0.0000000   0.0000000
 NQMom=    0.0000000   0.0000000   0.0000000   0.0000000   0.0000000   0.0000000   0.0000000   0.0000000   0.0000000   0.0000000
 NMagM=    2.7928460   0.0000000   2.7928460   2.7928460   0.0000000   2.7928460   2.7928460   0.0000000   2.7928460   2.7928460
 AtZNuc=   1.0000000   8.0000000   1.0000000   1.0000000   8.0000000   1.0000000   1.0000000   8.0000000   1.0000000   1.0000000

  Atom       371         372         373         374         375         376         377         378         379         380
 IAtWgt=          16           1           1          16           1           1          16           1           1          16
 AtmWgt=  15.9949146   1.0078250   1.0078250  15.9949146   1.0078250   1.0078250  15.9949146   1.0078250   1.0078250  15.9949146
 NucSpn=           0           1           1           0           1           1           0           1           1           0
 AtZEff=   0.0000000   0.0000000   0.0000000   0.0000000   0.0000000   0.0000000   0.0000000   0.0000000   0.0000000   0.0000000
 NQMom=    0.0000000   0.0000000   0.0000000   0.0000000   0.0000000   0.0000000   0.0000000   0.0000000   0.0000000   0.0000000
 NMagM=    0.0000000   2.7928460   2.7928460   0.0000000   2.7928460   2.7928460   0.0000000   2.7928460   2.7928460   0.0000000
 AtZNuc=   8.0000000   1.0000000   1.0000000   8.0000000   1.0000000   1.0000000   8.0000000   1.0000000   1.0000000   8.0000000

  Atom       381         382         383         384         385
 IAtWgt=           1           1          16           1           1
 AtmWgt=   1.0078250   1.0078250  15.9949146   1.0078250   1.0078250
 NucSpn=           1           1           0           1           1
 AtZEff=   0.0000000   0.0000000   0.0000000   0.0000000   0.0000000
 NQMom=    0.0000000   0.0000000   0.0000000   0.0000000   0.0000000
 NMagM=    2.7928460   2.7928460   0.0000000   2.7928460   2.7928460
 AtZNuc=   1.0000000   1.0000000   8.0000000   1.0000000   1.0000000
 Leave Link  101 at Sun May 13 16:41:02 2018, MaxMem= 14763950080 cpu:        33.2
 (Enter /cm/shared/gaussian/g09.e01/intel64-sandybridge/g09/l103.exe)

 GradGradGradGradGradGradGradGradGradGradGradGradGradGradGradGradGradGrad
 Berny optimization.
 Initialization pass.
 Trust Radius=3.00D-01 FncErr=1.00D-07 GrdErr=1.00D-07
 Number of steps in this run=      2 maximum allowed number of steps=      2.
 GradGradGradGradGradGradGradGradGradGradGradGradGradGradGradGradGradGrad

 Leave Link  103 at Sun May 13 16:41:02 2018, MaxMem= 14763950080 cpu:         3.6
 (Enter /cm/shared/gaussian/g09.e01/intel64-sandybridge/g09/l202.exe)
 Symmetry turned off by external request.
 Stoichiometry    BrH256O128(1-)
 Framework group  C1[X(BrH256O128)]
 Deg. of freedom  1149
 Full point group                 C1      NOp   1
                          Input orientation:                          
 ---------------------------------------------------------------------
 Center     Atomic      Atomic             Coordinates (Angstroms)
 Number     Number       Type             X           Y           Z
 ---------------------------------------------------------------------
      1         35           0       20.000000   20.000000   20.000000
      2          8           0       20.280000   17.660000   22.110000
      3          1           0       20.150000   18.400000   21.520000
      4          1           0       21.240000   17.560000   22.160000
      5          8           0       19.050000   22.390000   21.790000
      6          1           0       19.110000   21.620000   21.220000
      7          1           0       18.120000   22.610000   21.790000
      8          8           0       19.470000   17.220000   18.420000
      9          1           0       19.700000   17.910000   19.050000
     10          1           0       19.130000   16.510000   18.960000
     11          8           0       23.140000   20.130000   19.700000
     12          1           0       23.110000   19.980000   20.640000
     13          1           0       22.230000   20.280000   19.440000
     14          8           0       16.710000   18.970000   19.580000
     15          1           0       16.840000   18.060000   19.850000
     16          1           0       17.580000   19.350000   19.580000
     17          8           0       22.040000   22.680000   21.510000
     18          1           0       22.290000   22.490000   22.410000
     19          1           0       21.210000   22.210000   21.380000
     20          8           0       19.700000   18.970000   16.250000
     21          1           0       18.920000   19.480000   16.490000
     22          1           0       19.800000   18.330000   16.950000
     23          8           0       22.680000   19.040000   17.100000
     24          1           0       22.830000   19.730000   17.740000
     25          1           0       21.830000   19.250000   16.710000
     26          8           0       19.440000   20.660000   24.500000
     27          1           0       19.180000   20.410000   23.610000
     28          1           0       20.300000   20.250000   24.620000
     29          8           0       19.090000   24.310000   19.430000
     30          1           0       19.060000   23.690000   20.170000
     31          1           0       19.870000   24.840000   19.600000
     32          8           0       17.540000   17.790000   22.980000
     33          1           0       18.370000   17.650000   22.540000
     34          1           0       17.650000   17.410000   23.850000
     35          8           0       23.130000   17.010000   19.520000
     36          1           0       23.050000   17.580000   18.760000
     37          1           0       22.720000   16.190000   19.240000
     38          8           0       16.400000   18.560000   16.790000
     39          1           0       16.720000   18.670000   17.680000
     40          1           0       16.370000   19.440000   16.430000
     41          8           0       18.010000   23.450000   16.920000
     42          1           0       18.420000   23.250000   17.770000
     43          1           0       18.730000   23.380000   16.290000
     44          8           0       24.460000   21.100000   17.640000
     45          1           0       24.170000   20.840000   18.510000
     46          1           0       25.390000   20.860000   17.610000
     47          8           0       19.860000   14.730000   20.460000
     48          1           0       20.000000   14.020000   21.080000
     49          1           0       20.270000   15.490000   20.880000
     50          8           0       22.530000   22.790000   16.910000
     51          1           0       22.640000   23.100000   17.800000
     52          1           0       23.230000   22.140000   16.800000
     53          8           0       19.720000   23.690000   24.200000
     54          1           0       19.680000   22.970000   24.830000
     55          1           0       19.690000   23.260000   23.340000
     56          8           0       17.560000   20.890000   15.630000
     57          1           0       16.930000   21.520000   15.280000
     58          1           0       18.350000   21.400000   15.770000
     59          8           0       22.940000   16.350000   21.920000
     60          1           0       23.380000   15.530000   22.150000
     61          1           0       23.070000   16.430000   20.970000
     62          8           0       15.690000   19.700000   23.540000
     63          1           0       16.490000   19.280000   23.230000
     64          1           0       15.130000   18.970000   23.810000
     65          8           0       17.980000   16.410000   16.050000
     66          1           0       17.150000   16.880000   16.170000
     67          1           0       18.550000   16.750000   16.730000
     68          8           0       23.820000   23.960000   19.490000
     69          1           0       23.730000   23.130000   19.970000
     70          1           0       23.040000   24.460000   19.740000
     71          8           0       16.170000   22.930000   21.440000
     72          1           0       15.450000   22.310000   21.490000
     73          1           0       16.050000   23.380000   20.610000
     74          8           0       19.910000   16.340000   24.670000
     75          1           0       20.610000   15.730000   24.900000
     76          1           0       20.270000   16.870000   23.960000
     77          8           0       20.030000   22.220000   15.430000
     78          1           0       20.240000   21.620000   14.710000
     79          1           0       20.880000   22.550000   15.710000
     80          8           0       17.010000   15.820000   19.910000
     81          1           0       16.940000   15.220000   20.660000
     82          1           0       16.840000   15.270000   19.150000
     83          8           0       25.430000   18.270000   21.330000
     84          1           0       25.530000   17.670000   22.070000
     85          1           0       24.640000   17.970000   20.880000
     86          8           0       15.090000   17.070000   21.720000
     87          1           0       15.210000   16.870000   20.790000
     88          1           0       15.890000   17.520000   21.980000
     89          8           0       21.690000   19.600000   25.040000
     90          1           0       21.910000   19.660000   25.970000
     91          1           0       22.270000   18.920000   24.700000
     92          8           0       21.220000   19.840000   13.940000
     93          1           0       21.540000   19.070000   13.470000
     94          1           0       20.800000   19.490000   14.730000
     95          8           0       13.980000   20.290000   18.590000
     96          1           0       13.870000   19.340000   18.520000
     97          1           0       14.700000   20.400000   19.210000
     98          8           0       25.030000   17.800000   17.440000
     99          1           0       25.660000   18.460000   17.730000
    100          1           0       24.280000   18.310000   17.130000
    101          8           0       22.930000   22.410000   24.000000
    102          1           0       22.680000   21.760000   24.650000
    103          1           0       22.610000   23.250000   24.350000
    104          8           0       15.900000   23.860000   18.890000
    105          1           0       15.450000   24.690000   18.720000
    106          1           0       16.270000   23.610000   18.040000
    107          8           0       22.850000   17.280000   15.130000
    108          1           0       23.530000   17.360000   14.470000
    109          1           0       22.890000   18.110000   15.620000
    110          8           0       20.540000   25.580000   22.350000
    111          1           0       20.400000   24.850000   22.950000
    112          1           0       19.660000   25.810000   22.040000
    113          8           0       21.690000   25.650000   19.800000
    114          1           0       21.460000   25.650000   20.730000
    115          1           0       21.770000   26.580000   19.580000
    116          8           0       17.800000   25.710000   21.710000
    117          1           0       17.640000   25.330000   20.850000
    118          1           0       17.400000   26.580000   21.670000
    119          8           0       16.220000   22.180000   24.660000
    120          1           0       16.290000   22.790000   23.930000
    121          1           0       16.070000   21.330000   24.240000
    122          8           0       17.250000   19.420000   26.260000
    123          1           0       16.370000   19.250000   25.930000
    124          1           0       17.720000   19.770000   25.500000
    125          8           0       22.340000   14.180000   19.370000
    126          1           0       21.390000   14.220000   19.470000
    127          1           0       22.470000   13.630000   18.590000
    128          8           0       18.210000   26.150000   17.330000
    129          1           0       17.510000   25.990000   16.700000
    130          1           0       18.250000   25.350000   17.860000
    131          8           0       23.960000   18.330000   24.250000
    132          1           0       24.740000   17.770000   24.290000
    133          1           0       24.300000   19.220000   24.170000
    134          8           0       13.950000   21.440000   21.320000
    135          1           0       13.800000   21.610000   20.390000
    136          1           0       13.680000   20.530000   21.440000
    137          8           0       26.420000   20.860000   20.830000
    138          1           0       26.450000   20.710000   19.880000
    139          1           0       26.250000   19.990000   21.200000
    140          8           0       20.510000   16.110000   14.310000
    141          1           0       21.110000   16.810000   14.540000
    142          1           0       19.650000   16.530000   14.280000
    143          8           0       20.980000   14.160000   16.250000
    144          1           0       20.820000   15.050000   15.940000
    145          1           0       21.350000   13.710000   15.490000
    146          8           0       13.060000   18.570000   20.900000
    147          1           0       13.870000   18.230000   21.260000
    148          1           0       12.690000   17.850000   20.390000
    149          8           0       17.180000   24.900000   24.140000
    150          1           0       17.390000   25.030000   23.210000
    151          1           0       17.980000   24.550000   24.520000
    152          8           0       13.900000   21.870000   16.320000
    153          1           0       14.330000   21.270000   16.930000
    154          1           0       14.250000   21.640000   15.460000
    155          8           0       22.560000   24.520000   14.660000
    156          1           0       22.490000   24.160000   15.550000
    157          1           0       23.440000   24.900000   14.630000
    158          8           0       25.460000   24.140000   22.820000
    159          1           0       26.350000   23.820000   22.720000
    160          1           0       24.990000   23.790000   22.060000
    161          8           0       17.650000   17.470000   13.420000
    162          1           0       18.260000   18.170000   13.180000
    163          1           0       17.530000   17.580000   14.360000
    164          8           0       26.090000   24.170000   17.900000
    165          1           0       25.340000   23.920000   18.450000
    166          1           0       26.770000   24.420000   18.530000
    167          8           0       23.970000   14.790000   16.030000
    168          1           0       23.490000   15.610000   16.040000
    169          1           0       24.440000   14.800000   15.190000
    170          8           0       13.620000   17.450000   18.180000
    171          1           0       13.090000   17.660000   17.410000
    172          1           0       14.220000   16.770000   17.890000
    173          8           0       23.410000   26.610000   22.730000
    174          1           0       22.800000   25.890000   22.600000
    175          1           0       23.900000   26.370000   23.520000
    176          8           0       20.570000   13.450000   22.930000
    177          1           0       21.320000   12.970000   23.270000
    178          1           0       19.920000   13.400000   23.630000
    179          8           0       27.000000   19.800000   18.100000
    180          1           0       27.510000   19.190000   18.640000
    181          1           0       27.420000   19.760000   17.240000
    182          8           0       20.320000   12.270000   18.430000
    183          1           0       19.530000   12.300000   18.970000
    184          1           0       20.280000   13.050000   17.890000
    185          8           0       16.500000   13.790000   21.950000
    186          1           0       15.700000   13.970000   22.430000
    187          1           0       17.190000   13.810000   22.620000
    188          8           0       18.170000   13.600000   24.650000
    189          1           0       18.660000   13.570000   25.470000
    190          1           0       18.120000   14.530000   24.440000
    191          8           0       16.900000   13.710000   18.000000
    192          1           0       17.190000   13.490000   17.110000
    193          1           0       17.200000   12.970000   18.530000
    194          8           0       25.740000   14.070000   19.800000
    195          1           0       26.580000   14.360000   19.450000
    196          1           0       25.310000   14.880000   20.090000
    197          8           0       23.850000   13.550000   22.120000
    198          1           0       24.690000   13.850000   21.770000
    199          1           0       23.280000   13.480000   21.350000
    200          8           0       26.910000   15.880000   18.110000
    201          1           0       27.460000   16.630000   18.310000
    202          1           0       26.070000   16.250000   17.880000
    203          8           0       14.320000   15.240000   23.510000
    204          1           0       14.860000   15.500000   24.250000
    205          1           0       14.430000   15.950000   22.870000
    206          8           0       17.070000   22.620000   27.360000
    207          1           0       16.740000   21.810000   27.750000
[...]
   Z335      49.98326  -0.01275   0.00000  -0.01039  -0.00967  49.97358
   X336      27.11757  -0.00518   0.00000  -0.00186  -0.00154  27.11603
   Y336      35.81031   0.00849   0.00000   0.00294   0.00422  35.81453
   Z336      51.55173   0.01557   0.00000   0.00654   0.00722  51.55895
   X337      26.22940  -0.00920   0.00000  -0.00553  -0.00536  26.22404
   Y337      35.58354   0.00703   0.00000   0.00671   0.00782  35.59136
   Z337      48.84942  -0.00812   0.00000  -0.00795  -0.00720  48.84223
   X338      46.07152   0.00349   0.00000   0.00423   0.00326  46.07478
   Y338      40.51573  -0.00969   0.00000  -0.00161  -0.00313  40.51260
   Z338      23.98062   0.00550   0.00000   0.00732   0.00664  23.98726
   X339      44.84320  -0.01103   0.00000  -0.01003  -0.01096  44.83224
   Y339      41.83854   0.00744   0.00000   0.00394   0.00246  41.84100
   Z339      23.82945   0.00162   0.00000   0.00465   0.00393  23.83338
   X340      47.60220   0.00509   0.00000   0.00419   0.00321  47.60541
   Y340      41.21493   0.00423   0.00000   0.00583   0.00420  41.21913
   Z340      23.31922  -0.00341   0.00000  -0.00314  -0.00396  23.31526
   X341      47.35654   0.00235   0.00000  -0.00047  -0.00156  47.35497
   Y341      24.30188  -0.02047   0.00000  -0.01944  -0.02032  24.28156
   Z341      32.97572  -0.00295   0.00000  -0.00141  -0.00094  32.97479
   X342      46.60065  -0.00364   0.00000  -0.00090  -0.00201  46.59864
   Y342      25.56799   0.00620   0.00000   0.00238   0.00145  25.56945
   Z342      31.91747   0.00112   0.00000   0.00598   0.00641  31.92388
   X343      47.29985   0.00278   0.00000   0.00721   0.00623  47.30607
   Y343      25.01997   0.00469   0.00000   0.00229   0.00153  25.02151
   Z343      34.63868   0.00585   0.00000   0.00131   0.00174  34.64042
   X344      38.55041   0.00184   0.00000   0.00791   0.00642  38.55683
   Y344      26.13491  -0.01997   0.00000  -0.01280  -0.01402  26.12090
   Z344      24.20739   0.00337   0.00000   0.00093   0.00174  24.20913
   X345      38.34254  -0.00208   0.00000  -0.00187  -0.00343  38.33911
   Y345      26.79632   0.00637   0.00000   0.00534   0.00400  26.80032
   Z345      22.54443  -0.00745   0.00000  -0.00356  -0.00279  22.54164
   X346      38.90946  -0.00029   0.00000  -0.00261  -0.00400  38.90546
   Y346      27.59000   0.01367   0.00000   0.01125   0.01010  27.60010
   Z346      25.22784   0.00291   0.00000  -0.00184  -0.00117  25.22668
   X347      27.02308  -0.01317   0.00000  -0.00600  -0.00550  27.01759
   Y347      49.69980   0.01512   0.00000   0.00786   0.00866  49.70846
   Z347      45.18335  -0.00777   0.00000  -0.00546  -0.00582  45.17753
   X348      25.64358   0.00188   0.00000   0.00360   0.00411  25.64769
   Y348      48.75493  -0.00363   0.00000  -0.00434  -0.00343  48.75150
   Z348      45.90145   0.00269   0.00000   0.00332   0.00311  45.90455
   X349      28.47817   0.01621   0.00000   0.00977   0.01026  28.48843
   Y349      48.71714  -0.01351   0.00000  -0.00962  -0.00884  48.70830
   Z349      45.56130   0.00549   0.00000   0.00383   0.00346  45.56476
   X350      34.52530  -0.00940   0.00000  -0.00980  -0.01108  34.51422
   Y350      37.96460  -0.01540   0.00000  -0.00759  -0.00897  37.95562
   Z350      20.04999  -0.00858   0.00000  -0.00482  -0.00469  20.04530
   X351      34.75206   0.00811   0.00000   0.01265   0.01148  34.76355
   Y351      38.60710   0.00674   0.00000   0.00455   0.00328  38.61039
   Z351      21.71295   0.01171   0.00000   0.00574   0.00580  21.71876
   X352      34.84655   0.00614   0.00000   0.00963   0.00834  34.85489
   Y352      39.36300   0.00744   0.00000   0.00496   0.00348  39.36647
   Z352      18.95395  -0.00240   0.00000   0.00009   0.00009  18.95405
   X353      44.54084  -0.00329   0.00000  -0.00120  -0.00158  44.53926
   Y353      23.86724   0.00497   0.00000   0.00393   0.00419  23.87143
   Z353      46.61954   0.01766   0.00000   0.01293   0.01359  46.63313
   X354      44.42746   0.00052   0.00000   0.00097   0.00050  44.42796
   Y354      22.10980  -0.00510   0.00000  -0.00125  -0.00102  22.10878
   Z354      46.20380  -0.00481   0.00000  -0.00437  -0.00357  46.20024
   X355      45.05107  -0.00281   0.00000  -0.00871  -0.00915  45.04192
   Y355      24.67982  -0.00032   0.00000  -0.00417  -0.00405  24.67578
   Z355      45.06997  -0.01261   0.00000  -0.01016  -0.00958  45.06038
   X356      49.86987  -0.00268   0.00000  -0.00289  -0.00257  49.86730
   Y356      50.96591   0.01754   0.00000   0.01407   0.01369  50.97960
   Z356      40.78029   0.00947   0.00000   0.01061   0.00893  40.78922
   X357      48.33919  -0.00358   0.00000  -0.00345  -0.00313  48.33606
   Y357      50.21002  -0.00475   0.00000  -0.00454  -0.00482  50.20521
   Z357      41.40390  -0.00051   0.00000  -0.00032  -0.00186  41.40204
   X358      50.62576   0.00090   0.00000  -0.00430  -0.00409  50.62168
   Y358      49.68090  -0.00811   0.00000   0.00008  -0.00041  49.68049
   Z358      39.75984  -0.00845   0.00000  -0.00450  -0.00613  39.75371
   X359      53.83830  -0.00916   0.00000   0.00048  -0.00010  53.83820
   Y359      33.41036   0.00928   0.00000   0.01853   0.01766  33.42802
   Z359      36.30164   0.00277   0.00000   0.00717   0.00661  36.30825
   X360      55.57685   0.01869   0.00000   0.01748   0.01689  55.59374
   Y360      33.63713   0.00169   0.00000   0.00126   0.00029  33.63742
   Z360      35.92369  -0.00462   0.00000  -0.00377  -0.00444  35.91926
   X361      53.81940  -0.00376   0.00000  -0.00586  -0.00637  53.81303
   Y361      32.73006  -0.00136   0.00000   0.00021  -0.00054  32.72952
   Z361      37.98350   0.00610   0.00000   0.00596   0.00545  37.98894
   X362      26.28609   0.00795   0.00000   0.00429   0.00316  26.28925
   Y362      32.16314   0.01735   0.00000   0.01341   0.01285  32.17599
   Z362      26.90970   0.00271   0.00000   0.00466   0.00567  26.91537
   X363      24.49085  -0.01342   0.00000  -0.01026  -0.01138  24.47947
   Y363      32.27652  -0.00441   0.00000  -0.00630  -0.00678  32.26974
   Z363      26.98529  -0.00221   0.00000  -0.00538  -0.00428  26.98101
   X364      26.64514   0.00180   0.00000   0.00266   0.00147  26.64661
   Y364      30.40569  -0.01223   0.00000  -0.00418  -0.00475  30.40095
   Z364      26.98529   0.00219   0.00000   0.00240   0.00352  26.98881
   X365      38.04019  -0.01253   0.00000  -0.00913  -0.00879  38.03140
   Y365      55.48236   0.01122   0.00000   0.00424   0.00410  55.48646
   Z365      38.22916   0.01540   0.00000   0.01143   0.01004  38.23920
   X366      38.68269   0.00942   0.00000   0.00591   0.00614  38.68884
   Y366      54.57529  -0.00914   0.00000  -0.00191  -0.00218  54.57311
   Z366      36.81187  -0.01845   0.00000  -0.01179  -0.01314  36.79872
   X367      39.15513   0.00502   0.00000   0.00563   0.00604  39.16116
   Y367      55.04772  -0.00278   0.00000  -0.00315  -0.00323  55.04449
   Z367      39.58976   0.00171   0.00000   0.00205   0.00063  39.59039
   X368      34.60089  -0.00089   0.00000  -0.00951  -0.01012  34.59077
   Y368      49.05729  -0.00493   0.00000   0.00279   0.00176  49.05905
   Z368      24.84990  -0.01737   0.00000  -0.01483  -0.01555  24.83435
   X369      35.35678   0.00790   0.00000   0.01039   0.00988  35.36665
   Y369      50.58797   0.00464   0.00000  -0.00178  -0.00279  50.58518
   Z369      25.43571   0.00762   0.00000   0.00927   0.00840  25.44411
   X370      33.14580  -0.00937   0.00000  -0.00345  -0.00401  33.14178
   Y370      48.83052  -0.00202   0.00000  -0.00221  -0.00310  48.82742
   Z370      25.88925   0.01694   0.00000   0.02071   0.02009  25.90934
   X371      42.46215  -0.01074   0.00000  -0.00756  -0.00761  42.45453
   Y371      27.15536   0.01163   0.00000   0.00612   0.00675  27.16211
   Z371      50.45569   0.00786   0.00000   0.00246   0.00299  50.45867
   X372      43.46370   0.00622   0.00000  -0.00045  -0.00060  43.46310
   Y372      25.96484  -0.01064   0.00000  -0.00680  -0.00628  25.95856
   Z372      49.52972  -0.01227   0.00000  -0.01227  -0.01171  49.51801
   X373      43.59598   0.00061   0.00000   0.00106   0.00107  43.59705
   Y373      28.55376  -0.00091   0.00000  -0.00098  -0.00038  28.55338
   Z373      50.73915  -0.00156   0.00000  -0.00253  -0.00218  50.73697
   X374      49.79428  -0.00902   0.00000  -0.00541  -0.00521  49.78907
   Y374      33.86389  -0.03650   0.00000  -0.02662  -0.02626  33.83763
   Z374      50.55017  -0.00737   0.00000  -0.01223  -0.01260  50.53757
   X375      51.51393   0.01520   0.00000   0.00683   0.00706  51.52100
   Y375      34.20404   0.00703   0.00000   0.00352   0.00385  34.20789
   Z375      50.90922   0.00511   0.00000   0.00551   0.00501  50.91423
   X376      49.03839  -0.00330   0.00000   0.00310   0.00335  49.04174
   Y376      35.48906   0.02561   0.00000   0.01504   0.01541  35.50447
   Z376      50.30451  -0.00052   0.00000   0.00289   0.00243  50.30694
   X377      32.18204  -0.00236   0.00000  -0.00393  -0.00349  32.17854
   Y377      53.44146  -0.00687   0.00000  -0.00556  -0.00523  53.43622
   Z377      41.47949  -0.00832   0.00000  -0.00218  -0.00310  41.47639
   X378      32.61667   0.00621   0.00000   0.00750   0.00806  32.62473
   Y378      54.25404   0.00427   0.00000   0.00115   0.00158  54.25562
   Z378      43.02906   0.01016   0.00000   0.00696   0.00595  43.03502
   X379      30.63246  -0.00348   0.00000  -0.00433  -0.00388  30.62858
   Y379      54.23514   0.00146   0.00000   0.00129   0.00163  54.23677
   Z379      40.96926  -0.00054   0.00000   0.00032  -0.00058  40.96868
   X380      52.38321   0.00222   0.00000   0.00454   0.00458  52.38778
   Y380      47.14867   0.00178   0.00000  -0.00600  -0.00667  47.14200
   Z380      38.22916  -0.01445   0.00000  -0.00949  -0.01101  38.21814
   X381      54.06506   0.00069   0.00000   0.00239   0.00242  54.06748
   Y381      47.67779   0.00361   0.00000   0.00699   0.00622  47.68401
   Z381      37.77563   0.00031   0.00000   0.00179   0.00013  37.77576
   X382      52.62887   0.00023   0.00000  -0.00142  -0.00135  52.62752
   Y382      46.09042  -0.01338   0.00000  -0.01346  -0.01403  46.07639
   Z382      39.68425   0.01189   0.00000   0.00819   0.00673  39.69098
   X383      55.10441   0.00278   0.00000   0.00335   0.00306  55.10747
   Y383      43.70937  -0.00760   0.00000  -0.00639  -0.00745  43.70192
   Z383      34.46860  -0.01031   0.00000  -0.00385  -0.00526  34.46334
   X384      56.42722   0.00340   0.00000   0.00180   0.00157  56.42880
   Y384      44.82430   0.00385   0.00000   0.00307   0.00200  44.82630
   Z384      34.99773   0.00332   0.00000   0.00378   0.00221  34.99994
   X385      53.91389  -0.00631   0.00000  -0.00465  -0.00487  53.90902
   Y385      43.72826   0.00271   0.00000   0.00450   0.00359  43.73185
   Z385      35.82921   0.00668   0.00000   0.00375   0.00241  35.83161
         Item               Value     Threshold  Converged?
 Maximum Force            0.036501     0.000450     NO 
 RMS     Force            0.010739     0.000300     NO 
 Maximum Displacement     0.041439     0.001800     NO 
 RMS     Displacement     0.008823     0.001200     NO 
 Predicted change in Energy=-7.419204D-02
 GradGradGradGradGradGradGradGradGradGradGradGradGradGradGradGradGradGrad

 Leave Link  103 at Sun May 13 19:08:27 2018, MaxMem= 14763950080 cpu:      4398.3
 (Enter /cm/shared/gaussian/g09.e01/intel64-sandybridge/g09/l9999.exe)
 1\1\GINC-POPLE03\Force\RPBE1PBE\CC-pVDZ\Br1H256O128(1-)\M.PELUSO\13-Ma
 y-2018\0\\#p PBE1PBE/cc-pvDZ force Counterpoise=2 noSymm\\forces on ch
 loride comput - NWATER: 128\\-1,1\Br,20.,20.,20.\O,20.28,17.66,22.11\H
 ,20.15,18.4,21.52\H,21.24,17.56,22.16\O,19.05,22.39,21.79\H,19.11,21.6
 2,21.22\H,18.12,22.61,21.79\O,19.47,17.22,18.42\H,19.7,17.91,19.05\H,1
 9.13,16.51,18.96\O,23.14,20.13,19.7\H,23.11,19.98,20.64\H,22.23,20.28,
 19.44\O,16.71,18.97,19.58\H,16.84,18.06,19.85\H,17.58,19.35,19.58\O,22
 .04,22.68,21.51\H,22.29,22.49,22.41\H,21.21,22.21,21.38\O,19.7,18.97,1
 6.25\H,18.92,19.48,16.49\H,19.8,18.33,16.95\O,22.68,19.04,17.1\H,22.83
 ,19.73,17.74\H,21.83,19.25,16.71\O,19.44,20.66,24.5\H,19.18,20.41,23.6
 1\H,20.3,20.25,24.62\O,19.09,24.31,19.43\H,19.06,23.69,20.17\H,19.87,2
 4.84,19.6\O,17.54,17.79,22.98\H,18.37,17.65,22.54\H,17.65,17.41,23.85\
 O,23.13,17.01,19.52\H,23.05,17.58,18.76\H,22.72,16.19,19.24\O,16.4,18.
 56,16.79\H,16.72,18.67,17.68\H,16.37,19.44,16.43\O,18.01,23.45,16.92\H
 ,18.42,23.25,17.77\H,18.73,23.38,16.29\O,24.46,21.1,17.64\H,24.17,20.8
 4,18.51\H,25.39,20.86,17.61\O,19.86,14.73,20.46\H,20.,14.02,21.08\H,20
 .27,15.49,20.88\O,22.53,22.79,16.91\H,22.64,23.1,17.8\H,23.23,22.14,16
 .8\O,19.72,23.69,24.2\H,19.68,22.97,24.83\H,19.69,23.26,23.34\O,17.56,
 20.89,15.63\H,16.93,21.52,15.28\H,18.35,21.4,15.77\O,22.94,16.35,21.92
 \H,23.38,15.53,22.15\H,23.07,16.43,20.97\O,15.69,19.7,23.54\H,16.49,19
 .28,23.23\H,15.13,18.97,23.81\O,17.98,16.41,16.05\H,17.15,16.88,16.17\
 H,18.55,16.75,16.73\O,23.82,23.96,19.49\H,23.73,23.13,19.97\H,23.04,24
 .46,19.74\O,16.17,22.93,21.44\H,15.45,22.31,21.49\H,16.05,23.38,20.61\
 O,19.91,16.34,24.67\H,20.61,15.73,24.9\H,20.27,16.87,23.96\O,20.03,22.
 22,15.43\H,20.24,21.62,14.71\H,20.88,22.55,15.71\O,17.01,15.82,19.91\H
 ,16.94,15.22,20.66\H,16.84,15.27,19.15\O,25.43,18.27,21.33\H,25.53,17.
 67,22.07\H,24.64,17.97,20.88\O,15.09,17.07,21.72\H,15.21,16.87,20.79\H
 ,15.89,17.52,21.98\O,21.69,19.6,25.04\H,21.91,19.66,25.97\H,22.27,18.9
 2,24.7\O,21.22,19.84,13.94\H,21.54,19.07,13.47\H,20.8,19.49,14.73\O,13
 .98,20.29,18.59\H,13.87,19.34,18.52\H,14.7,20.4,19.21\O,25.03,17.8,17.
 44\H,25.66,18.46,17.73\H,24.28,18.31,17.13\O,22.93,22.41,24.\H,22.68,2
 1.76,24.65\H,22.61,23.25,24.35\O,15.9,23.86,18.89\H,15.45,24.69,18.72\
 H,16.27,23.61,18.04\O,22.85,17.28,15.13\H,23.53,17.36,14.47\H,22.89,18
 .11,15.62\O,20.54,25.58,22.35\H,20.4,24.85,22.95\H,19.66,25.81,22.04\O
 ,21.69,25.65,19.8\H,21.46,25.65,20.73\H,21.77,26.58,19.58\O,17.8,25.71
 ,21.71\H,17.64,25.33,20.85\H,17.4,26.58,21.67\O,16.22,22.18,24.66\H,16
 .29,22.79,23.93\H,16.07,21.33,24.24\O,17.25,19.42,26.26\H,16.37,19.25,
 25.93\H,17.72,19.77,25.5\O,22.34,14.18,19.37\H,21.39,14.22,19.47\H,22.
 47,13.63,18.59\O,18.21,26.15,17.33\H,17.51,25.99,16.7\H,18.25,25.35,17
 .86\O,23.96,18.33,24.25\H,24.74,17.77,24.29\H,24.3,19.22,24.17\O,13.95
 ,21.44,21.32\H,13.8,21.61,20.39\H,13.68,20.53,21.44\O,26.42,20.86,20.8
 3\H,26.45,20.71,19.88\H,26.25,19.99,21.2\O,20.51,16.11,14.31\H,21.11,1
 6.81,14.54\H,19.65,16.53,14.28\O,20.98,14.16,16.25\H,20.82,15.05,15.94
 \H,21.35,13.71,15.49\O,13.06,18.57,20.9\H,13.87,18.23,21.26\H,12.69,17
 .85,20.39\O,17.18,24.9,24.14\H,17.39,25.03,23.21\H,17.98,24.55,24.52\O
 ,13.9,21.87,16.32\H,14.33,21.27,16.93\H,14.25,21.64,15.46\O,22.56,24.5
 2,14.66\H,22.49,24.16,15.55\H,23.44,24.9,14.63\O,25.46,24.14,22.82\H,2
 6.35,23.82,22.72\H,24.99,23.79,22.06\O,17.65,17.47,13.42\H,18.26,18.17
 ,13.18\H,17.53,17.58,14.36\O,26.09,24.17,17.9\H,25.34,23.92,18.45\H,26
 .77,24.42,18.53\O,23.97,14.79,16.03\H,23.49,15.61,16.04\H,24.44,14.8,1
 5.19\O,13.62,17.45,18.18\H,13.09,17.66,17.41\H,14.22,16.77,17.89\O,23.
 41,26.61,22.73\H,22.8,25.89,22.6\H,23.9,26.37,23.52\O,20.57,13.45,22.9
 3\H,21.32,12.97,23.27\H,19.92,13.4,23.63\O,27.,19.8,18.1\H,27.51,19.19
 ,18.64\H,27.42,19.76,17.24\O,20.32,12.27,18.43\H,19.53,12.3,18.97\H,20
 .28,13.05,17.89\O,16.5,13.79,21.95\H,15.7,13.97,22.43\H,17.19,13.81,22
 .62\O,18.17,13.6,24.65\H,18.66,13.57,25.47\H,18.12,14.53,24.44\O,16.9,
 13.71,18.\H,17.19,13.49,17.11\H,17.2,12.97,18.53\O,25.74,14.07,19.8\H,
 26.58,14.36,19.45\H,25.31,14.88,20.09\O,23.85,13.55,22.12\H,24.69,13.8
 5,21.77\H,23.28,13.48,21.35\O,26.91,15.88,18.11\H,27.46,16.63,18.31\H,
 26.07,16.25,17.88\O,14.32,15.24,23.51\H,14.86,15.5,24.25\H,14.43,15.95
 ,22.87\O,17.07,22.62,27.36\H,16.74,21.81,27.75\H,17.08,22.45,26.42\O,2
 2.13,24.45,25.65\H,21.22,24.74,25.64\H,22.64,25.25,25.58\O,18.16,13.52
 ,15.4\H,17.65,13.78,14.64\H,18.88,14.16,15.44\O,14.53,14.76,17.22\H,14
 .5,14.38,16.34\H,15.41,14.58,17.53\O,18.27,16.8,27.3\H,18.73,16.3,26.6
 2\H,18.09,17.64,26.89\O,20.42,27.17,24.5\H,19.53,27.36,24.81\H,20.29,2
 6.67,23.69\O,15.55,22.24,14.21\H,16.02,21.89,13.45\H,15.05,22.97,13.86
 \O,21.14,21.69,11.87\H,20.42,22.28,12.09\H,21.05,20.96,12.48\O,16.25,1
 5.94,25.32\H,15.95,16.69,25.84\H,16.16,15.19,25.9\O,24.4,26.84,17.92\H
 ,24.38,25.92,17.66\H,24.,26.86,18.79\O,25.43,23.55,25.48\H,25.62,23.81
 ,24.58\H,24.68,22.96,25.4\O,18.31,12.29,20.18\H,17.57,12.68,20.64\H,18
 .71,11.71,20.82\O,25.84,17.34,14.65\H,25.88,16.42,14.38\H,25.87,17.32,
 15.6\O,26.1,16.71,23.65\H,26.29,15.93,23.13\H,26.57,16.56,24.48\O,27.7
 5,22.81,22.11\H,28.33,22.51,22.81\H,27.4,22.,21.73\O,13.98,24.93,16.29
 \H,13.41,24.53,15.62\H,14.06,24.26,16.96\O,20.53,28.02,17.77\H,20.94,2
 7.39,17.18\H,19.6,27.77,17.78\O,21.36,26.76,15.38\H,21.76,27.45,14.86\
 H,21.54,25.96,14.89\O,12.97,18.73,23.65\H,12.76,17.92,24.11\H,12.51,18
 .65,22.81\O,23.48,18.85,12.56\H,24.4,18.65,12.38\H,23.46,19.78,12.76\O
 ,26.37,20.85,14.98\H,25.69,20.78,14.3\H,26.34,21.76,15.25\O,12.53,15.8
 1,20.09\H,12.75,14.93,19.79\H,12.79,16.38,19.37\O,20.68,21.91,28.22\H,
 20.51,20.98,28.04\H,19.81,22.32,28.18\O,25.23,20.34,26.63\H,24.37,19.9
 7,26.84\H,25.24,21.19,27.06\O,23.09,18.91,27.44\H,22.22,18.86,27.85\H,
 23.53,18.1,27.71\O,23.35,27.73,20.24\H,24.09,28.33,20.25\H,23.26,27.42
 ,21.14\O,25.46,24.03,15.3\H,25.94,24.09,16.13\H,25.08,24.9,15.18\O,23.
 2,22.58,27.64\H,22.54,22.22,28.23\H,22.72,23.19,27.08\O,17.03,14.75,13
 .31\H,17.43,15.6,13.47\H,16.11,14.86,13.54\O,11.6,22.41,17.53\H,12.33,
 21.8,17.44\H,11.73,23.05,16.84\O,10.8,20.35,19.41\H,10.87,21.13,18.87\
 H,11.7,20.11,19.61\O,11.97,21.55,23.5\H,12.5,20.75,23.57\H,12.15,21.87
 ,22.61\O,22.14,11.31,21.45\H,21.27,10.94,21.58\H,22.04,11.91,20.71\O,1
 7.04,19.88,28.83\H,16.16,19.54,28.96\H,17.23,19.71,27.9\O,16.2,26.05,1
 5.47\H,15.86,26.72,14.88\H,15.41,25.66,15.86\O,14.27,26.09,19.22\H,13.
 56,26.15,18.57\H,13.94,26.57,19.97\O,14.07,23.32,26.43\H,13.8,22.44,26
 .67\H,14.69,23.21,25.71\O,20.54,19.08,28.41\H,20.82,18.49,29.11\H,19.6
 ,18.96,28.36\O,19.37,24.91,27.92\H,18.93,24.67,28.74\H,19.14,24.21,27.
 31\O,20.28,18.03,11.73\H,19.76,18.1,10.93\H,21.18,17.89,11.43\O,13.61,
 19.89,13.76\H,13.75,19.1,14.29\H,12.73,20.19,14.\O,17.9,27.34,25.08\H,
 17.27,28.,25.36\H,17.46,26.88,24.36\O,19.12,23.53,12.28\H,18.82,24.38,
 12.57\H,18.41,23.2,11.73\O,14.57,18.55,26.45\H,14.35,18.95,27.28\H,13.
 88,18.83,25.85\O,24.38,21.44,12.69\H,23.73,22.14,12.61\H,25.19,21.81,1
 2.34\O,25.06,12.86,17.45\H,24.66,13.53,16.89\H,25.03,13.24,18.33\O,20.
 4,13.83,12.81\H,20.29,14.18,11.93\H,20.59,14.6,13.35\O,14.3,26.3,23.91
 \H,13.57,25.8,24.29\H,15.07,25.78,24.11\O,18.27,20.09,10.61\H,18.39,20
 .43,11.49\H,18.44,20.83,10.03\O,23.57,12.63,24.67\H,23.51,11.7,24.45\H
 ,23.84,13.06,23.85\O,26.39,26.97,21.58\H,25.58,26.57,21.91\H,26.79,26.
 29,21.04\O,28.49,17.68,19.21\H,29.41,17.8,19.01\H,28.48,17.32,20.1\O,1
 3.91,17.02,14.24\H,12.96,17.08,14.28\H,14.1,16.09,14.28\O,20.13,29.36,
 20.23\H,20.47,28.88,19.48\H,20.72,29.13,20.95\O,18.31,25.96,13.15\H,18
 .71,26.77,13.46\H,17.54,25.84,13.7\O,22.47,14.37,26.7\H,23.,13.74,26.2
 1\H,23.07,15.11,26.85\O,26.35,17.92,26.75\H,27.26,18.1,26.94\H,25.95,1
 8.78,26.62\O,17.03,28.28,21.95\H,17.26,28.71,22.77\H,16.21,28.7,21.68\
 O,27.72,24.95,20.23\H,28.61,25.23,19.99\H,27.85,24.39,21.\O,29.16,23.1
 3,18.24\H,29.86,23.72,18.52\H,28.53,23.14,18.96\\Version=ES64L-G09RevE
 .01\HF=-9773.4903695\RMSD=1.625e-09\RMSF=1.074e-02\Dipole=0.1825931,-5
 .5424429,-1.2297371\Quadrupole=297.9025582,-386.7412467,88.8386885,-16
 80.3922541,-1406.3438471,-1842.2859913\PG=C01 [X(Br1H256O128)]\\@


 OF ALL THE WONDERS OF THE UNIVERSE, THE GREATEST IS MAN.

                                    -- ARISTOTLE
 Job cpu time:       6 days 10 hours 25 minutes 26.1 seconds.
 File lengths (MBytes):  RWF=   7285 Int=      0 D2E=      0 Chk=   2411 Scr=      1
 Normal termination of Gaussian 09 at Sun May 13 19:08:51 2018.
