 Entering Gaussian System, Link 0=/cm/shared/gaussian/g09.e01/intel64-sandybridge/g09/g09
 Initial command:
 /cm/shared/gaussian/g09.e01/intel64-sandybridge/g09/l1.exe "/local/scratch/m.peluso/128_wat/order/Gau-25816.inp" -scrdir="/local/scratch/m.peluso/128_wat/order/"
 Entering Link 1 = /cm/shared/gaussian/g09.e01/intel64-sandybridge/g09/l1.exe PID=     25817.
  
 Copyright (c) 1988,1990,1992,1993,1995,1998,2003,2009,2015,
            Gaussian, Inc.  All Rights Reserved.
  
 This is part of the Gaussian(R) 09 program.  It is based on
 the Gaussian(R) 03 system (copyright 2003, Gaussian, Inc.),
 the Gaussian(R) 98 system (copyright 1998, Gaussian, Inc.),
 the Gaussian(R) 94 system (copyright 1995, Gaussian, Inc.),
 the Gaussian 92(TM) system (copyright 1992, Gaussian, Inc.),
 the Gaussian 90(TM) system (copyright 1990, Gaussian, Inc.),
 the Gaussian 88(TM) system (copyright 1988, Gaussian, Inc.),
 the Gaussian 86(TM) system (copyright 1986, Carnegie Mellon
 University), and the Gaussian 82(TM) system (copyright 1983,
 Carnegie Mellon University). Gaussian is a federally registered
 trademark of Gaussian, Inc.
  
 This software contains proprietary and confidential information,
 including trade secrets, belonging to Gaussian, Inc.
  
 This software is provided under written license and may be
 used, copied, transmitted, or stored only in accord with that
 written license.
  
 The following legend is applicable only to US Government
 contracts under FAR:
  
                    RESTRICTED RIGHTS LEGEND
  
 Use, reproduction and disclosure by the US Government is
 subject to restrictions as set forth in subparagraphs (a)
 and (c) of the Commercial Computer Software - Restricted
 Rights clause in FAR 52.227-19.
  
 Gaussian, Inc.
 340 Quinnipiac St., Bldg. 40, Wallingford CT 06492
  
  
 ---------------------------------------------------------------
 Warning -- This program may not be used in any manner that
 competes with the business of Gaussian, Inc. or will provide
 assistance to any competitor of Gaussian, Inc.  The licensee
 of this program is prohibited from giving any competitor of
 Gaussian, Inc. access to this program.  By using this program,
 the user acknowledges that Gaussian, Inc. is engaged in the
 business of creating and licensing software in the field of
 computational chemistry and represents and warrants to the
 licensee that it is not a competitor of Gaussian, Inc. and that
 it will not use this program in any manner prohibited above.
 ---------------------------------------------------------------
  

 Cite this work as:
 Gaussian 09, Revision E.01,
 M. J. Frisch, G. W. Trucks, H. B. Schlegel, G. E. Scuseria, 
 M. A. Robb, J. R. Cheeseman, G. Scalmani, V. Barone, B. Mennucci, 
 G. A. Petersson, H. Nakatsuji, M. Caricato, X. Li, H. P. Hratchian, 
 A. F. Izmaylov, J. Bloino, G. Zheng, J. L. Sonnenberg, M. Hada, 
 M. Ehara, K. Toyota, R. Fukuda, J. Hasegawa, M. Ishida, T. Nakajima, 
 Y. Honda, O. Kitao, H. Nakai, T. Vreven, J. A. Montgomery, Jr., 
 J. E. Peralta, F. Ogliaro, M. Bearpark, J. J. Heyd, E. Brothers, 
 K. N. Kudin, V. N. Staroverov, T. Keith, R. Kobayashi, J. Normand, 
 K. Raghavachari, A. Rendell, J. C. Burant, S. S. Iyengar, J. Tomasi, 
 M. Cossi, N. Rega, J. M. Millam, M. Klene, J. E. Knox, J. B. Cross, 
 V. Bakken, C. Adamo, J. Jaramillo, R. Gomperts, R. E. Stratmann, 
 O. Yazyev, A. J. Austin, R. Cammi, C. Pomelli, J. W. Ochterski, 
 R. L. Martin, K. Morokuma, V. G. Zakrzewski, G. A. Voth, 
 P. Salvador, J. J. Dannenberg, S. Dapprich, A. D. Daniels, 
 O. Farkas, J. B. Foresman, J. V. Ortiz, J. Cioslowski, 
 and D. J. Fox, Gaussian, Inc., Wallingford CT, 2013.
 
 ******************************************
 Gaussian 09:  ES64L-G09RevE.01 30-Nov-2015
                15-May-2018 
 ******************************************
 %Mem=110GB
 %NProcShared=64
 Will use up to   64 processors via shared memory.
 %chk=snap42.chk
 ----------------------------------------------
 #p PBE1PBE/cc-pvDZ force Counterpoise=2 noSymm
 ----------------------------------------------
 1/10=7,30=1,38=1,62=2/1,3;
 2/12=2,15=1,17=6,18=5,40=1/2;
 1/10=7,30=1,38=1,53=2,62=2,63=101/22;
 3/5=16,11=2,16=1,25=1,30=1,71=1,74=-13/1,2,3;
 4//1;
 5/5=2,38=5/2;
 6/7=2,8=2,9=2,10=2,28=1/1;
 7/7=1,29=1,30=1,33=-1/1,2,3,16;
 1/10=7,30=1,53=2,62=2,63=101/22;
 3/5=7,6=11,11=2,16=1,25=1,30=1,71=1,74=-13,82=7/1,2,3;
 4//1;
 5/5=2,38=5/2;
 6/7=2,8=2,9=2,10=2,28=1/1;
 7/7=1,29=1,30=1,33=-1/1,2,3,16;
 1/10=7,30=1,53=2,62=2,63=101/22(-5);
 7/9=1,29=1,44=-1/16;
 1/10=7,30=1,62=2/3;
 99//99;
 Leave Link    1 at Tue May 15 13:18:07 2018, MaxMem= 14763950080 cpu:         7.4
 (Enter /cm/shared/gaussian/g09.e01/intel64-sandybridge/g09/l101.exe)
 ---------------------------------------
 forces on chloride comput - NWATER: 128
 ---------------------------------------
 Symbolic Z-matrix:
 Charge = -1 Multiplicity = 1 in supermolecule
 Charge = -1 Multiplicity = 1 in fragment      1.
 Charge =  0 Multiplicity = 1 in fragment      2.
 Br(Fragment=1)        20.       20.       20. 
 O(Fragment=2)         23.12     20.3      20.52 
 H(Fragment=2)         22.22     20.19     20.22 
 H(Fragment=2)         23.22     21.25     20.64 
 O(Fragment=2)         20.8      20.14     23.1 
 H(Fragment=2)         20.45     20.13     22.21 
 H(Fragment=2)         21.33     19.35     23.16 
 O(Fragment=2)         18.46     17.47     21.14 
 H(Fragment=2)         18.63     18.28     20.67 
 H(Fragment=2)         19.17     17.4      21.77 
 O(Fragment=2)         20.3      19.42     16.81 
 H(Fragment=2)         20.35     19.52     17.77 
 H(Fragment=2)         19.47     18.97     16.67 
 O(Fragment=2)         20.71     22.84     18.73 
 H(Fragment=2)         20.33     23.09     17.89 
 H(Fragment=2)         20.53     21.9      18.8 
 O(Fragment=2)         17.13     19.61     18.61 
 H(Fragment=2)         17.8      19.86     19.24 
 H(Fragment=2)         17.5      18.85     18.15 
 O(Fragment=2)         17.49     20.45     22.87 
 H(Fragment=2)         16.95     21.22     23.05 
 H(Fragment=2)         18.34     20.82     22.6 
 O(Fragment=2)         23.48     18.13     18.78 
 H(Fragment=2)         23.28     18.75     19.48 
 H(Fragment=2)         24.4      18.31     18.56 
 O(Fragment=2)         19.25     15.39     18.97 
 H(Fragment=2)         19.24     16.22     19.46 
 H(Fragment=2)         20.11     15.37     18.55 
 O(Fragment=2)         23.18     23.03     19.57 
 H(Fragment=2)         22.32     23.06     19.16 
 H(Fragment=2)         23.18     23.76     20.19 
 O(Fragment=2)         22.01     17.8      23.35 
 H(Fragment=2)         21.75     17.16     24. 
 H(Fragment=2)         21.83     17.38     22.51 
 O(Fragment=2)         23.71     20.22     16.84 
 H(Fragment=2)         23.01     19.73     17.27 
 H(Fragment=2)         24.49     20.02     17.36 
 O(Fragment=2)         21.47     16.26     21.17 
 H(Fragment=2)         22.22     16.01     20.64 
 H(Fragment=2)         20.94     15.46     21.23 
 O(Fragment=2)         20.56     24.94     20.59 
 H(Fragment=2)         19.63     25.17     20.59 
 H(Fragment=2)         20.61     24.16     20.03 
 O(Fragment=2)         15.56     18.5      21.23 
 H(Fragment=2)         16.13     18.03     20.62 
 H(Fragment=2)         16.14     19.15     21.64 
 O(Fragment=2)         17.76     18.29     24.05 
 H(Fragment=2)         17.72     19.13     23.6 
 H(Fragment=2)         18.08     17.68     23.39 
 O(Fragment=2)         18.96     23.11     16.12 
 H(Fragment=2)         18.43     22.62     16.75 
 H(Fragment=2)         18.47     23.05     15.3 
 O(Fragment=2)         17.57     20.58     15.36 
 H(Fragment=2)         18.31     20.23     15.86 
 H(Fragment=2)         17.97     21.12     14.68 
 O(Fragment=2)         22.08     16.01     18.21 
 H(Fragment=2)         22.6      16.81     18.23 
 H(Fragment=2)         22.57     15.39     18.76 
 O(Fragment=2)         19.7      22.05     24.82 
 H(Fragment=2)         20.25     21.48     24.27 
 H(Fragment=2)         19.85     22.93     24.47 
 O(Fragment=2)         17.37     24.03     20.25 
 H(Fragment=2)         17.63     23.86     19.34 
 H(Fragment=2)         16.93     24.87     20.22 
 O(Fragment=2)         18.24     17.56     16.55 
 H(Fragment=2)         18.96     16.94     16.47 
 H(Fragment=2)         17.53     17.17     16.02 
 O(Fragment=2)         16.15     16.43     18.52 
 H(Fragment=2)         16.83     16.99     18.14 
 H(Fragment=2)         16.31     15.57     18.12 
 O(Fragment=2)         16.44     22.94     22.57 
 H(Fragment=2)         16.93     23.25     21.82 
 H(Fragment=2)         16.7      23.52     23.29 
 O(Fragment=2)         16.51     15.79     21.74 
 H(Fragment=2)         16.06     15.96     20.91 
 H(Fragment=2)         17.22     16.44     21.76 
 O(Fragment=2)         21.89     19.69     14.66 
 H(Fragment=2)         21.15     19.61     15.26 
 H(Fragment=2)         22.57     20.11     15.18 
 O(Fragment=2)         21.47     16.66     15.44 
 H(Fragment=2)         21.32     16.93     16.35 
 H(Fragment=2)         21.86     17.43     15.03 
 O(Fragment=2)         25.32     19.66     22.2 
 H(Fragment=2)         26.1      19.29     21.78 
 H(Fragment=2)         24.72     19.84     21.49 
 O(Fragment=2)         19.22     16.03     23.45 
 H(Fragment=2)         19.4      15.84     24.37 
 H(Fragment=2)         19.7      15.36     22.96 
 O(Fragment=2)         21.69     23.35     15.93 
 H(Fragment=2)         20.73     23.41     15.95 
 H(Fragment=2)         21.88     22.96     15.07 
 O(Fragment=2)         23.98     19.18     24.52 
 H(Fragment=2)         24.56     19.39     23.79 
 H(Fragment=2)         23.22     18.78     24.11 
 O(Fragment=2)         13.96     18.53     18.71 
 H(Fragment=2)         14.75     18.92     19.07 
 H(Fragment=2)         14.27     17.77     18.21 
 O(Fragment=2)         15.17     21.65     17.22 
 H(Fragment=2)         15.03     21.74     18.16 
 H(Fragment=2)         15.44     20.74     17.1 
 O(Fragment=2)         25.86     21.28     19.36 
 H(Fragment=2)         25.12     21.78     19.01 
 H(Fragment=2)         26.21     21.84     20.06 
 O(Fragment=2)         23.85     24.2      17.31 
 H(Fragment=2)         23.73     23.67     18.1 
 H(Fragment=2)         23.1      23.99     16.76 
 O(Fragment=2)         17.14     21.16     25.5 
 H(Fragment=2)         17.98     21.61     25.39 
 H(Fragment=2)         17.2      20.4      24.92 
 O(Fragment=2)         24.98     16.39     20.96 
 H(Fragment=2)         24.57     16.93     21.63 
 H(Fragment=2)         25.68     15.93     21.41 
 O(Fragment=2)         18.66     25.27     17.89 
 H(Fragment=2)         18.21     25.3      17.05 
 H(Fragment=2)         19.43     25.83     17.77 
 O(Fragment=2)         23.84     22.02     24.88 
 H(Fragment=2)         24.79     22.04     24.87 
 H(Fragment=2)         23.61     21.12     24.65 
 O(Fragment=2)         17.79     24.89     24.05 
 H(Fragment=2)         18.59     24.57     23.63 
 H(Fragment=2)         17.82     25.83     23.92 
 O(Fragment=2)         20.86     24.86     23.43 
 H(Fragment=2)         21.8      24.77     23.59 
 H(Fragment=2)         20.8      25.37     22.62 
 O(Fragment=2)         15.28     19.1      15.71 
 H(Fragment=2)         15.74     19.93     15.69 
 H(Fragment=2)         15.51     18.68     14.88 
 O(Fragment=2)         25.07     22.26     15.66 
 H(Fragment=2)         24.43     21.64     16.02 
 H(Fragment=2)         24.92     23.07     16.15 
 O(Fragment=2)         18.6      17.69     26.47 
 H(Fragment=2)         18.25     18.       25.64 
 H(Fragment=2)         18.78     18.49     26.97 
 O(Fragment=2)         13.66     22.52     21.86 
 H(Fragment=2)         13.61     22.09     22.72 
 H(Fragment=2)         14.6      22.65     21.71 
 O(Fragment=2)         17.29     14.       17.74 
 H(Fragment=2)         17.41     13.48     16.95 
 H(Fragment=2)         18.17     14.28     17.98 
 O(Fragment=2)         23.54     24.57     23.39 
 H(Fragment=2)         24.12     25.06     23.96 
 H(Fragment=2)         23.33     23.77     23.88 
 O(Fragment=2)         19.58     20.42     27.1 
 H(Fragment=2)         19.79     21.04     26.4 
 H(Fragment=2)         20.33     20.46     27.69 
 O(Fragment=2)         20.13     13.83     22.04 
 H(Fragment=2)         19.21     13.56     22.04 
 H(Fragment=2)         20.62     13.01     22.02 
 O(Fragment=2)         23.9      25.69     20.89 
 H(Fragment=2)         23.83     25.02     21.57 
 H(Fragment=2)         23.22     26.32     21.1 
 O(Fragment=2)         12.91     19.44     21.33 
 H(Fragment=2)         13.3      19.75     22.14 
 H(Fragment=2)         13.61     18.95     20.89 
 O(Fragment=2)         25.84     16.26     18.52 
 H(Fragment=2)         25.87     17.11     18.08 
 H(Fragment=2)         25.46     16.45     19.38 
 O(Fragment=2)         16.11     23.45     15.5 
 H(Fragment=2)         15.54     23.08     16.18 
 H(Fragment=2)         15.87     22.98     14.7 
 O(Fragment=2)         26.26     18.88     17.86 
 H(Fragment=2)         26.4      19.73     18.28 
 H(Fragment=2)         26.61     18.99     16.97 
 O(Fragment=2)         21.94     13.6      16.65 
 H(Fragment=2)         21.5      14.05     15.94 
 H(Fragment=2)         21.93     14.22     17.38 
 O(Fragment=2)         15.9      15.85     24.87 
 H(Fragment=2)         15.16     15.33     24.56 
 H(Fragment=2)         16.27     16.24     24.07 
 O(Fragment=2)         14.48     18.81     25.09 
 H(Fragment=2)         14.88     18.29     25.77 
 H(Fragment=2)         14.96     18.59     24.29 
 O(Fragment=2)         20.73     12.42     19.56 
 H(Fragment=2)         20.25     13.13     19.99 
 H(Fragment=2)         21.65     12.7      19.58 
 O(Fragment=2)         23.46     14.06     19.38 
 H(Fragment=2)         24.33     13.91     19.01 
 H(Fragment=2)         23.58     13.91     20.32 
 O(Fragment=2)         26.77     21.73     23.58 
 H(Fragment=2)         26.11     21.15     23.19 
 H(Fragment=2)         26.99     22.34     22.89 
 O(Fragment=2)         23.35     13.91     22.35 
 H(Fragment=2)         23.       14.38     23.1 
 H(Fragment=2)         22.87     13.08     22.34 
 O(Fragment=2)         22.1      22.57     13.36 
 H(Fragment=2)         21.9      21.63     13.37 
 H(Fragment=2)         21.57     22.92     12.64 
 O(Fragment=2)         22.39     14.99     24.66 
 H(Fragment=2)         21.91     15.54     25.29 
 H(Fragment=2)         22.29     14.1      25.01 
 O(Fragment=2)         21.02     16.44     26.71 
 H(Fragment=2)         20.23     16.95     26.52 
 H(Fragment=2)         21.35     16.81     27.53 
 O(Fragment=2)         12.95     21.68     19.24 
 H(Fragment=2)         12.86     20.74     19.39 
 H(Fragment=2)         13.05     22.05     20.12 
 O(Fragment=2)         17.6      12.79     22.09 
 H(Fragment=2)         17.26     13.5      21.55 
 H(Fragment=2)         17.42     12.       21.59 
 O(Fragment=2)         21.82     18.76     12.1 
 H(Fragment=2)         22.08     17.85     12.17 
 H(Fragment=2)         21.94     19.12     12.98 
 O(Fragment=2)         16.9      17.96     13.61 
 H(Fragment=2)         17.11     17.04     13.77 
 H(Fragment=2)         17.64     18.29     13.1 
 O(Fragment=2)         18.15     22.57     13.31 
 H(Fragment=2)         18.27     22.02     12.54 
 H(Fragment=2)         17.82     23.4      12.96 
 O(Fragment=2)         13.69     15.35     21.3 
 H(Fragment=2)         13.2      16.01     21.78 
 H(Fragment=2)         14.52     15.27     21.76 
 O(Fragment=2)         17.07     15.38     14.92 
 H(Fragment=2)         16.26     14.88     14.93 
 H(Fragment=2)         17.75     14.73     15.07 
 O(Fragment=2)         22.82     23.24     27.03 
 H(Fragment=2)         22.53     24.14     26.91 
 H(Fragment=2)         23.05     22.94     26.15 
 O(Fragment=2)         24.02     18.62     27.15 
 H(Fragment=2)         23.32     19.14     27.55 
 H(Fragment=2)         24.04     18.9      26.24 
 O(Fragment=2)         21.15     25.2      26.04 
 H(Fragment=2)         20.98     25.42     25.12 
 H(Fragment=2)         20.27     25.05     26.41 
 O(Fragment=2)         12.84     23.39     16.86 
 H(Fragment=2)         13.72     23.15     17.14 
 H(Fragment=2)         12.28     23.16     17.6 
 O(Fragment=2)         15.       23.27     25.71 
 H(Fragment=2)         14.62     23.3      26.59 
 H(Fragment=2)         15.56     22.5      25.71 
 O(Fragment=2)         16.51     26.17     15.81 
 H(Fragment=2)         15.86     26.57     15.23 
 H(Fragment=2)         16.36     25.23     15.72 
 O(Fragment=2)         13.67     16.66     15.94 
 H(Fragment=2)         13.87     17.58     16.06 
 H(Fragment=2)         12.77     16.56     16.26 
 O(Fragment=2)         12.81     20.23     15.98 
 H(Fragment=2)         13.61     19.84     15.65 
 H(Fragment=2)         13.09     21.05     16.39 
 O(Fragment=2)         13.5      21.65     24.19 
 H(Fragment=2)         14.1      22.24     24.65 
 H(Fragment=2)         13.       21.22     24.88 
 O(Fragment=2)         20.55     14.55     13.65 
 H(Fragment=2)         20.95     14.08     12.92 
 H(Fragment=2)         21.15     15.27     13.85 
 O(Fragment=2)         25.18     26.58     17.44 
 H(Fragment=2)         24.83     25.7      17.56 
 H(Fragment=2)         25.84     26.48     16.76 
 O(Fragment=2)         19.84     27.44     22.55 
 H(Fragment=2)         20.35     27.76     23.29 
 H(Fragment=2)         18.93     27.46     22.86 
 O(Fragment=2)         17.47     13.31     24.7 
 H(Fragment=2)         17.46     13.01     23.79 
 H(Fragment=2)         17.22     14.24     24.64 
 O(Fragment=2)         22.42     27.94     21.4 
 H(Fragment=2)         21.52     27.64     21.44 
 H(Fragment=2)         22.55     28.42     22.22 
 O(Fragment=2)         15.28     13.1      19.2 
 H(Fragment=2)         14.66     13.83     19.25 
 H(Fragment=2)         15.91     13.37     18.53 
 O(Fragment=2)         21.47     27.14     16.37 
 H(Fragment=2)         22.06     26.51     15.95 
 H(Fragment=2)         21.9      27.37     17.19 
 O(Fragment=2)         25.9      14.7      22.96 
 H(Fragment=2)         25.94     14.37     23.85 
 H(Fragment=2)         25.07     14.39     22.61 
 O(Fragment=2)         27.7      18.26     21.3 
 H(Fragment=2)         28.47     18.54     20.82 
 H(Fragment=2)         27.82     17.32     21.42 
 O(Fragment=2)         25.56     14.42     16.27 
 H(Fragment=2)         25.55     15.34     16.54 
 H(Fragment=2)         25.81     13.94     17.05 
 O(Fragment=2)         14.41     26.26     19.51 
 H(Fragment=2)         13.69     26.59     18.97 
 H(Fragment=2)         14.09     25.44     19.88 
 O(Fragment=2)         15.93     17.33     27.32 
 H(Fragment=2)         16.48     17.03     26.59 
 H(Fragment=2)         16.49     17.95     27.79 
 O(Fragment=2)         19.24     19.02     12.05 
 H(Fragment=2)         20.18     18.85     12. 
 H(Fragment=2)         19.05     19.5      11.24 
 O(Fragment=2)         27.36     23.35     20.69 
 H(Fragment=2)         26.99     24.17     20.36 
 H(Fragment=2)         28.3      23.43     20.53 
 O(Fragment=2)         16.08     26.78     22.14 
 H(Fragment=2)         15.71     26.78     21.26 
 H(Fragment=2)         16.44     27.66     22.25 
 O(Fragment=2)         24.66     21.58     13.09 
 H(Fragment=2)         23.93     22.13     12.79 
 H(Fragment=2)         24.99     22.02     13.87 
 O(Fragment=2)         23.06     27.82     18.55 
 H(Fragment=2)         23.1      28.       19.49 
 H(Fragment=2)         23.71     27.13     18.41 
 O(Fragment=2)         22.06     20.76     28.17 
 H(Fragment=2)         22.57     20.6      28.96 
 H(Fragment=2)         22.49     21.5      27.75 
 O(Fragment=2)         18.53     13.28     15.36 
 H(Fragment=2)         19.29     13.42     14.79 
 H(Fragment=2)         18.36     12.34     15.3 
 O(Fragment=2)         16.36     28.02     18.87 
 H(Fragment=2)         15.72     27.38     19.19 
 H(Fragment=2)         16.93     27.52     18.29 
 O(Fragment=2)         19.13     24.1      27.59 
 H(Fragment=2)         19.73     23.88     28.3 
 H(Fragment=2)         18.56     23.34     27.51 
 O(Fragment=2)         13.06     24.92     23.5 
 H(Fragment=2)         13.44     25.47     24.19 
 H(Fragment=2)         13.63     24.15     23.47 
 O(Fragment=2)         23.13     16.05     12.91 
 H(Fragment=2)         23.29     15.11     12.93 
 H(Fragment=2)         23.81     16.43     13.47 
 O(Fragment=2)         25.48     17.21     13.83 
 H(Fragment=2)         25.93     17.53     14.62 
 H(Fragment=2)         25.67     17.87     13.16 
 O(Fragment=2)         11.38     16.76     19.8 
 H(Fragment=2)         11.54     16.5      20.71 
 H(Fragment=2)         12.03     17.43     19.62 
 O(Fragment=2)         26.58     26.       20.16 
 H(Fragment=2)         25.67     26.22     20.33 
 H(Fragment=2)         26.73     26.3      19.27 
 O(Fragment=2)         27.59     23.03     15.31 
 H(Fragment=2)         26.82     22.57     15.66 
 H(Fragment=2)         27.77     23.71     15.96 
 O(Fragment=2)         12.09     16.93     22.45 
 H(Fragment=2)         11.6      16.75     23.25 
 H(Fragment=2)         12.1      17.88     22.39 
 O(Fragment=2)         29.52     21.34     20.08 
 H(Fragment=2)         28.56     21.43     20.1 
 H(Fragment=2)         29.77     21.61     19.2 
 O(Fragment=2)         26.17     20.68     26.38 
 H(Fragment=2)         26.53     20.05     25.75 
 H(Fragment=2)         25.73     20.13     27.04 
 O(Fragment=2)         20.38     12.77     26.02 
 H(Fragment=2)         19.8      13.14     25.35 
 H(Fragment=2)         19.79     12.38     26.66 
 O(Fragment=2)         12.91     14.51     18.31 
 H(Fragment=2)         12.51     15.08     17.65 
 H(Fragment=2)         12.89     15.02     19.12 
 O(Fragment=2)         14.79     21.64     13.15 
 H(Fragment=2)         14.49     22.53     13. 
 H(Fragment=2)         15.52     21.52     12.55 
 O(Fragment=2)         14.98     26.29     24.94 
 H(Fragment=2)         15.67     25.86     25.44 
 H(Fragment=2)         15.24     26.16     24.02 
 O(Fragment=2)         20.55     10.64     17.43 
 H(Fragment=2)         20.55     11.51     17.83 
 H(Fragment=2)         20.3      10.05     18.15 
 O(Fragment=2)         10.41     19.95     20.59 
 H(Fragment=2)         11.22     19.54     20.87 
 H(Fragment=2)         10.28     20.67     21.21 
 O(Fragment=2)         28.6      15.69     18.46 
 H(Fragment=2)         27.66     15.85     18.41 
 H(Fragment=2)         28.77     15.57     19.39 
 O(Fragment=2)         11.05     23.86     19.7 
 H(Fragment=2)         11.15     24.63     20.26 
 H(Fragment=2)         11.76     23.27     19.97 
 O(Fragment=2)         14.66     13.86     15.56 
 H(Fragment=2)         14.23     14.64     15.92 
 H(Fragment=2)         13.93     13.3      15.29 
 O(Fragment=2)         14.07     18.98     12.77 
 H(Fragment=2)         14.99     18.71     12.79 
 H(Fragment=2)         14.09     19.91     12.97 
 O(Fragment=2)         21.92     11.62     22.23 
 H(Fragment=2)         21.79     11.16     23.05 
 H(Fragment=2)         22.59     11.12     21.77 
 O(Fragment=2)         23.36     13.4      13.96 
 H(Fragment=2)         23.09     12.49     13.84 
 H(Fragment=2)         23.44     13.5      14.91 
 O(Fragment=2)         20.86     29.63     18.79 
 H(Fragment=2)         21.4      28.84     18.91 
 H(Fragment=2)         20.33     29.68     19.59 
 O(Fragment=2)         12.91     20.03     26.9 
 H(Fragment=2)         13.62     19.62     26.4 
 H(Fragment=2)         12.34     19.3      27.15 
 O(Fragment=2)         18.17     27.56     24.65 
 H(Fragment=2)         17.97     28.49     24.76 
 H(Fragment=2)         17.56     27.11     25.23 
 O(Fragment=2)         20.29     24.07     11.55 
 H(Fragment=2)         19.44     24.19     11.97 
 H(Fragment=2)         20.32     24.73     10.86 
 O(Fragment=2)         28.04     15.32     21.19 
 H(Fragment=2)         27.33     14.79     21.54 
 H(Fragment=2)         28.83     14.82     21.39 
 O(Fragment=2)         19.41     28.76     15.32 
 H(Fragment=2)         19.98     28.03     15.58 
 H(Fragment=2)         19.55     29.42     16. 
 
 NAtoms=    385 NQM=      385 NQMF=       0 NMMI=      0 NMMIF=      0
                NMic=       0 NMicF=      0.
                    Isotopes and Nuclear Properties:
 (Nuclear quadrupole moments (NQMom) in fm**2, nuclear magnetic moments (NMagM)
  in nuclear magnetons)

  Atom         1           2           3           4           5           6           7           8           9          10
 IAtWgt=          79          16           1           1          16           1           1          16           1           1
 AtmWgt=  78.9183361  15.9949146   1.0078250   1.0078250  15.9949146   1.0078250   1.0078250  15.9949146   1.0078250   1.0078250
 NucSpn=           3           0           1           1           0           1           1           0           1           1
 AtZEff=   0.0000000   0.0000000   0.0000000   0.0000000   0.0000000   0.0000000   0.0000000   0.0000000   0.0000000   0.0000000
 NQMom=   31.3000000   0.0000000   0.0000000   0.0000000   0.0000000   0.0000000   0.0000000   0.0000000   0.0000000   0.0000000
 NMagM=    2.1063990   0.0000000   2.7928460   2.7928460   0.0000000   2.7928460   2.7928460   0.0000000   2.7928460   2.7928460
 AtZNuc=  35.0000000   8.0000000   1.0000000   1.0000000   8.0000000   1.0000000   1.0000000   8.0000000   1.0000000   1.0000000

  Atom        11          12          13          14          15          16          17          18          19          20
 IAtWgt=          16           1           1          16           1           1          16           1           1          16
 AtmWgt=  15.9949146   1.0078250   1.0078250  15.9949146   1.0078250   1.0078250  15.9949146   1.0078250   1.0078250  15.9949146
 NucSpn=           0           1           1           0           1           1           0           1           1           0
 AtZEff=   0.0000000   0.0000000   0.0000000   0.0000000   0.0000000   0.0000000   0.0000000   0.0000000   0.0000000   0.0000000
 NQMom=    0.0000000   0.0000000   0.0000000   0.0000000   0.0000000   0.0000000   0.0000000   0.0000000   0.0000000   0.0000000
 NMagM=    0.0000000   2.7928460   2.7928460   0.0000000   2.7928460   2.7928460   0.0000000   2.7928460   2.7928460   0.0000000
 AtZNuc=   8.0000000   1.0000000   1.0000000   8.0000000   1.0000000   1.0000000   8.0000000   1.0000000   1.0000000   8.0000000

  Atom        21          22          23          24          25          26          27          28          29          30
 IAtWgt=           1           1          16           1           1          16           1           1          16           1
 AtmWgt=   1.0078250   1.0078250  15.9949146   1.0078250   1.0078250  15.9949146   1.0078250   1.0078250  15.9949146   1.0078250
 NucSpn=           1           1           0           1           1           0           1           1           0           1
 AtZEff=   0.0000000   0.0000000   0.0000000   0.0000000   0.0000000   0.0000000   0.0000000   0.0000000   0.0000000   0.0000000
 NQMom=    0.0000000   0.0000000   0.0000000   0.0000000   0.0000000   0.0000000   0.0000000   0.0000000   0.0000000   0.0000000
 NMagM=    2.7928460   2.7928460   0.0000000   2.7928460   2.7928460   0.0000000   2.7928460   2.7928460   0.0000000   2.7928460
 AtZNuc=   1.0000000   1.0000000   8.0000000   1.0000000   1.0000000   8.0000000   1.0000000   1.0000000   8.0000000   1.0000000

  Atom        31          32          33          34          35          36          37          38          39          40
 IAtWgt=           1          16           1           1          16           1           1          16           1           1
 AtmWgt=   1.0078250  15.9949146   1.0078250   1.0078250  15.9949146   1.0078250   1.0078250  15.9949146   1.0078250   1.0078250
 NucSpn=           1           0           1           1           0           1           1           0           1           1
 AtZEff=   0.0000000   0.0000000   0.0000000   0.0000000   0.0000000   0.0000000   0.0000000   0.0000000   0.0000000   0.0000000
 NQMom=    0.0000000   0.0000000   0.0000000   0.0000000   0.0000000   0.0000000   0.0000000   0.0000000   0.0000000   0.0000000
 NMagM=    2.7928460   0.0000000   2.7928460   2.7928460   0.0000000   2.7928460   2.7928460   0.0000000   2.7928460   2.7928460
 AtZNuc=   1.0000000   8.0000000   1.0000000   1.0000000   8.0000000   1.0000000   1.0000000   8.0000000   1.0000000   1.0000000

  Atom        41          42          43          44          45          46          47          48          49          50
 IAtWgt=          16           1           1          16           1           1          16           1           1          16
 AtmWgt=  15.9949146   1.0078250   1.0078250  15.9949146   1.0078250   1.0078250  15.9949146   1.0078250   1.0078250  15.9949146
 NucSpn=           0           1           1           0           1           1           0           1           1           0
 AtZEff=   0.0000000   0.0000000   0.0000000   0.0000000   0.0000000   0.0000000   0.0000000   0.0000000   0.0000000   0.0000000
 NQMom=    0.0000000   0.0000000   0.0000000   0.0000000   0.0000000   0.0000000   0.0000000   0.0000000   0.0000000   0.0000000
 NMagM=    0.0000000   2.7928460   2.7928460   0.0000000   2.7928460   2.7928460   0.0000000   2.7928460   2.7928460   0.0000000
 AtZNuc=   8.0000000   1.0000000   1.0000000   8.0000000   1.0000000   1.0000000   8.0000000   1.0000000   1.0000000   8.0000000

  Atom        51          52          53          54          55          56          57          58          59          60
 IAtWgt=           1           1          16           1           1          16           1           1          16           1
 AtmWgt=   1.0078250   1.0078250  15.9949146   1.0078250   1.0078250  15.9949146   1.0078250   1.0078250  15.9949146   1.0078250
 NucSpn=           1           1           0           1           1           0           1           1           0           1
 AtZEff=   0.0000000   0.0000000   0.0000000   0.0000000   0.0000000   0.0000000   0.0000000   0.0000000   0.0000000   0.0000000
 NQMom=    0.0000000   0.0000000   0.0000000   0.0000000   0.0000000   0.0000000   0.0000000   0.0000000   0.0000000   0.0000000
 NMagM=    2.7928460   2.7928460   0.0000000   2.7928460   2.7928460   0.0000000   2.7928460   2.7928460   0.0000000   2.7928460
 AtZNuc=   1.0000000   1.0000000   8.0000000   1.0000000   1.0000000   8.0000000   1.0000000   1.0000000   8.0000000   1.0000000

  Atom        61          62          63          64          65          66          67          68          69          70
 IAtWgt=           1          16           1           1          16           1           1          16           1           1
 AtmWgt=   1.0078250  15.9949146   1.0078250   1.0078250  15.9949146   1.0078250   1.0078250  15.9949146   1.0078250   1.0078250
 NucSpn=           1           0           1           1           0           1           1           0           1           1
 AtZEff=   0.0000000   0.0000000   0.0000000   0.0000000   0.0000000   0.0000000   0.0000000   0.0000000   0.0000000   0.0000000
 NQMom=    0.0000000   0.0000000   0.0000000   0.0000000   0.0000000   0.0000000   0.0000000   0.0000000   0.0000000   0.0000000
 NMagM=    2.7928460   0.0000000   2.7928460   2.7928460   0.0000000   2.7928460   2.7928460   0.0000000   2.7928460   2.7928460
 AtZNuc=   1.0000000   8.0000000   1.0000000   1.0000000   8.0000000   1.0000000   1.0000000   8.0000000   1.0000000   1.0000000

  Atom        71          72          73          74          75          76          77          78          79          80
 IAtWgt=          16           1           1          16           1           1          16           1           1          16
 AtmWgt=  15.9949146   1.0078250   1.0078250  15.9949146   1.0078250   1.0078250  15.9949146   1.0078250   1.0078250  15.9949146
 NucSpn=           0           1           1           0           1           1           0           1           1           0
 AtZEff=   0.0000000   0.0000000   0.0000000   0.0000000   0.0000000   0.0000000   0.0000000   0.0000000   0.0000000   0.0000000
 NQMom=    0.0000000   0.0000000   0.0000000   0.0000000   0.0000000   0.0000000   0.0000000   0.0000000   0.0000000   0.0000000
 NMagM=    0.0000000   2.7928460   2.7928460   0.0000000   2.7928460   2.7928460   0.0000000   2.7928460   2.7928460   0.0000000
 AtZNuc=   8.0000000   1.0000000   1.0000000   8.0000000   1.0000000   1.0000000   8.0000000   1.0000000   1.0000000   8.0000000

  Atom        81          82          83          84          85          86          87          88          89          90
 IAtWgt=           1           1          16           1           1          16           1           1          16           1
 AtmWgt=   1.0078250   1.0078250  15.9949146   1.0078250   1.0078250  15.9949146   1.0078250   1.0078250  15.9949146   1.0078250
 NucSpn=           1           1           0           1           1           0           1           1           0           1
 AtZEff=   0.0000000   0.0000000   0.0000000   0.0000000   0.0000000   0.0000000   0.0000000   0.0000000   0.0000000   0.0000000
 NQMom=    0.0000000   0.0000000   0.0000000   0.0000000   0.0000000   0.0000000   0.0000000   0.0000000   0.0000000   0.0000000
 NMagM=    2.7928460   2.7928460   0.0000000   2.7928460   2.7928460   0.0000000   2.7928460   2.7928460   0.0000000   2.7928460
 AtZNuc=   1.0000000   1.0000000   8.0000000   1.0000000   1.0000000   8.0000000   1.0000000   1.0000000   8.0000000   1.0000000

  Atom        91          92          93          94          95          96          97          98          99         100
 IAtWgt=           1          16           1           1          16           1           1          16           1           1
 AtmWgt=   1.0078250  15.9949146   1.0078250   1.0078250  15.9949146   1.0078250   1.0078250  15.9949146   1.0078250   1.0078250
 NucSpn=           1           0           1           1           0           1           1           0           1           1
 AtZEff=   0.0000000   0.0000000   0.0000000   0.0000000   0.0000000   0.0000000   0.0000000   0.0000000   0.0000000   0.0000000
 NQMom=    0.0000000   0.0000000   0.0000000   0.0000000   0.0000000   0.0000000   0.0000000   0.0000000   0.0000000   0.0000000
 NMagM=    2.7928460   0.0000000   2.7928460   2.7928460   0.0000000   2.7928460   2.7928460   0.0000000   2.7928460   2.7928460
 AtZNuc=   1.0000000   8.0000000   1.0000000   1.0000000   8.0000000   1.0000000   1.0000000   8.0000000   1.0000000   1.0000000

  Atom       101         102         103         104         105         106         107         108         109         110
 IAtWgt=          16           1           1          16           1           1          16           1           1          16
 AtmWgt=  15.9949146   1.0078250   1.0078250  15.9949146   1.0078250   1.0078250  15.9949146   1.0078250   1.0078250  15.9949146
 NucSpn=           0           1           1           0           1           1           0           1           1           0
 AtZEff=   0.0000000   0.0000000   0.0000000   0.0000000   0.0000000   0.0000000   0.0000000   0.0000000   0.0000000   0.0000000
 NQMom=    0.0000000   0.0000000   0.0000000   0.0000000   0.0000000   0.0000000   0.0000000   0.0000000   0.0000000   0.0000000
 NMagM=    0.0000000   2.7928460   2.7928460   0.0000000   2.7928460   2.7928460   0.0000000   2.7928460   2.7928460   0.0000000
 AtZNuc=   8.0000000   1.0000000   1.0000000   8.0000000   1.0000000   1.0000000   8.0000000   1.0000000   1.0000000   8.0000000

  Atom       111         112         113         114         115         116         117         118         119         120
 IAtWgt=           1           1          16           1           1          16           1           1          16           1
 AtmWgt=   1.0078250   1.0078250  15.9949146   1.0078250   1.0078250  15.9949146   1.0078250   1.0078250  15.9949146   1.0078250
 NucSpn=           1           1           0           1           1           0           1           1           0           1
 AtZEff=   0.0000000   0.0000000   0.0000000   0.0000000   0.0000000   0.0000000   0.0000000   0.0000000   0.0000000   0.0000000
 NQMom=    0.0000000   0.0000000   0.0000000   0.0000000   0.0000000   0.0000000   0.0000000   0.0000000   0.0000000   0.0000000
 NMagM=    2.7928460   2.7928460   0.0000000   2.7928460   2.7928460   0.0000000   2.7928460   2.7928460   0.0000000   2.7928460
 AtZNuc=   1.0000000   1.0000000   8.0000000   1.0000000   1.0000000   8.0000000   1.0000000   1.0000000   8.0000000   1.0000000

  Atom       121         122         123         124         125         126         127         128         129         130
 IAtWgt=           1          16           1           1          16           1           1          16           1           1
 AtmWgt=   1.0078250  15.9949146   1.0078250   1.0078250  15.9949146   1.0078250   1.0078250  15.9949146   1.0078250   1.0078250
 NucSpn=           1           0           1           1           0           1           1           0           1           1
 AtZEff=   0.0000000   0.0000000   0.0000000   0.0000000   0.0000000   0.0000000   0.0000000   0.0000000   0.0000000   0.0000000
 NQMom=    0.0000000   0.0000000   0.0000000   0.0000000   0.0000000   0.0000000   0.0000000   0.0000000   0.0000000   0.0000000
 NMagM=    2.7928460   0.0000000   2.7928460   2.7928460   0.0000000   2.7928460   2.7928460   0.0000000   2.7928460   2.7928460
 AtZNuc=   1.0000000   8.0000000   1.0000000   1.0000000   8.0000000   1.0000000   1.0000000   8.0000000   1.0000000   1.0000000

  Atom       131         132         133         134         135         136         137         138         139         140
 IAtWgt=          16           1           1          16           1           1          16           1           1          16
 AtmWgt=  15.9949146   1.0078250   1.0078250  15.9949146   1.0078250   1.0078250  15.9949146   1.0078250   1.0078250  15.9949146
 NucSpn=           0           1           1           0           1           1           0           1           1           0
 AtZEff=   0.0000000   0.0000000   0.0000000   0.0000000   0.0000000   0.0000000   0.0000000   0.0000000   0.0000000   0.0000000
 NQMom=    0.0000000   0.0000000   0.0000000   0.0000000   0.0000000   0.0000000   0.0000000   0.0000000   0.0000000   0.0000000
 NMagM=    0.0000000   2.7928460   2.7928460   0.0000000   2.7928460   2.7928460   0.0000000   2.7928460   2.7928460   0.0000000
 AtZNuc=   8.0000000   1.0000000   1.0000000   8.0000000   1.0000000   1.0000000   8.0000000   1.0000000   1.0000000   8.0000000

  Atom       141         142         143         144         145         146         147         148         149         150
 IAtWgt=           1           1          16           1           1          16           1           1          16           1
 AtmWgt=   1.0078250   1.0078250  15.9949146   1.0078250   1.0078250  15.9949146   1.0078250   1.0078250  15.9949146   1.0078250
 NucSpn=           1           1           0           1           1           0           1           1           0           1
 AtZEff=   0.0000000   0.0000000   0.0000000   0.0000000   0.0000000   0.0000000   0.0000000   0.0000000   0.0000000   0.0000000
 NQMom=    0.0000000   0.0000000   0.0000000   0.0000000   0.0000000   0.0000000   0.0000000   0.0000000   0.0000000   0.0000000
 NMagM=    2.7928460   2.7928460   0.0000000   2.7928460   2.7928460   0.0000000   2.7928460   2.7928460   0.0000000   2.7928460
 AtZNuc=   1.0000000   1.0000000   8.0000000   1.0000000   1.0000000   8.0000000   1.0000000   1.0000000   8.0000000   1.0000000

  Atom       151         152         153         154         155         156         157         158         159         160
 IAtWgt=           1          16           1           1          16           1           1          16           1           1
 AtmWgt=   1.0078250  15.9949146   1.0078250   1.0078250  15.9949146   1.0078250   1.0078250  15.9949146   1.0078250   1.0078250
 NucSpn=           1           0           1           1           0           1           1           0           1           1
 AtZEff=   0.0000000   0.0000000   0.0000000   0.0000000   0.0000000   0.0000000   0.0000000   0.0000000   0.0000000   0.0000000
 NQMom=    0.0000000   0.0000000   0.0000000   0.0000000   0.0000000   0.0000000   0.0000000   0.0000000   0.0000000   0.0000000
 NMagM=    2.7928460   0.0000000   2.7928460   2.7928460   0.0000000   2.7928460   2.7928460   0.0000000   2.7928460   2.7928460
 AtZNuc=   1.0000000   8.0000000   1.0000000   1.0000000   8.0000000   1.0000000   1.0000000   8.0000000   1.0000000   1.0000000

  Atom       161         162         163         164         165         166         167         168         169         170
 IAtWgt=          16           1           1          16           1           1          16           1           1          16
 AtmWgt=  15.9949146   1.0078250   1.0078250  15.9949146   1.0078250   1.0078250  15.9949146   1.0078250   1.0078250  15.9949146
 NucSpn=           0           1           1           0           1           1           0           1           1           0
 AtZEff=   0.0000000   0.0000000   0.0000000   0.0000000   0.0000000   0.0000000   0.0000000   0.0000000   0.0000000   0.0000000
 NQMom=    0.0000000   0.0000000   0.0000000   0.0000000   0.0000000   0.0000000   0.0000000   0.0000000   0.0000000   0.0000000
 NMagM=    0.0000000   2.7928460   2.7928460   0.0000000   2.7928460   2.7928460   0.0000000   2.7928460   2.7928460   0.0000000
 AtZNuc=   8.0000000   1.0000000   1.0000000   8.0000000   1.0000000   1.0000000   8.0000000   1.0000000   1.0000000   8.0000000

  Atom       171         172         173         174         175         176         177         178         179         180
 IAtWgt=           1           1          16           1           1          16           1           1          16           1
 AtmWgt=   1.0078250   1.0078250  15.9949146   1.0078250   1.0078250  15.9949146   1.0078250   1.0078250  15.9949146   1.0078250
 NucSpn=           1           1           0           1           1           0           1           1           0           1
 AtZEff=   0.0000000   0.0000000   0.0000000   0.0000000   0.0000000   0.0000000   0.0000000   0.0000000   0.0000000   0.0000000
 NQMom=    0.0000000   0.0000000   0.0000000   0.0000000   0.0000000   0.0000000   0.0000000   0.0000000   0.0000000   0.0000000
 NMagM=    2.7928460   2.7928460   0.0000000   2.7928460   2.7928460   0.0000000   2.7928460   2.7928460   0.0000000   2.7928460
 AtZNuc=   1.0000000   1.0000000   8.0000000   1.0000000   1.0000000   8.0000000   1.0000000   1.0000000   8.0000000   1.0000000

  Atom       181         182         183         184         185         186         187         188         189         190
 IAtWgt=           1          16           1           1          16           1           1          16           1           1
 AtmWgt=   1.0078250  15.9949146   1.0078250   1.0078250  15.9949146   1.0078250   1.0078250  15.9949146   1.0078250   1.0078250
 NucSpn=           1           0           1           1           0           1           1           0           1           1
 AtZEff=   0.0000000   0.0000000   0.0000000   0.0000000   0.0000000   0.0000000   0.0000000   0.0000000   0.0000000   0.0000000
 NQMom=    0.0000000   0.0000000   0.0000000   0.0000000   0.0000000   0.0000000   0.0000000   0.0000000   0.0000000   0.0000000
 NMagM=    2.7928460   0.0000000   2.7928460   2.7928460   0.0000000   2.7928460   2.7928460   0.0000000   2.7928460   2.7928460
 AtZNuc=   1.0000000   8.0000000   1.0000000   1.0000000   8.0000000   1.0000000   1.0000000   8.0000000   1.0000000   1.0000000

  Atom       191         192         193         194         195         196         197         198         199         200
 IAtWgt=          16           1           1          16           1           1          16           1           1          16
 AtmWgt=  15.9949146   1.0078250   1.0078250  15.9949146   1.0078250   1.0078250  15.9949146   1.0078250   1.0078250  15.9949146
 NucSpn=           0           1           1           0           1           1           0           1           1           0
 AtZEff=   0.0000000   0.0000000   0.0000000   0.0000000   0.0000000   0.0000000   0.0000000   0.0000000   0.0000000   0.0000000
 NQMom=    0.0000000   0.0000000   0.0000000   0.0000000   0.0000000   0.0000000   0.0000000   0.0000000   0.0000000   0.0000000
 NMagM=    0.0000000   2.7928460   2.7928460   0.0000000   2.7928460   2.7928460   0.0000000   2.7928460   2.7928460   0.0000000
 AtZNuc=   8.0000000   1.0000000   1.0000000   8.0000000   1.0000000   1.0000000   8.0000000   1.0000000   1.0000000   8.0000000

  Atom       201         202         203         204         205         206         207         208         209         210
 IAtWgt=           1           1          16           1           1          16           1           1          16           1
 AtmWgt=   1.0078250   1.0078250  15.9949146   1.0078250   1.0078250  15.9949146   1.0078250   1.0078250  15.9949146   1.0078250
 NucSpn=           1           1           0           1           1           0           1           1           0           1
 AtZEff=   0.0000000   0.0000000   0.0000000   0.0000000   0.0000000   0.0000000   0.0000000   0.0000000   0.0000000   0.0000000
 NQMom=    0.0000000   0.0000000   0.0000000   0.0000000   0.0000000   0.0000000   0.0000000   0.0000000   0.0000000   0.0000000
 NMagM=    2.7928460   2.7928460   0.0000000   2.7928460   2.7928460   0.0000000   2.7928460   2.7928460   0.0000000   2.7928460
 AtZNuc=   1.0000000   1.0000000   8.0000000   1.0000000   1.0000000   8.0000000   1.0000000   1.0000000   8.0000000   1.0000000

  Atom       211         212         213         214         215         216         217         218         219         220
 IAtWgt=           1          16           1           1          16           1           1          16           1           1
 AtmWgt=   1.0078250  15.9949146   1.0078250   1.0078250  15.9949146   1.0078250   1.0078250  15.9949146   1.0078250   1.0078250
 NucSpn=           1           0           1           1           0           1           1           0           1           1
 AtZEff=   0.0000000   0.0000000   0.0000000   0.0000000   0.0000000   0.0000000   0.0000000   0.0000000   0.0000000   0.0000000
 NQMom=    0.0000000   0.0000000   0.0000000   0.0000000   0.0000000   0.0000000   0.0000000   0.0000000   0.0000000   0.0000000
 NMagM=    2.7928460   0.0000000   2.7928460   2.7928460   0.0000000   2.7928460   2.7928460   0.0000000   2.7928460   2.7928460
 AtZNuc=   1.0000000   8.0000000   1.0000000   1.0000000   8.0000000   1.0000000   1.0000000   8.0000000   1.0000000   1.0000000

  Atom       221         222         223         224         225         226         227         228         229         230
 IAtWgt=          16           1           1          16           1           1          16           1           1          16
 AtmWgt=  15.9949146   1.0078250   1.0078250  15.9949146   1.0078250   1.0078250  15.9949146   1.0078250   1.0078250  15.9949146
 NucSpn=           0           1           1           0           1           1           0           1           1           0
 AtZEff=   0.0000000   0.0000000   0.0000000   0.0000000   0.0000000   0.0000000   0.0000000   0.0000000   0.0000000   0.0000000
 NQMom=    0.0000000   0.0000000   0.0000000   0.0000000   0.0000000   0.0000000   0.0000000   0.0000000   0.0000000   0.0000000
 NMagM=    0.0000000   2.7928460   2.7928460   0.0000000   2.7928460   2.7928460   0.0000000   2.7928460   2.7928460   0.0000000
 AtZNuc=   8.0000000   1.0000000   1.0000000   8.0000000   1.0000000   1.0000000   8.0000000   1.0000000   1.0000000   8.0000000

  Atom       231         232         233         234         235         236         237         238         239         240
 IAtWgt=           1           1          16           1           1          16           1           1          16           1
 AtmWgt=   1.0078250   1.0078250  15.9949146   1.0078250   1.0078250  15.9949146   1.0078250   1.0078250  15.9949146   1.0078250
 NucSpn=           1           1           0           1           1           0           1           1           0           1
 AtZEff=   0.0000000   0.0000000   0.0000000   0.0000000   0.0000000   0.0000000   0.0000000   0.0000000   0.0000000   0.0000000
 NQMom=    0.0000000   0.0000000   0.0000000   0.0000000   0.0000000   0.0000000   0.0000000   0.0000000   0.0000000   0.0000000
 NMagM=    2.7928460   2.7928460   0.0000000   2.7928460   2.7928460   0.0000000   2.7928460   2.7928460   0.0000000   2.7928460
 AtZNuc=   1.0000000   1.0000000   8.0000000   1.0000000   1.0000000   8.0000000   1.0000000   1.0000000   8.0000000   1.0000000

  Atom       241         242         243         244         245         246         247         248         249         250
 IAtWgt=           1          16           1           1          16           1           1          16           1           1
 AtmWgt=   1.0078250  15.9949146   1.0078250   1.0078250  15.9949146   1.0078250   1.0078250  15.9949146   1.0078250   1.0078250
 NucSpn=           1           0           1           1           0           1           1           0           1           1
 AtZEff=   0.0000000   0.0000000   0.0000000   0.0000000   0.0000000   0.0000000   0.0000000   0.0000000   0.0000000   0.0000000
 NQMom=    0.0000000   0.0000000   0.0000000   0.0000000   0.0000000   0.0000000   0.0000000   0.0000000   0.0000000   0.0000000
 NMagM=    2.7928460   0.0000000   2.7928460   2.7928460   0.0000000   2.7928460   2.7928460   0.0000000   2.7928460   2.7928460
 AtZNuc=   1.0000000   8.0000000   1.0000000   1.0000000   8.0000000   1.0000000   1.0000000   8.0000000   1.0000000   1.0000000

  Atom       251         252         253         254         255         256         257         258         259         260
 IAtWgt=          16           1           1          16           1           1          16           1           1          16
 AtmWgt=  15.9949146   1.0078250   1.0078250  15.9949146   1.0078250   1.0078250  15.9949146   1.0078250   1.0078250  15.9949146
 NucSpn=           0           1           1           0           1           1           0           1           1           0
 AtZEff=   0.0000000   0.0000000   0.0000000   0.0000000   0.0000000   0.0000000   0.0000000   0.0000000   0.0000000   0.0000000
 NQMom=    0.0000000   0.0000000   0.0000000   0.0000000   0.0000000   0.0000000   0.0000000   0.0000000   0.0000000   0.0000000
 NMagM=    0.0000000   2.7928460   2.7928460   0.0000000   2.7928460   2.7928460   0.0000000   2.7928460   2.7928460   0.0000000
 AtZNuc=   8.0000000   1.0000000   1.0000000   8.0000000   1.0000000   1.0000000   8.0000000   1.0000000   1.0000000   8.0000000

  Atom       261         262         263         264         265         266         267         268         269         270
 IAtWgt=           1           1          16           1           1          16           1           1          16           1
 AtmWgt=   1.0078250   1.0078250  15.9949146   1.0078250   1.0078250  15.9949146   1.0078250   1.0078250  15.9949146   1.0078250
 NucSpn=           1           1           0           1           1           0           1           1           0           1
 AtZEff=   0.0000000   0.0000000   0.0000000   0.0000000   0.0000000   0.0000000   0.0000000   0.0000000   0.0000000   0.0000000
 NQMom=    0.0000000   0.0000000   0.0000000   0.0000000   0.0000000   0.0000000   0.0000000   0.0000000   0.0000000   0.0000000
 NMagM=    2.7928460   2.7928460   0.0000000   2.7928460   2.7928460   0.0000000   2.7928460   2.7928460   0.0000000   2.7928460
 AtZNuc=   1.0000000   1.0000000   8.0000000   1.0000000   1.0000000   8.0000000   1.0000000   1.0000000   8.0000000   1.0000000

  Atom       271         272         273         274         275         276         277         278         279         280
 IAtWgt=           1          16           1           1          16           1           1          16           1           1
 AtmWgt=   1.0078250  15.9949146   1.0078250   1.0078250  15.9949146   1.0078250   1.0078250  15.9949146   1.0078250   1.0078250
 NucSpn=           1           0           1           1           0           1           1           0           1           1
 AtZEff=   0.0000000   0.0000000   0.0000000   0.0000000   0.0000000   0.0000000   0.0000000   0.0000000   0.0000000   0.0000000
 NQMom=    0.0000000   0.0000000   0.0000000   0.0000000   0.0000000   0.0000000   0.0000000   0.0000000   0.0000000   0.0000000
 NMagM=    2.7928460   0.0000000   2.7928460   2.7928460   0.0000000   2.7928460   2.7928460   0.0000000   2.7928460   2.7928460
 AtZNuc=   1.0000000   8.0000000   1.0000000   1.0000000   8.0000000   1.0000000   1.0000000   8.0000000   1.0000000   1.0000000

  Atom       281         282         283         284         285         286         287         288         289         290
 IAtWgt=          16           1           1          16           1           1          16           1           1          16
 AtmWgt=  15.9949146   1.0078250   1.0078250  15.9949146   1.0078250   1.0078250  15.9949146   1.0078250   1.0078250  15.9949146
 NucSpn=           0           1           1           0           1           1           0           1           1           0
 AtZEff=   0.0000000   0.0000000   0.0000000   0.0000000   0.0000000   0.0000000   0.0000000   0.0000000   0.0000000   0.0000000
 NQMom=    0.0000000   0.0000000   0.0000000   0.0000000   0.0000000   0.0000000   0.0000000   0.0000000   0.0000000   0.0000000
 NMagM=    0.0000000   2.7928460   2.7928460   0.0000000   2.7928460   2.7928460   0.0000000   2.7928460   2.7928460   0.0000000
 AtZNuc=   8.0000000   1.0000000   1.0000000   8.0000000   1.0000000   1.0000000   8.0000000   1.0000000   1.0000000   8.0000000

  Atom       291         292         293         294         295         296         297         298         299         300
 IAtWgt=           1           1          16           1           1          16           1           1          16           1
 AtmWgt=   1.0078250   1.0078250  15.9949146   1.0078250   1.0078250  15.9949146   1.0078250   1.0078250  15.9949146   1.0078250
 NucSpn=           1           1           0           1           1           0           1           1           0           1
 AtZEff=   0.0000000   0.0000000   0.0000000   0.0000000   0.0000000   0.0000000   0.0000000   0.0000000   0.0000000   0.0000000
 NQMom=    0.0000000   0.0000000   0.0000000   0.0000000   0.0000000   0.0000000   0.0000000   0.0000000   0.0000000   0.0000000
 NMagM=    2.7928460   2.7928460   0.0000000   2.7928460   2.7928460   0.0000000   2.7928460   2.7928460   0.0000000   2.7928460
 AtZNuc=   1.0000000   1.0000000   8.0000000   1.0000000   1.0000000   8.0000000   1.0000000   1.0000000   8.0000000   1.0000000

  Atom       301         302         303         304         305         306         307         308         309         310
 IAtWgt=           1          16           1           1          16           1           1          16           1           1
 AtmWgt=   1.0078250  15.9949146   1.0078250   1.0078250  15.9949146   1.0078250   1.0078250  15.9949146   1.0078250   1.0078250
 NucSpn=           1           0           1           1           0           1           1           0           1           1
 AtZEff=   0.0000000   0.0000000   0.0000000   0.0000000   0.0000000   0.0000000   0.0000000   0.0000000   0.0000000   0.0000000
 NQMom=    0.0000000   0.0000000   0.0000000   0.0000000   0.0000000   0.0000000   0.0000000   0.0000000   0.0000000   0.0000000
 NMagM=    2.7928460   0.0000000   2.7928460   2.7928460   0.0000000   2.7928460   2.7928460   0.0000000   2.7928460   2.7928460
 AtZNuc=   1.0000000   8.0000000   1.0000000   1.0000000   8.0000000   1.0000000   1.0000000   8.0000000   1.0000000   1.0000000

  Atom       311         312         313         314         315         316         317         318         319         320
 IAtWgt=          16           1           1          16           1           1          16           1           1          16
 AtmWgt=  15.9949146   1.0078250   1.0078250  15.9949146   1.0078250   1.0078250  15.9949146   1.0078250   1.0078250  15.9949146
 NucSpn=           0           1           1           0           1           1           0           1           1           0
 AtZEff=   0.0000000   0.0000000   0.0000000   0.0000000   0.0000000   0.0000000   0.0000000   0.0000000   0.0000000   0.0000000
 NQMom=    0.0000000   0.0000000   0.0000000   0.0000000   0.0000000   0.0000000   0.0000000   0.0000000   0.0000000   0.0000000
 NMagM=    0.0000000   2.7928460   2.7928460   0.0000000   2.7928460   2.7928460   0.0000000   2.7928460   2.7928460   0.0000000
 AtZNuc=   8.0000000   1.0000000   1.0000000   8.0000000   1.0000000   1.0000000   8.0000000   1.0000000   1.0000000   8.0000000

  Atom       321         322         323         324         325         326         327         328         329         330
 IAtWgt=           1           1          16           1           1          16           1           1          16           1
 AtmWgt=   1.0078250   1.0078250  15.9949146   1.0078250   1.0078250  15.9949146   1.0078250   1.0078250  15.9949146   1.0078250
 NucSpn=           1           1           0           1           1           0           1           1           0           1
 AtZEff=   0.0000000   0.0000000   0.0000000   0.0000000   0.0000000   0.0000000   0.0000000   0.0000000   0.0000000   0.0000000
 NQMom=    0.0000000   0.0000000   0.0000000   0.0000000   0.0000000   0.0000000   0.0000000   0.0000000   0.0000000   0.0000000
 NMagM=    2.7928460   2.7928460   0.0000000   2.7928460   2.7928460   0.0000000   2.7928460   2.7928460   0.0000000   2.7928460
 AtZNuc=   1.0000000   1.0000000   8.0000000   1.0000000   1.0000000   8.0000000   1.0000000   1.0000000   8.0000000   1.0000000

  Atom       331         332         333         334         335         336         337         338         339         340
 IAtWgt=           1          16           1           1          16           1           1          16           1           1
 AtmWgt=   1.0078250  15.9949146   1.0078250   1.0078250  15.9949146   1.0078250   1.0078250  15.9949146   1.0078250   1.0078250
 NucSpn=           1           0           1           1           0           1           1           0           1           1
 AtZEff=   0.0000000   0.0000000   0.0000000   0.0000000   0.0000000   0.0000000   0.0000000   0.0000000   0.0000000   0.0000000
 NQMom=    0.0000000   0.0000000   0.0000000   0.0000000   0.0000000   0.0000000   0.0000000   0.0000000   0.0000000   0.0000000
 NMagM=    2.7928460   0.0000000   2.7928460   2.7928460   0.0000000   2.7928460   2.7928460   0.0000000   2.7928460   2.7928460
 AtZNuc=   1.0000000   8.0000000   1.0000000   1.0000000   8.0000000   1.0000000   1.0000000   8.0000000   1.0000000   1.0000000

  Atom       341         342         343         344         345         346         347         348         349         350
 IAtWgt=          16           1           1          16           1           1          16           1           1          16
 AtmWgt=  15.9949146   1.0078250   1.0078250  15.9949146   1.0078250   1.0078250  15.9949146   1.0078250   1.0078250  15.9949146
 NucSpn=           0           1           1           0           1           1           0           1           1           0
 AtZEff=   0.0000000   0.0000000   0.0000000   0.0000000   0.0000000   0.0000000   0.0000000   0.0000000   0.0000000   0.0000000
 NQMom=    0.0000000   0.0000000   0.0000000   0.0000000   0.0000000   0.0000000   0.0000000   0.0000000   0.0000000   0.0000000
 NMagM=    0.0000000   2.7928460   2.7928460   0.0000000   2.7928460   2.7928460   0.0000000   2.7928460   2.7928460   0.0000000
 AtZNuc=   8.0000000   1.0000000   1.0000000   8.0000000   1.0000000   1.0000000   8.0000000   1.0000000   1.0000000   8.0000000

  Atom       351         352         353         354         355         356         357         358         359         360
 IAtWgt=           1           1          16           1           1          16           1           1          16           1
 AtmWgt=   1.0078250   1.0078250  15.9949146   1.0078250   1.0078250  15.9949146   1.0078250   1.0078250  15.9949146   1.0078250
 NucSpn=           1           1           0           1           1           0           1           1           0           1
 AtZEff=   0.0000000   0.0000000   0.0000000   0.0000000   0.0000000   0.0000000   0.0000000   0.0000000   0.0000000   0.0000000
 NQMom=    0.0000000   0.0000000   0.0000000   0.0000000   0.0000000   0.0000000   0.0000000   0.0000000   0.0000000   0.0000000
 NMagM=    2.7928460   2.7928460   0.0000000   2.7928460   2.7928460   0.0000000   2.7928460   2.7928460   0.0000000   2.7928460
 AtZNuc=   1.0000000   1.0000000   8.0000000   1.0000000   1.0000000   8.0000000   1.0000000   1.0000000   8.0000000   1.0000000

  Atom       361         362         363         364         365         366         367         368         369         370
 IAtWgt=           1          16           1           1          16           1           1          16           1           1
 AtmWgt=   1.0078250  15.9949146   1.0078250   1.0078250  15.9949146   1.0078250   1.0078250  15.9949146   1.0078250   1.0078250
 NucSpn=           1           0           1           1           0           1           1           0           1           1
 AtZEff=   0.0000000   0.0000000   0.0000000   0.0000000   0.0000000   0.0000000   0.0000000   0.0000000   0.0000000   0.0000000
 NQMom=    0.0000000   0.0000000   0.0000000   0.0000000   0.0000000   0.0000000   0.0000000   0.0000000   0.0000000   0.0000000
 NMagM=    2.7928460   0.0000000   2.7928460   2.7928460   0.0000000   2.7928460   2.7928460   0.0000000   2.7928460   2.7928460
 AtZNuc=   1.0000000   8.0000000   1.0000000   1.0000000   8.0000000   1.0000000   1.0000000   8.0000000   1.0000000   1.0000000

  Atom       371         372         373         374         375         376         377         378         379         380
 IAtWgt=          16           1           1          16           1           1          16           1           1          16
 AtmWgt=  15.9949146   1.0078250   1.0078250  15.9949146   1.0078250   1.0078250  15.9949146   1.0078250   1.0078250  15.9949146
 NucSpn=           0           1           1           0           1           1           0           1           1           0
 AtZEff=   0.0000000   0.0000000   0.0000000   0.0000000   0.0000000   0.0000000   0.0000000   0.0000000   0.0000000   0.0000000
 NQMom=    0.0000000   0.0000000   0.0000000   0.0000000   0.0000000   0.0000000   0.0000000   0.0000000   0.0000000   0.0000000
 NMagM=    0.0000000   2.7928460   2.7928460   0.0000000   2.7928460   2.7928460   0.0000000   2.7928460   2.7928460   0.0000000
 AtZNuc=   8.0000000   1.0000000   1.0000000   8.0000000   1.0000000   1.0000000   8.0000000   1.0000000   1.0000000   8.0000000

  Atom       381         382         383         384         385
 IAtWgt=           1           1          16           1           1
 AtmWgt=   1.0078250   1.0078250  15.9949146   1.0078250   1.0078250
 NucSpn=           1           1           0           1           1
 AtZEff=   0.0000000   0.0000000   0.0000000   0.0000000   0.0000000
 NQMom=    0.0000000   0.0000000   0.0000000   0.0000000   0.0000000
 NMagM=    2.7928460   2.7928460   0.0000000   2.7928460   2.7928460
 AtZNuc=   1.0000000   1.0000000   8.0000000   1.0000000   1.0000000
 Leave Link  101 at Tue May 15 13:18:07 2018, MaxMem= 14763950080 cpu:        34.7
 (Enter /cm/shared/gaussian/g09.e01/intel64-sandybridge/g09/l103.exe)

 GradGradGradGradGradGradGradGradGradGradGradGradGradGradGradGradGradGrad
 Berny optimization.
 Initialization pass.
 Trust Radius=3.00D-01 FncErr=1.00D-07 GrdErr=1.00D-07
 Number of steps in this run=      2 maximum allowed number of steps=      2.
 GradGradGradGradGradGradGradGradGradGradGradGradGradGradGradGradGradGrad

 Leave Link  103 at Tue May 15 13:18:07 2018, MaxMem= 14763950080 cpu:         3.7
 (Enter /cm/shared/gaussian/g09.e01/intel64-sandybridge/g09/l202.exe)
 Symmetry turned off by external request.
 Stoichiometry    BrH256O128(1-)
 Framework group  C1[X(BrH256O128)]
 Deg. of freedom  1149
 Full point group                 C1      NOp   1
                          Input orientation:                          
 ---------------------------------------------------------------------
 Center     Atomic      Atomic             Coordinates (Angstroms)
 Number     Number       Type             X           Y           Z
 ---------------------------------------------------------------------
      1         35           0       20.000000   20.000000   20.000000
      2          8           0       23.120000   20.300000   20.520000
      3          1           0       22.220000   20.190000   20.220000
      4          1           0       23.220000   21.250000   20.640000
      5          8           0       20.800000   20.140000   23.100000
      6          1           0       20.450000   20.130000   22.210000
      7          1           0       21.330000   19.350000   23.160000
      8          8           0       18.460000   17.470000   21.140000
      9          1           0       18.630000   18.280000   20.670000
     10          1           0       19.170000   17.400000   21.770000
     11          8           0       20.300000   19.420000   16.810000
     12          1           0       20.350000   19.520000   17.770000
     13          1           0       19.470000   18.970000   16.670000
     14          8           0       20.710000   22.840000   18.730000
     15          1           0       20.330000   23.090000   17.890000
     16          1           0       20.530000   21.900000   18.800000
     17          8           0       17.130000   19.610000   18.610000
     18          1           0       17.800000   19.860000   19.240000
     19          1           0       17.500000   18.850000   18.150000
     20          8           0       17.490000   20.450000   22.870000
     21          1           0       16.950000   21.220000   23.050000
     22          1           0       18.340000   20.820000   22.600000
     23          8           0       23.480000   18.130000   18.780000
     24          1           0       23.280000   18.750000   19.480000
     25          1           0       24.400000   18.310000   18.560000
     26          8           0       19.250000   15.390000   18.970000
     27          1           0       19.240000   16.220000   19.460000
     28          1           0       20.110000   15.370000   18.550000
     29          8           0       23.180000   23.030000   19.570000
     30          1           0       22.320000   23.060000   19.160000
     31          1           0       23.180000   23.760000   20.190000
     32          8           0       22.010000   17.800000   23.350000
     33          1           0       21.750000   17.160000   24.000000
     34          1           0       21.830000   17.380000   22.510000
     35          8           0       23.710000   20.220000   16.840000
     36          1           0       23.010000   19.730000   17.270000
     37          1           0       24.490000   20.020000   17.360000
     38          8           0       21.470000   16.260000   21.170000
     39          1           0       22.220000   16.010000   20.640000
     40          1           0       20.940000   15.460000   21.230000
     41          8           0       20.560000   24.940000   20.590000
     42          1           0       19.630000   25.170000   20.590000
     43          1           0       20.610000   24.160000   20.030000
     44          8           0       15.560000   18.500000   21.230000
     45          1           0       16.130000   18.030000   20.620000
     46          1           0       16.140000   19.150000   21.640000
     47          8           0       17.760000   18.290000   24.050000
     48          1           0       17.720000   19.130000   23.600000
     49          1           0       18.080000   17.680000   23.390000
     50          8           0       18.960000   23.110000   16.120000
     51          1           0       18.430000   22.620000   16.750000
     52          1           0       18.470000   23.050000   15.300000
     53          8           0       17.570000   20.580000   15.360000
     54          1           0       18.310000   20.230000   15.860000
     55          1           0       17.970000   21.120000   14.680000
     56          8           0       22.080000   16.010000   18.210000
     57          1           0       22.600000   16.810000   18.230000
     58          1           0       22.570000   15.390000   18.760000
     59          8           0       19.700000   22.050000   24.820000
     60          1           0       20.250000   21.480000   24.270000
     61          1           0       19.850000   22.930000   24.470000
     62          8           0       17.370000   24.030000   20.250000
     63          1           0       17.630000   23.860000   19.340000
     64          1           0       16.930000   24.870000   20.220000
     65          8           0       18.240000   17.560000   16.550000
     66          1           0       18.960000   16.940000   16.470000
     67          1           0       17.530000   17.170000   16.020000
     68          8           0       16.150000   16.430000   18.520000
     69          1           0       16.830000   16.990000   18.140000
     70          1           0       16.310000   15.570000   18.120000
     71          8           0       16.440000   22.940000   22.570000
     72          1           0       16.930000   23.250000   21.820000
     73          1           0       16.700000   23.520000   23.290000
     74          8           0       16.510000   15.790000   21.740000
     75          1           0       16.060000   15.960000   20.910000
     76          1           0       17.220000   16.440000   21.760000
     77          8           0       21.890000   19.690000   14.660000
     78          1           0       21.150000   19.610000   15.260000
     79          1           0       22.570000   20.110000   15.180000
     80          8           0       21.470000   16.660000   15.440000
     81          1           0       21.320000   16.930000   16.350000
     82          1           0       21.860000   17.430000   15.030000
     83          8           0       25.320000   19.660000   22.200000
     84          1           0       26.100000   19.290000   21.780000
     85          1           0       24.720000   19.840000   21.490000
     86          8           0       19.220000   16.030000   23.450000
     87          1           0       19.400000   15.840000   24.370000
     88          1           0       19.700000   15.360000   22.960000
     89          8           0       21.690000   23.350000   15.930000
     90          1           0       20.730000   23.410000   15.950000
     91          1           0       21.880000   22.960000   15.070000
     92          8           0       23.980000   19.180000   24.520000
     93          1           0       24.560000   19.390000   23.790000
     94          1           0       23.220000   18.780000   24.110000
     95          8           0       13.960000   18.530000   18.710000
     96          1           0       14.750000   18.920000   19.070000
     97          1           0       14.270000   17.770000   18.210000
     98          8           0       15.170000   21.650000   17.220000
     99          1           0       15.030000   21.740000   18.160000
    100          1           0       15.440000   20.740000   17.100000
    101          8           0       25.860000   21.280000   19.360000
    102          1           0       25.120000   21.780000   19.010000
    103          1           0       26.210000   21.840000   20.060000
    104          8           0       23.850000   24.200000   17.310000
    105          1           0       23.730000   23.670000   18.100000
    106          1           0       23.100000   23.990000   16.760000
    107          8           0       17.140000   21.160000   25.500000
    108          1           0       17.980000   21.610000   25.390000
    109          1           0       17.200000   20.400000   24.920000
    110          8           0       24.980000   16.390000   20.960000
    111          1           0       24.570000   16.930000   21.630000
    112          1           0       25.680000   15.930000   21.410000
    113          8           0       18.660000   25.270000   17.890000
    114          1           0       18.210000   25.300000   17.050000
    115          1           0       19.430000   25.830000   17.770000
    116          8           0       23.840000   22.020000   24.880000
    117          1           0       24.790000   22.040000   24.870000
    118          1           0       23.610000   21.120000   24.650000
    119          8           0       17.790000   24.890000   24.050000
    120          1           0       18.590000   24.570000   23.630000
    121          1           0       17.820000   25.830000   23.920000
    122          8           0       20.860000   24.860000   23.430000
    123          1           0       21.800000   24.770000   23.590000
    124          1           0       20.800000   25.370000   22.620000
    125          8           0       15.280000   19.100000   15.710000
    126          1           0       15.740000   19.930000   15.690000
    127          1           0       15.510000   18.680000   14.880000
    128          8           0       25.070000   22.260000   15.660000
    129          1           0       24.430000   21.640000   16.020000
    130          1           0       24.920000   23.070000   16.150000
    131          8           0       18.600000   17.690000   26.470000
    132          1           0       18.250000   18.000000   25.640000
    133          1           0       18.780000   18.490000   26.970000
    134          8           0       13.660000   22.520000   21.860000
    135          1           0       13.610000   22.090000   22.720000
    136          1           0       14.600000   22.650000   21.710000
    137          8           0       17.290000   14.000000   17.740000
    138          1           0       17.410000   13.480000   16.950000
    139          1           0       18.170000   14.280000   17.980000
    140          8           0       23.540000   24.570000   23.390000
    141          1           0       24.120000   25.060000   23.960000
    142          1           0       23.330000   23.770000   23.880000
    143          8           0       19.580000   20.420000   27.100000
    144          1           0       19.790000   21.040000   26.400000
    145          1           0       20.330000   20.460000   27.690000
    146          8           0       20.130000   13.830000   22.040000
    147          1           0       19.210000   13.560000   22.040000
    148          1           0       20.620000   13.010000   22.020000
    149          8           0       23.900000   25.690000   20.890000
    150          1           0       23.830000   25.020000   21.570000
    151          1           0       23.220000   26.320000   21.100000
    152          8           0       12.910000   19.440000   21.330000
    153          1           0       13.300000   19.750000   22.140000
    154          1           0       13.610000   18.950000   20.890000
    155          8           0       25.840000   16.260000   18.520000
    156          1           0       25.870000   17.110000   18.080000
    157          1           0       25.460000   16.450000   19.380000
    158          8           0       16.110000   23.450000   15.500000
    159          1           0       15.540000   23.080000   16.180000
    160          1           0       15.870000   22.980000   14.700000
    161          8           0       26.260000   18.880000   17.860000
    162          1           0       26.400000   19.730000   18.280000
    163          1           0       26.610000   18.990000   16.970000
    164          8           0       21.940000   13.600000   16.650000
    165          1           0       21.500000   14.050000   15.940000
    166          1           0       21.930000   14.220000   17.380000
    167          8           0       15.900000   15.850000   24.870000
    168          1           0       15.160000   15.330000   24.560000
    169          1           0       16.270000   16.240000   24.070000
    170          8           0       14.480000   18.810000   25.090000
    171          1           0       14.880000   18.290000   25.770000
    172          1           0       14.960000   18.590000   24.290000
    173          8           0       20.730000   12.420000   19.560000
    174          1           0       20.250000   13.130000   19.990000
    175          1           0       21.650000   12.700000   19.580000
    176          8           0       23.460000   14.060000   19.380000
    177          1           0       24.330000   13.910000   19.010000
    178          1           0       23.580000   13.910000   20.320000
    179          8           0       26.770000   21.730000   23.580000
    180          1           0       26.110000   21.150000   23.190000
    181          1           0       26.990000   22.340000   22.890000
    182          8           0       23.350000   13.910000   22.350000
    183          1           0       23.000000   14.380000   23.100000
    184          1           0       22.870000   13.080000   22.340000
    185          8           0       22.100000   22.570000   13.360000
    186          1           0       21.900000   21.630000   13.370000
    187          1           0       21.570000   22.920000   12.640000
    188          8           0       22.390000   14.990000   24.660000
    189          1           0       21.910000   15.540000   25.290000
    190          1           0       22.290000   14.100000   25.010000
    191          8           0       21.020000   16.440000   26.710000
    192          1           0       20.230000   16.950000   26.520000
    193          1           0       21.350000   16.810000   27.530000
    194          8           0       12.950000   21.680000   19.240000
    195          1           0       12.860000   20.740000   19.390000
    196          1           0       13.050000   22.050000   20.120000
    197          8           0       17.600000   12.790000   22.090000
    198          1           0       17.260000   13.500000   21.550000
    199          1           0       17.420000   12.000000   21.590000
    200          8           0       21.820000   18.760000   12.100000
    201          1           0       22.080000   17.850000   12.170000
    202          1           0       21.940000   19.120000   12.980000
    203          8           0       16.900000   17.960000   13.610000
    204          1           0       17.110000   17.040000   13.770000
    205          1           0       17.640000   18.290000   13.100000
    206          8           0       18.150000   22.570000   13.310000
    207          1           0       18.270000   22.020000   12.540000
[...]
   Y335      27.41993  -0.01319   0.00000  -0.00853  -0.00812  27.41180
   Z335      34.60089  -0.01110   0.00000  -0.00489  -0.00490  34.59599
   X336      23.64047  -0.00213   0.00000  -0.00223  -0.00257  23.63791
   Y336      28.49707   0.00443   0.00000   0.00415   0.00459  28.50166
   Z336      33.35367   0.00510   0.00000   0.00841   0.00844  33.36211
   X337      24.35857  -0.00587   0.00000  -0.00848  -0.00875  24.34982
   Y337      28.38369   0.01188   0.00000   0.00866   0.00904  28.39273
   Z337      36.13156   0.01139   0.00000   0.00590   0.00591  36.13748
   X338      27.94905   0.00177   0.00000   0.00893   0.00866  27.95771
   Y338      40.89367  -0.00564   0.00000   0.00214   0.00260  40.89627
   Z338      24.84990   0.01469   0.00000   0.01469   0.01479  24.86469
   X339      27.38213  -0.00950   0.00000  -0.01196  -0.01220  27.36993
   Y339      42.57553   0.01275   0.00000   0.00789   0.00836  42.58389
   Z339      24.56644  -0.00407   0.00000  -0.00463  -0.00450  24.56194
   X340      29.32855   0.00985   0.00000   0.00754   0.00724  29.33579
   Y340      40.66691  -0.00135   0.00000  -0.00128  -0.00084  40.66607
   Z340      23.71606  -0.00864   0.00000  -0.00690  -0.00684  23.70922
   X341      28.30810  -0.00054   0.00000   0.00958   0.00999  28.31809
   Y341      49.68090   0.01692   0.00000   0.02272   0.02287  49.70377
   Z341      47.12977   0.00266   0.00000   0.00106   0.00126  47.13103
   X342      29.61201   0.00311   0.00000  -0.00315  -0.00274  29.60927
   Y342      48.86832  -0.01561   0.00000  -0.02225  -0.02214  48.84618
   Z342      48.07463   0.00400   0.00000   0.00148   0.00164  48.07627
   X343      28.79943   0.00246   0.00000   0.00118   0.00155  28.80097
   Y343      49.43524  -0.00002   0.00000   0.00137   0.00154  49.43678
   Z343      45.39122  -0.00970   0.00000  -0.00846  -0.00828  45.38295
   X344      38.83387  -0.00045   0.00000  -0.00061  -0.00113  38.83274
   Y344      20.10669  -0.01490   0.00000  -0.00961  -0.00949  20.09720
   Z344      32.93793  -0.01278   0.00000  -0.01108  -0.01150  32.92643
   X345      38.83387   0.00032   0.00000   0.00152   0.00105  38.83492
   Y345      21.75075   0.00974   0.00000   0.00243   0.00255  21.75329
   Z345      33.69382   0.00777   0.00000   0.00454   0.00414  33.69795
   X346      38.36144  -0.00062   0.00000  -0.00069  -0.00120  38.36024
   Y346      18.99175   0.00509   0.00000   0.00672   0.00684  18.99859
   Z346      34.29853   0.00160   0.00000   0.00180   0.00137  34.29990
   X347      19.67205  -0.02517   0.00000  -0.02262  -0.02264  19.64941
   Y347      37.70004   0.00255   0.00000  -0.00221  -0.00176  37.69827
   Z347      38.90946  -0.00915   0.00000  -0.00401  -0.00377  38.90569
   X348      21.20273   0.01477   0.00000   0.00591   0.00588  21.20861
   Y348      36.92525  -0.00342   0.00000   0.00216   0.00257  36.92782
   Z348      39.43858   0.00377   0.00000  -0.00218  -0.00198  39.43660
   X349      19.42638   0.00288   0.00000   0.00355   0.00359  19.42997
   Y349      39.06064   0.00465   0.00000   0.00540   0.00584  39.06647
   Z349      40.08109   0.00181   0.00000  -0.00080  -0.00054  40.08055
   X350      54.04617   0.02367   0.00000   0.01707   0.01680  54.06296
   Y350      29.64980  -0.00125   0.00000   0.00074   0.00052  29.65032
   Z350      34.88434  -0.01824   0.00000  -0.01487  -0.01551  34.86884
   X351      52.26982  -0.01723   0.00000  -0.00738  -0.00765  52.26217
   Y351      29.95216   0.00199   0.00000   0.00020   0.00002  29.95218
   Z351      34.78986   0.00519   0.00000   0.00614   0.00555  34.79541
   X352      54.36742  -0.00722   0.00000  -0.01024  -0.01048  54.35694
   Y352      29.42304   0.00043   0.00000   0.00179   0.00154  29.42458
   Z352      36.64179   0.00852   0.00000   0.00265   0.00200  36.64379
   X353      20.88147  -0.00245   0.00000   0.00042   0.00051  20.88199
   Y353      45.08887   0.00166   0.00000   0.00527   0.00571  45.09458
   Z353      37.22760  -0.00875   0.00000  -0.00965  -0.00935  37.21826
   X354      21.07045   0.00218   0.00000   0.00245   0.00261  21.07305
   Y354      46.54395   0.00402   0.00000   0.00128   0.00170  46.54565
   Z354      38.28585   0.00725   0.00000   0.00800   0.00832  38.29418
   X355      22.22318  -0.00211   0.00000  -0.00735  -0.00727  22.21591
   Y355      43.97393  -0.00524   0.00000  -0.00705  -0.00664  43.96729
   Z355      37.73783   0.00159   0.00000   0.00088   0.00114  37.73897
   X356      27.70339   0.01157   0.00000   0.00947   0.00900  27.71239
   Y356      26.19160  -0.00400   0.00000  -0.00015   0.00025  26.19186
   Z356      29.40414  -0.00404   0.00000  -0.00352  -0.00362  29.40052
   X357      26.89080  -0.00186   0.00000   0.00354   0.00312  26.89392
   Y357      27.66559   0.01195   0.00000   0.00983   0.01024  27.67583
   Z357      30.08444   0.00587   0.00000   0.00531   0.00526  30.08970
   X358      26.32389  -0.00278   0.00000   0.00053   0.00003  26.32391
   Y358      25.13336  -0.00243   0.00000  -0.00120  -0.00076  25.13260
   Z358      28.89391  -0.00095   0.00000  -0.00001  -0.00008  28.89383
   X359      26.58845  -0.00756   0.00000  -0.00230  -0.00269  26.58575
   Y359      35.86700  -0.01567   0.00000  -0.01086  -0.01037  35.85663
   Z359      24.13180  -0.00789   0.00000  -0.00935  -0.00930  24.12251
   X360      28.32699   0.00985   0.00000   0.00842   0.00802  28.33501
   Y360      35.35678  -0.00501   0.00000  -0.00715  -0.00669  35.35008
   Z360      24.16960   0.00225   0.00000   0.00358   0.00359  24.17319
   X361      26.62624  -0.00143   0.00000  -0.00347  -0.00381  26.62243
   Y361      37.62445   0.01451   0.00000   0.00576   0.00625  37.63070
   Z361      24.50975   0.00667   0.00000   0.00740   0.00749  24.51723
   X362      41.42280  -0.00353   0.00000   0.00032   0.00004  41.42284
   Y362      21.95862   0.01221   0.00000   0.00536   0.00531  21.96393
   Z362      42.00861  -0.00660   0.00000   0.00041  -0.00005  42.00856
   X363      41.17713  -0.00312   0.00000  -0.00284  -0.00310  41.17403
   Y363      21.08934  -0.00903   0.00000  -0.00614  -0.00621  21.08314
   Z363      43.55819   0.01836   0.00000   0.01570   0.01524  43.57343
   X364      42.68891   0.00413   0.00000  -0.00103  -0.00135  42.68756
   Y364      21.01375  -0.00950   0.00000  -0.01011  -0.01017  21.00358
   Z364      41.13934  -0.00901   0.00000  -0.00990  -0.01040  41.12894
   X365      44.14400   0.00180   0.00000   0.00331   0.00275  44.14675
   Y365      25.32233   0.00557   0.00000   0.00342   0.00352  25.32585
   Z365      26.38058  -0.01612   0.00000  -0.00948  -0.00995  26.37063
   X366      43.63378  -0.00197   0.00000  -0.00113  -0.00173  43.63205
   Y366      23.60268  -0.00632   0.00000  -0.00434  -0.00423  23.59845
   Z366      26.15381   0.00168   0.00000   0.00288   0.00239  26.15620
   X367      44.29518   0.00052   0.00000   0.00011  -0.00041  44.29477
   Y367      25.51130   0.00331   0.00000   0.00514   0.00521  25.51651
   Z367      28.17582   0.01486   0.00000   0.00876   0.00829  28.18411
   X368      39.41969  -0.00154   0.00000  -0.00287  -0.00259  39.41710
   Y368      55.99259   0.00356   0.00000   0.00376   0.00384  55.99642
   Z368      35.50795  -0.00209   0.00000  -0.00130  -0.00127  35.50669
   X369      40.44014   0.00082   0.00000  -0.00018   0.00008  40.44022
   Y369      54.49970  -0.00047   0.00000   0.00144   0.00149  54.50119
   Z369      35.73472  -0.00288   0.00000  -0.00558  -0.00559  35.72913
   X370      38.41813  -0.00222   0.00000  -0.00296  -0.00264  38.41549
   Y370      56.08707  -0.00202   0.00000  -0.00352  -0.00345  56.08363
   Z370      37.01973   0.00216   0.00000   0.00184   0.00189  37.02163
   X371      24.39636  -0.00671   0.00000  -0.00453  -0.00427  24.39209
   Y371      37.85121   0.01599   0.00000   0.01359   0.01378  37.86499
   Z371      50.83363   0.00700   0.00000   0.00523   0.00536  50.83899
   X372      25.73807   0.00560   0.00000  -0.00053  -0.00032  25.73775
   Y372      37.07643  -0.00336   0.00000   0.00212   0.00229  37.07872
   Z372      49.88877  -0.00952   0.00000  -0.00923  -0.00914  49.87963
   X373      23.31922  -0.00145   0.00000  -0.00013   0.00010  23.31932
   Y373      36.47171  -0.00404   0.00000  -0.00118  -0.00098  36.47074
   Z373      51.30606  -0.00134   0.00000  -0.00317  -0.00303  51.30303
   X374      34.33632   0.00864   0.00000   0.00207   0.00253  34.33885
   Y374      52.08085   0.00228   0.00000   0.00350   0.00354  52.08439
   Z374      46.58175  -0.00828   0.00000  -0.00366  -0.00357  46.57818
   X375      33.95838  -0.00439   0.00000  -0.00589  -0.00540  33.95298
   Y375      53.83830   0.00751   0.00000   0.00745   0.00749  53.84579
   Z375      46.78962   0.00256   0.00000   0.00293   0.00306  46.79268
   X376      33.18359  -0.01000   0.00000  -0.00765  -0.00719  33.17640
   Y376      51.23048  -0.00333   0.00000   0.00029   0.00034  51.23081
   Z376      47.67779   0.01053   0.00000   0.00882   0.00893  47.68672
   X377      38.34254   0.00684   0.00000   0.00432   0.00408  38.34663
   Y377      45.48571  -0.01304   0.00000  -0.01278  -0.01250  45.47321
   Z377      21.82634   0.00282   0.00000  -0.00053  -0.00061  21.82573
   X378      36.73628  -0.00365   0.00000   0.00102   0.00081  36.73708
   Y378      45.71248   0.00346   0.00000   0.00393   0.00423  45.71671
   Z378      22.62002   0.00503   0.00000   0.00618   0.00614  22.62616
   X379      38.39924   0.00109   0.00000   0.00287   0.00262  38.40186
   Y379      46.73293   0.00686   0.00000   0.00323   0.00352  46.73645
   Z379      20.52243  -0.00580   0.00000  -0.00189  -0.00196  20.52047
   X380      52.98792   0.00931   0.00000   0.00568   0.00551  52.99343
   Y380      28.95060   0.01614   0.00000   0.00896   0.00870  28.95930
   Z380      40.04330  -0.00818   0.00000  -0.00157  -0.00219  40.04110
   X381      51.64622  -0.01380   0.00000  -0.00716  -0.00734  51.63887
   Y381      27.94905  -0.01136   0.00000  -0.00534  -0.00558  27.94347
   Z381      40.70470   0.01431   0.00000   0.01615   0.01554  40.72024
   X382      54.48080   0.00714   0.00000   0.00667   0.00648  54.48728
   Y382      28.00574  -0.00435   0.00000  -0.00203  -0.00233  28.00341
   Z382      40.42124   0.00513   0.00000   0.00702   0.00635  40.42759
   X383      36.67958  -0.01177   0.00000  -0.01014  -0.01004  36.66955
   Y383      54.34852   0.00163   0.00000   0.00030   0.00052  54.34905
   Z383      28.95060  -0.01219   0.00000  -0.00820  -0.00812  28.94248
   X384      37.75673   0.00848   0.00000   0.00745   0.00753  37.76426
   Y384      52.96902  -0.00143   0.00000   0.00406   0.00425  52.97328
   Z384      29.44193   0.00624   0.00000   0.00554   0.00557  29.44750
   X385      36.94415   0.00439   0.00000   0.00427   0.00443  36.94858
   Y385      55.59574   0.00098   0.00000  -0.00291  -0.00271  55.59303
   Z385      30.23562   0.00755   0.00000   0.00523   0.00531  30.24093
         Item               Value     Threshold  Converged?
 Maximum Force            0.042804     0.000450     NO 
 RMS     Force            0.010892     0.000300     NO 
 Maximum Displacement     0.034098     0.001800     NO 
 RMS     Displacement     0.008824     0.001200     NO 
 Predicted change in Energy=-7.580724D-02
 GradGradGradGradGradGradGradGradGradGradGradGradGradGradGradGradGradGrad

 Leave Link  103 at Tue May 15 16:16:59 2018, MaxMem= 14763950080 cpu:      3000.4
 (Enter /cm/shared/gaussian/g09.e01/intel64-sandybridge/g09/l9999.exe)
 1\1\GINC-POPLE03\Force\RPBE1PBE\CC-pVDZ\Br1H256O128(1-)\M.PELUSO\15-Ma
 y-2018\0\\#p PBE1PBE/cc-pvDZ force Counterpoise=2 noSymm\\forces on ch
 loride comput - NWATER: 128\\-1,1\Br,20.,20.,20.\O,23.12,20.3,20.52\H,
 22.22,20.19,20.22\H,23.22,21.25,20.64\O,20.8,20.14,23.1\H,20.45,20.13,
 22.21\H,21.33,19.35,23.16\O,18.46,17.47,21.14\H,18.63,18.28,20.67\H,19
 .17,17.4,21.77\O,20.3,19.42,16.81\H,20.35,19.52,17.77\H,19.47,18.97,16
 .67\O,20.71,22.84,18.73\H,20.33,23.09,17.89\H,20.53,21.9,18.8\O,17.13,
 19.61,18.61\H,17.8,19.86,19.24\H,17.5,18.85,18.15\O,17.49,20.45,22.87\
 H,16.95,21.22,23.05\H,18.34,20.82,22.6\O,23.48,18.13,18.78\H,23.28,18.
 75,19.48\H,24.4,18.31,18.56\O,19.25,15.39,18.97\H,19.24,16.22,19.46\H,
 20.11,15.37,18.55\O,23.18,23.03,19.57\H,22.32,23.06,19.16\H,23.18,23.7
 6,20.19\O,22.01,17.8,23.35\H,21.75,17.16,24.\H,21.83,17.38,22.51\O,23.
 71,20.22,16.84\H,23.01,19.73,17.27\H,24.49,20.02,17.36\O,21.47,16.26,2
 1.17\H,22.22,16.01,20.64\H,20.94,15.46,21.23\O,20.56,24.94,20.59\H,19.
 63,25.17,20.59\H,20.61,24.16,20.03\O,15.56,18.5,21.23\H,16.13,18.03,20
 .62\H,16.14,19.15,21.64\O,17.76,18.29,24.05\H,17.72,19.13,23.6\H,18.08
 ,17.68,23.39\O,18.96,23.11,16.12\H,18.43,22.62,16.75\H,18.47,23.05,15.
 3\O,17.57,20.58,15.36\H,18.31,20.23,15.86\H,17.97,21.12,14.68\O,22.08,
 16.01,18.21\H,22.6,16.81,18.23\H,22.57,15.39,18.76\O,19.7,22.05,24.82\
 H,20.25,21.48,24.27\H,19.85,22.93,24.47\O,17.37,24.03,20.25\H,17.63,23
 .86,19.34\H,16.93,24.87,20.22\O,18.24,17.56,16.55\H,18.96,16.94,16.47\
 H,17.53,17.17,16.02\O,16.15,16.43,18.52\H,16.83,16.99,18.14\H,16.31,15
 .57,18.12\O,16.44,22.94,22.57\H,16.93,23.25,21.82\H,16.7,23.52,23.29\O
 ,16.51,15.79,21.74\H,16.06,15.96,20.91\H,17.22,16.44,21.76\O,21.89,19.
 69,14.66\H,21.15,19.61,15.26\H,22.57,20.11,15.18\O,21.47,16.66,15.44\H
 ,21.32,16.93,16.35\H,21.86,17.43,15.03\O,25.32,19.66,22.2\H,26.1,19.29
 ,21.78\H,24.72,19.84,21.49\O,19.22,16.03,23.45\H,19.4,15.84,24.37\H,19
 .7,15.36,22.96\O,21.69,23.35,15.93\H,20.73,23.41,15.95\H,21.88,22.96,1
 5.07\O,23.98,19.18,24.52\H,24.56,19.39,23.79\H,23.22,18.78,24.11\O,13.
 96,18.53,18.71\H,14.75,18.92,19.07\H,14.27,17.77,18.21\O,15.17,21.65,1
 7.22\H,15.03,21.74,18.16\H,15.44,20.74,17.1\O,25.86,21.28,19.36\H,25.1
 2,21.78,19.01\H,26.21,21.84,20.06\O,23.85,24.2,17.31\H,23.73,23.67,18.
 1\H,23.1,23.99,16.76\O,17.14,21.16,25.5\H,17.98,21.61,25.39\H,17.2,20.
 4,24.92\O,24.98,16.39,20.96\H,24.57,16.93,21.63\H,25.68,15.93,21.41\O,
 18.66,25.27,17.89\H,18.21,25.3,17.05\H,19.43,25.83,17.77\O,23.84,22.02
 ,24.88\H,24.79,22.04,24.87\H,23.61,21.12,24.65\O,17.79,24.89,24.05\H,1
 8.59,24.57,23.63\H,17.82,25.83,23.92\O,20.86,24.86,23.43\H,21.8,24.77,
 23.59\H,20.8,25.37,22.62\O,15.28,19.1,15.71\H,15.74,19.93,15.69\H,15.5
 1,18.68,14.88\O,25.07,22.26,15.66\H,24.43,21.64,16.02\H,24.92,23.07,16
 .15\O,18.6,17.69,26.47\H,18.25,18.,25.64\H,18.78,18.49,26.97\O,13.66,2
 2.52,21.86\H,13.61,22.09,22.72\H,14.6,22.65,21.71\O,17.29,14.,17.74\H,
 17.41,13.48,16.95\H,18.17,14.28,17.98\O,23.54,24.57,23.39\H,24.12,25.0
 6,23.96\H,23.33,23.77,23.88\O,19.58,20.42,27.1\H,19.79,21.04,26.4\H,20
 .33,20.46,27.69\O,20.13,13.83,22.04\H,19.21,13.56,22.04\H,20.62,13.01,
 22.02\O,23.9,25.69,20.89\H,23.83,25.02,21.57\H,23.22,26.32,21.1\O,12.9
 1,19.44,21.33\H,13.3,19.75,22.14\H,13.61,18.95,20.89\O,25.84,16.26,18.
 52\H,25.87,17.11,18.08\H,25.46,16.45,19.38\O,16.11,23.45,15.5\H,15.54,
 23.08,16.18\H,15.87,22.98,14.7\O,26.26,18.88,17.86\H,26.4,19.73,18.28\
 H,26.61,18.99,16.97\O,21.94,13.6,16.65\H,21.5,14.05,15.94\H,21.93,14.2
 2,17.38\O,15.9,15.85,24.87\H,15.16,15.33,24.56\H,16.27,16.24,24.07\O,1
 4.48,18.81,25.09\H,14.88,18.29,25.77\H,14.96,18.59,24.29\O,20.73,12.42
 ,19.56\H,20.25,13.13,19.99\H,21.65,12.7,19.58\O,23.46,14.06,19.38\H,24
 .33,13.91,19.01\H,23.58,13.91,20.32\O,26.77,21.73,23.58\H,26.11,21.15,
 23.19\H,26.99,22.34,22.89\O,23.35,13.91,22.35\H,23.,14.38,23.1\H,22.87
 ,13.08,22.34\O,22.1,22.57,13.36\H,21.9,21.63,13.37\H,21.57,22.92,12.64
 \O,22.39,14.99,24.66\H,21.91,15.54,25.29\H,22.29,14.1,25.01\O,21.02,16
 .44,26.71\H,20.23,16.95,26.52\H,21.35,16.81,27.53\O,12.95,21.68,19.24\
 H,12.86,20.74,19.39\H,13.05,22.05,20.12\O,17.6,12.79,22.09\H,17.26,13.
 5,21.55\H,17.42,12.,21.59\O,21.82,18.76,12.1\H,22.08,17.85,12.17\H,21.
 94,19.12,12.98\O,16.9,17.96,13.61\H,17.11,17.04,13.77\H,17.64,18.29,13
 .1\O,18.15,22.57,13.31\H,18.27,22.02,12.54\H,17.82,23.4,12.96\O,13.69,
 15.35,21.3\H,13.2,16.01,21.78\H,14.52,15.27,21.76\O,17.07,15.38,14.92\
 H,16.26,14.88,14.93\H,17.75,14.73,15.07\O,22.82,23.24,27.03\H,22.53,24
 .14,26.91\H,23.05,22.94,26.15\O,24.02,18.62,27.15\H,23.32,19.14,27.55\
 H,24.04,18.9,26.24\O,21.15,25.2,26.04\H,20.98,25.42,25.12\H,20.27,25.0
 5,26.41\O,12.84,23.39,16.86\H,13.72,23.15,17.14\H,12.28,23.16,17.6\O,1
 5.,23.27,25.71\H,14.62,23.3,26.59\H,15.56,22.5,25.71\O,16.51,26.17,15.
 81\H,15.86,26.57,15.23\H,16.36,25.23,15.72\O,13.67,16.66,15.94\H,13.87
 ,17.58,16.06\H,12.77,16.56,16.26\O,12.81,20.23,15.98\H,13.61,19.84,15.
 65\H,13.09,21.05,16.39\O,13.5,21.65,24.19\H,14.1,22.24,24.65\H,13.,21.
 22,24.88\O,20.55,14.55,13.65\H,20.95,14.08,12.92\H,21.15,15.27,13.85\O
 ,25.18,26.58,17.44\H,24.83,25.7,17.56\H,25.84,26.48,16.76\O,19.84,27.4
 4,22.55\H,20.35,27.76,23.29\H,18.93,27.46,22.86\O,17.47,13.31,24.7\H,1
 7.46,13.01,23.79\H,17.22,14.24,24.64\O,22.42,27.94,21.4\H,21.52,27.64,
 21.44\H,22.55,28.42,22.22\O,15.28,13.1,19.2\H,14.66,13.83,19.25\H,15.9
 1,13.37,18.53\O,21.47,27.14,16.37\H,22.06,26.51,15.95\H,21.9,27.37,17.
 19\O,25.9,14.7,22.96\H,25.94,14.37,23.85\H,25.07,14.39,22.61\O,27.7,18
 .26,21.3\H,28.47,18.54,20.82\H,27.82,17.32,21.42\O,25.56,14.42,16.27\H
 ,25.55,15.34,16.54\H,25.81,13.94,17.05\O,14.41,26.26,19.51\H,13.69,26.
 59,18.97\H,14.09,25.44,19.88\O,15.93,17.33,27.32\H,16.48,17.03,26.59\H
 ,16.49,17.95,27.79\O,19.24,19.02,12.05\H,20.18,18.85,12.\H,19.05,19.5,
 11.24\O,27.36,23.35,20.69\H,26.99,24.17,20.36\H,28.3,23.43,20.53\O,16.
 08,26.78,22.14\H,15.71,26.78,21.26\H,16.44,27.66,22.25\O,24.66,21.58,1
 3.09\H,23.93,22.13,12.79\H,24.99,22.02,13.87\O,23.06,27.82,18.55\H,23.
 1,28.,19.49\H,23.71,27.13,18.41\O,22.06,20.76,28.17\H,22.57,20.6,28.96
 \H,22.49,21.5,27.75\O,18.53,13.28,15.36\H,19.29,13.42,14.79\H,18.36,12
 .34,15.3\O,16.36,28.02,18.87\H,15.72,27.38,19.19\H,16.93,27.52,18.29\O
 ,19.13,24.1,27.59\H,19.73,23.88,28.3\H,18.56,23.34,27.51\O,13.06,24.92
 ,23.5\H,13.44,25.47,24.19\H,13.63,24.15,23.47\O,23.13,16.05,12.91\H,23
 .29,15.11,12.93\H,23.81,16.43,13.47\O,25.48,17.21,13.83\H,25.93,17.53,
 14.62\H,25.67,17.87,13.16\O,11.38,16.76,19.8\H,11.54,16.5,20.71\H,12.0
 3,17.43,19.62\O,26.58,26.,20.16\H,25.67,26.22,20.33\H,26.73,26.3,19.27
 \O,27.59,23.03,15.31\H,26.82,22.57,15.66\H,27.77,23.71,15.96\O,12.09,1
 6.93,22.45\H,11.6,16.75,23.25\H,12.1,17.88,22.39\O,29.52,21.34,20.08\H
 ,28.56,21.43,20.1\H,29.77,21.61,19.2\O,26.17,20.68,26.38\H,26.53,20.05
 ,25.75\H,25.73,20.13,27.04\O,20.38,12.77,26.02\H,19.8,13.14,25.35\H,19
 .79,12.38,26.66\O,12.91,14.51,18.31\H,12.51,15.08,17.65\H,12.89,15.02,
 19.12\O,14.79,21.64,13.15\H,14.49,22.53,13.\H,15.52,21.52,12.55\O,14.9
 8,26.29,24.94\H,15.67,25.86,25.44\H,15.24,26.16,24.02\O,20.55,10.64,17
 .43\H,20.55,11.51,17.83\H,20.3,10.05,18.15\O,10.41,19.95,20.59\H,11.22
 ,19.54,20.87\H,10.28,20.67,21.21\O,28.6,15.69,18.46\H,27.66,15.85,18.4
 1\H,28.77,15.57,19.39\O,11.05,23.86,19.7\H,11.15,24.63,20.26\H,11.76,2
 3.27,19.97\O,14.66,13.86,15.56\H,14.23,14.64,15.92\H,13.93,13.3,15.29\
 O,14.07,18.98,12.77\H,14.99,18.71,12.79\H,14.09,19.91,12.97\O,21.92,11
 .62,22.23\H,21.79,11.16,23.05\H,22.59,11.12,21.77\O,23.36,13.4,13.96\H
 ,23.09,12.49,13.84\H,23.44,13.5,14.91\O,20.86,29.63,18.79\H,21.4,28.84
 ,18.91\H,20.33,29.68,19.59\O,12.91,20.03,26.9\H,13.62,19.62,26.4\H,12.
 34,19.3,27.15\O,18.17,27.56,24.65\H,17.97,28.49,24.76\H,17.56,27.11,25
 .23\O,20.29,24.07,11.55\H,19.44,24.19,11.97\H,20.32,24.73,10.86\O,28.0
 4,15.32,21.19\H,27.33,14.79,21.54\H,28.83,14.82,21.39\O,19.41,28.76,15
 .32\H,19.98,28.03,15.58\H,19.55,29.42,16.\\Version=ES64L-G09RevE.01\HF
 =-9773.4918333\RMSD=2.173e-09\RMSF=1.089e-02\Dipole=9.5742357,0.517091
 1,3.5018798\Quadrupole=245.954323,-217.2484502,-28.7058728,-1077.70647
 49,-910.2200236,-1280.0018005\PG=C01 [X(Br1H256O128)]\\@


 ONLY THE DAY DAWNS TO WHICH YOU ARE AWAKE.

                                 -- THOREAU
 Job cpu time:       7 days 19 hours 47 minutes 15.8 seconds.
 File lengths (MBytes):  RWF=   7285 Int=      0 D2E=      0 Chk=   2411 Scr=      1
 Normal termination of Gaussian 09 at Tue May 15 16:17:28 2018.
