 Entering Gaussian System, Link 0=/cm/shared/gaussian/g09.e01/intel64-sandybridge/g09/g09
 Initial command:
 /cm/shared/gaussian/g09.e01/intel64-sandybridge/g09/l1.exe "/local/scratch/m.peluso/128_wat/order/Gau-12407.inp" -scrdir="/local/scratch/m.peluso/128_wat/order/"
 Entering Link 1 = /cm/shared/gaussian/g09.e01/intel64-sandybridge/g09/l1.exe PID=     12408.
  
 Copyright (c) 1988,1990,1992,1993,1995,1998,2003,2009,2015,
            Gaussian, Inc.  All Rights Reserved.
  
 This is part of the Gaussian(R) 09 program.  It is based on
 the Gaussian(R) 03 system (copyright 2003, Gaussian, Inc.),
 the Gaussian(R) 98 system (copyright 1998, Gaussian, Inc.),
 the Gaussian(R) 94 system (copyright 1995, Gaussian, Inc.),
 the Gaussian 92(TM) system (copyright 1992, Gaussian, Inc.),
 the Gaussian 90(TM) system (copyright 1990, Gaussian, Inc.),
 the Gaussian 88(TM) system (copyright 1988, Gaussian, Inc.),
 the Gaussian 86(TM) system (copyright 1986, Carnegie Mellon
 University), and the Gaussian 82(TM) system (copyright 1983,
 Carnegie Mellon University). Gaussian is a federally registered
 trademark of Gaussian, Inc.
  
 This software contains proprietary and confidential information,
 including trade secrets, belonging to Gaussian, Inc.
  
 This software is provided under written license and may be
 used, copied, transmitted, or stored only in accord with that
 written license.
  
 The following legend is applicable only to US Government
 contracts under FAR:
  
                    RESTRICTED RIGHTS LEGEND
  
 Use, reproduction and disclosure by the US Government is
 subject to restrictions as set forth in subparagraphs (a)
 and (c) of the Commercial Computer Software - Restricted
 Rights clause in FAR 52.227-19.
  
 Gaussian, Inc.
 340 Quinnipiac St., Bldg. 40, Wallingford CT 06492
  
  
 ---------------------------------------------------------------
 Warning -- This program may not be used in any manner that
 competes with the business of Gaussian, Inc. or will provide
 assistance to any competitor of Gaussian, Inc.  The licensee
 of this program is prohibited from giving any competitor of
 Gaussian, Inc. access to this program.  By using this program,
 the user acknowledges that Gaussian, Inc. is engaged in the
 business of creating and licensing software in the field of
 computational chemistry and represents and warrants to the
 licensee that it is not a competitor of Gaussian, Inc. and that
 it will not use this program in any manner prohibited above.
 ---------------------------------------------------------------
  

 Cite this work as:
 Gaussian 09, Revision E.01,
 M. J. Frisch, G. W. Trucks, H. B. Schlegel, G. E. Scuseria, 
 M. A. Robb, J. R. Cheeseman, G. Scalmani, V. Barone, B. Mennucci, 
 G. A. Petersson, H. Nakatsuji, M. Caricato, X. Li, H. P. Hratchian, 
 A. F. Izmaylov, J. Bloino, G. Zheng, J. L. Sonnenberg, M. Hada, 
 M. Ehara, K. Toyota, R. Fukuda, J. Hasegawa, M. Ishida, T. Nakajima, 
 Y. Honda, O. Kitao, H. Nakai, T. Vreven, J. A. Montgomery, Jr., 
 J. E. Peralta, F. Ogliaro, M. Bearpark, J. J. Heyd, E. Brothers, 
 K. N. Kudin, V. N. Staroverov, T. Keith, R. Kobayashi, J. Normand, 
 K. Raghavachari, A. Rendell, J. C. Burant, S. S. Iyengar, J. Tomasi, 
 M. Cossi, N. Rega, J. M. Millam, M. Klene, J. E. Knox, J. B. Cross, 
 V. Bakken, C. Adamo, J. Jaramillo, R. Gomperts, R. E. Stratmann, 
 O. Yazyev, A. J. Austin, R. Cammi, C. Pomelli, J. W. Ochterski, 
 R. L. Martin, K. Morokuma, V. G. Zakrzewski, G. A. Voth, 
 P. Salvador, J. J. Dannenberg, S. Dapprich, A. D. Daniels, 
 O. Farkas, J. B. Foresman, J. V. Ortiz, J. Cioslowski, 
 and D. J. Fox, Gaussian, Inc., Wallingford CT, 2013.
 
 ******************************************
 Gaussian 09:  ES64L-G09RevE.01 30-Nov-2015
                15-May-2018 
 ******************************************
 %Mem=110GB
 %NProcShared=64
 Will use up to   64 processors via shared memory.
 %chk=snap14.chk
 ----------------------------------------------
 #p PBE1PBE/cc-pvDZ force Counterpoise=2 noSymm
 ----------------------------------------------
 1/10=7,30=1,38=1,62=2/1,3;
 2/12=2,15=1,17=6,18=5,40=1/2;
 1/10=7,30=1,38=1,53=2,62=2,63=101/22;
 3/5=16,11=2,16=1,25=1,30=1,71=1,74=-13/1,2,3;
 4//1;
 5/5=2,38=5/2;
 6/7=2,8=2,9=2,10=2,28=1/1;
 7/7=1,29=1,30=1,33=-1/1,2,3,16;
 1/10=7,30=1,53=2,62=2,63=101/22;
 3/5=7,6=11,11=2,16=1,25=1,30=1,71=1,74=-13,82=7/1,2,3;
 4//1;
 5/5=2,38=5/2;
 6/7=2,8=2,9=2,10=2,28=1/1;
 7/7=1,29=1,30=1,33=-1/1,2,3,16;
 1/10=7,30=1,53=2,62=2,63=101/22(-5);
 7/9=1,29=1,44=-1/16;
 1/10=7,30=1,62=2/3;
 99//99;
 Leave Link    1 at Tue May 15 10:23:19 2018, MaxMem= 14763950080 cpu:         8.9
 (Enter /cm/shared/gaussian/g09.e01/intel64-sandybridge/g09/l101.exe)
 ---------------------------------------
 forces on chloride comput - NWATER: 128
 ---------------------------------------
 Symbolic Z-matrix:
 Charge = -1 Multiplicity = 1 in supermolecule
 Charge = -1 Multiplicity = 1 in fragment      1.
 Charge =  0 Multiplicity = 1 in fragment      2.
 Br(Fragment=1)        20.       20.       20. 
 O(Fragment=2)         22.14     18.38     21.5 
 H(Fragment=2)         22.32     17.78     20.77 
 H(Fragment=2)         21.4      18.9      21.19 
 O(Fragment=2)         18.54     17.41     21.1 
 H(Fragment=2)         18.84     18.29     20.87 
 H(Fragment=2)         18.07     17.52     21.92 
 O(Fragment=2)         22.92     20.86     18.6 
 H(Fragment=2)         22.07     20.53     18.91 
 H(Fragment=2)         22.97     20.58     17.69 
 O(Fragment=2)         17.31     20.34     17.81 
 H(Fragment=2)         18.01     20.26     18.47 
 H(Fragment=2)         17.29     19.49     17.38 
 O(Fragment=2)         19.69     19.84     23.49 
 H(Fragment=2)         19.92     20.       22.57 
 H(Fragment=2)         19.02     19.16     23.45 
 O(Fragment=2)         21.16     22.95     21.61 
 H(Fragment=2)         21.85     23.36     21.09 
 H(Fragment=2)         20.76     22.31     21.02 
 O(Fragment=2)         19.77     22.6      17.57 
 H(Fragment=2)         19.96     21.84     18.11 
 H(Fragment=2)         18.94     22.94     17.91 
 O(Fragment=2)         17.11     20.95     21.71 
 H(Fragment=2)         17.59     20.43     21.07 
 H(Fragment=2)         17.72     21.05     22.44 
 O(Fragment=2)         24.31     20.36     21.46 
 H(Fragment=2)         23.61     19.76     21.71 
 H(Fragment=2)         24.4      20.25     20.52 
 O(Fragment=2)         18.24     15.34     19.56 
 H(Fragment=2)         18.11     16.27     19.71 
 H(Fragment=2)         18.6      15.01     20.38 
 O(Fragment=2)         23.12     16.92     19.42 
 H(Fragment=2)         22.41     16.76     18.8 
 H(Fragment=2)         23.73     17.49     18.95 
 O(Fragment=2)         21.28     21.2      15.48 
 H(Fragment=2)         20.91     21.67     16.24 
 H(Fragment=2)         20.65     21.36     14.78 
 O(Fragment=2)         19.52     23.45     23.95 
 H(Fragment=2)         20.07     24.18     24.26 
 H(Fragment=2)         20.08     22.99     23.32 
 O(Fragment=2)         22.08     18.98     24.69 
 H(Fragment=2)         21.87     18.36     23.99 
 H(Fragment=2)         21.49     19.72     24.54 
 O(Fragment=2)         17.15     21.56     15.39 
 H(Fragment=2)         17.38     21.       16.13 
 H(Fragment=2)         16.75     22.34     15.79 
 O(Fragment=2)         21.7      18.57     15.53 
 H(Fragment=2)         21.02     18.18     14.99 
 H(Fragment=2)         21.53     19.51     15.48 
 O(Fragment=2)         17.47     18.09     16.2 
 H(Fragment=2)         17.16     18.25     15.3 
 H(Fragment=2)         18.36     17.77     16.08 
 O(Fragment=2)         17.67     17.76     23.56 
 H(Fragment=2)         17.59     17.76     24.52 
 H(Fragment=2)         16.82     18.05     23.25 
 O(Fragment=2)         22.01     16.3      16.95 
 H(Fragment=2)         21.38     15.67     16.59 
 H(Fragment=2)         21.79     17.13     16.51 
 O(Fragment=2)         19.32     25.43     21.7 
 H(Fragment=2)         19.14     24.93     22.5 
 H(Fragment=2)         19.56     24.76     21.06 
 O(Fragment=2)         15.44     19.21     23. 
 H(Fragment=2)         15.67     19.95     22.44 
 H(Fragment=2)         14.89     19.58     23.68 
 O(Fragment=2)         22.44     24.45     19.65 
 H(Fragment=2)         23.17     24.94     20.03 
 H(Fragment=2)         22.77     24.13     18.81 
 O(Fragment=2)         17.64     24.52     19.01 
 H(Fragment=2)         16.88     23.95     18.89 
 H(Fragment=2)         17.65     24.72     19.95 
 O(Fragment=2)         23.25     16.33     23.58 
 H(Fragment=2)         23.54     15.43     23.4 
 H(Fragment=2)         23.15     16.73     22.72 
 O(Fragment=2)         20.17     20.9      26.23 
 H(Fragment=2)         19.92     20.79     25.31 
 H(Fragment=2)         21.03     21.32     26.2 
 O(Fragment=2)         25.68     21.92     18.5 
 H(Fragment=2)         25.79     21.75     19.43 
 H(Fragment=2)         24.75     22.13     18.4 
 O(Fragment=2)         16.35     24.33     22.09 
 H(Fragment=2)         16.58     23.47     22.46 
 H(Fragment=2)         15.41     24.41     22.26 
 O(Fragment=2)         24.37     18.19     16.67 
 H(Fragment=2)         23.51     17.88     16.38 
 H(Fragment=2)         25.       17.68     16.15 
 O(Fragment=2)         19.39     15.93     24.92 
 H(Fragment=2)         19.02     16.73     24.54 
 H(Fragment=2)         18.82     15.74     25.67 
 O(Fragment=2)         23.76     14.81     21. 
 H(Fragment=2)         23.62     15.62     20.51 
 H(Fragment=2)         22.99     14.28     20.82 
 O(Fragment=2)         24.82     20.41     24.38 
 H(Fragment=2)         24.22     21.       24.81 
 H(Fragment=2)         24.72     20.6      23.44 
 O(Fragment=2)         20.77     26.53     18.64 
 H(Fragment=2)         21.13     25.77     19.08 
 H(Fragment=2)         21.52     27.12     18.52 
 O(Fragment=2)         14.15     18.4      17.31 
 H(Fragment=2)         14.64     17.66     16.97 
 H(Fragment=2)         14.75     19.15     17.22 
 O(Fragment=2)         23.58     22.69     14.88 
 H(Fragment=2)         22.88     23.31     15.11 
 H(Fragment=2)         23.31     21.86     15.27 
 O(Fragment=2)         21.46     13.48     20.14 
 H(Fragment=2)         21.8      13.18     19.3 
 H(Fragment=2)         20.65     13.95     19.92 
 O(Fragment=2)         19.19     14.35     22.7 
 H(Fragment=2)         19.51     14.92     23.4 
 H(Fragment=2)         18.24     14.52     22.67 
 O(Fragment=2)         14.86     15.85     19.54 
 H(Fragment=2)         15.24     16.2      18.73 
 H(Fragment=2)         14.13     15.3      19.25 
 O(Fragment=2)         17.42     22.78     25.84 
 H(Fragment=2)         16.92     23.52     25.49 
 H(Fragment=2)         18.25     22.81     25.37 
 O(Fragment=2)         15.52     23.71     16.54 
 H(Fragment=2)         15.41     23.58     17.48 
 H(Fragment=2)         14.92     24.42     16.33 
 O(Fragment=2)         22.52     22.29     25.46 
 H(Fragment=2)         23.02     22.44     26.27 
 H(Fragment=2)         22.83     22.97     24.86 
 O(Fragment=2)         19.26     22.08     13.81 
 H(Fragment=2)         19.57     22.95     14.07 
 H(Fragment=2)         18.38     22.02     14.19 
 O(Fragment=2)         26.       20.21     16.45 
 H(Fragment=2)         25.42     19.48     16.66 
 H(Fragment=2)         26.04     20.72     17.26 
 O(Fragment=2)         25.82     22.79     22.87 
 H(Fragment=2)         26.75     22.98     22.76 
 H(Fragment=2)         25.61     22.21     22.14 
 O(Fragment=2)         14.59     16.54     22.28 
 H(Fragment=2)         14.71     16.65     21.34 
 H(Fragment=2)         14.58     17.43     22.63 
 O(Fragment=2)         17.7      13.4      17.85 
 H(Fragment=2)         18.56     13.26     17.47 
 H(Fragment=2)         17.81     14.16     18.42 
 O(Fragment=2)         14.58     23.73     19.44 
 H(Fragment=2)         14.15     22.94     19.11 
 H(Fragment=2)         14.66     23.58     20.38 
 O(Fragment=2)         15.75     15.89     16.83 
 H(Fragment=2)         16.38     15.19     17.03 
 H(Fragment=2)         16.2      16.44     16.19 
 O(Fragment=2)         18.08     24.62     15.4 
 H(Fragment=2)         18.37     25.12     16.16 
 H(Fragment=2)         17.28     24.18     15.69 
 O(Fragment=2)         18.33     26.64     17.76 
 H(Fragment=2)         17.92     26.09     18.43 
 H(Fragment=2)         19.25     26.67     18. 
 O(Fragment=2)         21.7      26.82     22.2 
 H(Fragment=2)         20.97     26.29     21.9 
 H(Fragment=2)         21.54     27.69     21.82 
 O(Fragment=2)         24.4      24.4      17.66 
 H(Fragment=2)         24.2      24.98     16.92 
 H(Fragment=2)         25.21     24.75     18.02 
 O(Fragment=2)         19.72     14.97     15.65 
 H(Fragment=2)         20.21     15.14     14.85 
 H(Fragment=2)         18.99     14.41     15.37 
 O(Fragment=2)         18.14     18.35     26.19 
 H(Fragment=2)         18.1      19.28     26.4 
 H(Fragment=2)         17.52     17.93     26.79 
 O(Fragment=2)         19.62     18.19     13.58 
 H(Fragment=2)         19.98     18.66     12.83 
 H(Fragment=2)         19.55     17.28     13.27 
 O(Fragment=2)         23.26     13.69     17.26 
 H(Fragment=2)         23.09     13.54     16.33 
 H(Fragment=2)         23.1      14.63     17.38 
 O(Fragment=2)         23.54     24.88     23.72 
 H(Fragment=2)         23.21     25.61     23.19 
 H(Fragment=2)         24.11     24.39     23.13 
 O(Fragment=2)         12.85     18.03     19.75 
 H(Fragment=2)         13.34     18.65     20.31 
 H(Fragment=2)         13.34     18.01     18.93 
 O(Fragment=2)         14.4      21.15     15.2 
 H(Fragment=2)         14.13     20.33     14.78 
 H(Fragment=2)         15.36     21.16     15.11 
 O(Fragment=2)         20.97     17.74     27.04 
 H(Fragment=2)         20.09     18.08     26.86 
 H(Fragment=2)         21.54     18.21     26.42 
 O(Fragment=2)         16.44     14.03     21.99 
 H(Fragment=2)         15.89     13.57     21.36 
 H(Fragment=2)         15.99     14.86     22.14 
 O(Fragment=2)         16.9      18.38     13.55 
 H(Fragment=2)         16.68     18.06     12.68 
 H(Fragment=2)         17.86     18.4      13.56 
 O(Fragment=2)         13.15     20.51     21.34 
 H(Fragment=2)         13.12     21.39     21.71 
 H(Fragment=2)         12.69     20.59     20.5 
 O(Fragment=2)         21.63     25.01     15.07 
 H(Fragment=2)         22.18     25.75     15.34 
 H(Fragment=2)         20.75     25.24     15.38 
 O(Fragment=2)         13.27     21.67     17.86 
 H(Fragment=2)         12.48     21.12     17.94 
 H(Fragment=2)         13.67     21.39     17.04 
 O(Fragment=2)         24.91     17.83     25.72 
 H(Fragment=2)         24.58     17.15     25.13 
 H(Fragment=2)         24.5      18.64     25.4 
 O(Fragment=2)         18.49     27.83     21.82 
 H(Fragment=2)         18.86     26.95     21.71 
 H(Fragment=2)         19.26     28.4      21.91 
 O(Fragment=2)         21.21     25.37     24.93 
 H(Fragment=2)         21.26     26.19     24.45 
 H(Fragment=2)         22.09     25.       24.87 
 O(Fragment=2)         26.25     15.84     22.32 
 H(Fragment=2)         26.57     16.58     21.81 
 H(Fragment=2)         25.56     15.45     21.77 
 O(Fragment=2)         22.69     14.91     26.02 
 H(Fragment=2)         23.46     14.38     25.79 
 H(Fragment=2)         22.69     15.61     25.37 
 O(Fragment=2)         16.14     25.03     24.7 
 H(Fragment=2)         15.26     25.38     24.86 
 H(Fragment=2)         16.32     25.26     23.79 
 O(Fragment=2)         20.87     12.2      22.43 
 H(Fragment=2)         21.16     12.32     21.53 
 H(Fragment=2)         20.37     13.       22.63 
 O(Fragment=2)         23.58     16.79     13.22 
 H(Fragment=2)         23.62     16.94     14.17 
 H(Fragment=2)         23.73     17.66     12.84 
 O(Fragment=2)         27.48     17.89     20.41 
 H(Fragment=2)         27.4      18.64     19.83 
 H(Fragment=2)         27.97     17.24     19.9 
 O(Fragment=2)         13.6      23.54     21.96 
 H(Fragment=2)         13.49     23.33     22.89 
 H(Fragment=2)         12.8      24.       21.72 
 O(Fragment=2)         20.46     13.54     25.44 
 H(Fragment=2)         21.37     13.83     25.49 
 H(Fragment=2)         19.98     14.31     25.14 
 O(Fragment=2)         17.68     11.89     20.23 
 H(Fragment=2)         17.51     12.68     19.73 
 H(Fragment=2)         17.77     12.19     21.14 
 O(Fragment=2)         18.95     21.13     11.47 
 H(Fragment=2)         19.17     21.35     12.37 
 H(Fragment=2)         19.32     21.84     10.95 
 O(Fragment=2)         27.87     20.25     19.16 
 H(Fragment=2)         28.68     20.68     18.89 
 H(Fragment=2)         27.78     20.47     20.08 
 O(Fragment=2)         25.27     25.76     20.81 
 H(Fragment=2)         25.73     25.37     20.07 
 H(Fragment=2)         25.95     26.23     21.3 
 O(Fragment=2)         25.59     20.79     13.77 
 H(Fragment=2)         25.       21.49     14.03 
 H(Fragment=2)         25.64     20.22     14.54 
 O(Fragment=2)         24.84     13.05     19.17 
 H(Fragment=2)         24.16     13.2      18.52 
 H(Fragment=2)         24.56     13.58     19.92 
 O(Fragment=2)         27.35     19.72     24.54 
 H(Fragment=2)         26.46     20.06     24.54 
 H(Fragment=2)         27.26     18.8      24.78 
 O(Fragment=2)         19.06     21.46     28.73 
 H(Fragment=2)         19.4      21.48     27.84 
 H(Fragment=2)         18.26     20.94     28.66 
 O(Fragment=2)         28.05     22.81     17.25 
 H(Fragment=2)         27.19     22.61     17.62 
 H(Fragment=2)         28.67     22.46     17.89 
 O(Fragment=2)         15.94     27.52     19.93 
 H(Fragment=2)         15.09     27.55     20.36 
 H(Fragment=2)         16.55     27.23     20.61 
 O(Fragment=2)         15.49     21.5      27.56 
 H(Fragment=2)         16.18     21.79     26.96 
 H(Fragment=2)         15.88     20.77     28.04 
 O(Fragment=2)         16.97     14.79     25.53 
 H(Fragment=2)         16.07     14.95     25.8 
 H(Fragment=2)         17.1      13.85     25.67 
 O(Fragment=2)         26.15     16.67     15.5 
 H(Fragment=2)         26.32     16.23     14.67 
 H(Fragment=2)         26.95     16.55     16.01 
 O(Fragment=2)         13.81     20.46     25.61 
 H(Fragment=2)         13.54     19.65     26.04 
 H(Fragment=2)         14.4      20.88     26.24 
 O(Fragment=2)         23.38     26.68     16.22 
 H(Fragment=2)         23.92     27.21     15.63 
 H(Fragment=2)         23.52     27.07     17.09 
 O(Fragment=2)         15.73     27.19     17.21 
 H(Fragment=2)         15.81     27.33     18.15 
 H(Fragment=2)         16.63     27.13     16.9 
 O(Fragment=2)         25.06     13.89     24.08 
 H(Fragment=2)         25.47     14.6      23.6 
 H(Fragment=2)         25.79     13.39     24.45 
 O(Fragment=2)         11.86     23.87     17.58 
 H(Fragment=2)         11.57     23.99     18.49 
 H(Fragment=2)         12.48     23.15     17.63 
 O(Fragment=2)         23.96     27.43     18.76 
 H(Fragment=2)         24.43     27.38     19.59 
 H(Fragment=2)         23.39     28.19     18.86 
 O(Fragment=2)         13.37     22.89     24.5 
 H(Fragment=2)         13.1      22.02     24.8 
 H(Fragment=2)         13.49     23.4      25.3 
 O(Fragment=2)         27.08     14.35     18.77 
 H(Fragment=2)         26.14     14.21     18.74 
 H(Fragment=2)         27.26     14.93     18.03 
 O(Fragment=2)         25.41     24.86     14.2 
 H(Fragment=2)         24.67     24.26     14.25 
 H(Fragment=2)         26.15     24.36     14.55 
 O(Fragment=2)         20.86     19.31     11.51 
 H(Fragment=2)         20.67     20.25     11.47 
 H(Fragment=2)         20.19     18.91     10.96 
 O(Fragment=2)         19.47     15.31     12.71 
 H(Fragment=2)         18.6      14.93     12.59 
 H(Fragment=2)         19.93     15.15     11.89 
 O(Fragment=2)         27.67     16.71     24.58 
 H(Fragment=2)         27.09     16.73     23.82 
 H(Fragment=2)         27.08     16.81     25.33 
 O(Fragment=2)         26.83     25.11     18.32 
 H(Fragment=2)         27.44     25.84     18.39 
 H(Fragment=2)         27.32     24.42     17.88 
 O(Fragment=2)         12.86     14.6      23.53 
 H(Fragment=2)         13.54     15.24     23.35 
 H(Fragment=2)         12.11     15.12     23.82 
 O(Fragment=2)         15.22     25.18     13.45 
 H(Fragment=2)         14.78     25.68     14.14 
 H(Fragment=2)         15.67     24.48     13.92 
 O(Fragment=2)         26.14     24.28     25.9 
 H(Fragment=2)         26.39     24.8      25.14 
 H(Fragment=2)         25.25     23.97     25.7 
 O(Fragment=2)         20.42     25.82     27.5 
 H(Fragment=2)         20.69     25.66     26.6 
 H(Fragment=2)         20.13     26.73     27.51 
 O(Fragment=2)         14.01     13.83     15.88 
 H(Fragment=2)         14.51     14.64     15.79 
 H(Fragment=2)         13.79     13.59     14.98 
 O(Fragment=2)         20.15     11.88     16.7 
 H(Fragment=2)         19.93     11.8      15.77 
 H(Fragment=2)         19.53     11.32     17.14 
 O(Fragment=2)         11.54     17.82     15.84 
 H(Fragment=2)         11.84     17.5      15. 
 H(Fragment=2)         12.31     17.8      16.4 
 O(Fragment=2)         11.       19.81     23.8 
 H(Fragment=2)         11.76     19.95     23.23 
 H(Fragment=2)         10.61     19.       23.47 
 O(Fragment=2)         28.76     19.2      16.09 
 H(Fragment=2)         28.74     18.81     16.97 
 H(Fragment=2)         27.87     19.53     15.96 
 O(Fragment=2)         18.65     26.88     13.19 
 H(Fragment=2)         19.04     26.87     12.32 
 H(Fragment=2)         18.88     26.04     13.58 
 O(Fragment=2)         13.03     14.51     18.32 
 H(Fragment=2)         13.55     14.37     17.53 
 H(Fragment=2)         12.28     15.04     18.02 
 O(Fragment=2)         15.54     11.98     23.59 
 H(Fragment=2)         15.81     12.75     23.09 
 H(Fragment=2)         16.22     11.88     24.25 
 O(Fragment=2)         13.77     19.15     13.64 
 H(Fragment=2)         14.06     18.24     13.54 
 H(Fragment=2)         14.06     19.59     12.84 
 O(Fragment=2)         17.82     13.14     14.63 
 H(Fragment=2)         18.46     12.44     14.48 
 H(Fragment=2)         16.99     12.67     14.77 
 O(Fragment=2)         10.68     19.99     18.52 
 H(Fragment=2)         11.08     19.3      19.05 
 H(Fragment=2)         10.1      19.52     17.91 
 O(Fragment=2)         15.38     11.6      17.84 
 H(Fragment=2)         16.13     12.19     17.75 
 H(Fragment=2)         14.72     11.96     17.26 
 O(Fragment=2)         28.3      23.08     21.82 
 H(Fragment=2)         28.9      22.33     21.83 
 H(Fragment=2)         28.58     23.6      21.07 
 O(Fragment=2)         12.54     22.97     14.13 
 H(Fragment=2)         11.77     23.26     14.61 
 H(Fragment=2)         13.05     22.47     14.77 
 O(Fragment=2)         21.68     15.69     28.73 
 H(Fragment=2)         21.47     16.49     28.23 
 H(Fragment=2)         21.93     15.05     28.06 
 O(Fragment=2)         10.68     16.67     21.25 
 H(Fragment=2)         11.45     16.99     20.79 
 H(Fragment=2)         10.02     17.35     21.12 
 O(Fragment=2)         23.86     23.49     27.51 
 H(Fragment=2)         23.13     23.69     28.1 
 H(Fragment=2)         24.52     24.16     27.71 
 O(Fragment=2)         17.69     28.69     24.4 
 H(Fragment=2)         18.05     28.11     23.73 
 H(Fragment=2)         18.36     29.37     24.52 
 O(Fragment=2)         24.23     28.7      21.63 
 H(Fragment=2)         24.06     29.55     21.23 
 H(Fragment=2)         23.36     28.32     21.78 
 O(Fragment=2)         27.59     22.65     14.69 
 H(Fragment=2)         27.09     21.86     14.49 
 H(Fragment=2)         27.78     22.59     15.62 
 O(Fragment=2)         23.72     13.75     14.38 
 H(Fragment=2)         24.36     13.89     13.68 
 H(Fragment=2)         23.       13.28     13.96 
 O(Fragment=2)         21.36     29.38     18.35 
 H(Fragment=2)         20.76     30.08     18.61 
 H(Fragment=2)         20.89     28.88     17.7 
 O(Fragment=2)         23.4      11.53     23.57 
 H(Fragment=2)         22.48     11.72     23.38 
 H(Fragment=2)         23.84     12.39     23.52 
 
 NAtoms=    385 NQM=      385 NQMF=       0 NMMI=      0 NMMIF=      0
                NMic=       0 NMicF=      0.
                    Isotopes and Nuclear Properties:
 (Nuclear quadrupole moments (NQMom) in fm**2, nuclear magnetic moments (NMagM)
  in nuclear magnetons)

  Atom         1           2           3           4           5           6           7           8           9          10
 IAtWgt=          79          16           1           1          16           1           1          16           1           1
 AtmWgt=  78.9183361  15.9949146   1.0078250   1.0078250  15.9949146   1.0078250   1.0078250  15.9949146   1.0078250   1.0078250
 NucSpn=           3           0           1           1           0           1           1           0           1           1
 AtZEff=   0.0000000   0.0000000   0.0000000   0.0000000   0.0000000   0.0000000   0.0000000   0.0000000   0.0000000   0.0000000
 NQMom=   31.3000000   0.0000000   0.0000000   0.0000000   0.0000000   0.0000000   0.0000000   0.0000000   0.0000000   0.0000000
 NMagM=    2.1063990   0.0000000   2.7928460   2.7928460   0.0000000   2.7928460   2.7928460   0.0000000   2.7928460   2.7928460
 AtZNuc=  35.0000000   8.0000000   1.0000000   1.0000000   8.0000000   1.0000000   1.0000000   8.0000000   1.0000000   1.0000000

  Atom        11          12          13          14          15          16          17          18          19          20
 IAtWgt=          16           1           1          16           1           1          16           1           1          16
 AtmWgt=  15.9949146   1.0078250   1.0078250  15.9949146   1.0078250   1.0078250  15.9949146   1.0078250   1.0078250  15.9949146
 NucSpn=           0           1           1           0           1           1           0           1           1           0
 AtZEff=   0.0000000   0.0000000   0.0000000   0.0000000   0.0000000   0.0000000   0.0000000   0.0000000   0.0000000   0.0000000
 NQMom=    0.0000000   0.0000000   0.0000000   0.0000000   0.0000000   0.0000000   0.0000000   0.0000000   0.0000000   0.0000000
 NMagM=    0.0000000   2.7928460   2.7928460   0.0000000   2.7928460   2.7928460   0.0000000   2.7928460   2.7928460   0.0000000
 AtZNuc=   8.0000000   1.0000000   1.0000000   8.0000000   1.0000000   1.0000000   8.0000000   1.0000000   1.0000000   8.0000000

  Atom        21          22          23          24          25          26          27          28          29          30
 IAtWgt=           1           1          16           1           1          16           1           1          16           1
 AtmWgt=   1.0078250   1.0078250  15.9949146   1.0078250   1.0078250  15.9949146   1.0078250   1.0078250  15.9949146   1.0078250
 NucSpn=           1           1           0           1           1           0           1           1           0           1
 AtZEff=   0.0000000   0.0000000   0.0000000   0.0000000   0.0000000   0.0000000   0.0000000   0.0000000   0.0000000   0.0000000
 NQMom=    0.0000000   0.0000000   0.0000000   0.0000000   0.0000000   0.0000000   0.0000000   0.0000000   0.0000000   0.0000000
 NMagM=    2.7928460   2.7928460   0.0000000   2.7928460   2.7928460   0.0000000   2.7928460   2.7928460   0.0000000   2.7928460
 AtZNuc=   1.0000000   1.0000000   8.0000000   1.0000000   1.0000000   8.0000000   1.0000000   1.0000000   8.0000000   1.0000000

  Atom        31          32          33          34          35          36          37          38          39          40
 IAtWgt=           1          16           1           1          16           1           1          16           1           1
 AtmWgt=   1.0078250  15.9949146   1.0078250   1.0078250  15.9949146   1.0078250   1.0078250  15.9949146   1.0078250   1.0078250
 NucSpn=           1           0           1           1           0           1           1           0           1           1
 AtZEff=   0.0000000   0.0000000   0.0000000   0.0000000   0.0000000   0.0000000   0.0000000   0.0000000   0.0000000   0.0000000
 NQMom=    0.0000000   0.0000000   0.0000000   0.0000000   0.0000000   0.0000000   0.0000000   0.0000000   0.0000000   0.0000000
 NMagM=    2.7928460   0.0000000   2.7928460   2.7928460   0.0000000   2.7928460   2.7928460   0.0000000   2.7928460   2.7928460
 AtZNuc=   1.0000000   8.0000000   1.0000000   1.0000000   8.0000000   1.0000000   1.0000000   8.0000000   1.0000000   1.0000000

  Atom        41          42          43          44          45          46          47          48          49          50
 IAtWgt=          16           1           1          16           1           1          16           1           1          16
 AtmWgt=  15.9949146   1.0078250   1.0078250  15.9949146   1.0078250   1.0078250  15.9949146   1.0078250   1.0078250  15.9949146
 NucSpn=           0           1           1           0           1           1           0           1           1           0
 AtZEff=   0.0000000   0.0000000   0.0000000   0.0000000   0.0000000   0.0000000   0.0000000   0.0000000   0.0000000   0.0000000
 NQMom=    0.0000000   0.0000000   0.0000000   0.0000000   0.0000000   0.0000000   0.0000000   0.0000000   0.0000000   0.0000000
 NMagM=    0.0000000   2.7928460   2.7928460   0.0000000   2.7928460   2.7928460   0.0000000   2.7928460   2.7928460   0.0000000
 AtZNuc=   8.0000000   1.0000000   1.0000000   8.0000000   1.0000000   1.0000000   8.0000000   1.0000000   1.0000000   8.0000000

  Atom        51          52          53          54          55          56          57          58          59          60
 IAtWgt=           1           1          16           1           1          16           1           1          16           1
 AtmWgt=   1.0078250   1.0078250  15.9949146   1.0078250   1.0078250  15.9949146   1.0078250   1.0078250  15.9949146   1.0078250
 NucSpn=           1           1           0           1           1           0           1           1           0           1
 AtZEff=   0.0000000   0.0000000   0.0000000   0.0000000   0.0000000   0.0000000   0.0000000   0.0000000   0.0000000   0.0000000
 NQMom=    0.0000000   0.0000000   0.0000000   0.0000000   0.0000000   0.0000000   0.0000000   0.0000000   0.0000000   0.0000000
 NMagM=    2.7928460   2.7928460   0.0000000   2.7928460   2.7928460   0.0000000   2.7928460   2.7928460   0.0000000   2.7928460
 AtZNuc=   1.0000000   1.0000000   8.0000000   1.0000000   1.0000000   8.0000000   1.0000000   1.0000000   8.0000000   1.0000000

  Atom        61          62          63          64          65          66          67          68          69          70
 IAtWgt=           1          16           1           1          16           1           1          16           1           1
 AtmWgt=   1.0078250  15.9949146   1.0078250   1.0078250  15.9949146   1.0078250   1.0078250  15.9949146   1.0078250   1.0078250
 NucSpn=           1           0           1           1           0           1           1           0           1           1
 AtZEff=   0.0000000   0.0000000   0.0000000   0.0000000   0.0000000   0.0000000   0.0000000   0.0000000   0.0000000   0.0000000
 NQMom=    0.0000000   0.0000000   0.0000000   0.0000000   0.0000000   0.0000000   0.0000000   0.0000000   0.0000000   0.0000000
 NMagM=    2.7928460   0.0000000   2.7928460   2.7928460   0.0000000   2.7928460   2.7928460   0.0000000   2.7928460   2.7928460
 AtZNuc=   1.0000000   8.0000000   1.0000000   1.0000000   8.0000000   1.0000000   1.0000000   8.0000000   1.0000000   1.0000000

  Atom        71          72          73          74          75          76          77          78          79          80
 IAtWgt=          16           1           1          16           1           1          16           1           1          16
 AtmWgt=  15.9949146   1.0078250   1.0078250  15.9949146   1.0078250   1.0078250  15.9949146   1.0078250   1.0078250  15.9949146
 NucSpn=           0           1           1           0           1           1           0           1           1           0
 AtZEff=   0.0000000   0.0000000   0.0000000   0.0000000   0.0000000   0.0000000   0.0000000   0.0000000   0.0000000   0.0000000
 NQMom=    0.0000000   0.0000000   0.0000000   0.0000000   0.0000000   0.0000000   0.0000000   0.0000000   0.0000000   0.0000000
 NMagM=    0.0000000   2.7928460   2.7928460   0.0000000   2.7928460   2.7928460   0.0000000   2.7928460   2.7928460   0.0000000
 AtZNuc=   8.0000000   1.0000000   1.0000000   8.0000000   1.0000000   1.0000000   8.0000000   1.0000000   1.0000000   8.0000000

  Atom        81          82          83          84          85          86          87          88          89          90
 IAtWgt=           1           1          16           1           1          16           1           1          16           1
 AtmWgt=   1.0078250   1.0078250  15.9949146   1.0078250   1.0078250  15.9949146   1.0078250   1.0078250  15.9949146   1.0078250
 NucSpn=           1           1           0           1           1           0           1           1           0           1
 AtZEff=   0.0000000   0.0000000   0.0000000   0.0000000   0.0000000   0.0000000   0.0000000   0.0000000   0.0000000   0.0000000
 NQMom=    0.0000000   0.0000000   0.0000000   0.0000000   0.0000000   0.0000000   0.0000000   0.0000000   0.0000000   0.0000000
 NMagM=    2.7928460   2.7928460   0.0000000   2.7928460   2.7928460   0.0000000   2.7928460   2.7928460   0.0000000   2.7928460
 AtZNuc=   1.0000000   1.0000000   8.0000000   1.0000000   1.0000000   8.0000000   1.0000000   1.0000000   8.0000000   1.0000000

  Atom        91          92          93          94          95          96          97          98          99         100
 IAtWgt=           1          16           1           1          16           1           1          16           1           1
 AtmWgt=   1.0078250  15.9949146   1.0078250   1.0078250  15.9949146   1.0078250   1.0078250  15.9949146   1.0078250   1.0078250
 NucSpn=           1           0           1           1           0           1           1           0           1           1
 AtZEff=   0.0000000   0.0000000   0.0000000   0.0000000   0.0000000   0.0000000   0.0000000   0.0000000   0.0000000   0.0000000
 NQMom=    0.0000000   0.0000000   0.0000000   0.0000000   0.0000000   0.0000000   0.0000000   0.0000000   0.0000000   0.0000000
 NMagM=    2.7928460   0.0000000   2.7928460   2.7928460   0.0000000   2.7928460   2.7928460   0.0000000   2.7928460   2.7928460
 AtZNuc=   1.0000000   8.0000000   1.0000000   1.0000000   8.0000000   1.0000000   1.0000000   8.0000000   1.0000000   1.0000000

  Atom       101         102         103         104         105         106         107         108         109         110
 IAtWgt=          16           1           1          16           1           1          16           1           1          16
 AtmWgt=  15.9949146   1.0078250   1.0078250  15.9949146   1.0078250   1.0078250  15.9949146   1.0078250   1.0078250  15.9949146
 NucSpn=           0           1           1           0           1           1           0           1           1           0
 AtZEff=   0.0000000   0.0000000   0.0000000   0.0000000   0.0000000   0.0000000   0.0000000   0.0000000   0.0000000   0.0000000
 NQMom=    0.0000000   0.0000000   0.0000000   0.0000000   0.0000000   0.0000000   0.0000000   0.0000000   0.0000000   0.0000000
 NMagM=    0.0000000   2.7928460   2.7928460   0.0000000   2.7928460   2.7928460   0.0000000   2.7928460   2.7928460   0.0000000
 AtZNuc=   8.0000000   1.0000000   1.0000000   8.0000000   1.0000000   1.0000000   8.0000000   1.0000000   1.0000000   8.0000000

  Atom       111         112         113         114         115         116         117         118         119         120
 IAtWgt=           1           1          16           1           1          16           1           1          16           1
 AtmWgt=   1.0078250   1.0078250  15.9949146   1.0078250   1.0078250  15.9949146   1.0078250   1.0078250  15.9949146   1.0078250
 NucSpn=           1           1           0           1           1           0           1           1           0           1
 AtZEff=   0.0000000   0.0000000   0.0000000   0.0000000   0.0000000   0.0000000   0.0000000   0.0000000   0.0000000   0.0000000
 NQMom=    0.0000000   0.0000000   0.0000000   0.0000000   0.0000000   0.0000000   0.0000000   0.0000000   0.0000000   0.0000000
 NMagM=    2.7928460   2.7928460   0.0000000   2.7928460   2.7928460   0.0000000   2.7928460   2.7928460   0.0000000   2.7928460
 AtZNuc=   1.0000000   1.0000000   8.0000000   1.0000000   1.0000000   8.0000000   1.0000000   1.0000000   8.0000000   1.0000000

  Atom       121         122         123         124         125         126         127         128         129         130
 IAtWgt=           1          16           1           1          16           1           1          16           1           1
 AtmWgt=   1.0078250  15.9949146   1.0078250   1.0078250  15.9949146   1.0078250   1.0078250  15.9949146   1.0078250   1.0078250
 NucSpn=           1           0           1           1           0           1           1           0           1           1
 AtZEff=   0.0000000   0.0000000   0.0000000   0.0000000   0.0000000   0.0000000   0.0000000   0.0000000   0.0000000   0.0000000
 NQMom=    0.0000000   0.0000000   0.0000000   0.0000000   0.0000000   0.0000000   0.0000000   0.0000000   0.0000000   0.0000000
 NMagM=    2.7928460   0.0000000   2.7928460   2.7928460   0.0000000   2.7928460   2.7928460   0.0000000   2.7928460   2.7928460
 AtZNuc=   1.0000000   8.0000000   1.0000000   1.0000000   8.0000000   1.0000000   1.0000000   8.0000000   1.0000000   1.0000000

  Atom       131         132         133         134         135         136         137         138         139         140
 IAtWgt=          16           1           1          16           1           1          16           1           1          16
 AtmWgt=  15.9949146   1.0078250   1.0078250  15.9949146   1.0078250   1.0078250  15.9949146   1.0078250   1.0078250  15.9949146
 NucSpn=           0           1           1           0           1           1           0           1           1           0
 AtZEff=   0.0000000   0.0000000   0.0000000   0.0000000   0.0000000   0.0000000   0.0000000   0.0000000   0.0000000   0.0000000
 NQMom=    0.0000000   0.0000000   0.0000000   0.0000000   0.0000000   0.0000000   0.0000000   0.0000000   0.0000000   0.0000000
 NMagM=    0.0000000   2.7928460   2.7928460   0.0000000   2.7928460   2.7928460   0.0000000   2.7928460   2.7928460   0.0000000
 AtZNuc=   8.0000000   1.0000000   1.0000000   8.0000000   1.0000000   1.0000000   8.0000000   1.0000000   1.0000000   8.0000000

  Atom       141         142         143         144         145         146         147         148         149         150
 IAtWgt=           1           1          16           1           1          16           1           1          16           1
 AtmWgt=   1.0078250   1.0078250  15.9949146   1.0078250   1.0078250  15.9949146   1.0078250   1.0078250  15.9949146   1.0078250
 NucSpn=           1           1           0           1           1           0           1           1           0           1
 AtZEff=   0.0000000   0.0000000   0.0000000   0.0000000   0.0000000   0.0000000   0.0000000   0.0000000   0.0000000   0.0000000
 NQMom=    0.0000000   0.0000000   0.0000000   0.0000000   0.0000000   0.0000000   0.0000000   0.0000000   0.0000000   0.0000000
 NMagM=    2.7928460   2.7928460   0.0000000   2.7928460   2.7928460   0.0000000   2.7928460   2.7928460   0.0000000   2.7928460
 AtZNuc=   1.0000000   1.0000000   8.0000000   1.0000000   1.0000000   8.0000000   1.0000000   1.0000000   8.0000000   1.0000000

  Atom       151         152         153         154         155         156         157         158         159         160
 IAtWgt=           1          16           1           1          16           1           1          16           1           1
 AtmWgt=   1.0078250  15.9949146   1.0078250   1.0078250  15.9949146   1.0078250   1.0078250  15.9949146   1.0078250   1.0078250
 NucSpn=           1           0           1           1           0           1           1           0           1           1
 AtZEff=   0.0000000   0.0000000   0.0000000   0.0000000   0.0000000   0.0000000   0.0000000   0.0000000   0.0000000   0.0000000
 NQMom=    0.0000000   0.0000000   0.0000000   0.0000000   0.0000000   0.0000000   0.0000000   0.0000000   0.0000000   0.0000000
 NMagM=    2.7928460   0.0000000   2.7928460   2.7928460   0.0000000   2.7928460   2.7928460   0.0000000   2.7928460   2.7928460
 AtZNuc=   1.0000000   8.0000000   1.0000000   1.0000000   8.0000000   1.0000000   1.0000000   8.0000000   1.0000000   1.0000000

  Atom       161         162         163         164         165         166         167         168         169         170
 IAtWgt=          16           1           1          16           1           1          16           1           1          16
 AtmWgt=  15.9949146   1.0078250   1.0078250  15.9949146   1.0078250   1.0078250  15.9949146   1.0078250   1.0078250  15.9949146
 NucSpn=           0           1           1           0           1           1           0           1           1           0
 AtZEff=   0.0000000   0.0000000   0.0000000   0.0000000   0.0000000   0.0000000   0.0000000   0.0000000   0.0000000   0.0000000
 NQMom=    0.0000000   0.0000000   0.0000000   0.0000000   0.0000000   0.0000000   0.0000000   0.0000000   0.0000000   0.0000000
 NMagM=    0.0000000   2.7928460   2.7928460   0.0000000   2.7928460   2.7928460   0.0000000   2.7928460   2.7928460   0.0000000
 AtZNuc=   8.0000000   1.0000000   1.0000000   8.0000000   1.0000000   1.0000000   8.0000000   1.0000000   1.0000000   8.0000000

  Atom       171         172         173         174         175         176         177         178         179         180
 IAtWgt=           1           1          16           1           1          16           1           1          16           1
 AtmWgt=   1.0078250   1.0078250  15.9949146   1.0078250   1.0078250  15.9949146   1.0078250   1.0078250  15.9949146   1.0078250
 NucSpn=           1           1           0           1           1           0           1           1           0           1
 AtZEff=   0.0000000   0.0000000   0.0000000   0.0000000   0.0000000   0.0000000   0.0000000   0.0000000   0.0000000   0.0000000
 NQMom=    0.0000000   0.0000000   0.0000000   0.0000000   0.0000000   0.0000000   0.0000000   0.0000000   0.0000000   0.0000000
 NMagM=    2.7928460   2.7928460   0.0000000   2.7928460   2.7928460   0.0000000   2.7928460   2.7928460   0.0000000   2.7928460
 AtZNuc=   1.0000000   1.0000000   8.0000000   1.0000000   1.0000000   8.0000000   1.0000000   1.0000000   8.0000000   1.0000000

  Atom       181         182         183         184         185         186         187         188         189         190
 IAtWgt=           1          16           1           1          16           1           1          16           1           1
 AtmWgt=   1.0078250  15.9949146   1.0078250   1.0078250  15.9949146   1.0078250   1.0078250  15.9949146   1.0078250   1.0078250
 NucSpn=           1           0           1           1           0           1           1           0           1           1
 AtZEff=   0.0000000   0.0000000   0.0000000   0.0000000   0.0000000   0.0000000   0.0000000   0.0000000   0.0000000   0.0000000
 NQMom=    0.0000000   0.0000000   0.0000000   0.0000000   0.0000000   0.0000000   0.0000000   0.0000000   0.0000000   0.0000000
 NMagM=    2.7928460   0.0000000   2.7928460   2.7928460   0.0000000   2.7928460   2.7928460   0.0000000   2.7928460   2.7928460
 AtZNuc=   1.0000000   8.0000000   1.0000000   1.0000000   8.0000000   1.0000000   1.0000000   8.0000000   1.0000000   1.0000000

  Atom       191         192         193         194         195         196         197         198         199         200
 IAtWgt=          16           1           1          16           1           1          16           1           1          16
 AtmWgt=  15.9949146   1.0078250   1.0078250  15.9949146   1.0078250   1.0078250  15.9949146   1.0078250   1.0078250  15.9949146
 NucSpn=           0           1           1           0           1           1           0           1           1           0
 AtZEff=   0.0000000   0.0000000   0.0000000   0.0000000   0.0000000   0.0000000   0.0000000   0.0000000   0.0000000   0.0000000
 NQMom=    0.0000000   0.0000000   0.0000000   0.0000000   0.0000000   0.0000000   0.0000000   0.0000000   0.0000000   0.0000000
 NMagM=    0.0000000   2.7928460   2.7928460   0.0000000   2.7928460   2.7928460   0.0000000   2.7928460   2.7928460   0.0000000
 AtZNuc=   8.0000000   1.0000000   1.0000000   8.0000000   1.0000000   1.0000000   8.0000000   1.0000000   1.0000000   8.0000000

  Atom       201         202         203         204         205         206         207         208         209         210
 IAtWgt=           1           1          16           1           1          16           1           1          16           1
 AtmWgt=   1.0078250   1.0078250  15.9949146   1.0078250   1.0078250  15.9949146   1.0078250   1.0078250  15.9949146   1.0078250
 NucSpn=           1           1           0           1           1           0           1           1           0           1
 AtZEff=   0.0000000   0.0000000   0.0000000   0.0000000   0.0000000   0.0000000   0.0000000   0.0000000   0.0000000   0.0000000
 NQMom=    0.0000000   0.0000000   0.0000000   0.0000000   0.0000000   0.0000000   0.0000000   0.0000000   0.0000000   0.0000000
 NMagM=    2.7928460   2.7928460   0.0000000   2.7928460   2.7928460   0.0000000   2.7928460   2.7928460   0.0000000   2.7928460
 AtZNuc=   1.0000000   1.0000000   8.0000000   1.0000000   1.0000000   8.0000000   1.0000000   1.0000000   8.0000000   1.0000000

  Atom       211         212         213         214         215         216         217         218         219         220
 IAtWgt=           1          16           1           1          16           1           1          16           1           1
 AtmWgt=   1.0078250  15.9949146   1.0078250   1.0078250  15.9949146   1.0078250   1.0078250  15.9949146   1.0078250   1.0078250
 NucSpn=           1           0           1           1           0           1           1           0           1           1
 AtZEff=   0.0000000   0.0000000   0.0000000   0.0000000   0.0000000   0.0000000   0.0000000   0.0000000   0.0000000   0.0000000
 NQMom=    0.0000000   0.0000000   0.0000000   0.0000000   0.0000000   0.0000000   0.0000000   0.0000000   0.0000000   0.0000000
 NMagM=    2.7928460   0.0000000   2.7928460   2.7928460   0.0000000   2.7928460   2.7928460   0.0000000   2.7928460   2.7928460
 AtZNuc=   1.0000000   8.0000000   1.0000000   1.0000000   8.0000000   1.0000000   1.0000000   8.0000000   1.0000000   1.0000000

  Atom       221         222         223         224         225         226         227         228         229         230
 IAtWgt=          16           1           1          16           1           1          16           1           1          16
 AtmWgt=  15.9949146   1.0078250   1.0078250  15.9949146   1.0078250   1.0078250  15.9949146   1.0078250   1.0078250  15.9949146
 NucSpn=           0           1           1           0           1           1           0           1           1           0
 AtZEff=   0.0000000   0.0000000   0.0000000   0.0000000   0.0000000   0.0000000   0.0000000   0.0000000   0.0000000   0.0000000
 NQMom=    0.0000000   0.0000000   0.0000000   0.0000000   0.0000000   0.0000000   0.0000000   0.0000000   0.0000000   0.0000000
 NMagM=    0.0000000   2.7928460   2.7928460   0.0000000   2.7928460   2.7928460   0.0000000   2.7928460   2.7928460   0.0000000
 AtZNuc=   8.0000000   1.0000000   1.0000000   8.0000000   1.0000000   1.0000000   8.0000000   1.0000000   1.0000000   8.0000000

  Atom       231         232         233         234         235         236         237         238         239         240
 IAtWgt=           1           1          16           1           1          16           1           1          16           1
 AtmWgt=   1.0078250   1.0078250  15.9949146   1.0078250   1.0078250  15.9949146   1.0078250   1.0078250  15.9949146   1.0078250
 NucSpn=           1           1           0           1           1           0           1           1           0           1
 AtZEff=   0.0000000   0.0000000   0.0000000   0.0000000   0.0000000   0.0000000   0.0000000   0.0000000   0.0000000   0.0000000
 NQMom=    0.0000000   0.0000000   0.0000000   0.0000000   0.0000000   0.0000000   0.0000000   0.0000000   0.0000000   0.0000000
 NMagM=    2.7928460   2.7928460   0.0000000   2.7928460   2.7928460   0.0000000   2.7928460   2.7928460   0.0000000   2.7928460
 AtZNuc=   1.0000000   1.0000000   8.0000000   1.0000000   1.0000000   8.0000000   1.0000000   1.0000000   8.0000000   1.0000000

  Atom       241         242         243         244         245         246         247         248         249         250
 IAtWgt=           1          16           1           1          16           1           1          16           1           1
 AtmWgt=   1.0078250  15.9949146   1.0078250   1.0078250  15.9949146   1.0078250   1.0078250  15.9949146   1.0078250   1.0078250
 NucSpn=           1           0           1           1           0           1           1           0           1           1
 AtZEff=   0.0000000   0.0000000   0.0000000   0.0000000   0.0000000   0.0000000   0.0000000   0.0000000   0.0000000   0.0000000
 NQMom=    0.0000000   0.0000000   0.0000000   0.0000000   0.0000000   0.0000000   0.0000000   0.0000000   0.0000000   0.0000000
 NMagM=    2.7928460   0.0000000   2.7928460   2.7928460   0.0000000   2.7928460   2.7928460   0.0000000   2.7928460   2.7928460
 AtZNuc=   1.0000000   8.0000000   1.0000000   1.0000000   8.0000000   1.0000000   1.0000000   8.0000000   1.0000000   1.0000000

  Atom       251         252         253         254         255         256         257         258         259         260
 IAtWgt=          16           1           1          16           1           1          16           1           1          16
 AtmWgt=  15.9949146   1.0078250   1.0078250  15.9949146   1.0078250   1.0078250  15.9949146   1.0078250   1.0078250  15.9949146
 NucSpn=           0           1           1           0           1           1           0           1           1           0
 AtZEff=   0.0000000   0.0000000   0.0000000   0.0000000   0.0000000   0.0000000   0.0000000   0.0000000   0.0000000   0.0000000
 NQMom=    0.0000000   0.0000000   0.0000000   0.0000000   0.0000000   0.0000000   0.0000000   0.0000000   0.0000000   0.0000000
 NMagM=    0.0000000   2.7928460   2.7928460   0.0000000   2.7928460   2.7928460   0.0000000   2.7928460   2.7928460   0.0000000
 AtZNuc=   8.0000000   1.0000000   1.0000000   8.0000000   1.0000000   1.0000000   8.0000000   1.0000000   1.0000000   8.0000000

  Atom       261         262         263         264         265         266         267         268         269         270
 IAtWgt=           1           1          16           1           1          16           1           1          16           1
 AtmWgt=   1.0078250   1.0078250  15.9949146   1.0078250   1.0078250  15.9949146   1.0078250   1.0078250  15.9949146   1.0078250
 NucSpn=           1           1           0           1           1           0           1           1           0           1
 AtZEff=   0.0000000   0.0000000   0.0000000   0.0000000   0.0000000   0.0000000   0.0000000   0.0000000   0.0000000   0.0000000
 NQMom=    0.0000000   0.0000000   0.0000000   0.0000000   0.0000000   0.0000000   0.0000000   0.0000000   0.0000000   0.0000000
 NMagM=    2.7928460   2.7928460   0.0000000   2.7928460   2.7928460   0.0000000   2.7928460   2.7928460   0.0000000   2.7928460
 AtZNuc=   1.0000000   1.0000000   8.0000000   1.0000000   1.0000000   8.0000000   1.0000000   1.0000000   8.0000000   1.0000000

  Atom       271         272         273         274         275         276         277         278         279         280
 IAtWgt=           1          16           1           1          16           1           1          16           1           1
 AtmWgt=   1.0078250  15.9949146   1.0078250   1.0078250  15.9949146   1.0078250   1.0078250  15.9949146   1.0078250   1.0078250
 NucSpn=           1           0           1           1           0           1           1           0           1           1
 AtZEff=   0.0000000   0.0000000   0.0000000   0.0000000   0.0000000   0.0000000   0.0000000   0.0000000   0.0000000   0.0000000
 NQMom=    0.0000000   0.0000000   0.0000000   0.0000000   0.0000000   0.0000000   0.0000000   0.0000000   0.0000000   0.0000000
 NMagM=    2.7928460   0.0000000   2.7928460   2.7928460   0.0000000   2.7928460   2.7928460   0.0000000   2.7928460   2.7928460
 AtZNuc=   1.0000000   8.0000000   1.0000000   1.0000000   8.0000000   1.0000000   1.0000000   8.0000000   1.0000000   1.0000000

  Atom       281         282         283         284         285         286         287         288         289         290
 IAtWgt=          16           1           1          16           1           1          16           1           1          16
 AtmWgt=  15.9949146   1.0078250   1.0078250  15.9949146   1.0078250   1.0078250  15.9949146   1.0078250   1.0078250  15.9949146
 NucSpn=           0           1           1           0           1           1           0           1           1           0
 AtZEff=   0.0000000   0.0000000   0.0000000   0.0000000   0.0000000   0.0000000   0.0000000   0.0000000   0.0000000   0.0000000
 NQMom=    0.0000000   0.0000000   0.0000000   0.0000000   0.0000000   0.0000000   0.0000000   0.0000000   0.0000000   0.0000000
 NMagM=    0.0000000   2.7928460   2.7928460   0.0000000   2.7928460   2.7928460   0.0000000   2.7928460   2.7928460   0.0000000
 AtZNuc=   8.0000000   1.0000000   1.0000000   8.0000000   1.0000000   1.0000000   8.0000000   1.0000000   1.0000000   8.0000000

  Atom       291         292         293         294         295         296         297         298         299         300
 IAtWgt=           1           1          16           1           1          16           1           1          16           1
 AtmWgt=   1.0078250   1.0078250  15.9949146   1.0078250   1.0078250  15.9949146   1.0078250   1.0078250  15.9949146   1.0078250
 NucSpn=           1           1           0           1           1           0           1           1           0           1
 AtZEff=   0.0000000   0.0000000   0.0000000   0.0000000   0.0000000   0.0000000   0.0000000   0.0000000   0.0000000   0.0000000
 NQMom=    0.0000000   0.0000000   0.0000000   0.0000000   0.0000000   0.0000000   0.0000000   0.0000000   0.0000000   0.0000000
 NMagM=    2.7928460   2.7928460   0.0000000   2.7928460   2.7928460   0.0000000   2.7928460   2.7928460   0.0000000   2.7928460
 AtZNuc=   1.0000000   1.0000000   8.0000000   1.0000000   1.0000000   8.0000000   1.0000000   1.0000000   8.0000000   1.0000000

  Atom       301         302         303         304         305         306         307         308         309         310
 IAtWgt=           1          16           1           1          16           1           1          16           1           1
 AtmWgt=   1.0078250  15.9949146   1.0078250   1.0078250  15.9949146   1.0078250   1.0078250  15.9949146   1.0078250   1.0078250
 NucSpn=           1           0           1           1           0           1           1           0           1           1
 AtZEff=   0.0000000   0.0000000   0.0000000   0.0000000   0.0000000   0.0000000   0.0000000   0.0000000   0.0000000   0.0000000
 NQMom=    0.0000000   0.0000000   0.0000000   0.0000000   0.0000000   0.0000000   0.0000000   0.0000000   0.0000000   0.0000000
 NMagM=    2.7928460   0.0000000   2.7928460   2.7928460   0.0000000   2.7928460   2.7928460   0.0000000   2.7928460   2.7928460
 AtZNuc=   1.0000000   8.0000000   1.0000000   1.0000000   8.0000000   1.0000000   1.0000000   8.0000000   1.0000000   1.0000000

  Atom       311         312         313         314         315         316         317         318         319         320
 IAtWgt=          16           1           1          16           1           1          16           1           1          16
 AtmWgt=  15.9949146   1.0078250   1.0078250  15.9949146   1.0078250   1.0078250  15.9949146   1.0078250   1.0078250  15.9949146
 NucSpn=           0           1           1           0           1           1           0           1           1           0
 AtZEff=   0.0000000   0.0000000   0.0000000   0.0000000   0.0000000   0.0000000   0.0000000   0.0000000   0.0000000   0.0000000
 NQMom=    0.0000000   0.0000000   0.0000000   0.0000000   0.0000000   0.0000000   0.0000000   0.0000000   0.0000000   0.0000000
 NMagM=    0.0000000   2.7928460   2.7928460   0.0000000   2.7928460   2.7928460   0.0000000   2.7928460   2.7928460   0.0000000
 AtZNuc=   8.0000000   1.0000000   1.0000000   8.0000000   1.0000000   1.0000000   8.0000000   1.0000000   1.0000000   8.0000000

  Atom       321         322         323         324         325         326         327         328         329         330
 IAtWgt=           1           1          16           1           1          16           1           1          16           1
 AtmWgt=   1.0078250   1.0078250  15.9949146   1.0078250   1.0078250  15.9949146   1.0078250   1.0078250  15.9949146   1.0078250
 NucSpn=           1           1           0           1           1           0           1           1           0           1
 AtZEff=   0.0000000   0.0000000   0.0000000   0.0000000   0.0000000   0.0000000   0.0000000   0.0000000   0.0000000   0.0000000
 NQMom=    0.0000000   0.0000000   0.0000000   0.0000000   0.0000000   0.0000000   0.0000000   0.0000000   0.0000000   0.0000000
 NMagM=    2.7928460   2.7928460   0.0000000   2.7928460   2.7928460   0.0000000   2.7928460   2.7928460   0.0000000   2.7928460
 AtZNuc=   1.0000000   1.0000000   8.0000000   1.0000000   1.0000000   8.0000000   1.0000000   1.0000000   8.0000000   1.0000000

  Atom       331         332         333         334         335         336         337         338         339         340
 IAtWgt=           1          16           1           1          16           1           1          16           1           1
 AtmWgt=   1.0078250  15.9949146   1.0078250   1.0078250  15.9949146   1.0078250   1.0078250  15.9949146   1.0078250   1.0078250
 NucSpn=           1           0           1           1           0           1           1           0           1           1
 AtZEff=   0.0000000   0.0000000   0.0000000   0.0000000   0.0000000   0.0000000   0.0000000   0.0000000   0.0000000   0.0000000
 NQMom=    0.0000000   0.0000000   0.0000000   0.0000000   0.0000000   0.0000000   0.0000000   0.0000000   0.0000000   0.0000000
 NMagM=    2.7928460   0.0000000   2.7928460   2.7928460   0.0000000   2.7928460   2.7928460   0.0000000   2.7928460   2.7928460
 AtZNuc=   1.0000000   8.0000000   1.0000000   1.0000000   8.0000000   1.0000000   1.0000000   8.0000000   1.0000000   1.0000000

  Atom       341         342         343         344         345         346         347         348         349         350
 IAtWgt=          16           1           1          16           1           1          16           1           1          16
 AtmWgt=  15.9949146   1.0078250   1.0078250  15.9949146   1.0078250   1.0078250  15.9949146   1.0078250   1.0078250  15.9949146
 NucSpn=           0           1           1           0           1           1           0           1           1           0
 AtZEff=   0.0000000   0.0000000   0.0000000   0.0000000   0.0000000   0.0000000   0.0000000   0.0000000   0.0000000   0.0000000
 NQMom=    0.0000000   0.0000000   0.0000000   0.0000000   0.0000000   0.0000000   0.0000000   0.0000000   0.0000000   0.0000000
 NMagM=    0.0000000   2.7928460   2.7928460   0.0000000   2.7928460   2.7928460   0.0000000   2.7928460   2.7928460   0.0000000
 AtZNuc=   8.0000000   1.0000000   1.0000000   8.0000000   1.0000000   1.0000000   8.0000000   1.0000000   1.0000000   8.0000000

  Atom       351         352         353         354         355         356         357         358         359         360
 IAtWgt=           1           1          16           1           1          16           1           1          16           1
 AtmWgt=   1.0078250   1.0078250  15.9949146   1.0078250   1.0078250  15.9949146   1.0078250   1.0078250  15.9949146   1.0078250
 NucSpn=           1           1           0           1           1           0           1           1           0           1
 AtZEff=   0.0000000   0.0000000   0.0000000   0.0000000   0.0000000   0.0000000   0.0000000   0.0000000   0.0000000   0.0000000
 NQMom=    0.0000000   0.0000000   0.0000000   0.0000000   0.0000000   0.0000000   0.0000000   0.0000000   0.0000000   0.0000000
 NMagM=    2.7928460   2.7928460   0.0000000   2.7928460   2.7928460   0.0000000   2.7928460   2.7928460   0.0000000   2.7928460
 AtZNuc=   1.0000000   1.0000000   8.0000000   1.0000000   1.0000000   8.0000000   1.0000000   1.0000000   8.0000000   1.0000000

  Atom       361         362         363         364         365         366         367         368         369         370
 IAtWgt=           1          16           1           1          16           1           1          16           1           1
 AtmWgt=   1.0078250  15.9949146   1.0078250   1.0078250  15.9949146   1.0078250   1.0078250  15.9949146   1.0078250   1.0078250
 NucSpn=           1           0           1           1           0           1           1           0           1           1
 AtZEff=   0.0000000   0.0000000   0.0000000   0.0000000   0.0000000   0.0000000   0.0000000   0.0000000   0.0000000   0.0000000
 NQMom=    0.0000000   0.0000000   0.0000000   0.0000000   0.0000000   0.0000000   0.0000000   0.0000000   0.0000000   0.0000000
 NMagM=    2.7928460   0.0000000   2.7928460   2.7928460   0.0000000   2.7928460   2.7928460   0.0000000   2.7928460   2.7928460
 AtZNuc=   1.0000000   8.0000000   1.0000000   1.0000000   8.0000000   1.0000000   1.0000000   8.0000000   1.0000000   1.0000000

  Atom       371         372         373         374         375         376         377         378         379         380
 IAtWgt=          16           1           1          16           1           1          16           1           1          16
 AtmWgt=  15.9949146   1.0078250   1.0078250  15.9949146   1.0078250   1.0078250  15.9949146   1.0078250   1.0078250  15.9949146
 NucSpn=           0           1           1           0           1           1           0           1           1           0
 AtZEff=   0.0000000   0.0000000   0.0000000   0.0000000   0.0000000   0.0000000   0.0000000   0.0000000   0.0000000   0.0000000
 NQMom=    0.0000000   0.0000000   0.0000000   0.0000000   0.0000000   0.0000000   0.0000000   0.0000000   0.0000000   0.0000000
 NMagM=    0.0000000   2.7928460   2.7928460   0.0000000   2.7928460   2.7928460   0.0000000   2.7928460   2.7928460   0.0000000
 AtZNuc=   8.0000000   1.0000000   1.0000000   8.0000000   1.0000000   1.0000000   8.0000000   1.0000000   1.0000000   8.0000000

  Atom       381         382         383         384         385
 IAtWgt=           1           1          16           1           1
 AtmWgt=   1.0078250   1.0078250  15.9949146   1.0078250   1.0078250
 NucSpn=           1           1           0           1           1
 AtZEff=   0.0000000   0.0000000   0.0000000   0.0000000   0.0000000
 NQMom=    0.0000000   0.0000000   0.0000000   0.0000000   0.0000000
 NMagM=    2.7928460   2.7928460   0.0000000   2.7928460   2.7928460
 AtZNuc=   1.0000000   1.0000000   8.0000000   1.0000000   1.0000000
 Leave Link  101 at Tue May 15 10:23:20 2018, MaxMem= 14763950080 cpu:        34.7
 (Enter /cm/shared/gaussian/g09.e01/intel64-sandybridge/g09/l103.exe)

 GradGradGradGradGradGradGradGradGradGradGradGradGradGradGradGradGradGrad
 Berny optimization.
 Initialization pass.
 Trust Radius=3.00D-01 FncErr=1.00D-07 GrdErr=1.00D-07
 Number of steps in this run=      2 maximum allowed number of steps=      2.
 GradGradGradGradGradGradGradGradGradGradGradGradGradGradGradGradGradGrad

 Leave Link  103 at Tue May 15 10:23:20 2018, MaxMem= 14763950080 cpu:         3.8
 (Enter /cm/shared/gaussian/g09.e01/intel64-sandybridge/g09/l202.exe)
 Symmetry turned off by external request.
 Stoichiometry    BrH256O128(1-)
 Framework group  C1[X(BrH256O128)]
 Deg. of freedom  1149
 Full point group                 C1      NOp   1
                          Input orientation:                          
 ---------------------------------------------------------------------
 Center     Atomic      Atomic             Coordinates (Angstroms)
 Number     Number       Type             X           Y           Z
 ---------------------------------------------------------------------
      1         35           0       20.000000   20.000000   20.000000
      2          8           0       22.140000   18.380000   21.500000
      3          1           0       22.320000   17.780000   20.770000
      4          1           0       21.400000   18.900000   21.190000
      5          8           0       18.540000   17.410000   21.100000
      6          1           0       18.840000   18.290000   20.870000
      7          1           0       18.070000   17.520000   21.920000
      8          8           0       22.920000   20.860000   18.600000
      9          1           0       22.070000   20.530000   18.910000
     10          1           0       22.970000   20.580000   17.690000
     11          8           0       17.310000   20.340000   17.810000
     12          1           0       18.010000   20.260000   18.470000
     13          1           0       17.290000   19.490000   17.380000
     14          8           0       19.690000   19.840000   23.490000
     15          1           0       19.920000   20.000000   22.570000
     16          1           0       19.020000   19.160000   23.450000
     17          8           0       21.160000   22.950000   21.610000
     18          1           0       21.850000   23.360000   21.090000
     19          1           0       20.760000   22.310000   21.020000
     20          8           0       19.770000   22.600000   17.570000
     21          1           0       19.960000   21.840000   18.110000
     22          1           0       18.940000   22.940000   17.910000
     23          8           0       17.110000   20.950000   21.710000
     24          1           0       17.590000   20.430000   21.070000
     25          1           0       17.720000   21.050000   22.440000
     26          8           0       24.310000   20.360000   21.460000
     27          1           0       23.610000   19.760000   21.710000
     28          1           0       24.400000   20.250000   20.520000
     29          8           0       18.240000   15.340000   19.560000
     30          1           0       18.110000   16.270000   19.710000
     31          1           0       18.600000   15.010000   20.380000
     32          8           0       23.120000   16.920000   19.420000
     33          1           0       22.410000   16.760000   18.800000
     34          1           0       23.730000   17.490000   18.950000
     35          8           0       21.280000   21.200000   15.480000
     36          1           0       20.910000   21.670000   16.240000
     37          1           0       20.650000   21.360000   14.780000
     38          8           0       19.520000   23.450000   23.950000
     39          1           0       20.070000   24.180000   24.260000
     40          1           0       20.080000   22.990000   23.320000
     41          8           0       22.080000   18.980000   24.690000
     42          1           0       21.870000   18.360000   23.990000
     43          1           0       21.490000   19.720000   24.540000
     44          8           0       17.150000   21.560000   15.390000
     45          1           0       17.380000   21.000000   16.130000
     46          1           0       16.750000   22.340000   15.790000
     47          8           0       21.700000   18.570000   15.530000
     48          1           0       21.020000   18.180000   14.990000
     49          1           0       21.530000   19.510000   15.480000
     50          8           0       17.470000   18.090000   16.200000
     51          1           0       17.160000   18.250000   15.300000
     52          1           0       18.360000   17.770000   16.080000
     53          8           0       17.670000   17.760000   23.560000
     54          1           0       17.590000   17.760000   24.520000
     55          1           0       16.820000   18.050000   23.250000
     56          8           0       22.010000   16.300000   16.950000
     57          1           0       21.380000   15.670000   16.590000
     58          1           0       21.790000   17.130000   16.510000
     59          8           0       19.320000   25.430000   21.700000
     60          1           0       19.140000   24.930000   22.500000
     61          1           0       19.560000   24.760000   21.060000
     62          8           0       15.440000   19.210000   23.000000
     63          1           0       15.670000   19.950000   22.440000
     64          1           0       14.890000   19.580000   23.680000
     65          8           0       22.440000   24.450000   19.650000
     66          1           0       23.170000   24.940000   20.030000
     67          1           0       22.770000   24.130000   18.810000
     68          8           0       17.640000   24.520000   19.010000
     69          1           0       16.880000   23.950000   18.890000
     70          1           0       17.650000   24.720000   19.950000
     71          8           0       23.250000   16.330000   23.580000
     72          1           0       23.540000   15.430000   23.400000
     73          1           0       23.150000   16.730000   22.720000
     74          8           0       20.170000   20.900000   26.230000
     75          1           0       19.920000   20.790000   25.310000
     76          1           0       21.030000   21.320000   26.200000
     77          8           0       25.680000   21.920000   18.500000
     78          1           0       25.790000   21.750000   19.430000
     79          1           0       24.750000   22.130000   18.400000
     80          8           0       16.350000   24.330000   22.090000
     81          1           0       16.580000   23.470000   22.460000
     82          1           0       15.410000   24.410000   22.260000
     83          8           0       24.370000   18.190000   16.670000
     84          1           0       23.510000   17.880000   16.380000
     85          1           0       25.000000   17.680000   16.150000
     86          8           0       19.390000   15.930000   24.920000
     87          1           0       19.020000   16.730000   24.540000
     88          1           0       18.820000   15.740000   25.670000
     89          8           0       23.760000   14.810000   21.000000
     90          1           0       23.620000   15.620000   20.510000
     91          1           0       22.990000   14.280000   20.820000
     92          8           0       24.820000   20.410000   24.380000
     93          1           0       24.220000   21.000000   24.810000
     94          1           0       24.720000   20.600000   23.440000
     95          8           0       20.770000   26.530000   18.640000
     96          1           0       21.130000   25.770000   19.080000
     97          1           0       21.520000   27.120000   18.520000
     98          8           0       14.150000   18.400000   17.310000
     99          1           0       14.640000   17.660000   16.970000
    100          1           0       14.750000   19.150000   17.220000
    101          8           0       23.580000   22.690000   14.880000
    102          1           0       22.880000   23.310000   15.110000
    103          1           0       23.310000   21.860000   15.270000
    104          8           0       21.460000   13.480000   20.140000
    105          1           0       21.800000   13.180000   19.300000
    106          1           0       20.650000   13.950000   19.920000
    107          8           0       19.190000   14.350000   22.700000
    108          1           0       19.510000   14.920000   23.400000
    109          1           0       18.240000   14.520000   22.670000
    110          8           0       14.860000   15.850000   19.540000
    111          1           0       15.240000   16.200000   18.730000
    112          1           0       14.130000   15.300000   19.250000
    113          8           0       17.420000   22.780000   25.840000
    114          1           0       16.920000   23.520000   25.490000
    115          1           0       18.250000   22.810000   25.370000
    116          8           0       15.520000   23.710000   16.540000
    117          1           0       15.410000   23.580000   17.480000
    118          1           0       14.920000   24.420000   16.330000
    119          8           0       22.520000   22.290000   25.460000
    120          1           0       23.020000   22.440000   26.270000
    121          1           0       22.830000   22.970000   24.860000
    122          8           0       19.260000   22.080000   13.810000
    123          1           0       19.570000   22.950000   14.070000
    124          1           0       18.380000   22.020000   14.190000
    125          8           0       26.000000   20.210000   16.450000
    126          1           0       25.420000   19.480000   16.660000
    127          1           0       26.040000   20.720000   17.260000
    128          8           0       25.820000   22.790000   22.870000
    129          1           0       26.750000   22.980000   22.760000
    130          1           0       25.610000   22.210000   22.140000
    131          8           0       14.590000   16.540000   22.280000
    132          1           0       14.710000   16.650000   21.340000
    133          1           0       14.580000   17.430000   22.630000
    134          8           0       17.700000   13.400000   17.850000
    135          1           0       18.560000   13.260000   17.470000
    136          1           0       17.810000   14.160000   18.420000
    137          8           0       14.580000   23.730000   19.440000
    138          1           0       14.150000   22.940000   19.110000
    139          1           0       14.660000   23.580000   20.380000
    140          8           0       15.750000   15.890000   16.830000
    141          1           0       16.380000   15.190000   17.030000
    142          1           0       16.200000   16.440000   16.190000
    143          8           0       18.080000   24.620000   15.400000
    144          1           0       18.370000   25.120000   16.160000
    145          1           0       17.280000   24.180000   15.690000
    146          8           0       18.330000   26.640000   17.760000
    147          1           0       17.920000   26.090000   18.430000
    148          1           0       19.250000   26.670000   18.000000
    149          8           0       21.700000   26.820000   22.200000
    150          1           0       20.970000   26.290000   21.900000
    151          1           0       21.540000   27.690000   21.820000
    152          8           0       24.400000   24.400000   17.660000
    153          1           0       24.200000   24.980000   16.920000
    154          1           0       25.210000   24.750000   18.020000
    155          8           0       19.720000   14.970000   15.650000
    156          1           0       20.210000   15.140000   14.850000
    157          1           0       18.990000   14.410000   15.370000
    158          8           0       18.140000   18.350000   26.190000
    159          1           0       18.100000   19.280000   26.400000
    160          1           0       17.520000   17.930000   26.790000
    161          8           0       19.620000   18.190000   13.580000
    162          1           0       19.980000   18.660000   12.830000
    163          1           0       19.550000   17.280000   13.270000
    164          8           0       23.260000   13.690000   17.260000
    165          1           0       23.090000   13.540000   16.330000
    166          1           0       23.100000   14.630000   17.380000
    167          8           0       23.540000   24.880000   23.720000
    168          1           0       23.210000   25.610000   23.190000
    169          1           0       24.110000   24.390000   23.130000
    170          8           0       12.850000   18.030000   19.750000
    171          1           0       13.340000   18.650000   20.310000
    172          1           0       13.340000   18.010000   18.930000
    173          8           0       14.400000   21.150000   15.200000
    174          1           0       14.130000   20.330000   14.780000
    175          1           0       15.360000   21.160000   15.110000
    176          8           0       20.970000   17.740000   27.040000
    177          1           0       20.090000   18.080000   26.860000
    178          1           0       21.540000   18.210000   26.420000
    179          8           0       16.440000   14.030000   21.990000
    180          1           0       15.890000   13.570000   21.360000
    181          1           0       15.990000   14.860000   22.140000
    182          8           0       16.900000   18.380000   13.550000
    183          1           0       16.680000   18.060000   12.680000
    184          1           0       17.860000   18.400000   13.560000
    185          8           0       13.150000   20.510000   21.340000
    186          1           0       13.120000   21.390000   21.710000
    187          1           0       12.690000   20.590000   20.500000
    188          8           0       21.630000   25.010000   15.070000
    189          1           0       22.180000   25.750000   15.340000
    190          1           0       20.750000   25.240000   15.380000
    191          8           0       13.270000   21.670000   17.860000
    192          1           0       12.480000   21.120000   17.940000
    193          1           0       13.670000   21.390000   17.040000
    194          8           0       24.910000   17.830000   25.720000
    195          1           0       24.580000   17.150000   25.130000
    196          1           0       24.500000   18.640000   25.400000
    197          8           0       18.490000   27.830000   21.820000
    198          1           0       18.860000   26.950000   21.710000
    199          1           0       19.260000   28.400000   21.910000
    200          8           0       21.210000   25.370000   24.930000
    201          1           0       21.260000   26.190000   24.450000
    202          1           0       22.090000   25.000000   24.870000
    203          8           0       26.250000   15.840000   22.320000
    204          1           0       26.570000   16.580000   21.810000
    205          1           0       25.560000   15.450000   21.770000
    206          8           0       22.690000   14.910000   26.020000
    207          1           0       23.460000   14.380000   25.790000
[...]
   Y335      27.41993   0.00264   0.00000   0.00098   0.00049  27.42042
   Z335      34.61978   0.01058   0.00000   0.00658   0.00662  34.62640
   X336      25.60579   0.00007   0.00000  -0.00866  -0.00833  25.59746
   Y336      27.15536  -0.00886   0.00000  -0.01380  -0.01429  27.14108
   Z336      33.12690  -0.01162   0.00000  -0.00762  -0.00754  33.11936
   X337      23.20584   0.00033   0.00000  -0.00352  -0.00326  23.20258
   Y337      28.42148  -0.00099   0.00000   0.00123   0.00068  28.42216
   Z337      34.05286   0.00118   0.00000   0.00113   0.00109  34.05396
   X338      29.36634  -0.01495   0.00000  -0.01098  -0.01095  29.35540
   Y338      22.63892  -0.01307   0.00000  -0.00822  -0.00838  22.63054
   Z338      44.57864   0.00370   0.00000   0.00550   0.00581  44.58445
   X339      29.87657   0.00603   0.00000   0.00400   0.00402  29.88059
   Y339      24.09401   0.01172   0.00000   0.00701   0.00685  24.10086
   Z339      43.63378  -0.00211   0.00000   0.00382   0.00412  43.63790
   X340      30.65136   0.01037   0.00000   0.00950   0.00949  30.66085
   Y340      22.44995  -0.00153   0.00000  -0.00349  -0.00358  22.44636
   Z340      45.82586   0.00472   0.00000   0.00124   0.00160  45.82746
   X341      26.02153  -0.00741   0.00000  -0.01131  -0.01098  26.01055
   Y341      36.18826  -0.00858   0.00000  -0.00912  -0.00973  36.17852
   Z341      25.77586   0.00258   0.00000  -0.00381  -0.00387  25.77199
   X342      26.56955   0.00389   0.00000   0.00711   0.00750  26.57705
   Y342      34.46860  -0.00155   0.00000  -0.00300  -0.00359  34.46501
   Z342      25.58689  -0.00016   0.00000  -0.00046  -0.00047  25.58642
   X343      26.56955   0.00200   0.00000   0.00028   0.00064  26.57019
   Y343      37.01973   0.00487   0.00000   0.00442   0.00380  37.02353
   Z343      24.26408  -0.00721   0.00000  -0.00445  -0.00452  24.25957
   X344      33.67492   0.00059   0.00000  -0.00130  -0.00069  33.67423
   Y344      24.83100   0.00594   0.00000   0.00493   0.00460  24.83560
   Z344      27.64669  -0.00733   0.00000  -0.01428  -0.01385  27.63284
   X345      34.88434   0.00036   0.00000  -0.00226  -0.00159  34.88275
   Y345      23.50819  -0.00465   0.00000  -0.00459  -0.00489  23.50330
   Z345      27.36323  -0.00130   0.00000  -0.00209  -0.00158  27.36165
   X346      32.10645  -0.00238   0.00000  -0.00104  -0.00040  32.10604
   Y346      23.94283  -0.00043   0.00000   0.00238   0.00200  23.94483
   Z346      27.91125   0.00656   0.00000   0.01118   0.01157  27.92282
   X347      20.18228   0.00118   0.00000   0.00541   0.00534  20.18761
   Y347      37.77563   0.01386   0.00000   0.00943   0.00881  37.78443
   Z347      34.99773  -0.00191   0.00000   0.00247   0.00215  34.99988
   X348      20.93817   0.00770   0.00000   0.00823   0.00816  20.94632
   Y348      36.47171  -0.01415   0.00000  -0.01256  -0.01314  36.45858
   Z348      35.99928   0.00466   0.00000   0.00053   0.00026  35.99954
   X349      19.08623   0.00278   0.00000   0.00786   0.00786  19.09409
   Y349      36.88745  -0.00138   0.00000   0.00208   0.00140  36.88885
   Z349      33.84500  -0.00307   0.00000  -0.00273  -0.00307  33.84192
   X350      29.06399   0.00254   0.00000   0.00219   0.00267  29.06666
   Y350      21.92082  -0.01486   0.00000  -0.01109  -0.01146  21.90937
   Z350      33.71271   0.00425   0.00000  -0.00512  -0.00481  33.70790
   X351      30.48128   0.00885   0.00000   0.00632   0.00676  30.48804
   Y351      23.03576   0.00766   0.00000   0.00589   0.00556  23.04133
   Z351      33.54264   0.00276   0.00000   0.00662   0.00697  33.54961
   X352      27.81677  -0.01052   0.00000  -0.00842  -0.00793  27.80884
   Y352      22.60112   0.01005   0.00000   0.01168   0.01125  22.61237
   Z352      32.61667  -0.00840   0.00000  -0.00503  -0.00478  32.61189
   X353      53.47925  -0.00283   0.00000  -0.00079  -0.00128  53.47797
   Y353      43.61488  -0.00387   0.00000  -0.00572  -0.00518  43.60970
   Z353      41.23382   0.00050   0.00000  -0.00641  -0.00555  41.22827
   X354      54.61309   0.00429   0.00000   0.00633   0.00588  54.61896
   Y354      42.19758  -0.00409   0.00000  -0.00453  -0.00396  42.19363
   Z354      41.25272   0.00536   0.00000   0.00831   0.00923  41.26195
   X355      54.00837   0.00287   0.00000   0.00377   0.00330  54.01167
   Y355      44.59754   0.00654   0.00000   0.00615   0.00667  44.60421
   Z355      39.81653  -0.00733   0.00000  -0.00729  -0.00643  39.81009
   X356      23.69717   0.00168   0.00000  -0.00142  -0.00136  23.69581
   Y356      43.40701   0.00241   0.00000   0.00310   0.00244  43.40945
   Z356      26.70183  -0.01286   0.00000  -0.00738  -0.00767  26.69416
   X357      22.24208  -0.00868   0.00000  -0.00552  -0.00551  22.23657
   Y357      43.95503   0.00430   0.00000   0.00464   0.00394  43.95897
   Z357      27.60890   0.00926   0.00000   0.01005   0.00969  27.61859
   X358      24.66093   0.00868   0.00000   0.00978   0.00983  24.67076
   Y358      42.46215  -0.00490   0.00000  -0.00229  -0.00290  42.45924
   Z358      27.91125   0.00325   0.00000  -0.00253  -0.00276  27.90849
   X359      40.96926  -0.00201   0.00000  -0.00250  -0.00306  40.96621
   Y359      29.64980  -0.00480   0.00000  -0.00597  -0.00559  29.64421
   Z359      54.29183   0.01800   0.00000   0.01459   0.01522  54.30705
   X360      40.57242   0.00056   0.00000   0.00273   0.00216  40.57458
   Y360      31.16158   0.00085   0.00000  -0.00511  -0.00476  31.15682
   Z360      53.34697  -0.00761   0.00000  -0.00583  -0.00525  53.34172
   X361      41.44169   0.00097   0.00000   0.00043  -0.00004  41.44165
   Y361      28.44038   0.00252   0.00000   0.00750   0.00787  28.44825
   Z361      53.02572  -0.00960   0.00000  -0.00927  -0.00861  53.01711
   X362      20.18228  -0.01087   0.00000  -0.00453  -0.00460  20.17768
   Y362      31.50173  -0.01013   0.00000  -0.00232  -0.00285  31.49888
   Z362      40.15668   0.01411   0.00000   0.01216   0.01195  40.16863
   X363      21.63736   0.01692   0.00000   0.01179   0.01173  21.64909
   Y363      32.10645   0.00683   0.00000   0.00339   0.00289  32.10933
   Z363      39.28741  -0.00970   0.00000  -0.00538  -0.00555  39.28186
   X364      18.93506  -0.00363   0.00000  -0.00267  -0.00278  18.93228
   Y364      32.78675   0.00617   0.00000   0.00593   0.00535  32.79210
   Z364      39.91102  -0.00347   0.00000  -0.00450  -0.00478  39.90623
   X365      45.08887  -0.00165   0.00000  -0.00229  -0.00323  45.08564
   Y365      44.38967  -0.00221   0.00000  -0.00030   0.00017  44.38983
   Z365      51.98637  -0.00178   0.00000   0.00013   0.00065  51.98701
   X366      43.70937  -0.00605   0.00000  -0.00551  -0.00650  43.70287
   Y366      44.76761   0.00310   0.00000   0.00459   0.00503  44.77265
   Z366      53.10130   0.00451   0.00000   0.00439   0.00484  53.10615
   X367      46.33608   0.00671   0.00000   0.00877   0.00778  46.34386
   Y367      45.65578   0.00095   0.00000  -0.00217  -0.00166  45.65412
   Z367      52.36431  -0.00146   0.00000  -0.00379  -0.00325  52.36106
   X368      33.42926  -0.00704   0.00000  -0.00205  -0.00306  33.42619
   Y368      54.21624   0.00596   0.00000   0.00041   0.00041  54.21665
   Z368      46.10932   0.01526   0.00000   0.01432   0.01421  46.12352
   X369      34.10956   0.00315   0.00000  -0.00172  -0.00265  34.10691
   Y369      53.12020  -0.00403   0.00000   0.00286   0.00285  53.12306
   Z369      44.84320  -0.01402   0.00000  -0.01286  -0.01292  44.83028
   X370      34.69537   0.00120   0.00000   0.00178   0.00072  34.69609
   Y370      55.50126  -0.00029   0.00000  -0.00013  -0.00009  55.50116
   Z370      46.33608  -0.00121   0.00000  -0.00122  -0.00131  46.33477
   X371      45.78806   0.00686   0.00000   0.00732   0.00650  45.79457
   Y371      54.23514  -0.00913   0.00000  -0.00713  -0.00685  54.22829
   Z371      40.87478  -0.00051   0.00000  -0.00651  -0.00615  40.86863
   X372      45.46681  -0.00313   0.00000  -0.00240  -0.00324  45.46357
   Y372      55.84141   0.00999   0.00000   0.00708   0.00735  55.84875
   Z372      40.11889  -0.00335   0.00000  -0.00112  -0.00080  40.11808
   X373      44.14400  -0.00023   0.00000   0.00388   0.00308  44.14708
   Y373      53.51704  -0.00375   0.00000  -0.00594  -0.00570  53.51134
   Z373      41.15824   0.00114   0.00000   0.00150   0.00181  41.16005
   X374      52.13754   0.00191   0.00000  -0.00359  -0.00354  52.13400
   Y374      42.80230   0.01808   0.00000   0.01401   0.01426  42.81656
   Z374      27.76008  -0.01626   0.00000  -0.01558  -0.01476  27.74531
   X375      51.19268  -0.01164   0.00000  -0.01149  -0.01138  51.18130
   Y375      41.30941  -0.01099   0.00000  -0.00396  -0.00375  41.30567
   Z375      27.38213  -0.00865   0.00000  -0.01381  -0.01301  27.36913
   X376      52.49659   0.00655   0.00000   0.00901   0.00900  52.50559
   Y376      42.68891  -0.00354   0.00000  -0.00416  -0.00386  42.68505
   Z376      29.51752   0.00963   0.00000  -0.00119  -0.00036  29.51716
   X377      44.82430  -0.00347   0.00000  -0.00652  -0.00592  44.81838
   Y377      25.98373   0.00182   0.00000   0.00083   0.00084  25.98457
   Z377      27.17426   0.01125   0.00000   0.00730   0.00814  27.18240
   X378      46.03373   0.00207   0.00000  -0.00169  -0.00105  46.03268
   Y378      26.24830   0.00237   0.00000   0.00379   0.00381  26.25211
   Z378      25.85145  -0.00371   0.00000   0.00023   0.00111  25.85256
   X379      43.46370  -0.00325   0.00000  -0.00227  -0.00162  43.46208
   Y379      25.09556  -0.00333   0.00000  -0.00289  -0.00294  25.09263
   Z379      26.38058  -0.00758   0.00000  -0.01021  -0.00941  26.37117
   X380      40.36455   0.02394   0.00000   0.01868   0.01806  40.38262
   Y380      55.52015   0.00409   0.00000  -0.00004  -0.00003  55.52012
   Z380      34.67647   0.01532   0.00000   0.00805   0.00818  34.68465
   X381      39.23071  -0.00603   0.00000  -0.00205  -0.00272  39.22799
   Y381      56.84296   0.00235   0.00000  -0.00165  -0.00167  56.84129
   Z381      35.16780   0.00031   0.00000   0.00008   0.00014  35.16794
   X382      39.47638  -0.01526   0.00000  -0.01001  -0.01055  39.46583
   Y382      54.57529  -0.00873   0.00000  -0.00235  -0.00240  54.57289
   Z382      33.44815  -0.01626   0.00000  -0.00972  -0.00960  33.43855
   X383      44.21959   0.01698   0.00000   0.00897   0.00903  44.22863
   Y383      21.78854  -0.00476   0.00000  -0.00384  -0.00353  21.78501
   Z383      44.54084   0.00424   0.00000   0.00151   0.00241  44.54325
   X384      42.48104  -0.01646   0.00000  -0.00994  -0.00988  42.47117
   Y384      22.14759   0.00557   0.00000   0.00446   0.00470  22.15229
   Z384      44.18180  -0.00460   0.00000  -0.00456  -0.00374  44.17806
   X385      45.05107  -0.00175   0.00000  -0.00154  -0.00152  45.04955
   Y385      23.41371   0.00006   0.00000   0.00023   0.00055  23.41426
   Z385      44.44636  -0.00040   0.00000  -0.00105  -0.00015  44.44621
         Item               Value     Threshold  Converged?
 Maximum Force            0.033978     0.000450     NO 
 RMS     Force            0.010455     0.000300     NO 
 Maximum Displacement     0.029071     0.001800     NO 
 RMS     Displacement     0.008842     0.001200     NO 
 Predicted change in Energy=-7.228755D-02
 GradGradGradGradGradGradGradGradGradGradGradGradGradGradGradGradGradGrad

 Leave Link  103 at Tue May 15 13:17:35 2018, MaxMem= 14763950080 cpu:      3110.1
 (Enter /cm/shared/gaussian/g09.e01/intel64-sandybridge/g09/l9999.exe)
 1\1\GINC-POPLE03\Force\RPBE1PBE\CC-pVDZ\Br1H256O128(1-)\M.PELUSO\15-Ma
 y-2018\0\\#p PBE1PBE/cc-pvDZ force Counterpoise=2 noSymm\\forces on ch
 loride comput - NWATER: 128\\-1,1\Br,20.,20.,20.\O,22.14,18.38,21.5\H,
 22.32,17.78,20.77\H,21.4,18.9,21.19\O,18.54,17.41,21.1\H,18.84,18.29,2
 0.87\H,18.07,17.52,21.92\O,22.92,20.86,18.6\H,22.07,20.53,18.91\H,22.9
 7,20.58,17.69\O,17.31,20.34,17.81\H,18.01,20.26,18.47\H,17.29,19.49,17
 .38\O,19.69,19.84,23.49\H,19.92,20.,22.57\H,19.02,19.16,23.45\O,21.16,
 22.95,21.61\H,21.85,23.36,21.09\H,20.76,22.31,21.02\O,19.77,22.6,17.57
 \H,19.96,21.84,18.11\H,18.94,22.94,17.91\O,17.11,20.95,21.71\H,17.59,2
 0.43,21.07\H,17.72,21.05,22.44\O,24.31,20.36,21.46\H,23.61,19.76,21.71
 \H,24.4,20.25,20.52\O,18.24,15.34,19.56\H,18.11,16.27,19.71\H,18.6,15.
 01,20.38\O,23.12,16.92,19.42\H,22.41,16.76,18.8\H,23.73,17.49,18.95\O,
 21.28,21.2,15.48\H,20.91,21.67,16.24\H,20.65,21.36,14.78\O,19.52,23.45
 ,23.95\H,20.07,24.18,24.26\H,20.08,22.99,23.32\O,22.08,18.98,24.69\H,2
 1.87,18.36,23.99\H,21.49,19.72,24.54\O,17.15,21.56,15.39\H,17.38,21.,1
 6.13\H,16.75,22.34,15.79\O,21.7,18.57,15.53\H,21.02,18.18,14.99\H,21.5
 3,19.51,15.48\O,17.47,18.09,16.2\H,17.16,18.25,15.3\H,18.36,17.77,16.0
 8\O,17.67,17.76,23.56\H,17.59,17.76,24.52\H,16.82,18.05,23.25\O,22.01,
 16.3,16.95\H,21.38,15.67,16.59\H,21.79,17.13,16.51\O,19.32,25.43,21.7\
 H,19.14,24.93,22.5\H,19.56,24.76,21.06\O,15.44,19.21,23.\H,15.67,19.95
 ,22.44\H,14.89,19.58,23.68\O,22.44,24.45,19.65\H,23.17,24.94,20.03\H,2
 2.77,24.13,18.81\O,17.64,24.52,19.01\H,16.88,23.95,18.89\H,17.65,24.72
 ,19.95\O,23.25,16.33,23.58\H,23.54,15.43,23.4\H,23.15,16.73,22.72\O,20
 .17,20.9,26.23\H,19.92,20.79,25.31\H,21.03,21.32,26.2\O,25.68,21.92,18
 .5\H,25.79,21.75,19.43\H,24.75,22.13,18.4\O,16.35,24.33,22.09\H,16.58,
 23.47,22.46\H,15.41,24.41,22.26\O,24.37,18.19,16.67\H,23.51,17.88,16.3
 8\H,25.,17.68,16.15\O,19.39,15.93,24.92\H,19.02,16.73,24.54\H,18.82,15
 .74,25.67\O,23.76,14.81,21.\H,23.62,15.62,20.51\H,22.99,14.28,20.82\O,
 24.82,20.41,24.38\H,24.22,21.,24.81\H,24.72,20.6,23.44\O,20.77,26.53,1
 8.64\H,21.13,25.77,19.08\H,21.52,27.12,18.52\O,14.15,18.4,17.31\H,14.6
 4,17.66,16.97\H,14.75,19.15,17.22\O,23.58,22.69,14.88\H,22.88,23.31,15
 .11\H,23.31,21.86,15.27\O,21.46,13.48,20.14\H,21.8,13.18,19.3\H,20.65,
 13.95,19.92\O,19.19,14.35,22.7\H,19.51,14.92,23.4\H,18.24,14.52,22.67\
 O,14.86,15.85,19.54\H,15.24,16.2,18.73\H,14.13,15.3,19.25\O,17.42,22.7
 8,25.84\H,16.92,23.52,25.49\H,18.25,22.81,25.37\O,15.52,23.71,16.54\H,
 15.41,23.58,17.48\H,14.92,24.42,16.33\O,22.52,22.29,25.46\H,23.02,22.4
 4,26.27\H,22.83,22.97,24.86\O,19.26,22.08,13.81\H,19.57,22.95,14.07\H,
 18.38,22.02,14.19\O,26.,20.21,16.45\H,25.42,19.48,16.66\H,26.04,20.72,
 17.26\O,25.82,22.79,22.87\H,26.75,22.98,22.76\H,25.61,22.21,22.14\O,14
 .59,16.54,22.28\H,14.71,16.65,21.34\H,14.58,17.43,22.63\O,17.7,13.4,17
 .85\H,18.56,13.26,17.47\H,17.81,14.16,18.42\O,14.58,23.73,19.44\H,14.1
 5,22.94,19.11\H,14.66,23.58,20.38\O,15.75,15.89,16.83\H,16.38,15.19,17
 .03\H,16.2,16.44,16.19\O,18.08,24.62,15.4\H,18.37,25.12,16.16\H,17.28,
 24.18,15.69\O,18.33,26.64,17.76\H,17.92,26.09,18.43\H,19.25,26.67,18.\
 O,21.7,26.82,22.2\H,20.97,26.29,21.9\H,21.54,27.69,21.82\O,24.4,24.4,1
 7.66\H,24.2,24.98,16.92\H,25.21,24.75,18.02\O,19.72,14.97,15.65\H,20.2
 1,15.14,14.85\H,18.99,14.41,15.37\O,18.14,18.35,26.19\H,18.1,19.28,26.
 4\H,17.52,17.93,26.79\O,19.62,18.19,13.58\H,19.98,18.66,12.83\H,19.55,
 17.28,13.27\O,23.26,13.69,17.26\H,23.09,13.54,16.33\H,23.1,14.63,17.38
 \O,23.54,24.88,23.72\H,23.21,25.61,23.19\H,24.11,24.39,23.13\O,12.85,1
 8.03,19.75\H,13.34,18.65,20.31\H,13.34,18.01,18.93\O,14.4,21.15,15.2\H
 ,14.13,20.33,14.78\H,15.36,21.16,15.11\O,20.97,17.74,27.04\H,20.09,18.
 08,26.86\H,21.54,18.21,26.42\O,16.44,14.03,21.99\H,15.89,13.57,21.36\H
 ,15.99,14.86,22.14\O,16.9,18.38,13.55\H,16.68,18.06,12.68\H,17.86,18.4
 ,13.56\O,13.15,20.51,21.34\H,13.12,21.39,21.71\H,12.69,20.59,20.5\O,21
 .63,25.01,15.07\H,22.18,25.75,15.34\H,20.75,25.24,15.38\O,13.27,21.67,
 17.86\H,12.48,21.12,17.94\H,13.67,21.39,17.04\O,24.91,17.83,25.72\H,24
 .58,17.15,25.13\H,24.5,18.64,25.4\O,18.49,27.83,21.82\H,18.86,26.95,21
 .71\H,19.26,28.4,21.91\O,21.21,25.37,24.93\H,21.26,26.19,24.45\H,22.09
 ,25.,24.87\O,26.25,15.84,22.32\H,26.57,16.58,21.81\H,25.56,15.45,21.77
 \O,22.69,14.91,26.02\H,23.46,14.38,25.79\H,22.69,15.61,25.37\O,16.14,2
 5.03,24.7\H,15.26,25.38,24.86\H,16.32,25.26,23.79\O,20.87,12.2,22.43\H
 ,21.16,12.32,21.53\H,20.37,13.,22.63\O,23.58,16.79,13.22\H,23.62,16.94
 ,14.17\H,23.73,17.66,12.84\O,27.48,17.89,20.41\H,27.4,18.64,19.83\H,27
 .97,17.24,19.9\O,13.6,23.54,21.96\H,13.49,23.33,22.89\H,12.8,24.,21.72
 \O,20.46,13.54,25.44\H,21.37,13.83,25.49\H,19.98,14.31,25.14\O,17.68,1
 1.89,20.23\H,17.51,12.68,19.73\H,17.77,12.19,21.14\O,18.95,21.13,11.47
 \H,19.17,21.35,12.37\H,19.32,21.84,10.95\O,27.87,20.25,19.16\H,28.68,2
 0.68,18.89\H,27.78,20.47,20.08\O,25.27,25.76,20.81\H,25.73,25.37,20.07
 \H,25.95,26.23,21.3\O,25.59,20.79,13.77\H,25.,21.49,14.03\H,25.64,20.2
 2,14.54\O,24.84,13.05,19.17\H,24.16,13.2,18.52\H,24.56,13.58,19.92\O,2
 7.35,19.72,24.54\H,26.46,20.06,24.54\H,27.26,18.8,24.78\O,19.06,21.46,
 28.73\H,19.4,21.48,27.84\H,18.26,20.94,28.66\O,28.05,22.81,17.25\H,27.
 19,22.61,17.62\H,28.67,22.46,17.89\O,15.94,27.52,19.93\H,15.09,27.55,2
 0.36\H,16.55,27.23,20.61\O,15.49,21.5,27.56\H,16.18,21.79,26.96\H,15.8
 8,20.77,28.04\O,16.97,14.79,25.53\H,16.07,14.95,25.8\H,17.1,13.85,25.6
 7\O,26.15,16.67,15.5\H,26.32,16.23,14.67\H,26.95,16.55,16.01\O,13.81,2
 0.46,25.61\H,13.54,19.65,26.04\H,14.4,20.88,26.24\O,23.38,26.68,16.22\
 H,23.92,27.21,15.63\H,23.52,27.07,17.09\O,15.73,27.19,17.21\H,15.81,27
 .33,18.15\H,16.63,27.13,16.9\O,25.06,13.89,24.08\H,25.47,14.6,23.6\H,2
 5.79,13.39,24.45\O,11.86,23.87,17.58\H,11.57,23.99,18.49\H,12.48,23.15
 ,17.63\O,23.96,27.43,18.76\H,24.43,27.38,19.59\H,23.39,28.19,18.86\O,1
 3.37,22.89,24.5\H,13.1,22.02,24.8\H,13.49,23.4,25.3\O,27.08,14.35,18.7
 7\H,26.14,14.21,18.74\H,27.26,14.93,18.03\O,25.41,24.86,14.2\H,24.67,2
 4.26,14.25\H,26.15,24.36,14.55\O,20.86,19.31,11.51\H,20.67,20.25,11.47
 \H,20.19,18.91,10.96\O,19.47,15.31,12.71\H,18.6,14.93,12.59\H,19.93,15
 .15,11.89\O,27.67,16.71,24.58\H,27.09,16.73,23.82\H,27.08,16.81,25.33\
 O,26.83,25.11,18.32\H,27.44,25.84,18.39\H,27.32,24.42,17.88\O,12.86,14
 .6,23.53\H,13.54,15.24,23.35\H,12.11,15.12,23.82\O,15.22,25.18,13.45\H
 ,14.78,25.68,14.14\H,15.67,24.48,13.92\O,26.14,24.28,25.9\H,26.39,24.8
 ,25.14\H,25.25,23.97,25.7\O,20.42,25.82,27.5\H,20.69,25.66,26.6\H,20.1
 3,26.73,27.51\O,14.01,13.83,15.88\H,14.51,14.64,15.79\H,13.79,13.59,14
 .98\O,20.15,11.88,16.7\H,19.93,11.8,15.77\H,19.53,11.32,17.14\O,11.54,
 17.82,15.84\H,11.84,17.5,15.\H,12.31,17.8,16.4\O,11.,19.81,23.8\H,11.7
 6,19.95,23.23\H,10.61,19.,23.47\O,28.76,19.2,16.09\H,28.74,18.81,16.97
 \H,27.87,19.53,15.96\O,18.65,26.88,13.19\H,19.04,26.87,12.32\H,18.88,2
 6.04,13.58\O,13.03,14.51,18.32\H,13.55,14.37,17.53\H,12.28,15.04,18.02
 \O,15.54,11.98,23.59\H,15.81,12.75,23.09\H,16.22,11.88,24.25\O,13.77,1
 9.15,13.64\H,14.06,18.24,13.54\H,14.06,19.59,12.84\O,17.82,13.14,14.63
 \H,18.46,12.44,14.48\H,16.99,12.67,14.77\O,10.68,19.99,18.52\H,11.08,1
 9.3,19.05\H,10.1,19.52,17.91\O,15.38,11.6,17.84\H,16.13,12.19,17.75\H,
 14.72,11.96,17.26\O,28.3,23.08,21.82\H,28.9,22.33,21.83\H,28.58,23.6,2
 1.07\O,12.54,22.97,14.13\H,11.77,23.26,14.61\H,13.05,22.47,14.77\O,21.
 68,15.69,28.73\H,21.47,16.49,28.23\H,21.93,15.05,28.06\O,10.68,16.67,2
 1.25\H,11.45,16.99,20.79\H,10.02,17.35,21.12\O,23.86,23.49,27.51\H,23.
 13,23.69,28.1\H,24.52,24.16,27.71\O,17.69,28.69,24.4\H,18.05,28.11,23.
 73\H,18.36,29.37,24.52\O,24.23,28.7,21.63\H,24.06,29.55,21.23\H,23.36,
 28.32,21.78\O,27.59,22.65,14.69\H,27.09,21.86,14.49\H,27.78,22.59,15.6
 2\O,23.72,13.75,14.38\H,24.36,13.89,13.68\H,23.,13.28,13.96\O,21.36,29
 .38,18.35\H,20.76,30.08,18.61\H,20.89,28.88,17.7\O,23.4,11.53,23.57\H,
 22.48,11.72,23.38\H,23.84,12.39,23.52\\Version=ES64L-G09RevE.01\HF=-97
 73.2855985\RMSD=2.047e-09\RMSF=1.046e-02\Dipole=-3.2001065,10.0142412,
 -15.1501598\Quadrupole=-21.441771,949.4046216,-927.9628506,-1047.13425
 04,-2170.506837,-1326.2394688\PG=C01 [X(Br1H256O128)]\\@


 NECESSARY EVIL: ONE WE LIKE TOO MUCH TO RELINQUISH.
 Job cpu time:       7 days 14 hours 50 minutes 49.4 seconds.
 File lengths (MBytes):  RWF=   7285 Int=      0 D2E=      0 Chk=   2411 Scr=      1
 Normal termination of Gaussian 09 at Tue May 15 13:18:07 2018.
