 Entering Gaussian System, Link 0=/cm/shared/gaussian/g09.e01/intel64-sandybridge/g09/g09
 Initial command:
 /cm/shared/gaussian/g09.e01/intel64-sandybridge/g09/l1.exe "/local/scratch/m.peluso/128_wat/order/Gau-37601.inp" -scrdir="/local/scratch/m.peluso/128_wat/order/"
 Entering Link 1 = /cm/shared/gaussian/g09.e01/intel64-sandybridge/g09/l1.exe PID=     37602.
  
 Copyright (c) 1988,1990,1992,1993,1995,1998,2003,2009,2015,
            Gaussian, Inc.  All Rights Reserved.
  
 This is part of the Gaussian(R) 09 program.  It is based on
 the Gaussian(R) 03 system (copyright 2003, Gaussian, Inc.),
 the Gaussian(R) 98 system (copyright 1998, Gaussian, Inc.),
 the Gaussian(R) 94 system (copyright 1995, Gaussian, Inc.),
 the Gaussian 92(TM) system (copyright 1992, Gaussian, Inc.),
 the Gaussian 90(TM) system (copyright 1990, Gaussian, Inc.),
 the Gaussian 88(TM) system (copyright 1988, Gaussian, Inc.),
 the Gaussian 86(TM) system (copyright 1986, Carnegie Mellon
 University), and the Gaussian 82(TM) system (copyright 1983,
 Carnegie Mellon University). Gaussian is a federally registered
 trademark of Gaussian, Inc.
  
 This software contains proprietary and confidential information,
 including trade secrets, belonging to Gaussian, Inc.
  
 This software is provided under written license and may be
 used, copied, transmitted, or stored only in accord with that
 written license.
  
 The following legend is applicable only to US Government
 contracts under FAR:
  
                    RESTRICTED RIGHTS LEGEND
  
 Use, reproduction and disclosure by the US Government is
 subject to restrictions as set forth in subparagraphs (a)
 and (c) of the Commercial Computer Software - Restricted
 Rights clause in FAR 52.227-19.
  
 Gaussian, Inc.
 340 Quinnipiac St., Bldg. 40, Wallingford CT 06492
  
  
 ---------------------------------------------------------------
 Warning -- This program may not be used in any manner that
 competes with the business of Gaussian, Inc. or will provide
 assistance to any competitor of Gaussian, Inc.  The licensee
 of this program is prohibited from giving any competitor of
 Gaussian, Inc. access to this program.  By using this program,
 the user acknowledges that Gaussian, Inc. is engaged in the
 business of creating and licensing software in the field of
 computational chemistry and represents and warrants to the
 licensee that it is not a competitor of Gaussian, Inc. and that
 it will not use this program in any manner prohibited above.
 ---------------------------------------------------------------
  

 Cite this work as:
 Gaussian 09, Revision E.01,
 M. J. Frisch, G. W. Trucks, H. B. Schlegel, G. E. Scuseria, 
 M. A. Robb, J. R. Cheeseman, G. Scalmani, V. Barone, B. Mennucci, 
 G. A. Petersson, H. Nakatsuji, M. Caricato, X. Li, H. P. Hratchian, 
 A. F. Izmaylov, J. Bloino, G. Zheng, J. L. Sonnenberg, M. Hada, 
 M. Ehara, K. Toyota, R. Fukuda, J. Hasegawa, M. Ishida, T. Nakajima, 
 Y. Honda, O. Kitao, H. Nakai, T. Vreven, J. A. Montgomery, Jr., 
 J. E. Peralta, F. Ogliaro, M. Bearpark, J. J. Heyd, E. Brothers, 
 K. N. Kudin, V. N. Staroverov, T. Keith, R. Kobayashi, J. Normand, 
 K. Raghavachari, A. Rendell, J. C. Burant, S. S. Iyengar, J. Tomasi, 
 M. Cossi, N. Rega, J. M. Millam, M. Klene, J. E. Knox, J. B. Cross, 
 V. Bakken, C. Adamo, J. Jaramillo, R. Gomperts, R. E. Stratmann, 
 O. Yazyev, A. J. Austin, R. Cammi, C. Pomelli, J. W. Ochterski, 
 R. L. Martin, K. Morokuma, V. G. Zakrzewski, G. A. Voth, 
 P. Salvador, J. J. Dannenberg, S. Dapprich, A. D. Daniels, 
 O. Farkas, J. B. Foresman, J. V. Ortiz, J. Cioslowski, 
 and D. J. Fox, Gaussian, Inc., Wallingford CT, 2013.
 
 ******************************************
 Gaussian 09:  ES64L-G09RevE.01 30-Nov-2015
                12-May-2018 
 ******************************************
 %Mem=110GB
 %NProcShared=64
 Will use up to   64 processors via shared memory.
 %chk=snap8.chk
 ----------------------------------------------
 #p PBE1PBE/cc-pvDZ force Counterpoise=2 noSymm
 ----------------------------------------------
 1/10=7,30=1,38=1,62=2/1,3;
 2/12=2,15=1,17=6,18=5,40=1/2;
 1/10=7,30=1,38=1,53=2,62=2,63=101/22;
 3/5=16,11=2,16=1,25=1,30=1,71=1,74=-13/1,2,3;
 4//1;
 5/5=2,38=5/2;
 6/7=2,8=2,9=2,10=2,28=1/1;
 7/7=1,29=1,30=1,33=-1/1,2,3,16;
 1/10=7,30=1,53=2,62=2,63=101/22;
 3/5=7,6=11,11=2,16=1,25=1,30=1,71=1,74=-13,82=7/1,2,3;
 4//1;
 5/5=2,38=5/2;
 6/7=2,8=2,9=2,10=2,28=1/1;
 7/7=1,29=1,30=1,33=-1/1,2,3,16;
 1/10=7,30=1,53=2,62=2,63=101/22(-5);
 7/9=1,29=1,44=-1/16;
 1/10=7,30=1,62=2/3;
 99//99;
 Leave Link    1 at Sat May 12 19:12:23 2018, MaxMem= 14763950080 cpu:        75.0
 (Enter /cm/shared/gaussian/g09.e01/intel64-sandybridge/g09/l101.exe)
 ---------------------------------------
 forces on chloride comput - NWATER: 128
 ---------------------------------------
 Symbolic Z-matrix:
 Charge = -1 Multiplicity = 1 in supermolecule
 Charge = -1 Multiplicity = 1 in fragment      1.
 Charge =  0 Multiplicity = 1 in fragment      2.
 Br(Fragment=1)        20.       20.       20. 
 O(Fragment=2)         20.95     18.01     17.71 
 H(Fragment=2)         20.64     18.49     18.47 
 H(Fragment=2)         21.87     17.81     17.91 
 O(Fragment=2)         22.59     18.71     21.43 
 H(Fragment=2)         21.77     19.03     21.04 
 H(Fragment=2)         22.73     19.28     22.19 
 O(Fragment=2)         18.15     18.65     22.25 
 H(Fragment=2)         18.54     18.97     21.44 
 H(Fragment=2)         17.98     19.44     22.77 
 O(Fragment=2)         21.1      21.41     17.16 
 H(Fragment=2)         20.86     20.91     17.94 
 H(Fragment=2)         20.92     20.81     16.43 
 O(Fragment=2)         17.2      20.36     18.06 
 H(Fragment=2)         17.91     20.29     18.7 
 H(Fragment=2)         17.62     20.69     17.27 
 O(Fragment=2)         20.23     16.72     20.58 
 H(Fragment=2)         19.83     17.48     20.16 
 H(Fragment=2)         20.44     16.13     19.86 
 O(Fragment=2)         20.76     20.8      23.24 
 H(Fragment=2)         20.28     20.5      22.48 
 H(Fragment=2)         20.92     21.73     23.08 
 O(Fragment=2)         18.13     18.19     16.65 
 H(Fragment=2)         19.01     18.56     16.68 
 H(Fragment=2)         17.56     18.95     16.52 
 O(Fragment=2)         20.55     24.02     18.17 
 H(Fragment=2)         21.03     23.21     18.3 
 H(Fragment=2)         21.17     24.6      17.73 
 O(Fragment=2)         23.15     16.77     19.57 
 H(Fragment=2)         22.96     16.13     20.26 
 H(Fragment=2)         22.93     17.61     19.96 
 O(Fragment=2)         17.65     20.99     23.54 
 H(Fragment=2)         18.12     21.78     23.8 
 H(Fragment=2)         17.36     21.17     22.64 
 O(Fragment=2)         20.61     19.38     15.51 
 H(Fragment=2)         20.75     18.89     16.32 
 H(Fragment=2)         21.17     18.95     14.86 
 O(Fragment=2)         16.81     22.46     21.55 
 H(Fragment=2)         17.38     22.84     20.88 
 H(Fragment=2)         16.25     23.19     21.82 
 O(Fragment=2)         18.24     24.01     19.57 
 H(Fragment=2)         19.19     23.89     19.59 
 H(Fragment=2)         18.09     24.76     20.15 
 O(Fragment=2)         17.2      16.53     19.05 
 H(Fragment=2)         17.26     17.34     18.55 
 H(Fragment=2)         16.64     16.75     19.8 
 O(Fragment=2)         20.99     16.88     23.26 
 H(Fragment=2)         20.5      16.71     22.46 
 H(Fragment=2)         21.66     17.52     23.01 
 O(Fragment=2)         24.2      21.6      17.59 
 H(Fragment=2)         23.31     21.28     17.69 
 H(Fragment=2)         24.38     21.53     16.65 
 O(Fragment=2)         18.26     23.16     16.35 
 H(Fragment=2)         18.75     23.1      17.17 
 H(Fragment=2)         18.66     23.9      15.89 
 O(Fragment=2)         16.42     16.4      21.55 
 H(Fragment=2)         17.11     17.       21.83 
 H(Fragment=2)         16.74     15.53     21.77 
 O(Fragment=2)         23.42     19.59     24.04 
 H(Fragment=2)         22.47     19.69     24.16 
 H(Fragment=2)         23.79     20.39     24.4 
 O(Fragment=2)         15.87     23.34     17.96 
 H(Fragment=2)         16.71     23.33     18.41 
 H(Fragment=2)         16.01     22.82     17.17 
 O(Fragment=2)         18.53     14.64     21.67 
 H(Fragment=2)         19.35     14.15     21.76 
 H(Fragment=2)         18.72     15.31     21.02 
 O(Fragment=2)         23.59     23.76     19.31 
 H(Fragment=2)         23.8      22.99     18.78 
 H(Fragment=2)         23.95     24.5      18.82 
 O(Fragment=2)         17.92     16.74     24.46 
 H(Fragment=2)         18.55     17.12     25.08 
 H(Fragment=2)         17.89     17.37     23.74 
 O(Fragment=2)         23.97     23.04     21.83 
 H(Fragment=2)         23.78     23.22     20.91 
 H(Fragment=2)         24.8      22.55     21.81 
 O(Fragment=2)         25.58     18.44     21.08 
 H(Fragment=2)         24.65     18.22     21.11 
 H(Fragment=2)         26.03     17.62     21.28 
 O(Fragment=2)         21.38     25.24     20.83 
 H(Fragment=2)         21.81     24.7      21.49 
 H(Fragment=2)         21.65     24.85     19.99 
 O(Fragment=2)         21.76     23.66     23.39 
 H(Fragment=2)         22.55     23.33     22.97 
 H(Fragment=2)         22.05     24.       24.24 
 O(Fragment=2)         19.01     23.39     24.18 
 H(Fragment=2)         19.81     23.62     23.71 
 H(Fragment=2)         18.51     24.2      24.23 
 O(Fragment=2)         22.21     23.57     15.5 
 H(Fragment=2)         21.56     24.24     15.27 
 H(Fragment=2)         21.75     22.97     16.08 
 O(Fragment=2)         14.22     20.51     21.37 
 H(Fragment=2)         13.92     20.4      20.47 
 H(Fragment=2)         15.04     21.       21.29 
 O(Fragment=2)         21.02     20.98     26.01 
 H(Fragment=2)         20.8      21.04     25.08 
 H(Fragment=2)         20.2      20.7      26.43 
 O(Fragment=2)         20.22     17.7      25.68 
 H(Fragment=2)         20.97     17.75     26.28 
 H(Fragment=2)         20.61     17.7      24.81 
 O(Fragment=2)         20.58     14.6      18.93 
 H(Fragment=2)         21.13     14.01     19.43 
 H(Fragment=2)         21.14     14.92     18.23 
 O(Fragment=2)         17.09     20.83     14.93 
 H(Fragment=2)         17.63     20.53     14.2 
 H(Fragment=2)         17.56     21.58     15.3 
 O(Fragment=2)         17.56     15.55     16.04 
 H(Fragment=2)         17.44     15.06     16.86 
 H(Fragment=2)         17.9      16.4      16.32 
 O(Fragment=2)         25.89     21.       19.93 
 H(Fragment=2)         25.38     21.16     19.14 
 H(Fragment=2)         25.7      20.08     20.15 
 O(Fragment=2)         15.91     19.74     25.06 
 H(Fragment=2)         16.69     20.08     24.62 
 H(Fragment=2)         15.39     19.34     24.37 
 O(Fragment=2)         22.56     15.33     17.06 
 H(Fragment=2)         23.06     15.78     17.73 
 H(Fragment=2)         23.22     14.9      16.52 
 O(Fragment=2)         14.79     18.26     23.13 
 H(Fragment=2)         15.3      17.82     22.45 
 H(Fragment=2)         14.43     19.03     22.69 
 O(Fragment=2)         18.72     25.87     21.33 
 H(Fragment=2)         18.64     26.12     22.25 
 H(Fragment=2)         19.66     25.78     21.18 
 O(Fragment=2)         13.92     20.47     18.2 
 H(Fragment=2)         13.41     19.77     17.79 
 H(Fragment=2)         14.62     20.66     17.57 
 O(Fragment=2)         17.69     13.88     18.41 
 H(Fragment=2)         17.24     14.65     18.76 
 H(Fragment=2)         18.61     14.12     18.42 
 O(Fragment=2)         22.9      15.42     24.54 
 H(Fragment=2)         22.19     15.9      24.11 
 H(Fragment=2)         23.7      15.85     24.25 
 O(Fragment=2)         24.83     17.33     24.41 
 H(Fragment=2)         24.26     18.03     24.09 
 H(Fragment=2)         25.33     17.74     25.12 
 O(Fragment=2)         18.89     20.19     13.1 
 H(Fragment=2)         19.45     20.54     13.8 
 H(Fragment=2)         19.33     19.38     12.83 
 O(Fragment=2)         26.53     18.18     18.35 
 H(Fragment=2)         26.2      18.34     19.23 
 H(Fragment=2)         27.49     18.2      18.45 
 O(Fragment=2)         18.67     20.01     27.06 
 H(Fragment=2)         18.7      19.32     26.39 
 H(Fragment=2)         17.74     20.13     27.24 
 O(Fragment=2)         25.21     19.34     16.05 
 H(Fragment=2)         25.84     20.07     16.01 
 H(Fragment=2)         25.56     18.76     16.73 
 O(Fragment=2)         20.09     27.22     18.22 
 H(Fragment=2)         19.36     27.47     17.65 
 H(Fragment=2)         19.75     26.48     18.73 
 O(Fragment=2)         23.26     19.26     14.12 
 H(Fragment=2)         23.66     19.67     13.35 
 H(Fragment=2)         23.97     19.23     14.76 
 O(Fragment=2)         20.98     13.7      22.56 
 H(Fragment=2)         21.79     13.9      22.09 
 H(Fragment=2)         21.06     14.17     23.39 
 O(Fragment=2)         25.59     15.84     17.47 
 H(Fragment=2)         25.36     16.76     17.52 
 H(Fragment=2)         26.51     15.83     17.2 
 O(Fragment=2)         21.05     15.44     14.55 
 H(Fragment=2)         20.5      15.19     15.3 
 H(Fragment=2)         21.85     15.78     14.95 
 O(Fragment=2)         23.38     14.04     20.9 
 H(Fragment=2)         23.32     13.29     20.31 
 H(Fragment=2)         24.32     14.26     20.91 
 O(Fragment=2)         15.77     25.88     17.36 
 H(Fragment=2)         14.84     26.11     17.48 
 H(Fragment=2)         15.79     24.93     17.42 
 O(Fragment=2)         26.89     19.74     23.53 
 H(Fragment=2)         26.3      19.28     22.94 
 H(Fragment=2)         26.33     20.06     24.24 
 O(Fragment=2)         13.42     18.57     16.18 
 H(Fragment=2)         13.04     18.25     15.36 
 H(Fragment=2)         14.36     18.62     16.01 
 O(Fragment=2)         14.78     24.21     22.31 
 H(Fragment=2)         14.14     23.56     22.6 
 H(Fragment=2)         14.81     24.85     23.02 
 O(Fragment=2)         22.63     26.24     17.76 
 H(Fragment=2)         23.32     26.84     18.02 
 H(Fragment=2)         21.83     26.6      18.15 
 O(Fragment=2)         25.16     24.64     16.28 
 H(Fragment=2)         24.96     25.57     16.22 
 H(Fragment=2)         24.32     24.2      16.09 
 O(Fragment=2)         19.94     23.64     27.24 
 H(Fragment=2)         20.09     23.02     26.52 
 H(Fragment=2)         19.55     23.12     27.94 
 O(Fragment=2)         17.82     14.       24.36 
 H(Fragment=2)         17.63     14.91     24.61 
 H(Fragment=2)         17.87     14.02     23.4 
 O(Fragment=2)         13.01     23.19     18.23 
 H(Fragment=2)         13.89     23.54     18.16 
 H(Fragment=2)         13.12     22.28     18.5 
 O(Fragment=2)         23.55     21.28     27. 
 H(Fragment=2)         22.65     21.13     26.72 
 H(Fragment=2)         23.58     22.21     27.23 
 O(Fragment=2)         16.68     27.23     20.12 
 H(Fragment=2)         16.13     26.58     19.7 
 H(Fragment=2)         17.21     26.73     20.74 
 O(Fragment=2)         19.86     25.41     15.04 
 H(Fragment=2)         20.49     25.95     14.57 
 H(Fragment=2)         19.4      26.02     15.61 
 O(Fragment=2)         12.78     22.37     22.68 
 H(Fragment=2)         12.39     21.92     23.44 
 H(Fragment=2)         13.19     21.67     22.18 
 O(Fragment=2)         14.77     20.72     13.67 
 H(Fragment=2)         14.98     21.2      12.87 
 H(Fragment=2)         15.5      20.9      14.26 
 O(Fragment=2)         26.77     22.53     22.73 
 H(Fragment=2)         27.56     22.3      22.23 
 H(Fragment=2)         26.47     21.71     23.1 
 O(Fragment=2)         21.8      27.53     22.85 
 H(Fragment=2)         21.68     26.86     22.18 
 H(Fragment=2)         21.83     28.35     22.38 
 O(Fragment=2)         15.37     23.17     15.18 
 H(Fragment=2)         15.4      24.03     15.58 
 H(Fragment=2)         15.92     23.25     14.4 
 O(Fragment=2)         14.26     14.43     20.77 
 H(Fragment=2)         14.76     14.95     21.4 
 H(Fragment=2)         13.35     14.69     20.91 
 O(Fragment=2)         14.18     25.58     20.21 
 H(Fragment=2)         14.34     26.38     20.71 
 H(Fragment=2)         14.39     24.87     20.81 
 O(Fragment=2)         28.02     22.37     20.13 
 H(Fragment=2)         27.96     22.91     19.34 
 H(Fragment=2)         27.26     21.8      20.09 
 O(Fragment=2)         25.33     21.37     25.11 
 H(Fragment=2)         26.14     21.61     25.56 
 H(Fragment=2)         24.67     21.37     25.8 
 O(Fragment=2)         23.14     16.78     13.08 
 H(Fragment=2)         24.09     16.8      12.95 
 H(Fragment=2)         22.91     17.67     13.32 
 O(Fragment=2)         24.13     23.67     13.62 
 H(Fragment=2)         23.45     23.78     14.29 
 H(Fragment=2)         24.79     23.12     14.04 
 O(Fragment=2)         15.37     15.73     14.36 
 H(Fragment=2)         16.06     15.66     15.03 
 H(Fragment=2)         15.46     16.61     14.01 
 O(Fragment=2)         18.45     26.4      24.01 
 H(Fragment=2)         17.88     27.18     24.06 
 H(Fragment=2)         18.95     26.42     24.82 
 O(Fragment=2)         16.08     16.99     26.69 
 H(Fragment=2)         16.05     17.84     26.26 
 H(Fragment=2)         16.67     16.46     26.15 
 O(Fragment=2)         18.01     27.03     16.54 
 H(Fragment=2)         17.25     26.52     16.84 
 H(Fragment=2)         17.62     27.77     16.08 
 O(Fragment=2)         23.15     24.32     25.7 
 H(Fragment=2)         23.       24.56     26.62 
 H(Fragment=2)         23.99     24.71     25.48 
 O(Fragment=2)         26.82     16.01     23.31 
 H(Fragment=2)         26.1      16.56     23.6 
 H(Fragment=2)         26.94     15.38     24.02 
 O(Fragment=2)         18.95     15.77     27.22 
 H(Fragment=2)         19.18     16.01     28.11 
 H(Fragment=2)         19.76     15.88     26.72 
 O(Fragment=2)         14.97     18.15     13.33 
 H(Fragment=2)         14.46     18.42     12.57 
 H(Fragment=2)         15.3      18.97     13.7 
 O(Fragment=2)         22.83     12.7      18.42 
 H(Fragment=2)         21.98     12.46     18.04 
 H(Fragment=2)         23.36     12.98     17.67 
 O(Fragment=2)         22.17     17.51     27.36 
 H(Fragment=2)         22.17     17.43     28.31 
 H(Fragment=2)         22.98     17.98     27.16 
 O(Fragment=2)         16.84     11.59     20.56 
 H(Fragment=2)         17.08     12.51     20.44 
 H(Fragment=2)         16.46     11.33     19.73 
 O(Fragment=2)         17.24     24.02     13.31 
 H(Fragment=2)         18.18     23.88     13.15 
 H(Fragment=2)         17.2      24.85     13.78 
 O(Fragment=2)         26.02     14.57     20.94 
 H(Fragment=2)         26.49     14.76     21.75 
 H(Fragment=2)         26.7      14.59     20.26 
 O(Fragment=2)         13.73     14.43     17.86 
 H(Fragment=2)         13.81     14.36     18.81 
 H(Fragment=2)         13.61     15.37     17.7 
 O(Fragment=2)         15.84     21.08     27.71 
 H(Fragment=2)         15.69     22.02     27.77 
 H(Fragment=2)         15.48     20.83     26.86 
 O(Fragment=2)         24.63     18.68     26.85 
 H(Fragment=2)         24.42     19.6      27.03 
 H(Fragment=2)         25.41     18.51     27.37 
 O(Fragment=2)         19.89     23.81     12.5 
 H(Fragment=2)         20.56     23.74     11.82 
 H(Fragment=2)         20.16     24.56     13.03 
 O(Fragment=2)         27.38     24.02     17.81 
 H(Fragment=2)         28.11     23.75     17.25 
 H(Fragment=2)         26.65     24.18     17.2 
 O(Fragment=2)         17.32     13.24     14.42 
 H(Fragment=2)         16.69     12.79     14.97 
 H(Fragment=2)         17.24     14.16     14.68 
 O(Fragment=2)         11.57     18.83     20.99 
 H(Fragment=2)         10.98     19.42     21.47 
 H(Fragment=2)         11.62     19.2      20.11 
 O(Fragment=2)         17.44     21.67     11.42 
 H(Fragment=2)         18.07     21.08     11.84 
 H(Fragment=2)         17.21     22.3      12.09 
 O(Fragment=2)         15.58     13.04     16.45 
 H(Fragment=2)         14.77     13.49     16.7 
 H(Fragment=2)         16.09     12.99     17.26 
 O(Fragment=2)         20.65     16.23     11.53 
 H(Fragment=2)         21.51     16.11     11.13 
 H(Fragment=2)         20.79     16.09     12.47 
 O(Fragment=2)         14.06     14.91     24.17 
 H(Fragment=2)         14.27     15.7      24.67 
 H(Fragment=2)         13.25     15.13     23.7 
 O(Fragment=2)         12.       16.65     22.76 
 H(Fragment=2)         12.11     17.3      22.06 
 H(Fragment=2)         11.18     16.21     22.53 
 O(Fragment=2)         11.18     18.99     17.71 
 H(Fragment=2)         10.54     19.22     17.04 
 H(Fragment=2)         11.96     18.75     17.22 
 O(Fragment=2)         24.01     15.24     27.24 
 H(Fragment=2)         23.48     15.82     26.71 
 H(Fragment=2)         23.43     14.51     27.46 
 O(Fragment=2)         18.97     21.96     29.09 
 H(Fragment=2)         19.09     21.54     29.94 
 H(Fragment=2)         18.78     21.24     28.49 
 O(Fragment=2)         22.33     12.51     25.28 
 H(Fragment=2)         21.87     12.72     26.09 
 H(Fragment=2)         22.6      13.36     24.93 
 O(Fragment=2)         27.48     21.14     15.75 
 H(Fragment=2)         28.08     21.69     16.26 
 H(Fragment=2)         27.97     20.33     15.61 
 O(Fragment=2)         24.31     20.97     12.19 
 H(Fragment=2)         23.86     21.79     12.41 
 H(Fragment=2)         25.21     21.23     12. 
 O(Fragment=2)         19.53     11.79     24.51 
 H(Fragment=2)         20.43     12.05     24.33 
 H(Fragment=2)         19.03     12.6      24.48 
 O(Fragment=2)         12.73     21.81     14.97 
 H(Fragment=2)         13.22     22.63     15.05 
 H(Fragment=2)         13.33     21.22     14.52 
 O(Fragment=2)         24.03     13.35     16.05 
 H(Fragment=2)         23.57     12.79     15.43 
 H(Fragment=2)         24.95     13.1      15.97 
 O(Fragment=2)         25.93     24.83     25.27 
 H(Fragment=2)         26.43     25.65     25.26 
 H(Fragment=2)         26.09     24.43     24.42 
 O(Fragment=2)         18.89     26.17     27. 
 H(Fragment=2)         19.17     25.26     27.03 
 H(Fragment=2)         19.71     26.67     26.95 
 O(Fragment=2)         24.7      28.14     22.18 
 H(Fragment=2)         24.38     27.54     21.5 
 H(Fragment=2)         25.48     27.7      22.54 
 O(Fragment=2)         26.99     26.18     19.51 
 H(Fragment=2)         27.46     26.88     19.05 
 H(Fragment=2)         26.93     25.47     18.87 
 O(Fragment=2)         24.59     27.61     19.22 
 H(Fragment=2)         25.52     27.41     19.32 
 H(Fragment=2)         24.57     28.53     18.95 
 O(Fragment=2)         23.41     27.51     25.24 
 H(Fragment=2)         22.83     27.23     24.53 
 H(Fragment=2)         24.08     28.05     24.82 
 O(Fragment=2)         19.61     19.27     29.88 
 H(Fragment=2)         19.3      18.43     30.22 
 H(Fragment=2)         19.75     19.12     28.95 
 O(Fragment=2)         20.86     11.51     16.94 
 H(Fragment=2)         20.36     11.84     16.19 
 H(Fragment=2)         20.22     11.05     17.48 
 O(Fragment=2)         11.82     16.37     18.83 
 H(Fragment=2)         11.34     17.19     18.92 
 H(Fragment=2)         11.78     16.16     17.89 
 O(Fragment=2)         28.75     16.71     21.61 
 H(Fragment=2)         28.04     16.52     22.22 
 H(Fragment=2)         28.83     17.66     21.62 
 O(Fragment=2)         22.18     26.26     13.85 
 H(Fragment=2)         23.09     26.21     14.15 
 H(Fragment=2)         21.95     27.18     13.94 
 O(Fragment=2)         20.04     12.47     14.7 
 H(Fragment=2)         20.09     11.71     14.12 
 H(Fragment=2)         19.11     12.69     14.72 
 O(Fragment=2)         23.05     19.31     10.54 
 H(Fragment=2)         22.57     19.06     11.32 
 H(Fragment=2)         23.74     19.9      10.86 
 O(Fragment=2)         12.89     26.35     17.76 
 H(Fragment=2)         13.32     26.04     18.56 
 H(Fragment=2)         12.02     26.61     18.05 
 O(Fragment=2)         14.64     25.94     24.4 
 H(Fragment=2)         13.89     26.54     24.42 
 H(Fragment=2)         15.13     26.14     25.19 
 O(Fragment=2)         26.53     22.48     13.75 
 H(Fragment=2)         27.       22.11     14.49 
 H(Fragment=2)         27.16     22.44     13.03 
 
 NAtoms=    385 NQM=      385 NQMF=       0 NMMI=      0 NMMIF=      0
                NMic=       0 NMicF=      0.
                    Isotopes and Nuclear Properties:
 (Nuclear quadrupole moments (NQMom) in fm**2, nuclear magnetic moments (NMagM)
  in nuclear magnetons)

  Atom         1           2           3           4           5           6           7           8           9          10
 IAtWgt=          79          16           1           1          16           1           1          16           1           1
 AtmWgt=  78.9183361  15.9949146   1.0078250   1.0078250  15.9949146   1.0078250   1.0078250  15.9949146   1.0078250   1.0078250
 NucSpn=           3           0           1           1           0           1           1           0           1           1
 AtZEff=   0.0000000   0.0000000   0.0000000   0.0000000   0.0000000   0.0000000   0.0000000   0.0000000   0.0000000   0.0000000
 NQMom=   31.3000000   0.0000000   0.0000000   0.0000000   0.0000000   0.0000000   0.0000000   0.0000000   0.0000000   0.0000000
 NMagM=    2.1063990   0.0000000   2.7928460   2.7928460   0.0000000   2.7928460   2.7928460   0.0000000   2.7928460   2.7928460
 AtZNuc=  35.0000000   8.0000000   1.0000000   1.0000000   8.0000000   1.0000000   1.0000000   8.0000000   1.0000000   1.0000000

  Atom        11          12          13          14          15          16          17          18          19          20
 IAtWgt=          16           1           1          16           1           1          16           1           1          16
 AtmWgt=  15.9949146   1.0078250   1.0078250  15.9949146   1.0078250   1.0078250  15.9949146   1.0078250   1.0078250  15.9949146
 NucSpn=           0           1           1           0           1           1           0           1           1           0
 AtZEff=   0.0000000   0.0000000   0.0000000   0.0000000   0.0000000   0.0000000   0.0000000   0.0000000   0.0000000   0.0000000
 NQMom=    0.0000000   0.0000000   0.0000000   0.0000000   0.0000000   0.0000000   0.0000000   0.0000000   0.0000000   0.0000000
 NMagM=    0.0000000   2.7928460   2.7928460   0.0000000   2.7928460   2.7928460   0.0000000   2.7928460   2.7928460   0.0000000
 AtZNuc=   8.0000000   1.0000000   1.0000000   8.0000000   1.0000000   1.0000000   8.0000000   1.0000000   1.0000000   8.0000000

  Atom        21          22          23          24          25          26          27          28          29          30
 IAtWgt=           1           1          16           1           1          16           1           1          16           1
 AtmWgt=   1.0078250   1.0078250  15.9949146   1.0078250   1.0078250  15.9949146   1.0078250   1.0078250  15.9949146   1.0078250
 NucSpn=           1           1           0           1           1           0           1           1           0           1
 AtZEff=   0.0000000   0.0000000   0.0000000   0.0000000   0.0000000   0.0000000   0.0000000   0.0000000   0.0000000   0.0000000
 NQMom=    0.0000000   0.0000000   0.0000000   0.0000000   0.0000000   0.0000000   0.0000000   0.0000000   0.0000000   0.0000000
 NMagM=    2.7928460   2.7928460   0.0000000   2.7928460   2.7928460   0.0000000   2.7928460   2.7928460   0.0000000   2.7928460
 AtZNuc=   1.0000000   1.0000000   8.0000000   1.0000000   1.0000000   8.0000000   1.0000000   1.0000000   8.0000000   1.0000000

  Atom        31          32          33          34          35          36          37          38          39          40
 IAtWgt=           1          16           1           1          16           1           1          16           1           1
 AtmWgt=   1.0078250  15.9949146   1.0078250   1.0078250  15.9949146   1.0078250   1.0078250  15.9949146   1.0078250   1.0078250
 NucSpn=           1           0           1           1           0           1           1           0           1           1
 AtZEff=   0.0000000   0.0000000   0.0000000   0.0000000   0.0000000   0.0000000   0.0000000   0.0000000   0.0000000   0.0000000
 NQMom=    0.0000000   0.0000000   0.0000000   0.0000000   0.0000000   0.0000000   0.0000000   0.0000000   0.0000000   0.0000000
 NMagM=    2.7928460   0.0000000   2.7928460   2.7928460   0.0000000   2.7928460   2.7928460   0.0000000   2.7928460   2.7928460
 AtZNuc=   1.0000000   8.0000000   1.0000000   1.0000000   8.0000000   1.0000000   1.0000000   8.0000000   1.0000000   1.0000000

  Atom        41          42          43          44          45          46          47          48          49          50
 IAtWgt=          16           1           1          16           1           1          16           1           1          16
 AtmWgt=  15.9949146   1.0078250   1.0078250  15.9949146   1.0078250   1.0078250  15.9949146   1.0078250   1.0078250  15.9949146
 NucSpn=           0           1           1           0           1           1           0           1           1           0
 AtZEff=   0.0000000   0.0000000   0.0000000   0.0000000   0.0000000   0.0000000   0.0000000   0.0000000   0.0000000   0.0000000
 NQMom=    0.0000000   0.0000000   0.0000000   0.0000000   0.0000000   0.0000000   0.0000000   0.0000000   0.0000000   0.0000000
 NMagM=    0.0000000   2.7928460   2.7928460   0.0000000   2.7928460   2.7928460   0.0000000   2.7928460   2.7928460   0.0000000
 AtZNuc=   8.0000000   1.0000000   1.0000000   8.0000000   1.0000000   1.0000000   8.0000000   1.0000000   1.0000000   8.0000000

  Atom        51          52          53          54          55          56          57          58          59          60
 IAtWgt=           1           1          16           1           1          16           1           1          16           1
 AtmWgt=   1.0078250   1.0078250  15.9949146   1.0078250   1.0078250  15.9949146   1.0078250   1.0078250  15.9949146   1.0078250
 NucSpn=           1           1           0           1           1           0           1           1           0           1
 AtZEff=   0.0000000   0.0000000   0.0000000   0.0000000   0.0000000   0.0000000   0.0000000   0.0000000   0.0000000   0.0000000
 NQMom=    0.0000000   0.0000000   0.0000000   0.0000000   0.0000000   0.0000000   0.0000000   0.0000000   0.0000000   0.0000000
 NMagM=    2.7928460   2.7928460   0.0000000   2.7928460   2.7928460   0.0000000   2.7928460   2.7928460   0.0000000   2.7928460
 AtZNuc=   1.0000000   1.0000000   8.0000000   1.0000000   1.0000000   8.0000000   1.0000000   1.0000000   8.0000000   1.0000000

  Atom        61          62          63          64          65          66          67          68          69          70
 IAtWgt=           1          16           1           1          16           1           1          16           1           1
 AtmWgt=   1.0078250  15.9949146   1.0078250   1.0078250  15.9949146   1.0078250   1.0078250  15.9949146   1.0078250   1.0078250
 NucSpn=           1           0           1           1           0           1           1           0           1           1
 AtZEff=   0.0000000   0.0000000   0.0000000   0.0000000   0.0000000   0.0000000   0.0000000   0.0000000   0.0000000   0.0000000
 NQMom=    0.0000000   0.0000000   0.0000000   0.0000000   0.0000000   0.0000000   0.0000000   0.0000000   0.0000000   0.0000000
 NMagM=    2.7928460   0.0000000   2.7928460   2.7928460   0.0000000   2.7928460   2.7928460   0.0000000   2.7928460   2.7928460
 AtZNuc=   1.0000000   8.0000000   1.0000000   1.0000000   8.0000000   1.0000000   1.0000000   8.0000000   1.0000000   1.0000000

  Atom        71          72          73          74          75          76          77          78          79          80
 IAtWgt=          16           1           1          16           1           1          16           1           1          16
 AtmWgt=  15.9949146   1.0078250   1.0078250  15.9949146   1.0078250   1.0078250  15.9949146   1.0078250   1.0078250  15.9949146
 NucSpn=           0           1           1           0           1           1           0           1           1           0
 AtZEff=   0.0000000   0.0000000   0.0000000   0.0000000   0.0000000   0.0000000   0.0000000   0.0000000   0.0000000   0.0000000
 NQMom=    0.0000000   0.0000000   0.0000000   0.0000000   0.0000000   0.0000000   0.0000000   0.0000000   0.0000000   0.0000000
 NMagM=    0.0000000   2.7928460   2.7928460   0.0000000   2.7928460   2.7928460   0.0000000   2.7928460   2.7928460   0.0000000
 AtZNuc=   8.0000000   1.0000000   1.0000000   8.0000000   1.0000000   1.0000000   8.0000000   1.0000000   1.0000000   8.0000000

  Atom        81          82          83          84          85          86          87          88          89          90
 IAtWgt=           1           1          16           1           1          16           1           1          16           1
 AtmWgt=   1.0078250   1.0078250  15.9949146   1.0078250   1.0078250  15.9949146   1.0078250   1.0078250  15.9949146   1.0078250
 NucSpn=           1           1           0           1           1           0           1           1           0           1
 AtZEff=   0.0000000   0.0000000   0.0000000   0.0000000   0.0000000   0.0000000   0.0000000   0.0000000   0.0000000   0.0000000
 NQMom=    0.0000000   0.0000000   0.0000000   0.0000000   0.0000000   0.0000000   0.0000000   0.0000000   0.0000000   0.0000000
 NMagM=    2.7928460   2.7928460   0.0000000   2.7928460   2.7928460   0.0000000   2.7928460   2.7928460   0.0000000   2.7928460
 AtZNuc=   1.0000000   1.0000000   8.0000000   1.0000000   1.0000000   8.0000000   1.0000000   1.0000000   8.0000000   1.0000000

  Atom        91          92          93          94          95          96          97          98          99         100
 IAtWgt=           1          16           1           1          16           1           1          16           1           1
 AtmWgt=   1.0078250  15.9949146   1.0078250   1.0078250  15.9949146   1.0078250   1.0078250  15.9949146   1.0078250   1.0078250
 NucSpn=           1           0           1           1           0           1           1           0           1           1
 AtZEff=   0.0000000   0.0000000   0.0000000   0.0000000   0.0000000   0.0000000   0.0000000   0.0000000   0.0000000   0.0000000
 NQMom=    0.0000000   0.0000000   0.0000000   0.0000000   0.0000000   0.0000000   0.0000000   0.0000000   0.0000000   0.0000000
 NMagM=    2.7928460   0.0000000   2.7928460   2.7928460   0.0000000   2.7928460   2.7928460   0.0000000   2.7928460   2.7928460
 AtZNuc=   1.0000000   8.0000000   1.0000000   1.0000000   8.0000000   1.0000000   1.0000000   8.0000000   1.0000000   1.0000000

  Atom       101         102         103         104         105         106         107         108         109         110
 IAtWgt=          16           1           1          16           1           1          16           1           1          16
 AtmWgt=  15.9949146   1.0078250   1.0078250  15.9949146   1.0078250   1.0078250  15.9949146   1.0078250   1.0078250  15.9949146
 NucSpn=           0           1           1           0           1           1           0           1           1           0
 AtZEff=   0.0000000   0.0000000   0.0000000   0.0000000   0.0000000   0.0000000   0.0000000   0.0000000   0.0000000   0.0000000
 NQMom=    0.0000000   0.0000000   0.0000000   0.0000000   0.0000000   0.0000000   0.0000000   0.0000000   0.0000000   0.0000000
 NMagM=    0.0000000   2.7928460   2.7928460   0.0000000   2.7928460   2.7928460   0.0000000   2.7928460   2.7928460   0.0000000
 AtZNuc=   8.0000000   1.0000000   1.0000000   8.0000000   1.0000000   1.0000000   8.0000000   1.0000000   1.0000000   8.0000000

  Atom       111         112         113         114         115         116         117         118         119         120
 IAtWgt=           1           1          16           1           1          16           1           1          16           1
 AtmWgt=   1.0078250   1.0078250  15.9949146   1.0078250   1.0078250  15.9949146   1.0078250   1.0078250  15.9949146   1.0078250
 NucSpn=           1           1           0           1           1           0           1           1           0           1
 AtZEff=   0.0000000   0.0000000   0.0000000   0.0000000   0.0000000   0.0000000   0.0000000   0.0000000   0.0000000   0.0000000
 NQMom=    0.0000000   0.0000000   0.0000000   0.0000000   0.0000000   0.0000000   0.0000000   0.0000000   0.0000000   0.0000000
 NMagM=    2.7928460   2.7928460   0.0000000   2.7928460   2.7928460   0.0000000   2.7928460   2.7928460   0.0000000   2.7928460
 AtZNuc=   1.0000000   1.0000000   8.0000000   1.0000000   1.0000000   8.0000000   1.0000000   1.0000000   8.0000000   1.0000000

  Atom       121         122         123         124         125         126         127         128         129         130
 IAtWgt=           1          16           1           1          16           1           1          16           1           1
 AtmWgt=   1.0078250  15.9949146   1.0078250   1.0078250  15.9949146   1.0078250   1.0078250  15.9949146   1.0078250   1.0078250
 NucSpn=           1           0           1           1           0           1           1           0           1           1
 AtZEff=   0.0000000   0.0000000   0.0000000   0.0000000   0.0000000   0.0000000   0.0000000   0.0000000   0.0000000   0.0000000
 NQMom=    0.0000000   0.0000000   0.0000000   0.0000000   0.0000000   0.0000000   0.0000000   0.0000000   0.0000000   0.0000000
 NMagM=    2.7928460   0.0000000   2.7928460   2.7928460   0.0000000   2.7928460   2.7928460   0.0000000   2.7928460   2.7928460
 AtZNuc=   1.0000000   8.0000000   1.0000000   1.0000000   8.0000000   1.0000000   1.0000000   8.0000000   1.0000000   1.0000000

  Atom       131         132         133         134         135         136         137         138         139         140
 IAtWgt=          16           1           1          16           1           1          16           1           1          16
 AtmWgt=  15.9949146   1.0078250   1.0078250  15.9949146   1.0078250   1.0078250  15.9949146   1.0078250   1.0078250  15.9949146
 NucSpn=           0           1           1           0           1           1           0           1           1           0
 AtZEff=   0.0000000   0.0000000   0.0000000   0.0000000   0.0000000   0.0000000   0.0000000   0.0000000   0.0000000   0.0000000
 NQMom=    0.0000000   0.0000000   0.0000000   0.0000000   0.0000000   0.0000000   0.0000000   0.0000000   0.0000000   0.0000000
 NMagM=    0.0000000   2.7928460   2.7928460   0.0000000   2.7928460   2.7928460   0.0000000   2.7928460   2.7928460   0.0000000
 AtZNuc=   8.0000000   1.0000000   1.0000000   8.0000000   1.0000000   1.0000000   8.0000000   1.0000000   1.0000000   8.0000000

  Atom       141         142         143         144         145         146         147         148         149         150
 IAtWgt=           1           1          16           1           1          16           1           1          16           1
 AtmWgt=   1.0078250   1.0078250  15.9949146   1.0078250   1.0078250  15.9949146   1.0078250   1.0078250  15.9949146   1.0078250
 NucSpn=           1           1           0           1           1           0           1           1           0           1
 AtZEff=   0.0000000   0.0000000   0.0000000   0.0000000   0.0000000   0.0000000   0.0000000   0.0000000   0.0000000   0.0000000
 NQMom=    0.0000000   0.0000000   0.0000000   0.0000000   0.0000000   0.0000000   0.0000000   0.0000000   0.0000000   0.0000000
 NMagM=    2.7928460   2.7928460   0.0000000   2.7928460   2.7928460   0.0000000   2.7928460   2.7928460   0.0000000   2.7928460
 AtZNuc=   1.0000000   1.0000000   8.0000000   1.0000000   1.0000000   8.0000000   1.0000000   1.0000000   8.0000000   1.0000000

  Atom       151         152         153         154         155         156         157         158         159         160
 IAtWgt=           1          16           1           1          16           1           1          16           1           1
 AtmWgt=   1.0078250  15.9949146   1.0078250   1.0078250  15.9949146   1.0078250   1.0078250  15.9949146   1.0078250   1.0078250
 NucSpn=           1           0           1           1           0           1           1           0           1           1
 AtZEff=   0.0000000   0.0000000   0.0000000   0.0000000   0.0000000   0.0000000   0.0000000   0.0000000   0.0000000   0.0000000
 NQMom=    0.0000000   0.0000000   0.0000000   0.0000000   0.0000000   0.0000000   0.0000000   0.0000000   0.0000000   0.0000000
 NMagM=    2.7928460   0.0000000   2.7928460   2.7928460   0.0000000   2.7928460   2.7928460   0.0000000   2.7928460   2.7928460
 AtZNuc=   1.0000000   8.0000000   1.0000000   1.0000000   8.0000000   1.0000000   1.0000000   8.0000000   1.0000000   1.0000000

  Atom       161         162         163         164         165         166         167         168         169         170
 IAtWgt=          16           1           1          16           1           1          16           1           1          16
 AtmWgt=  15.9949146   1.0078250   1.0078250  15.9949146   1.0078250   1.0078250  15.9949146   1.0078250   1.0078250  15.9949146
 NucSpn=           0           1           1           0           1           1           0           1           1           0
 AtZEff=   0.0000000   0.0000000   0.0000000   0.0000000   0.0000000   0.0000000   0.0000000   0.0000000   0.0000000   0.0000000
 NQMom=    0.0000000   0.0000000   0.0000000   0.0000000   0.0000000   0.0000000   0.0000000   0.0000000   0.0000000   0.0000000
 NMagM=    0.0000000   2.7928460   2.7928460   0.0000000   2.7928460   2.7928460   0.0000000   2.7928460   2.7928460   0.0000000
 AtZNuc=   8.0000000   1.0000000   1.0000000   8.0000000   1.0000000   1.0000000   8.0000000   1.0000000   1.0000000   8.0000000

  Atom       171         172         173         174         175         176         177         178         179         180
 IAtWgt=           1           1          16           1           1          16           1           1          16           1
 AtmWgt=   1.0078250   1.0078250  15.9949146   1.0078250   1.0078250  15.9949146   1.0078250   1.0078250  15.9949146   1.0078250
 NucSpn=           1           1           0           1           1           0           1           1           0           1
 AtZEff=   0.0000000   0.0000000   0.0000000   0.0000000   0.0000000   0.0000000   0.0000000   0.0000000   0.0000000   0.0000000
 NQMom=    0.0000000   0.0000000   0.0000000   0.0000000   0.0000000   0.0000000   0.0000000   0.0000000   0.0000000   0.0000000
 NMagM=    2.7928460   2.7928460   0.0000000   2.7928460   2.7928460   0.0000000   2.7928460   2.7928460   0.0000000   2.7928460
 AtZNuc=   1.0000000   1.0000000   8.0000000   1.0000000   1.0000000   8.0000000   1.0000000   1.0000000   8.0000000   1.0000000

  Atom       181         182         183         184         185         186         187         188         189         190
 IAtWgt=           1          16           1           1          16           1           1          16           1           1
 AtmWgt=   1.0078250  15.9949146   1.0078250   1.0078250  15.9949146   1.0078250   1.0078250  15.9949146   1.0078250   1.0078250
 NucSpn=           1           0           1           1           0           1           1           0           1           1
 AtZEff=   0.0000000   0.0000000   0.0000000   0.0000000   0.0000000   0.0000000   0.0000000   0.0000000   0.0000000   0.0000000
 NQMom=    0.0000000   0.0000000   0.0000000   0.0000000   0.0000000   0.0000000   0.0000000   0.0000000   0.0000000   0.0000000
 NMagM=    2.7928460   0.0000000   2.7928460   2.7928460   0.0000000   2.7928460   2.7928460   0.0000000   2.7928460   2.7928460
 AtZNuc=   1.0000000   8.0000000   1.0000000   1.0000000   8.0000000   1.0000000   1.0000000   8.0000000   1.0000000   1.0000000

  Atom       191         192         193         194         195         196         197         198         199         200
 IAtWgt=          16           1           1          16           1           1          16           1           1          16
 AtmWgt=  15.9949146   1.0078250   1.0078250  15.9949146   1.0078250   1.0078250  15.9949146   1.0078250   1.0078250  15.9949146
 NucSpn=           0           1           1           0           1           1           0           1           1           0
 AtZEff=   0.0000000   0.0000000   0.0000000   0.0000000   0.0000000   0.0000000   0.0000000   0.0000000   0.0000000   0.0000000
 NQMom=    0.0000000   0.0000000   0.0000000   0.0000000   0.0000000   0.0000000   0.0000000   0.0000000   0.0000000   0.0000000
 NMagM=    0.0000000   2.7928460   2.7928460   0.0000000   2.7928460   2.7928460   0.0000000   2.7928460   2.7928460   0.0000000
 AtZNuc=   8.0000000   1.0000000   1.0000000   8.0000000   1.0000000   1.0000000   8.0000000   1.0000000   1.0000000   8.0000000

  Atom       201         202         203         204         205         206         207         208         209         210
 IAtWgt=           1           1          16           1           1          16           1           1          16           1
 AtmWgt=   1.0078250   1.0078250  15.9949146   1.0078250   1.0078250  15.9949146   1.0078250   1.0078250  15.9949146   1.0078250
 NucSpn=           1           1           0           1           1           0           1           1           0           1
 AtZEff=   0.0000000   0.0000000   0.0000000   0.0000000   0.0000000   0.0000000   0.0000000   0.0000000   0.0000000   0.0000000
 NQMom=    0.0000000   0.0000000   0.0000000   0.0000000   0.0000000   0.0000000   0.0000000   0.0000000   0.0000000   0.0000000
 NMagM=    2.7928460   2.7928460   0.0000000   2.7928460   2.7928460   0.0000000   2.7928460   2.7928460   0.0000000   2.7928460
 AtZNuc=   1.0000000   1.0000000   8.0000000   1.0000000   1.0000000   8.0000000   1.0000000   1.0000000   8.0000000   1.0000000

  Atom       211         212         213         214         215         216         217         218         219         220
 IAtWgt=           1          16           1           1          16           1           1          16           1           1
 AtmWgt=   1.0078250  15.9949146   1.0078250   1.0078250  15.9949146   1.0078250   1.0078250  15.9949146   1.0078250   1.0078250
 NucSpn=           1           0           1           1           0           1           1           0           1           1
 AtZEff=   0.0000000   0.0000000   0.0000000   0.0000000   0.0000000   0.0000000   0.0000000   0.0000000   0.0000000   0.0000000
 NQMom=    0.0000000   0.0000000   0.0000000   0.0000000   0.0000000   0.0000000   0.0000000   0.0000000   0.0000000   0.0000000
 NMagM=    2.7928460   0.0000000   2.7928460   2.7928460   0.0000000   2.7928460   2.7928460   0.0000000   2.7928460   2.7928460
 AtZNuc=   1.0000000   8.0000000   1.0000000   1.0000000   8.0000000   1.0000000   1.0000000   8.0000000   1.0000000   1.0000000

  Atom       221         222         223         224         225         226         227         228         229         230
 IAtWgt=          16           1           1          16           1           1          16           1           1          16
 AtmWgt=  15.9949146   1.0078250   1.0078250  15.9949146   1.0078250   1.0078250  15.9949146   1.0078250   1.0078250  15.9949146
 NucSpn=           0           1           1           0           1           1           0           1           1           0
 AtZEff=   0.0000000   0.0000000   0.0000000   0.0000000   0.0000000   0.0000000   0.0000000   0.0000000   0.0000000   0.0000000
 NQMom=    0.0000000   0.0000000   0.0000000   0.0000000   0.0000000   0.0000000   0.0000000   0.0000000   0.0000000   0.0000000
 NMagM=    0.0000000   2.7928460   2.7928460   0.0000000   2.7928460   2.7928460   0.0000000   2.7928460   2.7928460   0.0000000
 AtZNuc=   8.0000000   1.0000000   1.0000000   8.0000000   1.0000000   1.0000000   8.0000000   1.0000000   1.0000000   8.0000000

  Atom       231         232         233         234         235         236         237         238         239         240
 IAtWgt=           1           1          16           1           1          16           1           1          16           1
 AtmWgt=   1.0078250   1.0078250  15.9949146   1.0078250   1.0078250  15.9949146   1.0078250   1.0078250  15.9949146   1.0078250
 NucSpn=           1           1           0           1           1           0           1           1           0           1
 AtZEff=   0.0000000   0.0000000   0.0000000   0.0000000   0.0000000   0.0000000   0.0000000   0.0000000   0.0000000   0.0000000
 NQMom=    0.0000000   0.0000000   0.0000000   0.0000000   0.0000000   0.0000000   0.0000000   0.0000000   0.0000000   0.0000000
 NMagM=    2.7928460   2.7928460   0.0000000   2.7928460   2.7928460   0.0000000   2.7928460   2.7928460   0.0000000   2.7928460
 AtZNuc=   1.0000000   1.0000000   8.0000000   1.0000000   1.0000000   8.0000000   1.0000000   1.0000000   8.0000000   1.0000000

  Atom       241         242         243         244         245         246         247         248         249         250
 IAtWgt=           1          16           1           1          16           1           1          16           1           1
 AtmWgt=   1.0078250  15.9949146   1.0078250   1.0078250  15.9949146   1.0078250   1.0078250  15.9949146   1.0078250   1.0078250
 NucSpn=           1           0           1           1           0           1           1           0           1           1
 AtZEff=   0.0000000   0.0000000   0.0000000   0.0000000   0.0000000   0.0000000   0.0000000   0.0000000   0.0000000   0.0000000
 NQMom=    0.0000000   0.0000000   0.0000000   0.0000000   0.0000000   0.0000000   0.0000000   0.0000000   0.0000000   0.0000000
 NMagM=    2.7928460   0.0000000   2.7928460   2.7928460   0.0000000   2.7928460   2.7928460   0.0000000   2.7928460   2.7928460
 AtZNuc=   1.0000000   8.0000000   1.0000000   1.0000000   8.0000000   1.0000000   1.0000000   8.0000000   1.0000000   1.0000000

  Atom       251         252         253         254         255         256         257         258         259         260
 IAtWgt=          16           1           1          16           1           1          16           1           1          16
 AtmWgt=  15.9949146   1.0078250   1.0078250  15.9949146   1.0078250   1.0078250  15.9949146   1.0078250   1.0078250  15.9949146
 NucSpn=           0           1           1           0           1           1           0           1           1           0
 AtZEff=   0.0000000   0.0000000   0.0000000   0.0000000   0.0000000   0.0000000   0.0000000   0.0000000   0.0000000   0.0000000
 NQMom=    0.0000000   0.0000000   0.0000000   0.0000000   0.0000000   0.0000000   0.0000000   0.0000000   0.0000000   0.0000000
 NMagM=    0.0000000   2.7928460   2.7928460   0.0000000   2.7928460   2.7928460   0.0000000   2.7928460   2.7928460   0.0000000
 AtZNuc=   8.0000000   1.0000000   1.0000000   8.0000000   1.0000000   1.0000000   8.0000000   1.0000000   1.0000000   8.0000000

  Atom       261         262         263         264         265         266         267         268         269         270
 IAtWgt=           1           1          16           1           1          16           1           1          16           1
 AtmWgt=   1.0078250   1.0078250  15.9949146   1.0078250   1.0078250  15.9949146   1.0078250   1.0078250  15.9949146   1.0078250
 NucSpn=           1           1           0           1           1           0           1           1           0           1
 AtZEff=   0.0000000   0.0000000   0.0000000   0.0000000   0.0000000   0.0000000   0.0000000   0.0000000   0.0000000   0.0000000
 NQMom=    0.0000000   0.0000000   0.0000000   0.0000000   0.0000000   0.0000000   0.0000000   0.0000000   0.0000000   0.0000000
 NMagM=    2.7928460   2.7928460   0.0000000   2.7928460   2.7928460   0.0000000   2.7928460   2.7928460   0.0000000   2.7928460
 AtZNuc=   1.0000000   1.0000000   8.0000000   1.0000000   1.0000000   8.0000000   1.0000000   1.0000000   8.0000000   1.0000000

  Atom       271         272         273         274         275         276         277         278         279         280
 IAtWgt=           1          16           1           1          16           1           1          16           1           1
 AtmWgt=   1.0078250  15.9949146   1.0078250   1.0078250  15.9949146   1.0078250   1.0078250  15.9949146   1.0078250   1.0078250
 NucSpn=           1           0           1           1           0           1           1           0           1           1
 AtZEff=   0.0000000   0.0000000   0.0000000   0.0000000   0.0000000   0.0000000   0.0000000   0.0000000   0.0000000   0.0000000
 NQMom=    0.0000000   0.0000000   0.0000000   0.0000000   0.0000000   0.0000000   0.0000000   0.0000000   0.0000000   0.0000000
 NMagM=    2.7928460   0.0000000   2.7928460   2.7928460   0.0000000   2.7928460   2.7928460   0.0000000   2.7928460   2.7928460
 AtZNuc=   1.0000000   8.0000000   1.0000000   1.0000000   8.0000000   1.0000000   1.0000000   8.0000000   1.0000000   1.0000000

  Atom       281         282         283         284         285         286         287         288         289         290
 IAtWgt=          16           1           1          16           1           1          16           1           1          16
 AtmWgt=  15.9949146   1.0078250   1.0078250  15.9949146   1.0078250   1.0078250  15.9949146   1.0078250   1.0078250  15.9949146
 NucSpn=           0           1           1           0           1           1           0           1           1           0
 AtZEff=   0.0000000   0.0000000   0.0000000   0.0000000   0.0000000   0.0000000   0.0000000   0.0000000   0.0000000   0.0000000
 NQMom=    0.0000000   0.0000000   0.0000000   0.0000000   0.0000000   0.0000000   0.0000000   0.0000000   0.0000000   0.0000000
 NMagM=    0.0000000   2.7928460   2.7928460   0.0000000   2.7928460   2.7928460   0.0000000   2.7928460   2.7928460   0.0000000
 AtZNuc=   8.0000000   1.0000000   1.0000000   8.0000000   1.0000000   1.0000000   8.0000000   1.0000000   1.0000000   8.0000000

  Atom       291         292         293         294         295         296         297         298         299         300
 IAtWgt=           1           1          16           1           1          16           1           1          16           1
 AtmWgt=   1.0078250   1.0078250  15.9949146   1.0078250   1.0078250  15.9949146   1.0078250   1.0078250  15.9949146   1.0078250
 NucSpn=           1           1           0           1           1           0           1           1           0           1
 AtZEff=   0.0000000   0.0000000   0.0000000   0.0000000   0.0000000   0.0000000   0.0000000   0.0000000   0.0000000   0.0000000
 NQMom=    0.0000000   0.0000000   0.0000000   0.0000000   0.0000000   0.0000000   0.0000000   0.0000000   0.0000000   0.0000000
 NMagM=    2.7928460   2.7928460   0.0000000   2.7928460   2.7928460   0.0000000   2.7928460   2.7928460   0.0000000   2.7928460
 AtZNuc=   1.0000000   1.0000000   8.0000000   1.0000000   1.0000000   8.0000000   1.0000000   1.0000000   8.0000000   1.0000000

  Atom       301         302         303         304         305         306         307         308         309         310
 IAtWgt=           1          16           1           1          16           1           1          16           1           1
 AtmWgt=   1.0078250  15.9949146   1.0078250   1.0078250  15.9949146   1.0078250   1.0078250  15.9949146   1.0078250   1.0078250
 NucSpn=           1           0           1           1           0           1           1           0           1           1
 AtZEff=   0.0000000   0.0000000   0.0000000   0.0000000   0.0000000   0.0000000   0.0000000   0.0000000   0.0000000   0.0000000
 NQMom=    0.0000000   0.0000000   0.0000000   0.0000000   0.0000000   0.0000000   0.0000000   0.0000000   0.0000000   0.0000000
 NMagM=    2.7928460   0.0000000   2.7928460   2.7928460   0.0000000   2.7928460   2.7928460   0.0000000   2.7928460   2.7928460
 AtZNuc=   1.0000000   8.0000000   1.0000000   1.0000000   8.0000000   1.0000000   1.0000000   8.0000000   1.0000000   1.0000000

  Atom       311         312         313         314         315         316         317         318         319         320
 IAtWgt=          16           1           1          16           1           1          16           1           1          16
 AtmWgt=  15.9949146   1.0078250   1.0078250  15.9949146   1.0078250   1.0078250  15.9949146   1.0078250   1.0078250  15.9949146
 NucSpn=           0           1           1           0           1           1           0           1           1           0
 AtZEff=   0.0000000   0.0000000   0.0000000   0.0000000   0.0000000   0.0000000   0.0000000   0.0000000   0.0000000   0.0000000
 NQMom=    0.0000000   0.0000000   0.0000000   0.0000000   0.0000000   0.0000000   0.0000000   0.0000000   0.0000000   0.0000000
 NMagM=    0.0000000   2.7928460   2.7928460   0.0000000   2.7928460   2.7928460   0.0000000   2.7928460   2.7928460   0.0000000
 AtZNuc=   8.0000000   1.0000000   1.0000000   8.0000000   1.0000000   1.0000000   8.0000000   1.0000000   1.0000000   8.0000000

  Atom       321         322         323         324         325         326         327         328         329         330
 IAtWgt=           1           1          16           1           1          16           1           1          16           1
 AtmWgt=   1.0078250   1.0078250  15.9949146   1.0078250   1.0078250  15.9949146   1.0078250   1.0078250  15.9949146   1.0078250
 NucSpn=           1           1           0           1           1           0           1           1           0           1
 AtZEff=   0.0000000   0.0000000   0.0000000   0.0000000   0.0000000   0.0000000   0.0000000   0.0000000   0.0000000   0.0000000
 NQMom=    0.0000000   0.0000000   0.0000000   0.0000000   0.0000000   0.0000000   0.0000000   0.0000000   0.0000000   0.0000000
 NMagM=    2.7928460   2.7928460   0.0000000   2.7928460   2.7928460   0.0000000   2.7928460   2.7928460   0.0000000   2.7928460
 AtZNuc=   1.0000000   1.0000000   8.0000000   1.0000000   1.0000000   8.0000000   1.0000000   1.0000000   8.0000000   1.0000000

  Atom       331         332         333         334         335         336         337         338         339         340
 IAtWgt=           1          16           1           1          16           1           1          16           1           1
 AtmWgt=   1.0078250  15.9949146   1.0078250   1.0078250  15.9949146   1.0078250   1.0078250  15.9949146   1.0078250   1.0078250
 NucSpn=           1           0           1           1           0           1           1           0           1           1
 AtZEff=   0.0000000   0.0000000   0.0000000   0.0000000   0.0000000   0.0000000   0.0000000   0.0000000   0.0000000   0.0000000
 NQMom=    0.0000000   0.0000000   0.0000000   0.0000000   0.0000000   0.0000000   0.0000000   0.0000000   0.0000000   0.0000000
 NMagM=    2.7928460   0.0000000   2.7928460   2.7928460   0.0000000   2.7928460   2.7928460   0.0000000   2.7928460   2.7928460
 AtZNuc=   1.0000000   8.0000000   1.0000000   1.0000000   8.0000000   1.0000000   1.0000000   8.0000000   1.0000000   1.0000000

  Atom       341         342         343         344         345         346         347         348         349         350
 IAtWgt=          16           1           1          16           1           1          16           1           1          16
 AtmWgt=  15.9949146   1.0078250   1.0078250  15.9949146   1.0078250   1.0078250  15.9949146   1.0078250   1.0078250  15.9949146
 NucSpn=           0           1           1           0           1           1           0           1           1           0
 AtZEff=   0.0000000   0.0000000   0.0000000   0.0000000   0.0000000   0.0000000   0.0000000   0.0000000   0.0000000   0.0000000
 NQMom=    0.0000000   0.0000000   0.0000000   0.0000000   0.0000000   0.0000000   0.0000000   0.0000000   0.0000000   0.0000000
 NMagM=    0.0000000   2.7928460   2.7928460   0.0000000   2.7928460   2.7928460   0.0000000   2.7928460   2.7928460   0.0000000
 AtZNuc=   8.0000000   1.0000000   1.0000000   8.0000000   1.0000000   1.0000000   8.0000000   1.0000000   1.0000000   8.0000000

  Atom       351         352         353         354         355         356         357         358         359         360
 IAtWgt=           1           1          16           1           1          16           1           1          16           1
 AtmWgt=   1.0078250   1.0078250  15.9949146   1.0078250   1.0078250  15.9949146   1.0078250   1.0078250  15.9949146   1.0078250
 NucSpn=           1           1           0           1           1           0           1           1           0           1
 AtZEff=   0.0000000   0.0000000   0.0000000   0.0000000   0.0000000   0.0000000   0.0000000   0.0000000   0.0000000   0.0000000
 NQMom=    0.0000000   0.0000000   0.0000000   0.0000000   0.0000000   0.0000000   0.0000000   0.0000000   0.0000000   0.0000000
 NMagM=    2.7928460   2.7928460   0.0000000   2.7928460   2.7928460   0.0000000   2.7928460   2.7928460   0.0000000   2.7928460
 AtZNuc=   1.0000000   1.0000000   8.0000000   1.0000000   1.0000000   8.0000000   1.0000000   1.0000000   8.0000000   1.0000000

  Atom       361         362         363         364         365         366         367         368         369         370
 IAtWgt=           1          16           1           1          16           1           1          16           1           1
 AtmWgt=   1.0078250  15.9949146   1.0078250   1.0078250  15.9949146   1.0078250   1.0078250  15.9949146   1.0078250   1.0078250
 NucSpn=           1           0           1           1           0           1           1           0           1           1
 AtZEff=   0.0000000   0.0000000   0.0000000   0.0000000   0.0000000   0.0000000   0.0000000   0.0000000   0.0000000   0.0000000
 NQMom=    0.0000000   0.0000000   0.0000000   0.0000000   0.0000000   0.0000000   0.0000000   0.0000000   0.0000000   0.0000000
 NMagM=    2.7928460   0.0000000   2.7928460   2.7928460   0.0000000   2.7928460   2.7928460   0.0000000   2.7928460   2.7928460
 AtZNuc=   1.0000000   8.0000000   1.0000000   1.0000000   8.0000000   1.0000000   1.0000000   8.0000000   1.0000000   1.0000000

  Atom       371         372         373         374         375         376         377         378         379         380
 IAtWgt=          16           1           1          16           1           1          16           1           1          16
 AtmWgt=  15.9949146   1.0078250   1.0078250  15.9949146   1.0078250   1.0078250  15.9949146   1.0078250   1.0078250  15.9949146
 NucSpn=           0           1           1           0           1           1           0           1           1           0
 AtZEff=   0.0000000   0.0000000   0.0000000   0.0000000   0.0000000   0.0000000   0.0000000   0.0000000   0.0000000   0.0000000
 NQMom=    0.0000000   0.0000000   0.0000000   0.0000000   0.0000000   0.0000000   0.0000000   0.0000000   0.0000000   0.0000000
 NMagM=    0.0000000   2.7928460   2.7928460   0.0000000   2.7928460   2.7928460   0.0000000   2.7928460   2.7928460   0.0000000
 AtZNuc=   8.0000000   1.0000000   1.0000000   8.0000000   1.0000000   1.0000000   8.0000000   1.0000000   1.0000000   8.0000000

  Atom       381         382         383         384         385
 IAtWgt=           1           1          16           1           1
 AtmWgt=   1.0078250   1.0078250  15.9949146   1.0078250   1.0078250
 NucSpn=           1           1           0           1           1
 AtZEff=   0.0000000   0.0000000   0.0000000   0.0000000   0.0000000
 NQMom=    0.0000000   0.0000000   0.0000000   0.0000000   0.0000000
 NMagM=    2.7928460   2.7928460   0.0000000   2.7928460   2.7928460
 AtZNuc=   1.0000000   1.0000000   8.0000000   1.0000000   1.0000000
 Leave Link  101 at Sat May 12 19:12:24 2018, MaxMem= 14763950080 cpu:        37.9
 (Enter /cm/shared/gaussian/g09.e01/intel64-sandybridge/g09/l103.exe)

 GradGradGradGradGradGradGradGradGradGradGradGradGradGradGradGradGradGrad
 Berny optimization.
 Initialization pass.
 Trust Radius=3.00D-01 FncErr=1.00D-07 GrdErr=1.00D-07
 Number of steps in this run=      2 maximum allowed number of steps=      2.
 GradGradGradGradGradGradGradGradGradGradGradGradGradGradGradGradGradGrad

 Leave Link  103 at Sat May 12 19:12:24 2018, MaxMem= 14763950080 cpu:         6.9
 (Enter /cm/shared/gaussian/g09.e01/intel64-sandybridge/g09/l202.exe)
 Symmetry turned off by external request.
 Stoichiometry    BrH256O128(1-)
 Framework group  C1[X(BrH256O128)]
 Deg. of freedom  1149
 Full point group                 C1      NOp   1
                          Input orientation:                          
 ---------------------------------------------------------------------
 Center     Atomic      Atomic             Coordinates (Angstroms)
 Number     Number       Type             X           Y           Z
 ---------------------------------------------------------------------
      1         35           0       20.000000   20.000000   20.000000
      2          8           0       20.950000   18.010000   17.710000
      3          1           0       20.640000   18.490000   18.470000
      4          1           0       21.870000   17.810000   17.910000
      5          8           0       22.590000   18.710000   21.430000
      6          1           0       21.770000   19.030000   21.040000
      7          1           0       22.730000   19.280000   22.190000
      8          8           0       18.150000   18.650000   22.250000
      9          1           0       18.540000   18.970000   21.440000
     10          1           0       17.980000   19.440000   22.770000
     11          8           0       21.100000   21.410000   17.160000
     12          1           0       20.860000   20.910000   17.940000
     13          1           0       20.920000   20.810000   16.430000
     14          8           0       17.200000   20.360000   18.060000
     15          1           0       17.910000   20.290000   18.700000
     16          1           0       17.620000   20.690000   17.270000
     17          8           0       20.230000   16.720000   20.580000
     18          1           0       19.830000   17.480000   20.160000
     19          1           0       20.440000   16.130000   19.860000
     20          8           0       20.760000   20.800000   23.240000
     21          1           0       20.280000   20.500000   22.480000
     22          1           0       20.920000   21.730000   23.080000
     23          8           0       18.130000   18.190000   16.650000
     24          1           0       19.010000   18.560000   16.680000
     25          1           0       17.560000   18.950000   16.520000
     26          8           0       20.550000   24.020000   18.170000
     27          1           0       21.030000   23.210000   18.300000
     28          1           0       21.170000   24.600000   17.730000
     29          8           0       23.150000   16.770000   19.570000
     30          1           0       22.960000   16.130000   20.260000
     31          1           0       22.930000   17.610000   19.960000
     32          8           0       17.650000   20.990000   23.540000
     33          1           0       18.120000   21.780000   23.800000
     34          1           0       17.360000   21.170000   22.640000
     35          8           0       20.610000   19.380000   15.510000
     36          1           0       20.750000   18.890000   16.320000
     37          1           0       21.170000   18.950000   14.860000
     38          8           0       16.810000   22.460000   21.550000
     39          1           0       17.380000   22.840000   20.880000
     40          1           0       16.250000   23.190000   21.820000
     41          8           0       18.240000   24.010000   19.570000
     42          1           0       19.190000   23.890000   19.590000
     43          1           0       18.090000   24.760000   20.150000
     44          8           0       17.200000   16.530000   19.050000
     45          1           0       17.260000   17.340000   18.550000
     46          1           0       16.640000   16.750000   19.800000
     47          8           0       20.990000   16.880000   23.260000
     48          1           0       20.500000   16.710000   22.460000
     49          1           0       21.660000   17.520000   23.010000
     50          8           0       24.200000   21.600000   17.590000
     51          1           0       23.310000   21.280000   17.690000
     52          1           0       24.380000   21.530000   16.650000
     53          8           0       18.260000   23.160000   16.350000
     54          1           0       18.750000   23.100000   17.170000
     55          1           0       18.660000   23.900000   15.890000
     56          8           0       16.420000   16.400000   21.550000
     57          1           0       17.110000   17.000000   21.830000
     58          1           0       16.740000   15.530000   21.770000
     59          8           0       23.420000   19.590000   24.040000
     60          1           0       22.470000   19.690000   24.160000
     61          1           0       23.790000   20.390000   24.400000
     62          8           0       15.870000   23.340000   17.960000
     63          1           0       16.710000   23.330000   18.410000
     64          1           0       16.010000   22.820000   17.170000
     65          8           0       18.530000   14.640000   21.670000
     66          1           0       19.350000   14.150000   21.760000
     67          1           0       18.720000   15.310000   21.020000
     68          8           0       23.590000   23.760000   19.310000
     69          1           0       23.800000   22.990000   18.780000
     70          1           0       23.950000   24.500000   18.820000
     71          8           0       17.920000   16.740000   24.460000
     72          1           0       18.550000   17.120000   25.080000
     73          1           0       17.890000   17.370000   23.740000
     74          8           0       23.970000   23.040000   21.830000
     75          1           0       23.780000   23.220000   20.910000
     76          1           0       24.800000   22.550000   21.810000
     77          8           0       25.580000   18.440000   21.080000
     78          1           0       24.650000   18.220000   21.110000
     79          1           0       26.030000   17.620000   21.280000
     80          8           0       21.380000   25.240000   20.830000
     81          1           0       21.810000   24.700000   21.490000
     82          1           0       21.650000   24.850000   19.990000
     83          8           0       21.760000   23.660000   23.390000
     84          1           0       22.550000   23.330000   22.970000
     85          1           0       22.050000   24.000000   24.240000
     86          8           0       19.010000   23.390000   24.180000
     87          1           0       19.810000   23.620000   23.710000
     88          1           0       18.510000   24.200000   24.230000
     89          8           0       22.210000   23.570000   15.500000
     90          1           0       21.560000   24.240000   15.270000
     91          1           0       21.750000   22.970000   16.080000
     92          8           0       14.220000   20.510000   21.370000
     93          1           0       13.920000   20.400000   20.470000
     94          1           0       15.040000   21.000000   21.290000
     95          8           0       21.020000   20.980000   26.010000
     96          1           0       20.800000   21.040000   25.080000
     97          1           0       20.200000   20.700000   26.430000
     98          8           0       20.220000   17.700000   25.680000
     99          1           0       20.970000   17.750000   26.280000
    100          1           0       20.610000   17.700000   24.810000
    101          8           0       20.580000   14.600000   18.930000
    102          1           0       21.130000   14.010000   19.430000
    103          1           0       21.140000   14.920000   18.230000
    104          8           0       17.090000   20.830000   14.930000
    105          1           0       17.630000   20.530000   14.200000
    106          1           0       17.560000   21.580000   15.300000
    107          8           0       17.560000   15.550000   16.040000
    108          1           0       17.440000   15.060000   16.860000
    109          1           0       17.900000   16.400000   16.320000
    110          8           0       25.890000   21.000000   19.930000
    111          1           0       25.380000   21.160000   19.140000
    112          1           0       25.700000   20.080000   20.150000
    113          8           0       15.910000   19.740000   25.060000
    114          1           0       16.690000   20.080000   24.620000
    115          1           0       15.390000   19.340000   24.370000
    116          8           0       22.560000   15.330000   17.060000
    117          1           0       23.060000   15.780000   17.730000
    118          1           0       23.220000   14.900000   16.520000
    119          8           0       14.790000   18.260000   23.130000
    120          1           0       15.300000   17.820000   22.450000
    121          1           0       14.430000   19.030000   22.690000
    122          8           0       18.720000   25.870000   21.330000
    123          1           0       18.640000   26.120000   22.250000
    124          1           0       19.660000   25.780000   21.180000
    125          8           0       13.920000   20.470000   18.200000
    126          1           0       13.410000   19.770000   17.790000
    127          1           0       14.620000   20.660000   17.570000
    128          8           0       17.690000   13.880000   18.410000
    129          1           0       17.240000   14.650000   18.760000
    130          1           0       18.610000   14.120000   18.420000
    131          8           0       22.900000   15.420000   24.540000
    132          1           0       22.190000   15.900000   24.110000
    133          1           0       23.700000   15.850000   24.250000
    134          8           0       24.830000   17.330000   24.410000
    135          1           0       24.260000   18.030000   24.090000
    136          1           0       25.330000   17.740000   25.120000
    137          8           0       18.890000   20.190000   13.100000
    138          1           0       19.450000   20.540000   13.800000
    139          1           0       19.330000   19.380000   12.830000
    140          8           0       26.530000   18.180000   18.350000
    141          1           0       26.200000   18.340000   19.230000
    142          1           0       27.490000   18.200000   18.450000
    143          8           0       18.670000   20.010000   27.060000
    144          1           0       18.700000   19.320000   26.390000
    145          1           0       17.740000   20.130000   27.240000
    146          8           0       25.210000   19.340000   16.050000
    147          1           0       25.840000   20.070000   16.010000
    148          1           0       25.560000   18.760000   16.730000
    149          8           0       20.090000   27.220000   18.220000
    150          1           0       19.360000   27.470000   17.650000
    151          1           0       19.750000   26.480000   18.730000
    152          8           0       23.260000   19.260000   14.120000
    153          1           0       23.660000   19.670000   13.350000
    154          1           0       23.970000   19.230000   14.760000
    155          8           0       20.980000   13.700000   22.560000
    156          1           0       21.790000   13.900000   22.090000
    157          1           0       21.060000   14.170000   23.390000
    158          8           0       25.590000   15.840000   17.470000
    159          1           0       25.360000   16.760000   17.520000
    160          1           0       26.510000   15.830000   17.200000
    161          8           0       21.050000   15.440000   14.550000
    162          1           0       20.500000   15.190000   15.300000
    163          1           0       21.850000   15.780000   14.950000
    164          8           0       23.380000   14.040000   20.900000
    165          1           0       23.320000   13.290000   20.310000
    166          1           0       24.320000   14.260000   20.910000
    167          8           0       15.770000   25.880000   17.360000
    168          1           0       14.840000   26.110000   17.480000
    169          1           0       15.790000   24.930000   17.420000
    170          8           0       26.890000   19.740000   23.530000
    171          1           0       26.300000   19.280000   22.940000
    172          1           0       26.330000   20.060000   24.240000
    173          8           0       13.420000   18.570000   16.180000
    174          1           0       13.040000   18.250000   15.360000
    175          1           0       14.360000   18.620000   16.010000
    176          8           0       14.780000   24.210000   22.310000
    177          1           0       14.140000   23.560000   22.600000
    178          1           0       14.810000   24.850000   23.020000
    179          8           0       22.630000   26.240000   17.760000
    180          1           0       23.320000   26.840000   18.020000
    181          1           0       21.830000   26.600000   18.150000
    182          8           0       25.160000   24.640000   16.280000
    183          1           0       24.960000   25.570000   16.220000
    184          1           0       24.320000   24.200000   16.090000
    185          8           0       19.940000   23.640000   27.240000
    186          1           0       20.090000   23.020000   26.520000
    187          1           0       19.550000   23.120000   27.940000
    188          8           0       17.820000   14.000000   24.360000
    189          1           0       17.630000   14.910000   24.610000
    190          1           0       17.870000   14.020000   23.400000
    191          8           0       13.010000   23.190000   18.230000
    192          1           0       13.890000   23.540000   18.160000
    193          1           0       13.120000   22.280000   18.500000
    194          8           0       23.550000   21.280000   27.000000
    195          1           0       22.650000   21.130000   26.720000
    196          1           0       23.580000   22.210000   27.230000
    197          8           0       16.680000   27.230000   20.120000
    198          1           0       16.130000   26.580000   19.700000
    199          1           0       17.210000   26.730000   20.740000
    200          8           0       19.860000   25.410000   15.040000
    201          1           0       20.490000   25.950000   14.570000
    202          1           0       19.400000   26.020000   15.610000
    203          8           0       12.780000   22.370000   22.680000
    204          1           0       12.390000   21.920000   23.440000
    205          1           0       13.190000   21.670000   22.180000
    206          8           0       14.770000   20.720000   13.670000
    207          1           0       14.980000   21.200000   12.870000
[...]
   Z337      30.17893  -0.00047   0.00000  -0.00104  -0.00127  30.17766
   X338      49.00060  -0.00791   0.00000  -0.00664  -0.00661  48.99399
   Y338      46.92190   0.00151   0.00000  -0.00213  -0.00184  46.92006
   Z338      47.75338   0.01570   0.00000   0.00799   0.00723  47.76061
   X339      49.94546   0.00021   0.00000  -0.00248  -0.00249  49.94297
   Y339      48.47148   0.00283   0.00000   0.00096   0.00128  48.47275
   Z339      47.73448  -0.00162   0.00000  -0.00114  -0.00198  47.73251
   X340      49.30295   0.00508   0.00000   0.00454   0.00451  49.30746
   Y340      46.16601  -0.01032   0.00000  -0.01003  -0.00976  46.15625
   Z340      46.14711  -0.01749   0.00000  -0.01049  -0.01125  46.13586
   X341      35.69693  -0.01350   0.00000  -0.00795  -0.00783  35.68910
   Y341      49.45413   0.03205   0.00000   0.01780   0.01781  49.47194
   Z341      51.02261  -0.01269   0.00000  -0.02072  -0.02089  51.00172
   X342      36.22605   0.01233   0.00000   0.00767   0.00783  36.23388
   Y342      47.73448  -0.03118   0.00000  -0.01769  -0.01767  47.71681
   Z342      51.07930   0.00279   0.00000   0.00383   0.00367  51.08297
   X343      37.24650   0.00488   0.00000   0.00638   0.00647  37.25298
   Y343      50.39900  -0.00131   0.00000  -0.00084  -0.00080  50.39820
   Z343      50.92812   0.00434   0.00000   0.00773   0.00747  50.93559
   X344      46.67624   0.00464   0.00000   0.00470   0.00428  46.68051
   Y344      53.17689   0.00807   0.00000   0.00717   0.00728  53.18417
   Z344      41.91413   0.00673   0.00000   0.00498   0.00421  41.91833
   X345      46.07152  -0.00115   0.00000   0.00047   0.00002  46.07154
   Y345      52.04306  -0.00376   0.00000   0.00018   0.00025  52.04331
   Z345      40.62911  -0.00447   0.00000  -0.00088  -0.00160  40.62751
   X346      48.15022  -0.00197   0.00000  -0.00126  -0.00163  48.14859
   Y346      52.34541  -0.00286   0.00000  -0.00507  -0.00491  52.34050
   Z346      42.59443  -0.00308   0.00000  -0.00323  -0.00406  42.59037
   X347      51.00371  -0.00840   0.00000  -0.01315  -0.01372  50.98999
   Y347      49.47303   0.02001   0.00000   0.02013   0.02025  49.49328
   Z347      36.86856   0.01306   0.00000   0.00666   0.00574  36.87430
   X348      51.89188   0.00833   0.00000   0.01398   0.01333  51.90521
   Y348      50.79584  -0.00108   0.00000  -0.00217  -0.00204  50.79380
   Z348      35.99928  -0.00351   0.00000  -0.00325  -0.00423  35.99506
   X349      50.89032   0.00639   0.00000   0.01198   0.01139  50.90171
   Y349      48.13132  -0.01341   0.00000  -0.00861  -0.00852  48.12281
   Z349      35.65913  -0.00716   0.00000   0.00348   0.00260  35.66173
   X350      46.46837  -0.01904   0.00000  -0.01071  -0.01137  46.45699
   Y350      52.17534   0.00308   0.00000   0.00300   0.00299  52.17832
   Z350      36.32054  -0.00687   0.00000  -0.00901  -0.00976  36.31078
   X351      48.22581   0.01642   0.00000   0.00682   0.00617  48.23198
   Y351      51.79739  -0.01433   0.00000  -0.01938  -0.01934  51.77806
   Z351      36.50951   0.00579   0.00000   0.00796   0.00714  36.51665
   X352      46.43057  -0.00066   0.00000   0.00020  -0.00053  46.43004
   Y352      53.91389   0.00829   0.00000   0.01131   0.01129  53.92518
   Z352      35.81031   0.00283   0.00000   0.00637   0.00559  35.81590
   X353      44.23849   0.00512   0.00000   0.00530   0.00519  44.24368
   Y353      51.98637  -0.00540   0.00000  -0.00835  -0.00819  51.97818
   Z353      47.69669   0.02168   0.00000   0.01620   0.01557  47.71226
   X354      43.14245  -0.00428   0.00000   0.00053   0.00037  43.14282
   Y354      51.45724   0.00321   0.00000   0.00837   0.00848  51.46572
   Z354      46.35498  -0.01468   0.00000  -0.00997  -0.01054  46.34444
   X355      45.50461  -0.00065   0.00000  -0.00509  -0.00526  45.49934
   Y355      53.00682   0.00228   0.00000  -0.00024  -0.00007  53.00675
   Z355      46.90300  -0.01002   0.00000  -0.00962  -0.01033  46.89267
   X356      37.05753   0.00619   0.00000   0.00983   0.01055  37.06808
   Y356      36.41502   0.00836   0.00000   0.00352   0.00367  36.41869
   Z356      56.46502   0.01591   0.00000   0.01015   0.01018  56.47520
   X357      36.47171  -0.00467   0.00000  -0.00657  -0.00577  36.46595
   Y357      34.82765  -0.00524   0.00000  -0.00276  -0.00261  34.82504
   Z357      57.10752   0.00005   0.00000  -0.00100  -0.00091  57.10661
   X358      37.32209  -0.00303   0.00000  -0.00806  -0.00741  37.31468
   Y358      36.13156  -0.00208   0.00000   0.00074   0.00085  36.13242
   Z358      54.70757  -0.01738   0.00000  -0.01177  -0.01175  54.69582
   X359      39.41969   0.01748   0.00000   0.01014   0.01007  39.42975
   Y359      21.75075  -0.00894   0.00000  -0.00705  -0.00733  21.74342
   Z359      32.01196   0.02203   0.00000   0.01670   0.01691  32.02887
   X360      38.47482  -0.00688   0.00000   0.00463   0.00446  38.47929
   Y360      22.37436   0.01291   0.00000   0.01215   0.01181  22.38617
   Z360      30.59467  -0.02094   0.00000  -0.01242  -0.01218  30.58249
   X361      38.21026  -0.00615   0.00000  -0.00676  -0.00676  38.20350
   Y361      20.88147  -0.00444   0.00000  -0.00496  -0.00525  20.87623
   Z361      33.03241   0.00658   0.00000   0.00839   0.00867  33.04109
   X362      22.33656   0.00913   0.00000   0.00653   0.00638  22.34295
   Y362      30.93482  -0.01369   0.00000  -0.00709  -0.00775  30.92707
   Z362      35.58354   0.00360   0.00000   0.00343   0.00429  35.58783
   X363      21.42949  -0.00642   0.00000  -0.00257  -0.00274  21.42675
   Y363      32.48439   0.01219   0.00000   0.00780   0.00712  32.49151
   Z363      35.75362  -0.00426   0.00000  -0.00739  -0.00652  35.74710
   X364      22.26097  -0.00457   0.00000  -0.00669  -0.00691  22.25407
   Y364      30.53797   0.00039   0.00000  -0.00054  -0.00124  30.53673
   Z364      33.80720   0.00108   0.00000   0.00209   0.00296  33.81016
   X365      54.32963   0.01104   0.00000   0.00018   0.00028  54.32990
   Y365      31.57732  -0.00490   0.00000  -0.00117  -0.00089  31.57644
   Z365      40.83698  -0.02414   0.00000  -0.02350  -0.02421  40.81277
   X366      52.98792  -0.01010   0.00000   0.00059   0.00075  52.98868
   Y366      31.21828  -0.00349   0.00000  -0.00337  -0.00309  31.21519
   Z366      41.98971   0.01747   0.00000   0.01494   0.01430  42.00402
   X367      54.48080   0.00099   0.00000   0.00231   0.00235  54.48316
   Y367      33.37256   0.01144   0.00000   0.00908   0.00938  33.38194
   Z367      40.85588   0.00414   0.00000   0.00625   0.00549  40.86137
   X368      41.91413  -0.00595   0.00000  -0.00346  -0.00456  41.90957
   Y368      49.62421  -0.00872   0.00000  -0.00139  -0.00173  49.62248
   Z368      26.17271  -0.00598   0.00000  -0.00551  -0.00598  26.16673
   X369      43.63378   0.00554   0.00000   0.00287   0.00180  43.63558
   Y369      49.52972  -0.00383   0.00000  -0.00681  -0.00708  49.52264
   Z369      26.73962   0.00148   0.00000   0.00032  -0.00023  26.73939
   X370      41.47949   0.00155   0.00000   0.00589   0.00476  41.48424
   Y370      51.36276   0.01539   0.00000   0.01421   0.01387  51.37663
   Z370      26.34278  -0.00003   0.00000  -0.00126  -0.00175  26.34103
   X371      37.87011   0.02407   0.00000   0.00735   0.00702  37.87714
   Y371      23.56488  -0.00368   0.00000  -0.00298  -0.00339  23.56149
   Z371      27.77897   0.00504   0.00000   0.00472   0.00497  27.78394
   X372      37.96460  -0.00195   0.00000  -0.00235  -0.00270  37.96190
   Y372      22.12869  -0.00385   0.00000  -0.00189  -0.00231  22.12638
   Z372      26.68293  -0.00618   0.00000  -0.00730  -0.00703  26.67591
   X373      36.11267  -0.03435   0.00000  -0.02530  -0.02564  36.08703
   Y373      23.98062   0.01290   0.00000   0.01557   0.01511  23.99574
   Z373      27.81677  -0.00638   0.00000  -0.01134  -0.01102  27.80575
   X374      43.55819   0.00409   0.00000   0.00301   0.00196  43.56015
   Y374      36.49061  -0.00437   0.00000  -0.00810  -0.00851  36.48210
   Z374      19.91771  -0.02229   0.00000  -0.01714  -0.01742  19.90029
   X375      42.65112  -0.00721   0.00000  -0.00397  -0.00494  42.64618
   Y375      36.01818  -0.00536   0.00000  -0.00559  -0.00600  36.01218
   Z375      21.39170   0.01127   0.00000   0.00250   0.00227  21.39397
   X376      44.86210  -0.00458   0.00000  -0.00933  -0.01039  44.85171
   Y376      37.60555   0.00170   0.00000   0.00100   0.00063  37.60618
   Z376      20.52243   0.00534   0.00000   0.00561   0.00523  20.52766
   X377      24.35857   0.01250   0.00000   0.01665   0.01591  24.37448
   Y377      49.79428   0.00621   0.00000   0.01001   0.00936  49.80364
   Z377      33.56154  -0.01626   0.00000  -0.00651  -0.00613  33.55541
   X378      25.17115  -0.00126   0.00000  -0.00734  -0.00799  25.16316
   Y378      49.20847  -0.01081   0.00000  -0.01338  -0.01398  49.19449
   Z378      35.07332   0.01998   0.00000   0.01879   0.01914  35.09245
   X379      22.71451  -0.00774   0.00000  -0.00104  -0.00177  22.71274
   Y379      50.28561   0.00010   0.00000  -0.00244  -0.00312  50.28249
   Z379      34.10956   0.00246   0.00000  -0.00269  -0.00224  34.10732
   X380      27.66559  -0.00471   0.00000  -0.00147  -0.00158  27.66401
   Y380      49.01950  -0.00128   0.00000   0.00285   0.00254  49.02203
   Z380      46.10932  -0.01099   0.00000  -0.00659  -0.00636  46.10296
   X381      26.24830  -0.00324   0.00000  -0.00404  -0.00417  26.24412
   Y381      50.15333   0.00207   0.00000   0.00262   0.00228  50.15561
   Z381      46.14711   0.00033   0.00000   0.00037   0.00065  46.14776
   X382      28.59156   0.00883   0.00000   0.00737   0.00732  28.59888
   Y382      49.39744   0.00127   0.00000  -0.00089  -0.00115  49.39630
   Z382      47.60220   0.01189   0.00000   0.00763   0.00781  47.61001
   X383      50.13443  -0.01140   0.00000  -0.00420  -0.00511  50.12932
   Y383      42.48104   0.00990   0.00000   0.00792   0.00780  42.48884
   Z383      25.98373  -0.01696   0.00000  -0.01173  -0.01245  25.97128
   X384      51.02261   0.00772   0.00000   0.00186   0.00103  51.02364
   Y384      41.78184  -0.01251   0.00000  -0.01249  -0.01256  41.76928
   Z384      27.38213   0.01263   0.00000   0.00452   0.00376  27.38589
   X385      51.32496   0.00300   0.00000   0.00389   0.00291  51.32787
   Y385      42.40545   0.00314   0.00000   0.00590   0.00579  42.41124
   Z385      24.62313  -0.00551   0.00000  -0.00773  -0.00852  24.61461
         Item               Value     Threshold  Converged?
 Maximum Force            0.042657     0.000450     NO 
 RMS     Force            0.011173     0.000300     NO 
 Maximum Displacement     0.034761     0.001800     NO 
 RMS     Displacement     0.008817     0.001200     NO 
 Predicted change in Energy=-7.746906D-02
 GradGradGradGradGradGradGradGradGradGradGradGradGradGradGradGradGradGrad

 Leave Link  103 at Sat May 12 21:56:17 2018, MaxMem= 14763950080 cpu:      3094.8
 (Enter /cm/shared/gaussian/g09.e01/intel64-sandybridge/g09/l9999.exe)
 1\1\GINC-POPLE03\Force\RPBE1PBE\CC-pVDZ\Br1H256O128(1-)\M.PELUSO\12-Ma
 y-2018\0\\#p PBE1PBE/cc-pvDZ force Counterpoise=2 noSymm\\forces on ch
 loride comput - NWATER: 128\\-1,1\Br,20.,20.,20.\O,20.95,18.01,17.71\H
 ,20.64,18.49,18.47\H,21.87,17.81,17.91\O,22.59,18.71,21.43\H,21.77,19.
 03,21.04\H,22.73,19.28,22.19\O,18.15,18.65,22.25\H,18.54,18.97,21.44\H
 ,17.98,19.44,22.77\O,21.1,21.41,17.16\H,20.86,20.91,17.94\H,20.92,20.8
 1,16.43\O,17.2,20.36,18.06\H,17.91,20.29,18.7\H,17.62,20.69,17.27\O,20
 .23,16.72,20.58\H,19.83,17.48,20.16\H,20.44,16.13,19.86\O,20.76,20.8,2
 3.24\H,20.28,20.5,22.48\H,20.92,21.73,23.08\O,18.13,18.19,16.65\H,19.0
 1,18.56,16.68\H,17.56,18.95,16.52\O,20.55,24.02,18.17\H,21.03,23.21,18
 .3\H,21.17,24.6,17.73\O,23.15,16.77,19.57\H,22.96,16.13,20.26\H,22.93,
 17.61,19.96\O,17.65,20.99,23.54\H,18.12,21.78,23.8\H,17.36,21.17,22.64
 \O,20.61,19.38,15.51\H,20.75,18.89,16.32\H,21.17,18.95,14.86\O,16.81,2
 2.46,21.55\H,17.38,22.84,20.88\H,16.25,23.19,21.82\O,18.24,24.01,19.57
 \H,19.19,23.89,19.59\H,18.09,24.76,20.15\O,17.2,16.53,19.05\H,17.26,17
 .34,18.55\H,16.64,16.75,19.8\O,20.99,16.88,23.26\H,20.5,16.71,22.46\H,
 21.66,17.52,23.01\O,24.2,21.6,17.59\H,23.31,21.28,17.69\H,24.38,21.53,
 16.65\O,18.26,23.16,16.35\H,18.75,23.1,17.17\H,18.66,23.9,15.89\O,16.4
 2,16.4,21.55\H,17.11,17.,21.83\H,16.74,15.53,21.77\O,23.42,19.59,24.04
 \H,22.47,19.69,24.16\H,23.79,20.39,24.4\O,15.87,23.34,17.96\H,16.71,23
 .33,18.41\H,16.01,22.82,17.17\O,18.53,14.64,21.67\H,19.35,14.15,21.76\
 H,18.72,15.31,21.02\O,23.59,23.76,19.31\H,23.8,22.99,18.78\H,23.95,24.
 5,18.82\O,17.92,16.74,24.46\H,18.55,17.12,25.08\H,17.89,17.37,23.74\O,
 23.97,23.04,21.83\H,23.78,23.22,20.91\H,24.8,22.55,21.81\O,25.58,18.44
 ,21.08\H,24.65,18.22,21.11\H,26.03,17.62,21.28\O,21.38,25.24,20.83\H,2
 1.81,24.7,21.49\H,21.65,24.85,19.99\O,21.76,23.66,23.39\H,22.55,23.33,
 22.97\H,22.05,24.,24.24\O,19.01,23.39,24.18\H,19.81,23.62,23.71\H,18.5
 1,24.2,24.23\O,22.21,23.57,15.5\H,21.56,24.24,15.27\H,21.75,22.97,16.0
 8\O,14.22,20.51,21.37\H,13.92,20.4,20.47\H,15.04,21.,21.29\O,21.02,20.
 98,26.01\H,20.8,21.04,25.08\H,20.2,20.7,26.43\O,20.22,17.7,25.68\H,20.
 97,17.75,26.28\H,20.61,17.7,24.81\O,20.58,14.6,18.93\H,21.13,14.01,19.
 43\H,21.14,14.92,18.23\O,17.09,20.83,14.93\H,17.63,20.53,14.2\H,17.56,
 21.58,15.3\O,17.56,15.55,16.04\H,17.44,15.06,16.86\H,17.9,16.4,16.32\O
 ,25.89,21.,19.93\H,25.38,21.16,19.14\H,25.7,20.08,20.15\O,15.91,19.74,
 25.06\H,16.69,20.08,24.62\H,15.39,19.34,24.37\O,22.56,15.33,17.06\H,23
 .06,15.78,17.73\H,23.22,14.9,16.52\O,14.79,18.26,23.13\H,15.3,17.82,22
 .45\H,14.43,19.03,22.69\O,18.72,25.87,21.33\H,18.64,26.12,22.25\H,19.6
 6,25.78,21.18\O,13.92,20.47,18.2\H,13.41,19.77,17.79\H,14.62,20.66,17.
 57\O,17.69,13.88,18.41\H,17.24,14.65,18.76\H,18.61,14.12,18.42\O,22.9,
 15.42,24.54\H,22.19,15.9,24.11\H,23.7,15.85,24.25\O,24.83,17.33,24.41\
 H,24.26,18.03,24.09\H,25.33,17.74,25.12\O,18.89,20.19,13.1\H,19.45,20.
 54,13.8\H,19.33,19.38,12.83\O,26.53,18.18,18.35\H,26.2,18.34,19.23\H,2
 7.49,18.2,18.45\O,18.67,20.01,27.06\H,18.7,19.32,26.39\H,17.74,20.13,2
 7.24\O,25.21,19.34,16.05\H,25.84,20.07,16.01\H,25.56,18.76,16.73\O,20.
 09,27.22,18.22\H,19.36,27.47,17.65\H,19.75,26.48,18.73\O,23.26,19.26,1
 4.12\H,23.66,19.67,13.35\H,23.97,19.23,14.76\O,20.98,13.7,22.56\H,21.7
 9,13.9,22.09\H,21.06,14.17,23.39\O,25.59,15.84,17.47\H,25.36,16.76,17.
 52\H,26.51,15.83,17.2\O,21.05,15.44,14.55\H,20.5,15.19,15.3\H,21.85,15
 .78,14.95\O,23.38,14.04,20.9\H,23.32,13.29,20.31\H,24.32,14.26,20.91\O
 ,15.77,25.88,17.36\H,14.84,26.11,17.48\H,15.79,24.93,17.42\O,26.89,19.
 74,23.53\H,26.3,19.28,22.94\H,26.33,20.06,24.24\O,13.42,18.57,16.18\H,
 13.04,18.25,15.36\H,14.36,18.62,16.01\O,14.78,24.21,22.31\H,14.14,23.5
 6,22.6\H,14.81,24.85,23.02\O,22.63,26.24,17.76\H,23.32,26.84,18.02\H,2
 1.83,26.6,18.15\O,25.16,24.64,16.28\H,24.96,25.57,16.22\H,24.32,24.2,1
 6.09\O,19.94,23.64,27.24\H,20.09,23.02,26.52\H,19.55,23.12,27.94\O,17.
 82,14.,24.36\H,17.63,14.91,24.61\H,17.87,14.02,23.4\O,13.01,23.19,18.2
 3\H,13.89,23.54,18.16\H,13.12,22.28,18.5\O,23.55,21.28,27.\H,22.65,21.
 13,26.72\H,23.58,22.21,27.23\O,16.68,27.23,20.12\H,16.13,26.58,19.7\H,
 17.21,26.73,20.74\O,19.86,25.41,15.04\H,20.49,25.95,14.57\H,19.4,26.02
 ,15.61\O,12.78,22.37,22.68\H,12.39,21.92,23.44\H,13.19,21.67,22.18\O,1
 4.77,20.72,13.67\H,14.98,21.2,12.87\H,15.5,20.9,14.26\O,26.77,22.53,22
 .73\H,27.56,22.3,22.23\H,26.47,21.71,23.1\O,21.8,27.53,22.85\H,21.68,2
 6.86,22.18\H,21.83,28.35,22.38\O,15.37,23.17,15.18\H,15.4,24.03,15.58\
 H,15.92,23.25,14.4\O,14.26,14.43,20.77\H,14.76,14.95,21.4\H,13.35,14.6
 9,20.91\O,14.18,25.58,20.21\H,14.34,26.38,20.71\H,14.39,24.87,20.81\O,
 28.02,22.37,20.13\H,27.96,22.91,19.34\H,27.26,21.8,20.09\O,25.33,21.37
 ,25.11\H,26.14,21.61,25.56\H,24.67,21.37,25.8\O,23.14,16.78,13.08\H,24
 .09,16.8,12.95\H,22.91,17.67,13.32\O,24.13,23.67,13.62\H,23.45,23.78,1
 4.29\H,24.79,23.12,14.04\O,15.37,15.73,14.36\H,16.06,15.66,15.03\H,15.
 46,16.61,14.01\O,18.45,26.4,24.01\H,17.88,27.18,24.06\H,18.95,26.42,24
 .82\O,16.08,16.99,26.69\H,16.05,17.84,26.26\H,16.67,16.46,26.15\O,18.0
 1,27.03,16.54\H,17.25,26.52,16.84\H,17.62,27.77,16.08\O,23.15,24.32,25
 .7\H,23.,24.56,26.62\H,23.99,24.71,25.48\O,26.82,16.01,23.31\H,26.1,16
 .56,23.6\H,26.94,15.38,24.02\O,18.95,15.77,27.22\H,19.18,16.01,28.11\H
 ,19.76,15.88,26.72\O,14.97,18.15,13.33\H,14.46,18.42,12.57\H,15.3,18.9
 7,13.7\O,22.83,12.7,18.42\H,21.98,12.46,18.04\H,23.36,12.98,17.67\O,22
 .17,17.51,27.36\H,22.17,17.43,28.31\H,22.98,17.98,27.16\O,16.84,11.59,
 20.56\H,17.08,12.51,20.44\H,16.46,11.33,19.73\O,17.24,24.02,13.31\H,18
 .18,23.88,13.15\H,17.2,24.85,13.78\O,26.02,14.57,20.94\H,26.49,14.76,2
 1.75\H,26.7,14.59,20.26\O,13.73,14.43,17.86\H,13.81,14.36,18.81\H,13.6
 1,15.37,17.7\O,15.84,21.08,27.71\H,15.69,22.02,27.77\H,15.48,20.83,26.
 86\O,24.63,18.68,26.85\H,24.42,19.6,27.03\H,25.41,18.51,27.37\O,19.89,
 23.81,12.5\H,20.56,23.74,11.82\H,20.16,24.56,13.03\O,27.38,24.02,17.81
 \H,28.11,23.75,17.25\H,26.65,24.18,17.2\O,17.32,13.24,14.42\H,16.69,12
 .79,14.97\H,17.24,14.16,14.68\O,11.57,18.83,20.99\H,10.98,19.42,21.47\
 H,11.62,19.2,20.11\O,17.44,21.67,11.42\H,18.07,21.08,11.84\H,17.21,22.
 3,12.09\O,15.58,13.04,16.45\H,14.77,13.49,16.7\H,16.09,12.99,17.26\O,2
 0.65,16.23,11.53\H,21.51,16.11,11.13\H,20.79,16.09,12.47\O,14.06,14.91
 ,24.17\H,14.27,15.7,24.67\H,13.25,15.13,23.7\O,12.,16.65,22.76\H,12.11
 ,17.3,22.06\H,11.18,16.21,22.53\O,11.18,18.99,17.71\H,10.54,19.22,17.0
 4\H,11.96,18.75,17.22\O,24.01,15.24,27.24\H,23.48,15.82,26.71\H,23.43,
 14.51,27.46\O,18.97,21.96,29.09\H,19.09,21.54,29.94\H,18.78,21.24,28.4
 9\O,22.33,12.51,25.28\H,21.87,12.72,26.09\H,22.6,13.36,24.93\O,27.48,2
 1.14,15.75\H,28.08,21.69,16.26\H,27.97,20.33,15.61\O,24.31,20.97,12.19
 \H,23.86,21.79,12.41\H,25.21,21.23,12.\O,19.53,11.79,24.51\H,20.43,12.
 05,24.33\H,19.03,12.6,24.48\O,12.73,21.81,14.97\H,13.22,22.63,15.05\H,
 13.33,21.22,14.52\O,24.03,13.35,16.05\H,23.57,12.79,15.43\H,24.95,13.1
 ,15.97\O,25.93,24.83,25.27\H,26.43,25.65,25.26\H,26.09,24.43,24.42\O,1
 8.89,26.17,27.\H,19.17,25.26,27.03\H,19.71,26.67,26.95\O,24.7,28.14,22
 .18\H,24.38,27.54,21.5\H,25.48,27.7,22.54\O,26.99,26.18,19.51\H,27.46,
 26.88,19.05\H,26.93,25.47,18.87\O,24.59,27.61,19.22\H,25.52,27.41,19.3
 2\H,24.57,28.53,18.95\O,23.41,27.51,25.24\H,22.83,27.23,24.53\H,24.08,
 28.05,24.82\O,19.61,19.27,29.88\H,19.3,18.43,30.22\H,19.75,19.12,28.95
 \O,20.86,11.51,16.94\H,20.36,11.84,16.19\H,20.22,11.05,17.48\O,11.82,1
 6.37,18.83\H,11.34,17.19,18.92\H,11.78,16.16,17.89\O,28.75,16.71,21.61
 \H,28.04,16.52,22.22\H,28.83,17.66,21.62\O,22.18,26.26,13.85\H,23.09,2
 6.21,14.15\H,21.95,27.18,13.94\O,20.04,12.47,14.7\H,20.09,11.71,14.12\
 H,19.11,12.69,14.72\O,23.05,19.31,10.54\H,22.57,19.06,11.32\H,23.74,19
 .9,10.86\O,12.89,26.35,17.76\H,13.32,26.04,18.56\H,12.02,26.61,18.05\O
 ,14.64,25.94,24.4\H,13.89,26.54,24.42\H,15.13,26.14,25.19\O,26.53,22.4
 8,13.75\H,27.,22.11,14.49\H,27.16,22.44,13.03\\Version=ES64L-G09RevE.0
 1\HF=-9773.5073028\RMSD=3.648e-10\RMSF=1.117e-02\Dipole=17.369935,19.6
 134565,-2.7589599\Quadrupole=584.8316639,534.1328868,-1118.9645506,-77
 .8816723,-965.3275496,-785.4797061\PG=C01 [X(Br1H256O128)]\\@


 CHARLIE BROWN.."I CAN'T GET THAT STUPID KITE IN THE
 AIR... I CAN'T... I C A N N O T..."
 LUCY.."OH COME NOW CHARLIE BROWN...THAT'S NO WAY TO TALK...
 THE TROUBLE WITH YOU IS YOU DON'T BELIEVE IN YOURSELF... YOU
 DON'T BELIEVE IN YOUR OWN ABILITIES...  YOU'VE GOT TO SAY TO
 YOURSELF...'I BELIEVE I CAN FLY THIS KITE.'... GO AHEAD SAY
 IT...."
 CHARLIE BROWN.."I BELIEVE THAT I CAN FLY THIS STUPID
 KITE.....I BELIEVE THAT I CAN FLY THIS KITE........
 I  A C T U A L L Y  B E L I E V E  T H A T  I  C A N ******"
 LUCY.."I'LL BET YOU TEN-TO-ONE YOU'RE WRONG......."    SCHULZ
 Job cpu time:       7 days  3 hours 48 minutes 41.9 seconds.
 File lengths (MBytes):  RWF=   7285 Int=      0 D2E=      0 Chk=   2411 Scr=      1
 Normal termination of Gaussian 09 at Sat May 12 21:56:39 2018.
