 Entering Gaussian System, Link 0=/cm/shared/gaussian/g09.e01/intel64-sandybridge/g09/g09
 Initial command:
 /cm/shared/gaussian/g09.e01/intel64-sandybridge/g09/l1.exe "/local/scratch/m.peluso/128_wat/order/Gau-24348.inp" -scrdir="/local/scratch/m.peluso/128_wat/order/"
 Entering Link 1 = /cm/shared/gaussian/g09.e01/intel64-sandybridge/g09/l1.exe PID=     24349.
  
 Copyright (c) 1988,1990,1992,1993,1995,1998,2003,2009,2015,
            Gaussian, Inc.  All Rights Reserved.
  
 This is part of the Gaussian(R) 09 program.  It is based on
 the Gaussian(R) 03 system (copyright 2003, Gaussian, Inc.),
 the Gaussian(R) 98 system (copyright 1998, Gaussian, Inc.),
 the Gaussian(R) 94 system (copyright 1995, Gaussian, Inc.),
 the Gaussian 92(TM) system (copyright 1992, Gaussian, Inc.),
 the Gaussian 90(TM) system (copyright 1990, Gaussian, Inc.),
 the Gaussian 88(TM) system (copyright 1988, Gaussian, Inc.),
 the Gaussian 86(TM) system (copyright 1986, Carnegie Mellon
 University), and the Gaussian 82(TM) system (copyright 1983,
 Carnegie Mellon University). Gaussian is a federally registered
 trademark of Gaussian, Inc.
  
 This software contains proprietary and confidential information,
 including trade secrets, belonging to Gaussian, Inc.
  
 This software is provided under written license and may be
 used, copied, transmitted, or stored only in accord with that
 written license.
  
 The following legend is applicable only to US Government
 contracts under FAR:
  
                    RESTRICTED RIGHTS LEGEND
  
 Use, reproduction and disclosure by the US Government is
 subject to restrictions as set forth in subparagraphs (a)
 and (c) of the Commercial Computer Software - Restricted
 Rights clause in FAR 52.227-19.
  
 Gaussian, Inc.
 340 Quinnipiac St., Bldg. 40, Wallingford CT 06492
  
  
 ---------------------------------------------------------------
 Warning -- This program may not be used in any manner that
 competes with the business of Gaussian, Inc. or will provide
 assistance to any competitor of Gaussian, Inc.  The licensee
 of this program is prohibited from giving any competitor of
 Gaussian, Inc. access to this program.  By using this program,
 the user acknowledges that Gaussian, Inc. is engaged in the
 business of creating and licensing software in the field of
 computational chemistry and represents and warrants to the
 licensee that it is not a competitor of Gaussian, Inc. and that
 it will not use this program in any manner prohibited above.
 ---------------------------------------------------------------
  

 Cite this work as:
 Gaussian 09, Revision E.01,
 M. J. Frisch, G. W. Trucks, H. B. Schlegel, G. E. Scuseria, 
 M. A. Robb, J. R. Cheeseman, G. Scalmani, V. Barone, B. Mennucci, 
 G. A. Petersson, H. Nakatsuji, M. Caricato, X. Li, H. P. Hratchian, 
 A. F. Izmaylov, J. Bloino, G. Zheng, J. L. Sonnenberg, M. Hada, 
 M. Ehara, K. Toyota, R. Fukuda, J. Hasegawa, M. Ishida, T. Nakajima, 
 Y. Honda, O. Kitao, H. Nakai, T. Vreven, J. A. Montgomery, Jr., 
 J. E. Peralta, F. Ogliaro, M. Bearpark, J. J. Heyd, E. Brothers, 
 K. N. Kudin, V. N. Staroverov, T. Keith, R. Kobayashi, J. Normand, 
 K. Raghavachari, A. Rendell, J. C. Burant, S. S. Iyengar, J. Tomasi, 
 M. Cossi, N. Rega, J. M. Millam, M. Klene, J. E. Knox, J. B. Cross, 
 V. Bakken, C. Adamo, J. Jaramillo, R. Gomperts, R. E. Stratmann, 
 O. Yazyev, A. J. Austin, R. Cammi, C. Pomelli, J. W. Ochterski, 
 R. L. Martin, K. Morokuma, V. G. Zakrzewski, G. A. Voth, 
 P. Salvador, J. J. Dannenberg, S. Dapprich, A. D. Daniels, 
 O. Farkas, J. B. Foresman, J. V. Ortiz, J. Cioslowski, 
 and D. J. Fox, Gaussian, Inc., Wallingford CT, 2013.
 
 ******************************************
 Gaussian 09:  ES64L-G09RevE.01 30-Nov-2015
                13-May-2018 
 ******************************************
 %Mem=110GB
 %NProcShared=64
 Will use up to   64 processors via shared memory.
 %chk=snap75.chk
 ----------------------------------------------
 #p PBE1PBE/cc-pvDZ force Counterpoise=2 noSymm
 ----------------------------------------------
 1/10=7,30=1,38=1,62=2/1,3;
 2/12=2,15=1,17=6,18=5,40=1/2;
 1/10=7,30=1,38=1,53=2,62=2,63=101/22;
 3/5=16,11=2,16=1,25=1,30=1,71=1,74=-13/1,2,3;
 4//1;
 5/5=2,38=5/2;
 6/7=2,8=2,9=2,10=2,28=1/1;
 7/7=1,29=1,30=1,33=-1/1,2,3,16;
 1/10=7,30=1,53=2,62=2,63=101/22;
 3/5=7,6=11,11=2,16=1,25=1,30=1,71=1,74=-13,82=7/1,2,3;
 4//1;
 5/5=2,38=5/2;
 6/7=2,8=2,9=2,10=2,28=1/1;
 7/7=1,29=1,30=1,33=-1/1,2,3,16;
 1/10=7,30=1,53=2,62=2,63=101/22(-5);
 7/9=1,29=1,44=-1/16;
 1/10=7,30=1,62=2/3;
 99//99;
 Leave Link    1 at Sun May 13 05:57:14 2018, MaxMem= 14763950080 cpu:        10.2
 (Enter /cm/shared/gaussian/g09.e01/intel64-sandybridge/g09/l101.exe)
 ---------------------------------------
 forces on chloride comput - NWATER: 128
 ---------------------------------------
 Symbolic Z-matrix:
 Charge = -1 Multiplicity = 1 in supermolecule
 Charge = -1 Multiplicity = 1 in fragment      1.
 Charge =  0 Multiplicity = 1 in fragment      2.
 Br(Fragment=1)        20.       20.       20. 
 O(Fragment=2)         18.77     21.18     17.16 
 H(Fragment=2)         18.75     20.48     16.52 
 H(Fragment=2)         19.18     20.78     17.94 
 O(Fragment=2)         21.05     19.67     23.07 
 H(Fragment=2)         20.7      20.54     23.26 
 H(Fragment=2)         20.77     19.5      22.17 
 O(Fragment=2)         19.26     23.       21.04 
 H(Fragment=2)         19.22     22.14     20.62 
 H(Fragment=2)         19.73     22.84     21.86 
 O(Fragment=2)         17.45     17.79     19.75 
 H(Fragment=2)         16.68     18.04     20.27 
 H(Fragment=2)         18.02     18.55     19.78 
 O(Fragment=2)         22.77     21.25     18.34 
 H(Fragment=2)         23.42     20.55     18.34 
 H(Fragment=2)         22.01     20.88     18.78 
 O(Fragment=2)         21.01     16.82     19.37 
 H(Fragment=2)         20.54     17.65     19.21 
 H(Fragment=2)         21.07     16.41     18.51 
 O(Fragment=2)         18.21     20.66     23.74 
 H(Fragment=2)         17.78     20.21     23.02 
 H(Fragment=2)         18.56     19.96     24.29 
 O(Fragment=2)         23.88     22.27     21.72 
 H(Fragment=2)         23.86     23.23     21.7 
 H(Fragment=2)         23.46     22.       20.9 
 O(Fragment=2)         17.34     17.13     16.86 
 H(Fragment=2)         17.51     17.51     17.73 
 H(Fragment=2)         18.02     17.51     16.31 
 O(Fragment=2)         20.64     22.59     23.25 
 H(Fragment=2)         20.43     22.97     24.1 
 H(Fragment=2)         21.59     22.44     23.28 
 O(Fragment=2)         22.41     16.12     21.53 
 H(Fragment=2)         22.98     16.88     21.67 
 H(Fragment=2)         22.       16.28     20.68 
 O(Fragment=2)         19.05     15.75     22.38 
 H(Fragment=2)         19.67     15.32     22.96 
 H(Fragment=2)         19.57     15.97     21.6 
 O(Fragment=2)         22.48     24.11     18.33 
 H(Fragment=2)         21.66     24.25     17.86 
 H(Fragment=2)         22.62     23.16     18.29 
 O(Fragment=2)         15.31     21.07     19.66 
 H(Fragment=2)         15.3      20.61     18.82 
 H(Fragment=2)         15.52     20.4      20.3 
 O(Fragment=2)         20.42     22.67     15.28 
 H(Fragment=2)         20.7      23.45     15.76 
 H(Fragment=2)         20.01     22.11     15.95 
 O(Fragment=2)         16.65     24.17     20.56 
 H(Fragment=2)         16.07     23.43     20.36 
 H(Fragment=2)         17.51     23.77     20.69 
 O(Fragment=2)         23.66     20.34     24. 
 H(Fragment=2)         24.12     20.78     23.29 
 H(Fragment=2)         22.9      19.94     23.58 
 O(Fragment=2)         17.16     17.54     23.3 
 H(Fragment=2)         17.9      17.03     22.95 
 H(Fragment=2)         16.61     16.89     23.73 
 O(Fragment=2)         17.65     23.74     17.27 
 H(Fragment=2)         17.38     23.73     18.19 
 H(Fragment=2)         17.71     22.82     17.03 
 O(Fragment=2)         15.65     18.62     21.38 
 H(Fragment=2)         14.75     18.37     21.56 
 H(Fragment=2)         16.15     18.29     22.13 
 O(Fragment=2)         19.55     18.65     25.23 
 H(Fragment=2)         19.4      17.76     24.91 
 H(Fragment=2)         20.2      19.01     24.63 
 O(Fragment=2)         17.32     14.9      19.98 
 H(Fragment=2)         18.11     14.39     20.12 
 H(Fragment=2)         17.63     15.78     19.74 
 O(Fragment=2)         20.7      25.46     20.03 
 H(Fragment=2)         20.01     24.9      20.4 
 H(Fragment=2)         21.31     24.84     19.63 
 O(Fragment=2)         19.67     17.82     15.37 
 H(Fragment=2)         19.61     17.35     14.54 
 H(Fragment=2)         20.6      17.84     15.57 
 O(Fragment=2)         22.96     21.38     15.17 
 H(Fragment=2)         22.2      21.52     14.6 
 H(Fragment=2)         22.62     21.53     16.05 
 O(Fragment=2)         15.54     19.59     17.35 
 H(Fragment=2)         16.15     19.59     16.6 
 H(Fragment=2)         15.63     18.71     17.73 
 O(Fragment=2)         25.14     19.67     18.38 
 H(Fragment=2)         25.55     19.13     19.05 
 H(Fragment=2)         25.61     20.5      18.42 
 O(Fragment=2)         20.65     15.38     17.2 
 H(Fragment=2)         19.77     15.18     16.89 
 H(Fragment=2)         21.21     14.73     16.78 
 O(Fragment=2)         17.38     19.74     15.17 
 H(Fragment=2)         17.34     20.51     14.6 
 H(Fragment=2)         17.69     19.04     14.59 
 O(Fragment=2)         16.75     22.97     24.7 
 H(Fragment=2)         16.58     23.5      23.92 
 H(Fragment=2)         17.24     22.21     24.38 
 O(Fragment=2)         25.65     17.94     20.8 
 H(Fragment=2)         25.27     18.25     21.63 
 H(Fragment=2)         26.54     17.67     21.03 
 O(Fragment=2)         20.27     25.15     17.05 
 H(Fragment=2)         20.4      25.91     16.49 
 H(Fragment=2)         19.32     25.02     17.06 
 O(Fragment=2)         17.95     14.42     16.77 
 H(Fragment=2)         17.75     14.31     15.84 
 H(Fragment=2)         17.77     15.35     16.95 
 O(Fragment=2)         23.18     24.85     21.85 
 H(Fragment=2)         22.48     25.08     22.47 
 H(Fragment=2)         23.31     25.63     21.33 
 O(Fragment=2)         25.81     17.82     16.61 
 H(Fragment=2)         25.53     18.26     17.42 
 H(Fragment=2)         25.64     18.45     15.92 
 O(Fragment=2)         17.51     25.83     22.96 
 H(Fragment=2)         17.13     25.16     22.39 
 H(Fragment=2)         16.78     26.14     23.5 
 O(Fragment=2)         24.23     14.25     19.76 
 H(Fragment=2)         23.47     14.66     20.17 
 H(Fragment=2)         24.7      14.97     19.34 
 O(Fragment=2)         22.24     14.27     23.58 
 H(Fragment=2)         22.35     14.76     22.76 
 H(Fragment=2)         22.03     13.38     23.3 
 O(Fragment=2)         26.54     22.56     21.65 
 H(Fragment=2)         26.9      22.84     22.49 
 H(Fragment=2)         25.61     22.42     21.83 
 O(Fragment=2)         13.46     22.81     20.6 
 H(Fragment=2)         14.01     22.27     20.03 
 H(Fragment=2)         12.93     23.33     20. 
 O(Fragment=2)         25.68     18.71     24.13 
 H(Fragment=2)         26.29     19.44     24.11 
 H(Fragment=2)         24.81     19.12     24.15 
 O(Fragment=2)         15.39     14.93     21.78 
 H(Fragment=2)         14.67     15.45     21.42 
 H(Fragment=2)         16.06     14.96     21.1 
 O(Fragment=2)         25.02     19.84     14.84 
 H(Fragment=2)         24.19     20.3      14.91 
 H(Fragment=2)         24.95     19.34     14.02 
 O(Fragment=2)         24.72     25.68     18.65 
 H(Fragment=2)         24.29     26.3      19.23 
 H(Fragment=2)         24.01     25.15     18.3 
 O(Fragment=2)         15.12     17.26     14.74 
 H(Fragment=2)         14.47     16.63     15.03 
 H(Fragment=2)         15.59     17.51     15.53 
 O(Fragment=2)         22.95     19.99     26.69 
 H(Fragment=2)         22.81     20.8      27.19 
 H(Fragment=2)         23.36     20.28     25.88 
 O(Fragment=2)         14.51     23.36     22.97 
 H(Fragment=2)         13.91     22.77     23.42 
 H(Fragment=2)         14.36     23.19     22.04 
 O(Fragment=2)         18.91     25.       25.36 
 H(Fragment=2)         18.68     24.12     25.66 
 H(Fragment=2)         18.63     25.03     24.45 
 O(Fragment=2)         16.77     17.91     26.59 
 H(Fragment=2)         16.82     17.09     26.09 
 H(Fragment=2)         17.54     18.41     26.3 
 O(Fragment=2)         22.27     23.35     25.67 
 H(Fragment=2)         23.04     22.97     26.09 
 H(Fragment=2)         22.59     24.15     25.26 
 O(Fragment=2)         19.38     19.44     27.83 
 H(Fragment=2)         20.13     19.31     28.41 
 H(Fragment=2)         19.75     19.41     26.94 
 O(Fragment=2)         22.69     27.31     20.18 
 H(Fragment=2)         22.4      28.06     20.7 
 H(Fragment=2)         21.98     26.68     20.26 
 O(Fragment=2)         18.93     22.45     12.82 
 H(Fragment=2)         18.09     22.58     13.27 
 H(Fragment=2)         19.59     22.59     13.49 
 O(Fragment=2)         19.34     27.42     18.72 
 H(Fragment=2)         19.57     27.98     17.99 
 H(Fragment=2)         20.16     26.99     18.97 
 O(Fragment=2)         16.66     27.06     19.47 
 H(Fragment=2)         17.61     27.16     19.33 
 H(Fragment=2)         16.57     26.19     19.86 
 O(Fragment=2)         16.58     25.72     15.5 
 H(Fragment=2)         16.       25.15     15. 
 H(Fragment=2)         17.06     25.12     16.07 
 O(Fragment=2)         14.67     24.87     18.37 
 H(Fragment=2)         15.3      25.45     18.79 
 H(Fragment=2)         15.12     24.55     17.59 
 O(Fragment=2)         13.16     19.64     22.58 
 H(Fragment=2)         13.1      19.39     21.65 
 H(Fragment=2)         13.42     18.83     23.02 
 O(Fragment=2)         25.54     15.52     17.95 
 H(Fragment=2)         25.59     16.32     17.43 
 H(Fragment=2)         26.45     15.29     18.14 
 O(Fragment=2)         15.12     13.66     18.89 
 H(Fragment=2)         15.81     14.22     19.25 
 H(Fragment=2)         14.45     14.27     18.59 
 O(Fragment=2)         21.57     25.61     24.2 
 H(Fragment=2)         21.27     26.34     23.65 
 H(Fragment=2)         21.07     25.71     25.01 
 O(Fragment=2)         22.41     18.45     13.41 
 H(Fragment=2)         22.97     18.9      12.77 
 H(Fragment=2)         22.98     17.81     13.82 
 O(Fragment=2)         21.04     15.44     25.73 
 H(Fragment=2)         20.15     15.11     25.63 
 H(Fragment=2)         21.52     15.05     25. 
 O(Fragment=2)         24.31     16.76     14.32 
 H(Fragment=2)         24.43     16.75     15.27 
 H(Fragment=2)         24.63     15.9      14.03 
 O(Fragment=2)         22.38     17.33     27.12 
 H(Fragment=2)         22.19     16.65     26.47 
 H(Fragment=2)         22.38     18.15     26.62 
 O(Fragment=2)         20.8      22.52     27.54 
 H(Fragment=2)         19.85     22.54     27.4 
 H(Fragment=2)         21.17     22.7      26.68 
 O(Fragment=2)         12.73     20.42     17.11 
 H(Fragment=2)         13.49     20.05     16.67 
 H(Fragment=2)         12.78     21.36     16.93 
 O(Fragment=2)         13.39     16.45     20.45 
 H(Fragment=2)         13.19     17.27     20.01 
 H(Fragment=2)         12.74     16.38     21.15 
 O(Fragment=2)         19.58     27.32     22.74 
 H(Fragment=2)         19.29     28.03     22.16 
 H(Fragment=2)         18.83     26.72     22.77 
 O(Fragment=2)         12.5      19.1      19.87 
 H(Fragment=2)         11.59     19.31     20.04 
 H(Fragment=2)         12.64     19.35     18.96 
 O(Fragment=2)         16.11     21.95     13.9 
 H(Fragment=2)         15.46     21.29     13.65 
 H(Fragment=2)         15.59     22.71     14.15 
 O(Fragment=2)         18.22     22.84     27.04 
 H(Fragment=2)         17.9      23.12     27.9 
 H(Fragment=2)         17.44     22.83     26.48 
 O(Fragment=2)         13.9      17.15     23.44 
 H(Fragment=2)         13.19     16.57     23.18 
 H(Fragment=2)         14.37     16.65     24.12 
 O(Fragment=2)         20.74     16.55     12.38 
 H(Fragment=2)         20.99     17.38     12.8 
 H(Fragment=2)         20.88     16.7      11.45 
 O(Fragment=2)         28.22     21.23     19.81 
 H(Fragment=2)         27.6      21.62     20.41 
 H(Fragment=2)         29.07     21.58     20.08 
 O(Fragment=2)         24.81     24.82     24.87 
 H(Fragment=2)         24.78     25.55     25.49 
 H(Fragment=2)         24.17     25.06     24.2 
 O(Fragment=2)         17.8      17.6      12.9 
 H(Fragment=2)         18.21     16.85     12.48 
 H(Fragment=2)         16.86     17.45     12.81 
 O(Fragment=2)         15.93     15.52     24.98 
 H(Fragment=2)         16.61     15.       25.4 
 H(Fragment=2)         15.28     14.88     24.7 
 O(Fragment=2)         12.78     21.76     24.07 
 H(Fragment=2)         11.89     21.52     24.33 
 H(Fragment=2)         13.04     21.08     23.45 
 O(Fragment=2)         18.34     20.13     11.61 
 H(Fragment=2)         18.38     20.96     12.08 
 H(Fragment=2)         18.44     19.47     12.29 
 O(Fragment=2)         18.65     14.51     25.55 
 H(Fragment=2)         18.34     14.02     26.31 
 H(Fragment=2)         18.55     13.91     24.81 
 O(Fragment=2)         22.6      12.21     20.3 
 H(Fragment=2)         22.9      11.44     19.83 
 H(Fragment=2)         23.33     12.84     20.23 
 O(Fragment=2)         24.44     23.13     13.17 
 H(Fragment=2)         24.57     23.85     13.79 
 H(Fragment=2)         24.24     22.37     13.72 
 O(Fragment=2)         27.07     24.84     19.4 
 H(Fragment=2)         26.84     24.11     19.98 
 H(Fragment=2)         26.23     25.27     19.22 
 O(Fragment=2)         18.28     11.83     17.18 
 H(Fragment=2)         18.56     11.79     18.09 
 H(Fragment=2)         18.28     12.76     16.96 
 O(Fragment=2)         22.14     13.45     15.82 
 H(Fragment=2)         22.94     13.69     15.36 
 H(Fragment=2)         22.24     12.51     16. 
 O(Fragment=2)         14.31     23.42     25.97 
 H(Fragment=2)         13.86     22.72     25.5 
 H(Fragment=2)         15.17     23.46     25.56 
 O(Fragment=2)         27.42     20.89     15.78 
 H(Fragment=2)         26.66     20.51     15.35 
 H(Fragment=2)         27.99     20.15     15.99 
 O(Fragment=2)         19.12     11.7      19.93 
 H(Fragment=2)         20.03     11.84     20.17 
 H(Fragment=2)         18.77     11.12     20.61 
 O(Fragment=2)         26.94     16.22     24.45 
 H(Fragment=2)         27.48     16.52     25.18 
 H(Fragment=2)         26.33     16.94     24.29 
 O(Fragment=2)         24.9      13.93     24.57 
 H(Fragment=2)         24.03     14.32     24.49 
 H(Fragment=2)         25.5      14.65     24.4 
 O(Fragment=2)         14.58     19.67     13.26 
 H(Fragment=2)         13.64     19.71     13.44 
 H(Fragment=2)         14.85     18.81     13.59 
 O(Fragment=2)         25.83     22.35     25.58 
 H(Fragment=2)         25.38     23.19     25.55 
 H(Fragment=2)         25.31     21.82     26.18 
 O(Fragment=2)         20.26     14.12     13.53 
 H(Fragment=2)         20.89     13.94     14.23 
 H(Fragment=2)         20.6      14.9      13.1 
 O(Fragment=2)         20.58     25.62     12.63 
 H(Fragment=2)         20.91     25.11     13.36 
 H(Fragment=2)         20.82     26.52     12.84 
 O(Fragment=2)         18.33     12.61     23.9 
 H(Fragment=2)         17.54     12.13     23.66 
 H(Fragment=2)         19.       12.29     23.29 
 O(Fragment=2)         27.38     20.77     24.11 
 H(Fragment=2)         28.14     21.19     23.7 
 H(Fragment=2)         26.94     21.49     24.57 
 O(Fragment=2)         28.57     18.74     17.48 
 H(Fragment=2)         28.12     18.31     18.21 
 H(Fragment=2)         29.33     18.19     17.32 
 O(Fragment=2)         23.09     25.86     14.16 
 H(Fragment=2)         23.28     26.76     14.42 
 H(Fragment=2)         23.81     25.35     14.53 
 O(Fragment=2)         12.88     22.95     16.26 
 H(Fragment=2)         12.67     23.82     16.6 
 H(Fragment=2)         12.14     22.71     15.71 
 O(Fragment=2)         14.       13.7      23.76 
 H(Fragment=2)         14.57     12.94     23.87 
 H(Fragment=2)         14.38     14.18     23.02 
 O(Fragment=2)         25.68     12.73     17.24 
 H(Fragment=2)         25.09     13.44     17.49 
 H(Fragment=2)         26.06     12.42     18.07 
 O(Fragment=2)         11.95     24.82     19.13 
 H(Fragment=2)         11.98     25.4      19.88 
 H(Fragment=2)         12.85     24.81     18.8 
 O(Fragment=2)         18.31     28.97     21.06 
 H(Fragment=2)         18.58     28.59     20.22 
 H(Fragment=2)         17.37     28.79     21.12 
 O(Fragment=2)         20.95     11.69     22.8 
 H(Fragment=2)         21.25     11.57     21.9 
 H(Fragment=2)         21.45     11.05     23.3 
 O(Fragment=2)         13.85     15.12     16.09 
 H(Fragment=2)         12.97     15.2      16.48 
 H(Fragment=2)         13.7      14.84     15.19 
 O(Fragment=2)         17.64     13.71     13.92 
 H(Fragment=2)         18.56     13.94     13.81 
 H(Fragment=2)         17.56     12.85     13.51 
 O(Fragment=2)         21.75     18.7      29.35 
 H(Fragment=2)         21.96     18.43     28.46 
 H(Fragment=2)         22.34     19.43     29.52 
 O(Fragment=2)         20.11     27.86     15.9 
 H(Fragment=2)         20.55     27.64     15.08 
 H(Fragment=2)         19.2      28.03     15.66 
 O(Fragment=2)         15.35     27.77     17.17 
 H(Fragment=2)         15.83     27.56     17.97 
 H(Fragment=2)         15.84     27.35     16.47 
 O(Fragment=2)         27.22     24.14     23.61 
 H(Fragment=2)         27.43     24.91     23.09 
 H(Fragment=2)         26.5      24.42     24.18 
 O(Fragment=2)         28.08     16.46     15.52 
 H(Fragment=2)         28.77     17.13     15.57 
 H(Fragment=2)         27.36     16.82     16.03 
 O(Fragment=2)         13.74     26.94     21.37 
 H(Fragment=2)         13.1      27.43     20.86 
 H(Fragment=2)         14.57     27.08     20.91 
 O(Fragment=2)         28.74     17.99     20.89 
 H(Fragment=2)         29.46     17.39     21.07 
 H(Fragment=2)         29.14     18.7      20.37 
 O(Fragment=2)         10.61     18.68     17.62 
 H(Fragment=2)         11.34     19.3      17.58 
 H(Fragment=2)         10.42     18.48     16.71 
 O(Fragment=2)         14.38     17.08     27.61 
 H(Fragment=2)         14.43     17.34     28.53 
 H(Fragment=2)         14.97     17.69     27.16 
 O(Fragment=2)         14.64     24.28     14.09 
 H(Fragment=2)         13.97     24.54     14.72 
 H(Fragment=2)         14.16     24.14     13.28 
 O(Fragment=2)         17.93     25.21     12.21 
 H(Fragment=2)         18.8      24.97     12.52 
 H(Fragment=2)         17.97     25.06     11.26 
 O(Fragment=2)         27.68     14.97     22.04 
 H(Fragment=2)         28.62     14.87     22.17 
 H(Fragment=2)         27.41     15.55     22.75 
 O(Fragment=2)         10.4      22.41     21.62 
 H(Fragment=2)         11.3      22.2      21.35 
 H(Fragment=2)         10.24     21.81     22.35 
 O(Fragment=2)         12.9      25.91     23.61 
 H(Fragment=2)         13.36     25.07     23.55 
 H(Fragment=2)         13.17     26.38     22.82 
 O(Fragment=2)         24.98     27.13     22.63 
 H(Fragment=2)         25.89     26.82     22.58 
 H(Fragment=2)         24.95     27.85     22. 
 O(Fragment=2)         20.61     23.17     10.64 
 H(Fragment=2)         19.97     23.52     10.02 
 H(Fragment=2)         20.08     22.88     11.38 
 O(Fragment=2)         21.11     28.59     24.63 
 H(Fragment=2)         21.68     29.07     24.03 
 H(Fragment=2)         20.49     28.14     24.06 
 O(Fragment=2)         18.41     26.87     27.21 
 H(Fragment=2)         18.74     26.16     26.65 
 H(Fragment=2)         17.61     26.5      27.6 
 O(Fragment=2)         23.96     22.64     27.85 
 H(Fragment=2)         23.88     23.24     28.58 
 H(Fragment=2)         24.16     21.79     28.25 
 O(Fragment=2)         14.74     11.66     20.87 
 H(Fragment=2)         14.85     12.4      20.27 
 H(Fragment=2)         15.48     11.72     21.47 
 O(Fragment=2)         16.76     18.92     29.21 
 H(Fragment=2)         16.62     18.29     28.5 
 H(Fragment=2)         17.33     19.59     28.82 
 
 NAtoms=    385 NQM=      385 NQMF=       0 NMMI=      0 NMMIF=      0
                NMic=       0 NMicF=      0.
                    Isotopes and Nuclear Properties:
 (Nuclear quadrupole moments (NQMom) in fm**2, nuclear magnetic moments (NMagM)
  in nuclear magnetons)

  Atom         1           2           3           4           5           6           7           8           9          10
 IAtWgt=          79          16           1           1          16           1           1          16           1           1
 AtmWgt=  78.9183361  15.9949146   1.0078250   1.0078250  15.9949146   1.0078250   1.0078250  15.9949146   1.0078250   1.0078250
 NucSpn=           3           0           1           1           0           1           1           0           1           1
 AtZEff=   0.0000000   0.0000000   0.0000000   0.0000000   0.0000000   0.0000000   0.0000000   0.0000000   0.0000000   0.0000000
 NQMom=   31.3000000   0.0000000   0.0000000   0.0000000   0.0000000   0.0000000   0.0000000   0.0000000   0.0000000   0.0000000
 NMagM=    2.1063990   0.0000000   2.7928460   2.7928460   0.0000000   2.7928460   2.7928460   0.0000000   2.7928460   2.7928460
 AtZNuc=  35.0000000   8.0000000   1.0000000   1.0000000   8.0000000   1.0000000   1.0000000   8.0000000   1.0000000   1.0000000

  Atom        11          12          13          14          15          16          17          18          19          20
 IAtWgt=          16           1           1          16           1           1          16           1           1          16
 AtmWgt=  15.9949146   1.0078250   1.0078250  15.9949146   1.0078250   1.0078250  15.9949146   1.0078250   1.0078250  15.9949146
 NucSpn=           0           1           1           0           1           1           0           1           1           0
 AtZEff=   0.0000000   0.0000000   0.0000000   0.0000000   0.0000000   0.0000000   0.0000000   0.0000000   0.0000000   0.0000000
 NQMom=    0.0000000   0.0000000   0.0000000   0.0000000   0.0000000   0.0000000   0.0000000   0.0000000   0.0000000   0.0000000
 NMagM=    0.0000000   2.7928460   2.7928460   0.0000000   2.7928460   2.7928460   0.0000000   2.7928460   2.7928460   0.0000000
 AtZNuc=   8.0000000   1.0000000   1.0000000   8.0000000   1.0000000   1.0000000   8.0000000   1.0000000   1.0000000   8.0000000

  Atom        21          22          23          24          25          26          27          28          29          30
 IAtWgt=           1           1          16           1           1          16           1           1          16           1
 AtmWgt=   1.0078250   1.0078250  15.9949146   1.0078250   1.0078250  15.9949146   1.0078250   1.0078250  15.9949146   1.0078250
 NucSpn=           1           1           0           1           1           0           1           1           0           1
 AtZEff=   0.0000000   0.0000000   0.0000000   0.0000000   0.0000000   0.0000000   0.0000000   0.0000000   0.0000000   0.0000000
 NQMom=    0.0000000   0.0000000   0.0000000   0.0000000   0.0000000   0.0000000   0.0000000   0.0000000   0.0000000   0.0000000
 NMagM=    2.7928460   2.7928460   0.0000000   2.7928460   2.7928460   0.0000000   2.7928460   2.7928460   0.0000000   2.7928460
 AtZNuc=   1.0000000   1.0000000   8.0000000   1.0000000   1.0000000   8.0000000   1.0000000   1.0000000   8.0000000   1.0000000

  Atom        31          32          33          34          35          36          37          38          39          40
 IAtWgt=           1          16           1           1          16           1           1          16           1           1
 AtmWgt=   1.0078250  15.9949146   1.0078250   1.0078250  15.9949146   1.0078250   1.0078250  15.9949146   1.0078250   1.0078250
 NucSpn=           1           0           1           1           0           1           1           0           1           1
 AtZEff=   0.0000000   0.0000000   0.0000000   0.0000000   0.0000000   0.0000000   0.0000000   0.0000000   0.0000000   0.0000000
 NQMom=    0.0000000   0.0000000   0.0000000   0.0000000   0.0000000   0.0000000   0.0000000   0.0000000   0.0000000   0.0000000
 NMagM=    2.7928460   0.0000000   2.7928460   2.7928460   0.0000000   2.7928460   2.7928460   0.0000000   2.7928460   2.7928460
 AtZNuc=   1.0000000   8.0000000   1.0000000   1.0000000   8.0000000   1.0000000   1.0000000   8.0000000   1.0000000   1.0000000

  Atom        41          42          43          44          45          46          47          48          49          50
 IAtWgt=          16           1           1          16           1           1          16           1           1          16
 AtmWgt=  15.9949146   1.0078250   1.0078250  15.9949146   1.0078250   1.0078250  15.9949146   1.0078250   1.0078250  15.9949146
 NucSpn=           0           1           1           0           1           1           0           1           1           0
 AtZEff=   0.0000000   0.0000000   0.0000000   0.0000000   0.0000000   0.0000000   0.0000000   0.0000000   0.0000000   0.0000000
 NQMom=    0.0000000   0.0000000   0.0000000   0.0000000   0.0000000   0.0000000   0.0000000   0.0000000   0.0000000   0.0000000
 NMagM=    0.0000000   2.7928460   2.7928460   0.0000000   2.7928460   2.7928460   0.0000000   2.7928460   2.7928460   0.0000000
 AtZNuc=   8.0000000   1.0000000   1.0000000   8.0000000   1.0000000   1.0000000   8.0000000   1.0000000   1.0000000   8.0000000

  Atom        51          52          53          54          55          56          57          58          59          60
 IAtWgt=           1           1          16           1           1          16           1           1          16           1
 AtmWgt=   1.0078250   1.0078250  15.9949146   1.0078250   1.0078250  15.9949146   1.0078250   1.0078250  15.9949146   1.0078250
 NucSpn=           1           1           0           1           1           0           1           1           0           1
 AtZEff=   0.0000000   0.0000000   0.0000000   0.0000000   0.0000000   0.0000000   0.0000000   0.0000000   0.0000000   0.0000000
 NQMom=    0.0000000   0.0000000   0.0000000   0.0000000   0.0000000   0.0000000   0.0000000   0.0000000   0.0000000   0.0000000
 NMagM=    2.7928460   2.7928460   0.0000000   2.7928460   2.7928460   0.0000000   2.7928460   2.7928460   0.0000000   2.7928460
 AtZNuc=   1.0000000   1.0000000   8.0000000   1.0000000   1.0000000   8.0000000   1.0000000   1.0000000   8.0000000   1.0000000

  Atom        61          62          63          64          65          66          67          68          69          70
 IAtWgt=           1          16           1           1          16           1           1          16           1           1
 AtmWgt=   1.0078250  15.9949146   1.0078250   1.0078250  15.9949146   1.0078250   1.0078250  15.9949146   1.0078250   1.0078250
 NucSpn=           1           0           1           1           0           1           1           0           1           1
 AtZEff=   0.0000000   0.0000000   0.0000000   0.0000000   0.0000000   0.0000000   0.0000000   0.0000000   0.0000000   0.0000000
 NQMom=    0.0000000   0.0000000   0.0000000   0.0000000   0.0000000   0.0000000   0.0000000   0.0000000   0.0000000   0.0000000
 NMagM=    2.7928460   0.0000000   2.7928460   2.7928460   0.0000000   2.7928460   2.7928460   0.0000000   2.7928460   2.7928460
 AtZNuc=   1.0000000   8.0000000   1.0000000   1.0000000   8.0000000   1.0000000   1.0000000   8.0000000   1.0000000   1.0000000

  Atom        71          72          73          74          75          76          77          78          79          80
 IAtWgt=          16           1           1          16           1           1          16           1           1          16
 AtmWgt=  15.9949146   1.0078250   1.0078250  15.9949146   1.0078250   1.0078250  15.9949146   1.0078250   1.0078250  15.9949146
 NucSpn=           0           1           1           0           1           1           0           1           1           0
 AtZEff=   0.0000000   0.0000000   0.0000000   0.0000000   0.0000000   0.0000000   0.0000000   0.0000000   0.0000000   0.0000000
 NQMom=    0.0000000   0.0000000   0.0000000   0.0000000   0.0000000   0.0000000   0.0000000   0.0000000   0.0000000   0.0000000
 NMagM=    0.0000000   2.7928460   2.7928460   0.0000000   2.7928460   2.7928460   0.0000000   2.7928460   2.7928460   0.0000000
 AtZNuc=   8.0000000   1.0000000   1.0000000   8.0000000   1.0000000   1.0000000   8.0000000   1.0000000   1.0000000   8.0000000

  Atom        81          82          83          84          85          86          87          88          89          90
 IAtWgt=           1           1          16           1           1          16           1           1          16           1
 AtmWgt=   1.0078250   1.0078250  15.9949146   1.0078250   1.0078250  15.9949146   1.0078250   1.0078250  15.9949146   1.0078250
 NucSpn=           1           1           0           1           1           0           1           1           0           1
 AtZEff=   0.0000000   0.0000000   0.0000000   0.0000000   0.0000000   0.0000000   0.0000000   0.0000000   0.0000000   0.0000000
 NQMom=    0.0000000   0.0000000   0.0000000   0.0000000   0.0000000   0.0000000   0.0000000   0.0000000   0.0000000   0.0000000
 NMagM=    2.7928460   2.7928460   0.0000000   2.7928460   2.7928460   0.0000000   2.7928460   2.7928460   0.0000000   2.7928460
 AtZNuc=   1.0000000   1.0000000   8.0000000   1.0000000   1.0000000   8.0000000   1.0000000   1.0000000   8.0000000   1.0000000

  Atom        91          92          93          94          95          96          97          98          99         100
 IAtWgt=           1          16           1           1          16           1           1          16           1           1
 AtmWgt=   1.0078250  15.9949146   1.0078250   1.0078250  15.9949146   1.0078250   1.0078250  15.9949146   1.0078250   1.0078250
 NucSpn=           1           0           1           1           0           1           1           0           1           1
 AtZEff=   0.0000000   0.0000000   0.0000000   0.0000000   0.0000000   0.0000000   0.0000000   0.0000000   0.0000000   0.0000000
 NQMom=    0.0000000   0.0000000   0.0000000   0.0000000   0.0000000   0.0000000   0.0000000   0.0000000   0.0000000   0.0000000
 NMagM=    2.7928460   0.0000000   2.7928460   2.7928460   0.0000000   2.7928460   2.7928460   0.0000000   2.7928460   2.7928460
 AtZNuc=   1.0000000   8.0000000   1.0000000   1.0000000   8.0000000   1.0000000   1.0000000   8.0000000   1.0000000   1.0000000

  Atom       101         102         103         104         105         106         107         108         109         110
 IAtWgt=          16           1           1          16           1           1          16           1           1          16
 AtmWgt=  15.9949146   1.0078250   1.0078250  15.9949146   1.0078250   1.0078250  15.9949146   1.0078250   1.0078250  15.9949146
 NucSpn=           0           1           1           0           1           1           0           1           1           0
 AtZEff=   0.0000000   0.0000000   0.0000000   0.0000000   0.0000000   0.0000000   0.0000000   0.0000000   0.0000000   0.0000000
 NQMom=    0.0000000   0.0000000   0.0000000   0.0000000   0.0000000   0.0000000   0.0000000   0.0000000   0.0000000   0.0000000
 NMagM=    0.0000000   2.7928460   2.7928460   0.0000000   2.7928460   2.7928460   0.0000000   2.7928460   2.7928460   0.0000000
 AtZNuc=   8.0000000   1.0000000   1.0000000   8.0000000   1.0000000   1.0000000   8.0000000   1.0000000   1.0000000   8.0000000

  Atom       111         112         113         114         115         116         117         118         119         120
 IAtWgt=           1           1          16           1           1          16           1           1          16           1
 AtmWgt=   1.0078250   1.0078250  15.9949146   1.0078250   1.0078250  15.9949146   1.0078250   1.0078250  15.9949146   1.0078250
 NucSpn=           1           1           0           1           1           0           1           1           0           1
 AtZEff=   0.0000000   0.0000000   0.0000000   0.0000000   0.0000000   0.0000000   0.0000000   0.0000000   0.0000000   0.0000000
 NQMom=    0.0000000   0.0000000   0.0000000   0.0000000   0.0000000   0.0000000   0.0000000   0.0000000   0.0000000   0.0000000
 NMagM=    2.7928460   2.7928460   0.0000000   2.7928460   2.7928460   0.0000000   2.7928460   2.7928460   0.0000000   2.7928460
 AtZNuc=   1.0000000   1.0000000   8.0000000   1.0000000   1.0000000   8.0000000   1.0000000   1.0000000   8.0000000   1.0000000

  Atom       121         122         123         124         125         126         127         128         129         130
 IAtWgt=           1          16           1           1          16           1           1          16           1           1
 AtmWgt=   1.0078250  15.9949146   1.0078250   1.0078250  15.9949146   1.0078250   1.0078250  15.9949146   1.0078250   1.0078250
 NucSpn=           1           0           1           1           0           1           1           0           1           1
 AtZEff=   0.0000000   0.0000000   0.0000000   0.0000000   0.0000000   0.0000000   0.0000000   0.0000000   0.0000000   0.0000000
 NQMom=    0.0000000   0.0000000   0.0000000   0.0000000   0.0000000   0.0000000   0.0000000   0.0000000   0.0000000   0.0000000
 NMagM=    2.7928460   0.0000000   2.7928460   2.7928460   0.0000000   2.7928460   2.7928460   0.0000000   2.7928460   2.7928460
 AtZNuc=   1.0000000   8.0000000   1.0000000   1.0000000   8.0000000   1.0000000   1.0000000   8.0000000   1.0000000   1.0000000

  Atom       131         132         133         134         135         136         137         138         139         140
 IAtWgt=          16           1           1          16           1           1          16           1           1          16
 AtmWgt=  15.9949146   1.0078250   1.0078250  15.9949146   1.0078250   1.0078250  15.9949146   1.0078250   1.0078250  15.9949146
 NucSpn=           0           1           1           0           1           1           0           1           1           0
 AtZEff=   0.0000000   0.0000000   0.0000000   0.0000000   0.0000000   0.0000000   0.0000000   0.0000000   0.0000000   0.0000000
 NQMom=    0.0000000   0.0000000   0.0000000   0.0000000   0.0000000   0.0000000   0.0000000   0.0000000   0.0000000   0.0000000
 NMagM=    0.0000000   2.7928460   2.7928460   0.0000000   2.7928460   2.7928460   0.0000000   2.7928460   2.7928460   0.0000000
 AtZNuc=   8.0000000   1.0000000   1.0000000   8.0000000   1.0000000   1.0000000   8.0000000   1.0000000   1.0000000   8.0000000

  Atom       141         142         143         144         145         146         147         148         149         150
 IAtWgt=           1           1          16           1           1          16           1           1          16           1
 AtmWgt=   1.0078250   1.0078250  15.9949146   1.0078250   1.0078250  15.9949146   1.0078250   1.0078250  15.9949146   1.0078250
 NucSpn=           1           1           0           1           1           0           1           1           0           1
 AtZEff=   0.0000000   0.0000000   0.0000000   0.0000000   0.0000000   0.0000000   0.0000000   0.0000000   0.0000000   0.0000000
 NQMom=    0.0000000   0.0000000   0.0000000   0.0000000   0.0000000   0.0000000   0.0000000   0.0000000   0.0000000   0.0000000
 NMagM=    2.7928460   2.7928460   0.0000000   2.7928460   2.7928460   0.0000000   2.7928460   2.7928460   0.0000000   2.7928460
 AtZNuc=   1.0000000   1.0000000   8.0000000   1.0000000   1.0000000   8.0000000   1.0000000   1.0000000   8.0000000   1.0000000

  Atom       151         152         153         154         155         156         157         158         159         160
 IAtWgt=           1          16           1           1          16           1           1          16           1           1
 AtmWgt=   1.0078250  15.9949146   1.0078250   1.0078250  15.9949146   1.0078250   1.0078250  15.9949146   1.0078250   1.0078250
 NucSpn=           1           0           1           1           0           1           1           0           1           1
 AtZEff=   0.0000000   0.0000000   0.0000000   0.0000000   0.0000000   0.0000000   0.0000000   0.0000000   0.0000000   0.0000000
 NQMom=    0.0000000   0.0000000   0.0000000   0.0000000   0.0000000   0.0000000   0.0000000   0.0000000   0.0000000   0.0000000
 NMagM=    2.7928460   0.0000000   2.7928460   2.7928460   0.0000000   2.7928460   2.7928460   0.0000000   2.7928460   2.7928460
 AtZNuc=   1.0000000   8.0000000   1.0000000   1.0000000   8.0000000   1.0000000   1.0000000   8.0000000   1.0000000   1.0000000

  Atom       161         162         163         164         165         166         167         168         169         170
 IAtWgt=          16           1           1          16           1           1          16           1           1          16
 AtmWgt=  15.9949146   1.0078250   1.0078250  15.9949146   1.0078250   1.0078250  15.9949146   1.0078250   1.0078250  15.9949146
 NucSpn=           0           1           1           0           1           1           0           1           1           0
 AtZEff=   0.0000000   0.0000000   0.0000000   0.0000000   0.0000000   0.0000000   0.0000000   0.0000000   0.0000000   0.0000000
 NQMom=    0.0000000   0.0000000   0.0000000   0.0000000   0.0000000   0.0000000   0.0000000   0.0000000   0.0000000   0.0000000
 NMagM=    0.0000000   2.7928460   2.7928460   0.0000000   2.7928460   2.7928460   0.0000000   2.7928460   2.7928460   0.0000000
 AtZNuc=   8.0000000   1.0000000   1.0000000   8.0000000   1.0000000   1.0000000   8.0000000   1.0000000   1.0000000   8.0000000

  Atom       171         172         173         174         175         176         177         178         179         180
 IAtWgt=           1           1          16           1           1          16           1           1          16           1
 AtmWgt=   1.0078250   1.0078250  15.9949146   1.0078250   1.0078250  15.9949146   1.0078250   1.0078250  15.9949146   1.0078250
 NucSpn=           1           1           0           1           1           0           1           1           0           1
 AtZEff=   0.0000000   0.0000000   0.0000000   0.0000000   0.0000000   0.0000000   0.0000000   0.0000000   0.0000000   0.0000000
 NQMom=    0.0000000   0.0000000   0.0000000   0.0000000   0.0000000   0.0000000   0.0000000   0.0000000   0.0000000   0.0000000
 NMagM=    2.7928460   2.7928460   0.0000000   2.7928460   2.7928460   0.0000000   2.7928460   2.7928460   0.0000000   2.7928460
 AtZNuc=   1.0000000   1.0000000   8.0000000   1.0000000   1.0000000   8.0000000   1.0000000   1.0000000   8.0000000   1.0000000

  Atom       181         182         183         184         185         186         187         188         189         190
 IAtWgt=           1          16           1           1          16           1           1          16           1           1
 AtmWgt=   1.0078250  15.9949146   1.0078250   1.0078250  15.9949146   1.0078250   1.0078250  15.9949146   1.0078250   1.0078250
 NucSpn=           1           0           1           1           0           1           1           0           1           1
 AtZEff=   0.0000000   0.0000000   0.0000000   0.0000000   0.0000000   0.0000000   0.0000000   0.0000000   0.0000000   0.0000000
 NQMom=    0.0000000   0.0000000   0.0000000   0.0000000   0.0000000   0.0000000   0.0000000   0.0000000   0.0000000   0.0000000
 NMagM=    2.7928460   0.0000000   2.7928460   2.7928460   0.0000000   2.7928460   2.7928460   0.0000000   2.7928460   2.7928460
 AtZNuc=   1.0000000   8.0000000   1.0000000   1.0000000   8.0000000   1.0000000   1.0000000   8.0000000   1.0000000   1.0000000

  Atom       191         192         193         194         195         196         197         198         199         200
 IAtWgt=          16           1           1          16           1           1          16           1           1          16
 AtmWgt=  15.9949146   1.0078250   1.0078250  15.9949146   1.0078250   1.0078250  15.9949146   1.0078250   1.0078250  15.9949146
 NucSpn=           0           1           1           0           1           1           0           1           1           0
 AtZEff=   0.0000000   0.0000000   0.0000000   0.0000000   0.0000000   0.0000000   0.0000000   0.0000000   0.0000000   0.0000000
 NQMom=    0.0000000   0.0000000   0.0000000   0.0000000   0.0000000   0.0000000   0.0000000   0.0000000   0.0000000   0.0000000
 NMagM=    0.0000000   2.7928460   2.7928460   0.0000000   2.7928460   2.7928460   0.0000000   2.7928460   2.7928460   0.0000000
 AtZNuc=   8.0000000   1.0000000   1.0000000   8.0000000   1.0000000   1.0000000   8.0000000   1.0000000   1.0000000   8.0000000

  Atom       201         202         203         204         205         206         207         208         209         210
 IAtWgt=           1           1          16           1           1          16           1           1          16           1
 AtmWgt=   1.0078250   1.0078250  15.9949146   1.0078250   1.0078250  15.9949146   1.0078250   1.0078250  15.9949146   1.0078250
 NucSpn=           1           1           0           1           1           0           1           1           0           1
 AtZEff=   0.0000000   0.0000000   0.0000000   0.0000000   0.0000000   0.0000000   0.0000000   0.0000000   0.0000000   0.0000000
 NQMom=    0.0000000   0.0000000   0.0000000   0.0000000   0.0000000   0.0000000   0.0000000   0.0000000   0.0000000   0.0000000
 NMagM=    2.7928460   2.7928460   0.0000000   2.7928460   2.7928460   0.0000000   2.7928460   2.7928460   0.0000000   2.7928460
 AtZNuc=   1.0000000   1.0000000   8.0000000   1.0000000   1.0000000   8.0000000   1.0000000   1.0000000   8.0000000   1.0000000

  Atom       211         212         213         214         215         216         217         218         219         220
 IAtWgt=           1          16           1           1          16           1           1          16           1           1
 AtmWgt=   1.0078250  15.9949146   1.0078250   1.0078250  15.9949146   1.0078250   1.0078250  15.9949146   1.0078250   1.0078250
 NucSpn=           1           0           1           1           0           1           1           0           1           1
 AtZEff=   0.0000000   0.0000000   0.0000000   0.0000000   0.0000000   0.0000000   0.0000000   0.0000000   0.0000000   0.0000000
 NQMom=    0.0000000   0.0000000   0.0000000   0.0000000   0.0000000   0.0000000   0.0000000   0.0000000   0.0000000   0.0000000
 NMagM=    2.7928460   0.0000000   2.7928460   2.7928460   0.0000000   2.7928460   2.7928460   0.0000000   2.7928460   2.7928460
 AtZNuc=   1.0000000   8.0000000   1.0000000   1.0000000   8.0000000   1.0000000   1.0000000   8.0000000   1.0000000   1.0000000

  Atom       221         222         223         224         225         226         227         228         229         230
 IAtWgt=          16           1           1          16           1           1          16           1           1          16
 AtmWgt=  15.9949146   1.0078250   1.0078250  15.9949146   1.0078250   1.0078250  15.9949146   1.0078250   1.0078250  15.9949146
 NucSpn=           0           1           1           0           1           1           0           1           1           0
 AtZEff=   0.0000000   0.0000000   0.0000000   0.0000000   0.0000000   0.0000000   0.0000000   0.0000000   0.0000000   0.0000000
 NQMom=    0.0000000   0.0000000   0.0000000   0.0000000   0.0000000   0.0000000   0.0000000   0.0000000   0.0000000   0.0000000
 NMagM=    0.0000000   2.7928460   2.7928460   0.0000000   2.7928460   2.7928460   0.0000000   2.7928460   2.7928460   0.0000000
 AtZNuc=   8.0000000   1.0000000   1.0000000   8.0000000   1.0000000   1.0000000   8.0000000   1.0000000   1.0000000   8.0000000

  Atom       231         232         233         234         235         236         237         238         239         240
 IAtWgt=           1           1          16           1           1          16           1           1          16           1
 AtmWgt=   1.0078250   1.0078250  15.9949146   1.0078250   1.0078250  15.9949146   1.0078250   1.0078250  15.9949146   1.0078250
 NucSpn=           1           1           0           1           1           0           1           1           0           1
 AtZEff=   0.0000000   0.0000000   0.0000000   0.0000000   0.0000000   0.0000000   0.0000000   0.0000000   0.0000000   0.0000000
 NQMom=    0.0000000   0.0000000   0.0000000   0.0000000   0.0000000   0.0000000   0.0000000   0.0000000   0.0000000   0.0000000
 NMagM=    2.7928460   2.7928460   0.0000000   2.7928460   2.7928460   0.0000000   2.7928460   2.7928460   0.0000000   2.7928460
 AtZNuc=   1.0000000   1.0000000   8.0000000   1.0000000   1.0000000   8.0000000   1.0000000   1.0000000   8.0000000   1.0000000

  Atom       241         242         243         244         245         246         247         248         249         250
 IAtWgt=           1          16           1           1          16           1           1          16           1           1
 AtmWgt=   1.0078250  15.9949146   1.0078250   1.0078250  15.9949146   1.0078250   1.0078250  15.9949146   1.0078250   1.0078250
 NucSpn=           1           0           1           1           0           1           1           0           1           1
 AtZEff=   0.0000000   0.0000000   0.0000000   0.0000000   0.0000000   0.0000000   0.0000000   0.0000000   0.0000000   0.0000000
 NQMom=    0.0000000   0.0000000   0.0000000   0.0000000   0.0000000   0.0000000   0.0000000   0.0000000   0.0000000   0.0000000
 NMagM=    2.7928460   0.0000000   2.7928460   2.7928460   0.0000000   2.7928460   2.7928460   0.0000000   2.7928460   2.7928460
 AtZNuc=   1.0000000   8.0000000   1.0000000   1.0000000   8.0000000   1.0000000   1.0000000   8.0000000   1.0000000   1.0000000

  Atom       251         252         253         254         255         256         257         258         259         260
 IAtWgt=          16           1           1          16           1           1          16           1           1          16
 AtmWgt=  15.9949146   1.0078250   1.0078250  15.9949146   1.0078250   1.0078250  15.9949146   1.0078250   1.0078250  15.9949146
 NucSpn=           0           1           1           0           1           1           0           1           1           0
 AtZEff=   0.0000000   0.0000000   0.0000000   0.0000000   0.0000000   0.0000000   0.0000000   0.0000000   0.0000000   0.0000000
 NQMom=    0.0000000   0.0000000   0.0000000   0.0000000   0.0000000   0.0000000   0.0000000   0.0000000   0.0000000   0.0000000
 NMagM=    0.0000000   2.7928460   2.7928460   0.0000000   2.7928460   2.7928460   0.0000000   2.7928460   2.7928460   0.0000000
 AtZNuc=   8.0000000   1.0000000   1.0000000   8.0000000   1.0000000   1.0000000   8.0000000   1.0000000   1.0000000   8.0000000

  Atom       261         262         263         264         265         266         267         268         269         270
 IAtWgt=           1           1          16           1           1          16           1           1          16           1
 AtmWgt=   1.0078250   1.0078250  15.9949146   1.0078250   1.0078250  15.9949146   1.0078250   1.0078250  15.9949146   1.0078250
 NucSpn=           1           1           0           1           1           0           1           1           0           1
 AtZEff=   0.0000000   0.0000000   0.0000000   0.0000000   0.0000000   0.0000000   0.0000000   0.0000000   0.0000000   0.0000000
 NQMom=    0.0000000   0.0000000   0.0000000   0.0000000   0.0000000   0.0000000   0.0000000   0.0000000   0.0000000   0.0000000
 NMagM=    2.7928460   2.7928460   0.0000000   2.7928460   2.7928460   0.0000000   2.7928460   2.7928460   0.0000000   2.7928460
 AtZNuc=   1.0000000   1.0000000   8.0000000   1.0000000   1.0000000   8.0000000   1.0000000   1.0000000   8.0000000   1.0000000

  Atom       271         272         273         274         275         276         277         278         279         280
 IAtWgt=           1          16           1           1          16           1           1          16           1           1
 AtmWgt=   1.0078250  15.9949146   1.0078250   1.0078250  15.9949146   1.0078250   1.0078250  15.9949146   1.0078250   1.0078250
 NucSpn=           1           0           1           1           0           1           1           0           1           1
 AtZEff=   0.0000000   0.0000000   0.0000000   0.0000000   0.0000000   0.0000000   0.0000000   0.0000000   0.0000000   0.0000000
 NQMom=    0.0000000   0.0000000   0.0000000   0.0000000   0.0000000   0.0000000   0.0000000   0.0000000   0.0000000   0.0000000
 NMagM=    2.7928460   0.0000000   2.7928460   2.7928460   0.0000000   2.7928460   2.7928460   0.0000000   2.7928460   2.7928460
 AtZNuc=   1.0000000   8.0000000   1.0000000   1.0000000   8.0000000   1.0000000   1.0000000   8.0000000   1.0000000   1.0000000

  Atom       281         282         283         284         285         286         287         288         289         290
 IAtWgt=          16           1           1          16           1           1          16           1           1          16
 AtmWgt=  15.9949146   1.0078250   1.0078250  15.9949146   1.0078250   1.0078250  15.9949146   1.0078250   1.0078250  15.9949146
 NucSpn=           0           1           1           0           1           1           0           1           1           0
 AtZEff=   0.0000000   0.0000000   0.0000000   0.0000000   0.0000000   0.0000000   0.0000000   0.0000000   0.0000000   0.0000000
 NQMom=    0.0000000   0.0000000   0.0000000   0.0000000   0.0000000   0.0000000   0.0000000   0.0000000   0.0000000   0.0000000
 NMagM=    0.0000000   2.7928460   2.7928460   0.0000000   2.7928460   2.7928460   0.0000000   2.7928460   2.7928460   0.0000000
 AtZNuc=   8.0000000   1.0000000   1.0000000   8.0000000   1.0000000   1.0000000   8.0000000   1.0000000   1.0000000   8.0000000

  Atom       291         292         293         294         295         296         297         298         299         300
 IAtWgt=           1           1          16           1           1          16           1           1          16           1
 AtmWgt=   1.0078250   1.0078250  15.9949146   1.0078250   1.0078250  15.9949146   1.0078250   1.0078250  15.9949146   1.0078250
 NucSpn=           1           1           0           1           1           0           1           1           0           1
 AtZEff=   0.0000000   0.0000000   0.0000000   0.0000000   0.0000000   0.0000000   0.0000000   0.0000000   0.0000000   0.0000000
 NQMom=    0.0000000   0.0000000   0.0000000   0.0000000   0.0000000   0.0000000   0.0000000   0.0000000   0.0000000   0.0000000
 NMagM=    2.7928460   2.7928460   0.0000000   2.7928460   2.7928460   0.0000000   2.7928460   2.7928460   0.0000000   2.7928460
 AtZNuc=   1.0000000   1.0000000   8.0000000   1.0000000   1.0000000   8.0000000   1.0000000   1.0000000   8.0000000   1.0000000

  Atom       301         302         303         304         305         306         307         308         309         310
 IAtWgt=           1          16           1           1          16           1           1          16           1           1
 AtmWgt=   1.0078250  15.9949146   1.0078250   1.0078250  15.9949146   1.0078250   1.0078250  15.9949146   1.0078250   1.0078250
 NucSpn=           1           0           1           1           0           1           1           0           1           1
 AtZEff=   0.0000000   0.0000000   0.0000000   0.0000000   0.0000000   0.0000000   0.0000000   0.0000000   0.0000000   0.0000000
 NQMom=    0.0000000   0.0000000   0.0000000   0.0000000   0.0000000   0.0000000   0.0000000   0.0000000   0.0000000   0.0000000
 NMagM=    2.7928460   0.0000000   2.7928460   2.7928460   0.0000000   2.7928460   2.7928460   0.0000000   2.7928460   2.7928460
 AtZNuc=   1.0000000   8.0000000   1.0000000   1.0000000   8.0000000   1.0000000   1.0000000   8.0000000   1.0000000   1.0000000

  Atom       311         312         313         314         315         316         317         318         319         320
 IAtWgt=          16           1           1          16           1           1          16           1           1          16
 AtmWgt=  15.9949146   1.0078250   1.0078250  15.9949146   1.0078250   1.0078250  15.9949146   1.0078250   1.0078250  15.9949146
 NucSpn=           0           1           1           0           1           1           0           1           1           0
 AtZEff=   0.0000000   0.0000000   0.0000000   0.0000000   0.0000000   0.0000000   0.0000000   0.0000000   0.0000000   0.0000000
 NQMom=    0.0000000   0.0000000   0.0000000   0.0000000   0.0000000   0.0000000   0.0000000   0.0000000   0.0000000   0.0000000
 NMagM=    0.0000000   2.7928460   2.7928460   0.0000000   2.7928460   2.7928460   0.0000000   2.7928460   2.7928460   0.0000000
 AtZNuc=   8.0000000   1.0000000   1.0000000   8.0000000   1.0000000   1.0000000   8.0000000   1.0000000   1.0000000   8.0000000

  Atom       321         322         323         324         325         326         327         328         329         330
 IAtWgt=           1           1          16           1           1          16           1           1          16           1
 AtmWgt=   1.0078250   1.0078250  15.9949146   1.0078250   1.0078250  15.9949146   1.0078250   1.0078250  15.9949146   1.0078250
 NucSpn=           1           1           0           1           1           0           1           1           0           1
 AtZEff=   0.0000000   0.0000000   0.0000000   0.0000000   0.0000000   0.0000000   0.0000000   0.0000000   0.0000000   0.0000000
 NQMom=    0.0000000   0.0000000   0.0000000   0.0000000   0.0000000   0.0000000   0.0000000   0.0000000   0.0000000   0.0000000
 NMagM=    2.7928460   2.7928460   0.0000000   2.7928460   2.7928460   0.0000000   2.7928460   2.7928460   0.0000000   2.7928460
 AtZNuc=   1.0000000   1.0000000   8.0000000   1.0000000   1.0000000   8.0000000   1.0000000   1.0000000   8.0000000   1.0000000

  Atom       331         332         333         334         335         336         337         338         339         340
 IAtWgt=           1          16           1           1          16           1           1          16           1           1
 AtmWgt=   1.0078250  15.9949146   1.0078250   1.0078250  15.9949146   1.0078250   1.0078250  15.9949146   1.0078250   1.0078250
 NucSpn=           1           0           1           1           0           1           1           0           1           1
 AtZEff=   0.0000000   0.0000000   0.0000000   0.0000000   0.0000000   0.0000000   0.0000000   0.0000000   0.0000000   0.0000000
 NQMom=    0.0000000   0.0000000   0.0000000   0.0000000   0.0000000   0.0000000   0.0000000   0.0000000   0.0000000   0.0000000
 NMagM=    2.7928460   0.0000000   2.7928460   2.7928460   0.0000000   2.7928460   2.7928460   0.0000000   2.7928460   2.7928460
 AtZNuc=   1.0000000   8.0000000   1.0000000   1.0000000   8.0000000   1.0000000   1.0000000   8.0000000   1.0000000   1.0000000

  Atom       341         342         343         344         345         346         347         348         349         350
 IAtWgt=          16           1           1          16           1           1          16           1           1          16
 AtmWgt=  15.9949146   1.0078250   1.0078250  15.9949146   1.0078250   1.0078250  15.9949146   1.0078250   1.0078250  15.9949146
 NucSpn=           0           1           1           0           1           1           0           1           1           0
 AtZEff=   0.0000000   0.0000000   0.0000000   0.0000000   0.0000000   0.0000000   0.0000000   0.0000000   0.0000000   0.0000000
 NQMom=    0.0000000   0.0000000   0.0000000   0.0000000   0.0000000   0.0000000   0.0000000   0.0000000   0.0000000   0.0000000
 NMagM=    0.0000000   2.7928460   2.7928460   0.0000000   2.7928460   2.7928460   0.0000000   2.7928460   2.7928460   0.0000000
 AtZNuc=   8.0000000   1.0000000   1.0000000   8.0000000   1.0000000   1.0000000   8.0000000   1.0000000   1.0000000   8.0000000

  Atom       351         352         353         354         355         356         357         358         359         360
 IAtWgt=           1           1          16           1           1          16           1           1          16           1
 AtmWgt=   1.0078250   1.0078250  15.9949146   1.0078250   1.0078250  15.9949146   1.0078250   1.0078250  15.9949146   1.0078250
 NucSpn=           1           1           0           1           1           0           1           1           0           1
 AtZEff=   0.0000000   0.0000000   0.0000000   0.0000000   0.0000000   0.0000000   0.0000000   0.0000000   0.0000000   0.0000000
 NQMom=    0.0000000   0.0000000   0.0000000   0.0000000   0.0000000   0.0000000   0.0000000   0.0000000   0.0000000   0.0000000
 NMagM=    2.7928460   2.7928460   0.0000000   2.7928460   2.7928460   0.0000000   2.7928460   2.7928460   0.0000000   2.7928460
 AtZNuc=   1.0000000   1.0000000   8.0000000   1.0000000   1.0000000   8.0000000   1.0000000   1.0000000   8.0000000   1.0000000

  Atom       361         362         363         364         365         366         367         368         369         370
 IAtWgt=           1          16           1           1          16           1           1          16           1           1
 AtmWgt=   1.0078250  15.9949146   1.0078250   1.0078250  15.9949146   1.0078250   1.0078250  15.9949146   1.0078250   1.0078250
 NucSpn=           1           0           1           1           0           1           1           0           1           1
 AtZEff=   0.0000000   0.0000000   0.0000000   0.0000000   0.0000000   0.0000000   0.0000000   0.0000000   0.0000000   0.0000000
 NQMom=    0.0000000   0.0000000   0.0000000   0.0000000   0.0000000   0.0000000   0.0000000   0.0000000   0.0000000   0.0000000
 NMagM=    2.7928460   0.0000000   2.7928460   2.7928460   0.0000000   2.7928460   2.7928460   0.0000000   2.7928460   2.7928460
 AtZNuc=   1.0000000   8.0000000   1.0000000   1.0000000   8.0000000   1.0000000   1.0000000   8.0000000   1.0000000   1.0000000

  Atom       371         372         373         374         375         376         377         378         379         380
 IAtWgt=          16           1           1          16           1           1          16           1           1          16
 AtmWgt=  15.9949146   1.0078250   1.0078250  15.9949146   1.0078250   1.0078250  15.9949146   1.0078250   1.0078250  15.9949146
 NucSpn=           0           1           1           0           1           1           0           1           1           0
 AtZEff=   0.0000000   0.0000000   0.0000000   0.0000000   0.0000000   0.0000000   0.0000000   0.0000000   0.0000000   0.0000000
 NQMom=    0.0000000   0.0000000   0.0000000   0.0000000   0.0000000   0.0000000   0.0000000   0.0000000   0.0000000   0.0000000
 NMagM=    0.0000000   2.7928460   2.7928460   0.0000000   2.7928460   2.7928460   0.0000000   2.7928460   2.7928460   0.0000000
 AtZNuc=   8.0000000   1.0000000   1.0000000   8.0000000   1.0000000   1.0000000   8.0000000   1.0000000   1.0000000   8.0000000

  Atom       381         382         383         384         385
 IAtWgt=           1           1          16           1           1
 AtmWgt=   1.0078250   1.0078250  15.9949146   1.0078250   1.0078250
 NucSpn=           1           1           0           1           1
 AtZEff=   0.0000000   0.0000000   0.0000000   0.0000000   0.0000000
 NQMom=    0.0000000   0.0000000   0.0000000   0.0000000   0.0000000
 NMagM=    2.7928460   2.7928460   0.0000000   2.7928460   2.7928460
 AtZNuc=   1.0000000   1.0000000   8.0000000   1.0000000   1.0000000
 Leave Link  101 at Sun May 13 05:57:15 2018, MaxMem= 14763950080 cpu:        33.3
 (Enter /cm/shared/gaussian/g09.e01/intel64-sandybridge/g09/l103.exe)

 GradGradGradGradGradGradGradGradGradGradGradGradGradGradGradGradGradGrad
 Berny optimization.
 Initialization pass.
 Trust Radius=3.00D-01 FncErr=1.00D-07 GrdErr=1.00D-07
 Number of steps in this run=      2 maximum allowed number of steps=      2.
 GradGradGradGradGradGradGradGradGradGradGradGradGradGradGradGradGradGrad

 Leave Link  103 at Sun May 13 05:57:15 2018, MaxMem= 14763950080 cpu:         3.7
 (Enter /cm/shared/gaussian/g09.e01/intel64-sandybridge/g09/l202.exe)
 Symmetry turned off by external request.
 Stoichiometry    BrH256O128(1-)
 Framework group  C1[X(BrH256O128)]
 Deg. of freedom  1149
 Full point group                 C1      NOp   1
                          Input orientation:                          
 ---------------------------------------------------------------------
 Center     Atomic      Atomic             Coordinates (Angstroms)
 Number     Number       Type             X           Y           Z
 ---------------------------------------------------------------------
      1         35           0       20.000000   20.000000   20.000000
      2          8           0       18.770000   21.180000   17.160000
      3          1           0       18.750000   20.480000   16.520000
      4          1           0       19.180000   20.780000   17.940000
      5          8           0       21.050000   19.670000   23.070000
      6          1           0       20.700000   20.540000   23.260000
      7          1           0       20.770000   19.500000   22.170000
      8          8           0       19.260000   23.000000   21.040000
      9          1           0       19.220000   22.140000   20.620000
     10          1           0       19.730000   22.840000   21.860000
     11          8           0       17.450000   17.790000   19.750000
     12          1           0       16.680000   18.040000   20.270000
     13          1           0       18.020000   18.550000   19.780000
     14          8           0       22.770000   21.250000   18.340000
     15          1           0       23.420000   20.550000   18.340000
     16          1           0       22.010000   20.880000   18.780000
     17          8           0       21.010000   16.820000   19.370000
     18          1           0       20.540000   17.650000   19.210000
     19          1           0       21.070000   16.410000   18.510000
     20          8           0       18.210000   20.660000   23.740000
     21          1           0       17.780000   20.210000   23.020000
     22          1           0       18.560000   19.960000   24.290000
     23          8           0       23.880000   22.270000   21.720000
     24          1           0       23.860000   23.230000   21.700000
     25          1           0       23.460000   22.000000   20.900000
     26          8           0       17.340000   17.130000   16.860000
     27          1           0       17.510000   17.510000   17.730000
     28          1           0       18.020000   17.510000   16.310000
     29          8           0       20.640000   22.590000   23.250000
     30          1           0       20.430000   22.970000   24.100000
     31          1           0       21.590000   22.440000   23.280000
     32          8           0       22.410000   16.120000   21.530000
     33          1           0       22.980000   16.880000   21.670000
     34          1           0       22.000000   16.280000   20.680000
     35          8           0       19.050000   15.750000   22.380000
     36          1           0       19.670000   15.320000   22.960000
     37          1           0       19.570000   15.970000   21.600000
     38          8           0       22.480000   24.110000   18.330000
     39          1           0       21.660000   24.250000   17.860000
     40          1           0       22.620000   23.160000   18.290000
     41          8           0       15.310000   21.070000   19.660000
     42          1           0       15.300000   20.610000   18.820000
     43          1           0       15.520000   20.400000   20.300000
     44          8           0       20.420000   22.670000   15.280000
     45          1           0       20.700000   23.450000   15.760000
     46          1           0       20.010000   22.110000   15.950000
     47          8           0       16.650000   24.170000   20.560000
     48          1           0       16.070000   23.430000   20.360000
     49          1           0       17.510000   23.770000   20.690000
     50          8           0       23.660000   20.340000   24.000000
     51          1           0       24.120000   20.780000   23.290000
     52          1           0       22.900000   19.940000   23.580000
     53          8           0       17.160000   17.540000   23.300000
     54          1           0       17.900000   17.030000   22.950000
     55          1           0       16.610000   16.890000   23.730000
     56          8           0       17.650000   23.740000   17.270000
     57          1           0       17.380000   23.730000   18.190000
     58          1           0       17.710000   22.820000   17.030000
     59          8           0       15.650000   18.620000   21.380000
     60          1           0       14.750000   18.370000   21.560000
     61          1           0       16.150000   18.290000   22.130000
     62          8           0       19.550000   18.650000   25.230000
     63          1           0       19.400000   17.760000   24.910000
     64          1           0       20.200000   19.010000   24.630000
     65          8           0       17.320000   14.900000   19.980000
     66          1           0       18.110000   14.390000   20.120000
     67          1           0       17.630000   15.780000   19.740000
     68          8           0       20.700000   25.460000   20.030000
     69          1           0       20.010000   24.900000   20.400000
     70          1           0       21.310000   24.840000   19.630000
     71          8           0       19.670000   17.820000   15.370000
     72          1           0       19.610000   17.350000   14.540000
     73          1           0       20.600000   17.840000   15.570000
     74          8           0       22.960000   21.380000   15.170000
     75          1           0       22.200000   21.520000   14.600000
     76          1           0       22.620000   21.530000   16.050000
     77          8           0       15.540000   19.590000   17.350000
     78          1           0       16.150000   19.590000   16.600000
     79          1           0       15.630000   18.710000   17.730000
     80          8           0       25.140000   19.670000   18.380000
     81          1           0       25.550000   19.130000   19.050000
     82          1           0       25.610000   20.500000   18.420000
     83          8           0       20.650000   15.380000   17.200000
     84          1           0       19.770000   15.180000   16.890000
     85          1           0       21.210000   14.730000   16.780000
     86          8           0       17.380000   19.740000   15.170000
     87          1           0       17.340000   20.510000   14.600000
     88          1           0       17.690000   19.040000   14.590000
     89          8           0       16.750000   22.970000   24.700000
     90          1           0       16.580000   23.500000   23.920000
     91          1           0       17.240000   22.210000   24.380000
     92          8           0       25.650000   17.940000   20.800000
     93          1           0       25.270000   18.250000   21.630000
     94          1           0       26.540000   17.670000   21.030000
     95          8           0       20.270000   25.150000   17.050000
     96          1           0       20.400000   25.910000   16.490000
     97          1           0       19.320000   25.020000   17.060000
     98          8           0       17.950000   14.420000   16.770000
     99          1           0       17.750000   14.310000   15.840000
    100          1           0       17.770000   15.350000   16.950000
    101          8           0       23.180000   24.850000   21.850000
    102          1           0       22.480000   25.080000   22.470000
    103          1           0       23.310000   25.630000   21.330000
    104          8           0       25.810000   17.820000   16.610000
    105          1           0       25.530000   18.260000   17.420000
    106          1           0       25.640000   18.450000   15.920000
    107          8           0       17.510000   25.830000   22.960000
    108          1           0       17.130000   25.160000   22.390000
    109          1           0       16.780000   26.140000   23.500000
    110          8           0       24.230000   14.250000   19.760000
    111          1           0       23.470000   14.660000   20.170000
    112          1           0       24.700000   14.970000   19.340000
    113          8           0       22.240000   14.270000   23.580000
    114          1           0       22.350000   14.760000   22.760000
    115          1           0       22.030000   13.380000   23.300000
    116          8           0       26.540000   22.560000   21.650000
    117          1           0       26.900000   22.840000   22.490000
    118          1           0       25.610000   22.420000   21.830000
    119          8           0       13.460000   22.810000   20.600000
    120          1           0       14.010000   22.270000   20.030000
    121          1           0       12.930000   23.330000   20.000000
    122          8           0       25.680000   18.710000   24.130000
    123          1           0       26.290000   19.440000   24.110000
    124          1           0       24.810000   19.120000   24.150000
    125          8           0       15.390000   14.930000   21.780000
    126          1           0       14.670000   15.450000   21.420000
    127          1           0       16.060000   14.960000   21.100000
    128          8           0       25.020000   19.840000   14.840000
    129          1           0       24.190000   20.300000   14.910000
    130          1           0       24.950000   19.340000   14.020000
    131          8           0       24.720000   25.680000   18.650000
    132          1           0       24.290000   26.300000   19.230000
    133          1           0       24.010000   25.150000   18.300000
    134          8           0       15.120000   17.260000   14.740000
    135          1           0       14.470000   16.630000   15.030000
    136          1           0       15.590000   17.510000   15.530000
    137          8           0       22.950000   19.990000   26.690000
    138          1           0       22.810000   20.800000   27.190000
    139          1           0       23.360000   20.280000   25.880000
    140          8           0       14.510000   23.360000   22.970000
    141          1           0       13.910000   22.770000   23.420000
    142          1           0       14.360000   23.190000   22.040000
    143          8           0       18.910000   25.000000   25.360000
    144          1           0       18.680000   24.120000   25.660000
    145          1           0       18.630000   25.030000   24.450000
    146          8           0       16.770000   17.910000   26.590000
    147          1           0       16.820000   17.090000   26.090000
    148          1           0       17.540000   18.410000   26.300000
    149          8           0       22.270000   23.350000   25.670000
    150          1           0       23.040000   22.970000   26.090000
    151          1           0       22.590000   24.150000   25.260000
    152          8           0       19.380000   19.440000   27.830000
    153          1           0       20.130000   19.310000   28.410000
    154          1           0       19.750000   19.410000   26.940000
    155          8           0       22.690000   27.310000   20.180000
    156          1           0       22.400000   28.060000   20.700000
    157          1           0       21.980000   26.680000   20.260000
    158          8           0       18.930000   22.450000   12.820000
    159          1           0       18.090000   22.580000   13.270000
    160          1           0       19.590000   22.590000   13.490000
    161          8           0       19.340000   27.420000   18.720000
    162          1           0       19.570000   27.980000   17.990000
    163          1           0       20.160000   26.990000   18.970000
    164          8           0       16.660000   27.060000   19.470000
    165          1           0       17.610000   27.160000   19.330000
    166          1           0       16.570000   26.190000   19.860000
    167          8           0       16.580000   25.720000   15.500000
    168          1           0       16.000000   25.150000   15.000000
    169          1           0       17.060000   25.120000   16.070000
    170          8           0       14.670000   24.870000   18.370000
    171          1           0       15.300000   25.450000   18.790000
    172          1           0       15.120000   24.550000   17.590000
    173          8           0       13.160000   19.640000   22.580000
    174          1           0       13.100000   19.390000   21.650000
    175          1           0       13.420000   18.830000   23.020000
    176          8           0       25.540000   15.520000   17.950000
    177          1           0       25.590000   16.320000   17.430000
    178          1           0       26.450000   15.290000   18.140000
    179          8           0       15.120000   13.660000   18.890000
    180          1           0       15.810000   14.220000   19.250000
    181          1           0       14.450000   14.270000   18.590000
    182          8           0       21.570000   25.610000   24.200000
    183          1           0       21.270000   26.340000   23.650000
    184          1           0       21.070000   25.710000   25.010000
    185          8           0       22.410000   18.450000   13.410000
    186          1           0       22.970000   18.900000   12.770000
    187          1           0       22.980000   17.810000   13.820000
    188          8           0       21.040000   15.440000   25.730000
    189          1           0       20.150000   15.110000   25.630000
    190          1           0       21.520000   15.050000   25.000000
    191          8           0       24.310000   16.760000   14.320000
    192          1           0       24.430000   16.750000   15.270000
    193          1           0       24.630000   15.900000   14.030000
    194          8           0       22.380000   17.330000   27.120000
    195          1           0       22.190000   16.650000   26.470000
    196          1           0       22.380000   18.150000   26.620000
    197          8           0       20.800000   22.520000   27.540000
    198          1           0       19.850000   22.540000   27.400000
    199          1           0       21.170000   22.700000   26.680000
    200          8           0       12.730000   20.420000   17.110000
    201          1           0       13.490000   20.050000   16.670000
    202          1           0       12.780000   21.360000   16.930000
    203          8           0       13.390000   16.450000   20.450000
    204          1           0       13.190000   17.270000   20.010000
    205          1           0       12.740000   16.380000   21.150000
    206          8           0       19.580000   27.320000   22.740000
    207          1           0       19.290000   28.030000   22.160000
[...]
   Z335      29.32855  -0.00959   0.00000  -0.00178  -0.00253  29.32602
   X336      54.36742  -0.00558   0.00000  -0.00656  -0.00736  54.36006
   Y336      32.37101   0.00265   0.00000   0.00449   0.00309  32.37410
   Z336      29.42304   0.00014   0.00000  -0.00074  -0.00154  29.42149
   X337      51.70291  -0.01074   0.00000  -0.00336  -0.00418  51.69873
   Y337      31.78519   0.01362   0.00000   0.01358   0.01240  31.79759
   Z337      30.29231   0.00821   0.00000   0.00261   0.00192  30.29423
   X338      25.96484   0.00486   0.00000   0.00201   0.00321  25.96805
   Y338      50.90922  -0.00332   0.00000  -0.00391  -0.00290  50.90632
   Z338      40.38345  -0.00714   0.00000  -0.01626  -0.01596  40.36748
   X339      24.75541  -0.00654   0.00000  -0.00582  -0.00458  24.75083
   Y339      51.83519   0.00862   0.00000   0.01003   0.01114  51.84633
   Z339      39.41969  -0.00697   0.00000  -0.00835  -0.00800  39.41168
   X340      27.53331   0.00635   0.00000   0.00805   0.00923  27.54254
   Y340      51.17378   0.00259   0.00000   0.00409   0.00497  51.17875
   Z340      39.51417  -0.00394   0.00000  -0.00661  -0.00638  39.50779
   X341      54.31073  -0.01006   0.00000  -0.00769  -0.00796  54.30277
   Y341      33.99617   0.00528   0.00000   0.00349   0.00211  33.99828
   Z341      39.47638  -0.00634   0.00000  -0.00677  -0.00758  39.46880
   X342      55.67133   0.00591   0.00000   0.00111   0.00077  55.67210
   Y342      32.86234  -0.00765   0.00000  -0.00404  -0.00554  32.85680
   Z342      39.81653   0.00172   0.00000   0.00094   0.00009  39.81662
   X343      55.06662  -0.00383   0.00000  -0.00599  -0.00619  55.06043
   Y343      35.33788   0.00534   0.00000   0.00979   0.00835  35.34623
   Z343      38.49372   0.00171   0.00000   0.00334   0.00251  38.49623
   X344      20.04999  -0.00738   0.00000  -0.00161  -0.00201  20.04798
   Y344      35.30008  -0.00959   0.00000  -0.01093  -0.00943  35.29065
   Z344      33.29697   0.01899   0.00000   0.01229   0.01284  33.30981
   X345      21.42949   0.00610   0.00000  -0.00032  -0.00063  21.42887
   Y345      36.47171   0.01135   0.00000   0.00919   0.01057  36.48229
   Z345      33.22139  -0.01072   0.00000  -0.01467  -0.01417  33.20721
   X346      19.69095  -0.00146   0.00000  -0.00146  -0.00197  19.68898
   Y346      34.92214  -0.00084   0.00000  -0.00115   0.00037  34.92251
   Z346      31.57732  -0.01213   0.00000  -0.00579  -0.00522  31.57210
   X347      27.17426  -0.01170   0.00000  -0.01009  -0.01000  27.16426
   Y347      32.27652  -0.01110   0.00000  -0.00781  -0.00688  32.26964
   Z347      52.17534  -0.00392   0.00000  -0.00329  -0.00301  52.17233
   X348      27.26875   0.00282   0.00000   0.00270   0.00291  27.27165
   Y348      32.76785   0.00536   0.00000   0.00452   0.00545  32.77330
   Z348      53.91389   0.00549   0.00000   0.00166   0.00193  53.91581
   X349      28.28920   0.00763   0.00000   0.00493   0.00509  28.29429
   Y349      33.42926   0.00639   0.00000   0.00166   0.00249  33.43175
   Z349      51.32496  -0.00088   0.00000   0.00194   0.00217  51.32713
   X350      27.66559   0.00861   0.00000   0.00147   0.00170  27.66729
   Y350      45.88255  -0.00135   0.00000  -0.00352  -0.00268  45.87987
   Z350      26.62624   0.00668   0.00000   0.00463   0.00487  26.63111
   X351      26.39947  -0.00819   0.00000  -0.00814  -0.00783  26.39165
   Y351      46.37388  -0.00030   0.00000  -0.00340  -0.00245  46.37143
   Z351      27.81677   0.00818   0.00000   0.00786   0.00814  27.82491
   X352      26.75852  -0.00328   0.00000   0.00121   0.00135  26.75987
   Y352      45.61799   0.00085   0.00000   0.00291   0.00383  45.62182
   Z352      25.09556  -0.01476   0.00000  -0.01316  -0.01289  25.08267
   X353      33.88279  -0.02616   0.00000  -0.02256  -0.02233  33.86046
   Y353      47.64000   0.00339   0.00000  -0.00153  -0.00121  47.63878
   Z353      23.07356  -0.00130   0.00000   0.00103   0.00102  23.07458
   X354      35.52685   0.01457   0.00000   0.00547   0.00569  35.53254
   Y354      47.18646   0.00187   0.00000   0.00867   0.00885  47.19531
   Z354      23.65937  -0.00142   0.00000  -0.00589  -0.00597  23.65340
   X355      33.95838   0.00412   0.00000   0.00391   0.00405  33.96243
   Y355      47.35654  -0.00210   0.00000  -0.00272  -0.00242  47.35412
   Z355      21.27832   0.00083   0.00000   0.00170   0.00168  21.27999
   X356      52.30762  -0.00382   0.00000  -0.00028  -0.00094  52.30668
   Y356      28.28920  -0.00610   0.00000   0.00515   0.00394  28.29314
   Z356      41.64956  -0.02332   0.00000  -0.01852  -0.01923  41.63033
   X357      54.08396   0.00849   0.00000   0.00564   0.00498  54.08894
   Y357      28.10023  -0.00095   0.00000  -0.00103  -0.00239  28.09784
   Z357      41.89523   0.00455   0.00000   0.00519   0.00441  41.89964
   X358      51.79739  -0.00313   0.00000  -0.00089  -0.00140  51.79599
   Y358      29.38524   0.00751   0.00000   0.00033  -0.00084  29.38441
   Z358      42.99127   0.01877   0.00000   0.01544   0.01475  43.00602
   X359      19.65315  -0.00565   0.00000  -0.00501  -0.00452  19.64863
   Y359      42.34876   0.00010   0.00000  -0.00746  -0.00592  42.34284
   Z359      40.85588  -0.00647   0.00000  -0.00953  -0.00897  40.84691
   X360      21.35391   0.00873   0.00000   0.00861   0.00905  21.36295
   Y360      41.95192   0.00200   0.00000   0.00412   0.00552  41.95744
   Z360      40.34565   0.00117   0.00000   0.00306   0.00355  40.34921
   X361      19.35080   0.00148   0.00000   0.00264   0.00309  19.35389
   Y361      41.21493  -0.00248   0.00000  -0.00186  -0.00029  41.21464
   Z361      42.23538   0.00470   0.00000   0.00376   0.00433  42.23971
   X362      24.37747  -0.01173   0.00000  -0.01144  -0.01025  24.36722
   Y362      48.96280   0.00421   0.00000  -0.00247  -0.00132  48.96148
   Z362      44.61643   0.01513   0.00000   0.01446   0.01482  44.63125
   X363      25.24674   0.00631   0.00000   0.00328   0.00434  25.25108
   Y363      47.37543  -0.00997   0.00000  -0.00781  -0.00673  47.36871
   Z363      44.50305  -0.00152   0.00000   0.00008   0.00041  44.50346
   X364      24.88769   0.00409   0.00000   0.00242   0.00363  24.89133
   Y364      49.85098  -0.00211   0.00000  -0.00632  -0.00522  49.84576
   Z364      43.12355  -0.00049   0.00000   0.00635   0.00669  43.13024
   X365      47.20536  -0.00211   0.00000  -0.00272  -0.00140  47.20395
   Y365      51.26827  -0.00456   0.00000   0.00029  -0.00049  51.26778
   Z365      42.76450   0.00902   0.00000   0.00907   0.00852  42.77303
   X366      48.92501   0.00113   0.00000  -0.00125   0.00001  48.92502
   Y366      50.68245  -0.00083   0.00000  -0.00084  -0.00176  50.68070
   Z366      42.67002  -0.00347   0.00000  -0.00459  -0.00520  42.66481
   X367      47.14867   0.00046   0.00000  -0.00086   0.00053  47.14920
   Y367      52.62887   0.00461   0.00000   0.00166   0.00089  52.62976
   Z367      41.57397  -0.00614   0.00000  -0.00386  -0.00441  41.56957
   X368      38.94726   0.01624   0.00000   0.01127   0.01106  38.95832
   Y368      43.78495   0.00150   0.00000   0.00041   0.00030  43.78525
   Z368      20.10669  -0.00808   0.00000  -0.00479  -0.00500  20.10169
   X369      37.73783  -0.00540   0.00000  -0.00313  -0.00333  37.73450
   Y369      44.44636   0.00141   0.00000   0.00063   0.00061  44.44697
   Z369      18.93506  -0.00149   0.00000   0.00010  -0.00006  18.93499
   X370      37.94570  -0.01219   0.00000  -0.00979  -0.00999  37.93571
   Y370      43.23693  -0.00344   0.00000  -0.00172  -0.00175  43.23519
   Z370      21.50508   0.00678   0.00000   0.00050   0.00033  21.50541
   X371      39.89212   0.01360   0.00000   0.00735   0.00905  39.90117
   Y371      54.02727   0.00550   0.00000   0.00099   0.00084  54.02811
   Z371      46.54395   0.01951   0.00000   0.01210   0.01184  46.55579
   X372      40.96926   0.00282   0.00000   0.00079   0.00252  40.97179
   Y372      54.93434   0.00233   0.00000   0.00152   0.00127  54.93561
   Z372      45.41012  -0.00558   0.00000  -0.00412  -0.00443  45.40569
   X373      38.72049  -0.01836   0.00000  -0.01642  -0.01484  38.70565
   Y373      53.17689  -0.00635   0.00000   0.00042   0.00036  53.17726
   Z373      45.46681  -0.01270   0.00000  -0.00520  -0.00542  45.46139
   X374      34.78986  -0.00235   0.00000  -0.00199  -0.00037  34.78949
   Y374      50.77694   0.01177   0.00000   0.00848   0.00876  50.78570
   Z374      51.41945   0.01239   0.00000   0.01251   0.01246  51.43191
   X375      35.41347  -0.00133   0.00000  -0.00636  -0.00489  35.40858
   Y375      49.43524  -0.00467   0.00000   0.00217   0.00240  49.43764
   Z375      50.36120  -0.00753   0.00000  -0.00564  -0.00572  50.35548
   X376      33.27808   0.00028   0.00000  -0.00208  -0.00049  33.27758
   Y376      50.07774  -0.00125   0.00000  -0.00175  -0.00133  50.07641
   Z376      52.15644  -0.00187   0.00000  -0.00178  -0.00177  52.15467
   X377      45.27784   0.00696   0.00000   0.00902   0.01002  45.28786
   Y377      42.78340  -0.01081   0.00000  -0.00686  -0.00745  42.77595
   Z377      52.62887  -0.01924   0.00000  -0.01171  -0.01217  52.61670
   X378      45.12666  -0.00665   0.00000  -0.01029  -0.00915  45.11751
   Y378      43.91724   0.01061   0.00000   0.00551   0.00492  43.92216
   Z378      54.00837   0.01292   0.00000   0.00464   0.00419  54.01256
   X379      45.65578   0.00116   0.00000   0.00075   0.00164  45.65742
   Y379      41.17713  -0.00430   0.00000  -0.00440  -0.00502  41.17211
   Z379      53.38476   0.00504   0.00000   0.00624   0.00577  53.39054
   X380      27.85456  -0.01024   0.00000  -0.00532  -0.00660  27.84797
   Y380      22.03421  -0.01684   0.00000  -0.01070  -0.00985  22.02436
   Z380      39.43858   0.00972   0.00000   0.00637   0.00663  39.44522
   X381      28.06243   0.00232   0.00000   0.00065  -0.00055  28.06188
   Y381      23.43260   0.01399   0.00000   0.00579   0.00662  23.43922
   Z381      38.30475  -0.01292   0.00000  -0.00919  -0.00894  38.29581
   X382      29.25296   0.00714   0.00000   0.00713   0.00590  29.25886
   Y382      22.14759   0.00469   0.00000   0.00552   0.00625  22.15384
   Z382      40.57242   0.00215   0.00000   0.00026   0.00047  40.57289
   X383      31.67181  -0.01160   0.00000  -0.01497  -0.01446  31.65735
   Y383      35.75362   0.00377   0.00000   0.00451   0.00507  35.75869
   Z383      55.19890   0.01650   0.00000   0.01143   0.01152  55.21042
   X384      31.40725   0.00769   0.00000   0.01206   0.01241  31.41966
   Y384      34.56309  -0.00184   0.00000   0.00115   0.00172  34.56481
   Z384      53.85719  -0.00900   0.00000  -0.00551  -0.00541  53.85178
   X385      32.74895   0.00715   0.00000   0.00688   0.00746  32.75642
   Y385      37.01973  -0.00389   0.00000  -0.01057  -0.01011  37.00963
   Z385      54.46191  -0.00619   0.00000  -0.00403  -0.00398  54.45793
         Item               Value     Threshold  Converged?
 Maximum Force            0.040400     0.000450     NO 
 RMS     Force            0.010789     0.000300     NO 
 Maximum Displacement     0.033697     0.001800     NO 
 RMS     Displacement     0.008805     0.001200     NO 
 Predicted change in Energy=-7.629581D-02
 GradGradGradGradGradGradGradGradGradGradGradGradGradGradGradGradGradGrad

 Leave Link  103 at Sun May 13 08:17:07 2018, MaxMem= 14763950080 cpu:      2862.3
 (Enter /cm/shared/gaussian/g09.e01/intel64-sandybridge/g09/l9999.exe)
 1\1\GINC-POPLE03\Force\RPBE1PBE\CC-pVDZ\Br1H256O128(1-)\M.PELUSO\13-Ma
 y-2018\0\\#p PBE1PBE/cc-pvDZ force Counterpoise=2 noSymm\\forces on ch
 loride comput - NWATER: 128\\-1,1\Br,20.,20.,20.\O,18.77,21.18,17.16\H
 ,18.75,20.48,16.52\H,19.18,20.78,17.94\O,21.05,19.67,23.07\H,20.7,20.5
 4,23.26\H,20.77,19.5,22.17\O,19.26,23.,21.04\H,19.22,22.14,20.62\H,19.
 73,22.84,21.86\O,17.45,17.79,19.75\H,16.68,18.04,20.27\H,18.02,18.55,1
 9.78\O,22.77,21.25,18.34\H,23.42,20.55,18.34\H,22.01,20.88,18.78\O,21.
 01,16.82,19.37\H,20.54,17.65,19.21\H,21.07,16.41,18.51\O,18.21,20.66,2
 3.74\H,17.78,20.21,23.02\H,18.56,19.96,24.29\O,23.88,22.27,21.72\H,23.
 86,23.23,21.7\H,23.46,22.,20.9\O,17.34,17.13,16.86\H,17.51,17.51,17.73
 \H,18.02,17.51,16.31\O,20.64,22.59,23.25\H,20.43,22.97,24.1\H,21.59,22
 .44,23.28\O,22.41,16.12,21.53\H,22.98,16.88,21.67\H,22.,16.28,20.68\O,
 19.05,15.75,22.38\H,19.67,15.32,22.96\H,19.57,15.97,21.6\O,22.48,24.11
 ,18.33\H,21.66,24.25,17.86\H,22.62,23.16,18.29\O,15.31,21.07,19.66\H,1
 5.3,20.61,18.82\H,15.52,20.4,20.3\O,20.42,22.67,15.28\H,20.7,23.45,15.
 76\H,20.01,22.11,15.95\O,16.65,24.17,20.56\H,16.07,23.43,20.36\H,17.51
 ,23.77,20.69\O,23.66,20.34,24.\H,24.12,20.78,23.29\H,22.9,19.94,23.58\
 O,17.16,17.54,23.3\H,17.9,17.03,22.95\H,16.61,16.89,23.73\O,17.65,23.7
 4,17.27\H,17.38,23.73,18.19\H,17.71,22.82,17.03\O,15.65,18.62,21.38\H,
 14.75,18.37,21.56\H,16.15,18.29,22.13\O,19.55,18.65,25.23\H,19.4,17.76
 ,24.91\H,20.2,19.01,24.63\O,17.32,14.9,19.98\H,18.11,14.39,20.12\H,17.
 63,15.78,19.74\O,20.7,25.46,20.03\H,20.01,24.9,20.4\H,21.31,24.84,19.6
 3\O,19.67,17.82,15.37\H,19.61,17.35,14.54\H,20.6,17.84,15.57\O,22.96,2
 1.38,15.17\H,22.2,21.52,14.6\H,22.62,21.53,16.05\O,15.54,19.59,17.35\H
 ,16.15,19.59,16.6\H,15.63,18.71,17.73\O,25.14,19.67,18.38\H,25.55,19.1
 3,19.05\H,25.61,20.5,18.42\O,20.65,15.38,17.2\H,19.77,15.18,16.89\H,21
 .21,14.73,16.78\O,17.38,19.74,15.17\H,17.34,20.51,14.6\H,17.69,19.04,1
 4.59\O,16.75,22.97,24.7\H,16.58,23.5,23.92\H,17.24,22.21,24.38\O,25.65
 ,17.94,20.8\H,25.27,18.25,21.63\H,26.54,17.67,21.03\O,20.27,25.15,17.0
 5\H,20.4,25.91,16.49\H,19.32,25.02,17.06\O,17.95,14.42,16.77\H,17.75,1
 4.31,15.84\H,17.77,15.35,16.95\O,23.18,24.85,21.85\H,22.48,25.08,22.47
 \H,23.31,25.63,21.33\O,25.81,17.82,16.61\H,25.53,18.26,17.42\H,25.64,1
 8.45,15.92\O,17.51,25.83,22.96\H,17.13,25.16,22.39\H,16.78,26.14,23.5\
 O,24.23,14.25,19.76\H,23.47,14.66,20.17\H,24.7,14.97,19.34\O,22.24,14.
 27,23.58\H,22.35,14.76,22.76\H,22.03,13.38,23.3\O,26.54,22.56,21.65\H,
 26.9,22.84,22.49\H,25.61,22.42,21.83\O,13.46,22.81,20.6\H,14.01,22.27,
 20.03\H,12.93,23.33,20.\O,25.68,18.71,24.13\H,26.29,19.44,24.11\H,24.8
 1,19.12,24.15\O,15.39,14.93,21.78\H,14.67,15.45,21.42\H,16.06,14.96,21
 .1\O,25.02,19.84,14.84\H,24.19,20.3,14.91\H,24.95,19.34,14.02\O,24.72,
 25.68,18.65\H,24.29,26.3,19.23\H,24.01,25.15,18.3\O,15.12,17.26,14.74\
 H,14.47,16.63,15.03\H,15.59,17.51,15.53\O,22.95,19.99,26.69\H,22.81,20
 .8,27.19\H,23.36,20.28,25.88\O,14.51,23.36,22.97\H,13.91,22.77,23.42\H
 ,14.36,23.19,22.04\O,18.91,25.,25.36\H,18.68,24.12,25.66\H,18.63,25.03
 ,24.45\O,16.77,17.91,26.59\H,16.82,17.09,26.09\H,17.54,18.41,26.3\O,22
 .27,23.35,25.67\H,23.04,22.97,26.09\H,22.59,24.15,25.26\O,19.38,19.44,
 27.83\H,20.13,19.31,28.41\H,19.75,19.41,26.94\O,22.69,27.31,20.18\H,22
 .4,28.06,20.7\H,21.98,26.68,20.26\O,18.93,22.45,12.82\H,18.09,22.58,13
 .27\H,19.59,22.59,13.49\O,19.34,27.42,18.72\H,19.57,27.98,17.99\H,20.1
 6,26.99,18.97\O,16.66,27.06,19.47\H,17.61,27.16,19.33\H,16.57,26.19,19
 .86\O,16.58,25.72,15.5\H,16.,25.15,15.\H,17.06,25.12,16.07\O,14.67,24.
 87,18.37\H,15.3,25.45,18.79\H,15.12,24.55,17.59\O,13.16,19.64,22.58\H,
 13.1,19.39,21.65\H,13.42,18.83,23.02\O,25.54,15.52,17.95\H,25.59,16.32
 ,17.43\H,26.45,15.29,18.14\O,15.12,13.66,18.89\H,15.81,14.22,19.25\H,1
 4.45,14.27,18.59\O,21.57,25.61,24.2\H,21.27,26.34,23.65\H,21.07,25.71,
 25.01\O,22.41,18.45,13.41\H,22.97,18.9,12.77\H,22.98,17.81,13.82\O,21.
 04,15.44,25.73\H,20.15,15.11,25.63\H,21.52,15.05,25.\O,24.31,16.76,14.
 32\H,24.43,16.75,15.27\H,24.63,15.9,14.03\O,22.38,17.33,27.12\H,22.19,
 16.65,26.47\H,22.38,18.15,26.62\O,20.8,22.52,27.54\H,19.85,22.54,27.4\
 H,21.17,22.7,26.68\O,12.73,20.42,17.11\H,13.49,20.05,16.67\H,12.78,21.
 36,16.93\O,13.39,16.45,20.45\H,13.19,17.27,20.01\H,12.74,16.38,21.15\O
 ,19.58,27.32,22.74\H,19.29,28.03,22.16\H,18.83,26.72,22.77\O,12.5,19.1
 ,19.87\H,11.59,19.31,20.04\H,12.64,19.35,18.96\O,16.11,21.95,13.9\H,15
 .46,21.29,13.65\H,15.59,22.71,14.15\O,18.22,22.84,27.04\H,17.9,23.12,2
 7.9\H,17.44,22.83,26.48\O,13.9,17.15,23.44\H,13.19,16.57,23.18\H,14.37
 ,16.65,24.12\O,20.74,16.55,12.38\H,20.99,17.38,12.8\H,20.88,16.7,11.45
 \O,28.22,21.23,19.81\H,27.6,21.62,20.41\H,29.07,21.58,20.08\O,24.81,24
 .82,24.87\H,24.78,25.55,25.49\H,24.17,25.06,24.2\O,17.8,17.6,12.9\H,18
 .21,16.85,12.48\H,16.86,17.45,12.81\O,15.93,15.52,24.98\H,16.61,15.,25
 .4\H,15.28,14.88,24.7\O,12.78,21.76,24.07\H,11.89,21.52,24.33\H,13.04,
 21.08,23.45\O,18.34,20.13,11.61\H,18.38,20.96,12.08\H,18.44,19.47,12.2
 9\O,18.65,14.51,25.55\H,18.34,14.02,26.31\H,18.55,13.91,24.81\O,22.6,1
 2.21,20.3\H,22.9,11.44,19.83\H,23.33,12.84,20.23\O,24.44,23.13,13.17\H
 ,24.57,23.85,13.79\H,24.24,22.37,13.72\O,27.07,24.84,19.4\H,26.84,24.1
 1,19.98\H,26.23,25.27,19.22\O,18.28,11.83,17.18\H,18.56,11.79,18.09\H,
 18.28,12.76,16.96\O,22.14,13.45,15.82\H,22.94,13.69,15.36\H,22.24,12.5
 1,16.\O,14.31,23.42,25.97\H,13.86,22.72,25.5\H,15.17,23.46,25.56\O,27.
 42,20.89,15.78\H,26.66,20.51,15.35\H,27.99,20.15,15.99\O,19.12,11.7,19
 .93\H,20.03,11.84,20.17\H,18.77,11.12,20.61\O,26.94,16.22,24.45\H,27.4
 8,16.52,25.18\H,26.33,16.94,24.29\O,24.9,13.93,24.57\H,24.03,14.32,24.
 49\H,25.5,14.65,24.4\O,14.58,19.67,13.26\H,13.64,19.71,13.44\H,14.85,1
 8.81,13.59\O,25.83,22.35,25.58\H,25.38,23.19,25.55\H,25.31,21.82,26.18
 \O,20.26,14.12,13.53\H,20.89,13.94,14.23\H,20.6,14.9,13.1\O,20.58,25.6
 2,12.63\H,20.91,25.11,13.36\H,20.82,26.52,12.84\O,18.33,12.61,23.9\H,1
 7.54,12.13,23.66\H,19.,12.29,23.29\O,27.38,20.77,24.11\H,28.14,21.19,2
 3.7\H,26.94,21.49,24.57\O,28.57,18.74,17.48\H,28.12,18.31,18.21\H,29.3
 3,18.19,17.32\O,23.09,25.86,14.16\H,23.28,26.76,14.42\H,23.81,25.35,14
 .53\O,12.88,22.95,16.26\H,12.67,23.82,16.6\H,12.14,22.71,15.71\O,14.,1
 3.7,23.76\H,14.57,12.94,23.87\H,14.38,14.18,23.02\O,25.68,12.73,17.24\
 H,25.09,13.44,17.49\H,26.06,12.42,18.07\O,11.95,24.82,19.13\H,11.98,25
 .4,19.88\H,12.85,24.81,18.8\O,18.31,28.97,21.06\H,18.58,28.59,20.22\H,
 17.37,28.79,21.12\O,20.95,11.69,22.8\H,21.25,11.57,21.9\H,21.45,11.05,
 23.3\O,13.85,15.12,16.09\H,12.97,15.2,16.48\H,13.7,14.84,15.19\O,17.64
 ,13.71,13.92\H,18.56,13.94,13.81\H,17.56,12.85,13.51\O,21.75,18.7,29.3
 5\H,21.96,18.43,28.46\H,22.34,19.43,29.52\O,20.11,27.86,15.9\H,20.55,2
 7.64,15.08\H,19.2,28.03,15.66\O,15.35,27.77,17.17\H,15.83,27.56,17.97\
 H,15.84,27.35,16.47\O,27.22,24.14,23.61\H,27.43,24.91,23.09\H,26.5,24.
 42,24.18\O,28.08,16.46,15.52\H,28.77,17.13,15.57\H,27.36,16.82,16.03\O
 ,13.74,26.94,21.37\H,13.1,27.43,20.86\H,14.57,27.08,20.91\O,28.74,17.9
 9,20.89\H,29.46,17.39,21.07\H,29.14,18.7,20.37\O,10.61,18.68,17.62\H,1
 1.34,19.3,17.58\H,10.42,18.48,16.71\O,14.38,17.08,27.61\H,14.43,17.34,
 28.53\H,14.97,17.69,27.16\O,14.64,24.28,14.09\H,13.97,24.54,14.72\H,14
 .16,24.14,13.28\O,17.93,25.21,12.21\H,18.8,24.97,12.52\H,17.97,25.06,1
 1.26\O,27.68,14.97,22.04\H,28.62,14.87,22.17\H,27.41,15.55,22.75\O,10.
 4,22.41,21.62\H,11.3,22.2,21.35\H,10.24,21.81,22.35\O,12.9,25.91,23.61
 \H,13.36,25.07,23.55\H,13.17,26.38,22.82\O,24.98,27.13,22.63\H,25.89,2
 6.82,22.58\H,24.95,27.85,22.\O,20.61,23.17,10.64\H,19.97,23.52,10.02\H
 ,20.08,22.88,11.38\O,21.11,28.59,24.63\H,21.68,29.07,24.03\H,20.49,28.
 14,24.06\O,18.41,26.87,27.21\H,18.74,26.16,26.65\H,17.61,26.5,27.6\O,2
 3.96,22.64,27.85\H,23.88,23.24,28.58\H,24.16,21.79,28.25\O,14.74,11.66
 ,20.87\H,14.85,12.4,20.27\H,15.48,11.72,21.47\O,16.76,18.92,29.21\H,16
 .62,18.29,28.5\H,17.33,19.59,28.82\\Version=ES64L-G09RevE.01\HF=-9773.
 4380753\RMSD=1.715e-09\RMSF=1.079e-02\Dipole=2.9538764,-1.7694519,-11.
 4812553\Quadrupole=580.5764318,150.6067212,-731.1831531,-1346.4806001,
 -1604.8302047,-1961.6707535\PG=C01 [X(Br1H256O128)]\\@


 BLESSED ARE THOSE WHO NOUGHT EXPECT,
 FOR THEY SHALL NOT BE DISAPPOINTED..  WALCOT - ODE TO PITT
 Job cpu time:       6 days  2 hours 38 minutes  5.3 seconds.
 File lengths (MBytes):  RWF=   7285 Int=      0 D2E=      0 Chk=   2411 Scr=      1
 Normal termination of Gaussian 09 at Sun May 13 08:17:50 2018.
