 Entering Gaussian System, Link 0=/cm/shared/gaussian/g09.e01/intel64-sandybridge/g09/g09
 Initial command:
 /cm/shared/gaussian/g09.e01/intel64-sandybridge/g09/l1.exe "/local/scratch/m.peluso/128_wat/order/Gau-35605.inp" -scrdir="/local/scratch/m.peluso/128_wat/order/"
 Entering Link 1 = /cm/shared/gaussian/g09.e01/intel64-sandybridge/g09/l1.exe PID=     35606.
  
 Copyright (c) 1988,1990,1992,1993,1995,1998,2003,2009,2015,
            Gaussian, Inc.  All Rights Reserved.
  
 This is part of the Gaussian(R) 09 program.  It is based on
 the Gaussian(R) 03 system (copyright 2003, Gaussian, Inc.),
 the Gaussian(R) 98 system (copyright 1998, Gaussian, Inc.),
 the Gaussian(R) 94 system (copyright 1995, Gaussian, Inc.),
 the Gaussian 92(TM) system (copyright 1992, Gaussian, Inc.),
 the Gaussian 90(TM) system (copyright 1990, Gaussian, Inc.),
 the Gaussian 88(TM) system (copyright 1988, Gaussian, Inc.),
 the Gaussian 86(TM) system (copyright 1986, Carnegie Mellon
 University), and the Gaussian 82(TM) system (copyright 1983,
 Carnegie Mellon University). Gaussian is a federally registered
 trademark of Gaussian, Inc.
  
 This software contains proprietary and confidential information,
 including trade secrets, belonging to Gaussian, Inc.
  
 This software is provided under written license and may be
 used, copied, transmitted, or stored only in accord with that
 written license.
  
 The following legend is applicable only to US Government
 contracts under FAR:
  
                    RESTRICTED RIGHTS LEGEND
  
 Use, reproduction and disclosure by the US Government is
 subject to restrictions as set forth in subparagraphs (a)
 and (c) of the Commercial Computer Software - Restricted
 Rights clause in FAR 52.227-19.
  
 Gaussian, Inc.
 340 Quinnipiac St., Bldg. 40, Wallingford CT 06492
  
  
 ---------------------------------------------------------------
 Warning -- This program may not be used in any manner that
 competes with the business of Gaussian, Inc. or will provide
 assistance to any competitor of Gaussian, Inc.  The licensee
 of this program is prohibited from giving any competitor of
 Gaussian, Inc. access to this program.  By using this program,
 the user acknowledges that Gaussian, Inc. is engaged in the
 business of creating and licensing software in the field of
 computational chemistry and represents and warrants to the
 licensee that it is not a competitor of Gaussian, Inc. and that
 it will not use this program in any manner prohibited above.
 ---------------------------------------------------------------
  

 Cite this work as:
 Gaussian 09, Revision E.01,
 M. J. Frisch, G. W. Trucks, H. B. Schlegel, G. E. Scuseria, 
 M. A. Robb, J. R. Cheeseman, G. Scalmani, V. Barone, B. Mennucci, 
 G. A. Petersson, H. Nakatsuji, M. Caricato, X. Li, H. P. Hratchian, 
 A. F. Izmaylov, J. Bloino, G. Zheng, J. L. Sonnenberg, M. Hada, 
 M. Ehara, K. Toyota, R. Fukuda, J. Hasegawa, M. Ishida, T. Nakajima, 
 Y. Honda, O. Kitao, H. Nakai, T. Vreven, J. A. Montgomery, Jr., 
 J. E. Peralta, F. Ogliaro, M. Bearpark, J. J. Heyd, E. Brothers, 
 K. N. Kudin, V. N. Staroverov, T. Keith, R. Kobayashi, J. Normand, 
 K. Raghavachari, A. Rendell, J. C. Burant, S. S. Iyengar, J. Tomasi, 
 M. Cossi, N. Rega, J. M. Millam, M. Klene, J. E. Knox, J. B. Cross, 
 V. Bakken, C. Adamo, J. Jaramillo, R. Gomperts, R. E. Stratmann, 
 O. Yazyev, A. J. Austin, R. Cammi, C. Pomelli, J. W. Ochterski, 
 R. L. Martin, K. Morokuma, V. G. Zakrzewski, G. A. Voth, 
 P. Salvador, J. J. Dannenberg, S. Dapprich, A. D. Daniels, 
 O. Farkas, J. B. Foresman, J. V. Ortiz, J. Cioslowski, 
 and D. J. Fox, Gaussian, Inc., Wallingford CT, 2013.
 
 ******************************************
 Gaussian 09:  ES64L-G09RevE.01 30-Nov-2015
                16-May-2018 
 ******************************************
 %Mem=110GB
 %NProcShared=64
 Will use up to   64 processors via shared memory.
 %chk=snap74.chk
 ----------------------------------------------
 #p PBE1PBE/cc-pvDZ force Counterpoise=2 noSymm
 ----------------------------------------------
 1/10=7,30=1,38=1,62=2/1,3;
 2/12=2,15=1,17=6,18=5,40=1/2;
 1/10=7,30=1,38=1,53=2,62=2,63=101/22;
 3/5=16,11=2,16=1,25=1,30=1,71=1,74=-13/1,2,3;
 4//1;
 5/5=2,38=5/2;
 6/7=2,8=2,9=2,10=2,28=1/1;
 7/7=1,29=1,30=1,33=-1/1,2,3,16;
 1/10=7,30=1,53=2,62=2,63=101/22;
 3/5=7,6=11,11=2,16=1,25=1,30=1,71=1,74=-13,82=7/1,2,3;
 4//1;
 5/5=2,38=5/2;
 6/7=2,8=2,9=2,10=2,28=1/1;
 7/7=1,29=1,30=1,33=-1/1,2,3,16;
 1/10=7,30=1,53=2,62=2,63=101/22(-5);
 7/9=1,29=1,44=-1/16;
 1/10=7,30=1,62=2/3;
 99//99;
 Leave Link    1 at Wed May 16 19:40:14 2018, MaxMem= 14763950080 cpu:       243.5
 (Enter /cm/shared/gaussian/g09.e01/intel64-sandybridge/g09/l101.exe)
 ---------------------------------------
 forces on chloride comput - NWATER: 128
 ---------------------------------------
 Symbolic Z-matrix:
 Charge = -1 Multiplicity = 1 in supermolecule
 Charge = -1 Multiplicity = 1 in fragment      1.
 Charge =  0 Multiplicity = 1 in fragment      2.
 Br(Fragment=1)        20.       20.       20. 
 O(Fragment=2)         22.78     20.17     21.51 
 H(Fragment=2)         21.88     20.       21.22 
 H(Fragment=2)         22.96     21.06     21.21 
 O(Fragment=2)         19.65     16.74     19.53 
 H(Fragment=2)         19.91     17.66     19.57 
 H(Fragment=2)         19.54     16.56     18.59 
 O(Fragment=2)         20.56     17.58     22.38 
 H(Fragment=2)         20.61     16.7      22.02 
 H(Fragment=2)         20.32     18.14     21.63 
 O(Fragment=2)         18.31     22.28     17.97 
 H(Fragment=2)         18.83     21.62     18.43 
 H(Fragment=2)         18.78     22.42     17.15 
 O(Fragment=2)         17.14     18.99     18.17 
 H(Fragment=2)         18.01     19.05     18.57 
 H(Fragment=2)         17.31     19.06     17.23 
 O(Fragment=2)         18.61     20.53     23.09 
 H(Fragment=2)         18.01     20.01     23.63 
 H(Fragment=2)         18.65     20.05     22.26 
 O(Fragment=2)         22.41     17.94     18.34 
 H(Fragment=2)         22.17     17.29     17.68 
 H(Fragment=2)         22.01     18.75     18.04 
 O(Fragment=2)         16.18     21.08     20.43 
 H(Fragment=2)         16.9      20.96     19.82 
 H(Fragment=2)         15.64     20.29     20.32 
 O(Fragment=2)         16.88     17.35     20.46 
 H(Fragment=2)         16.67     18.01     19.8 
 H(Fragment=2)         17.76     17.58     20.75 
 O(Fragment=2)         20.14     23.72     19.57 
 H(Fragment=2)         19.95     24.63     19.36 
 H(Fragment=2)         19.57     23.21     18.99 
 O(Fragment=2)         20.22     22.86     22.79 
 H(Fragment=2)         20.02     23.31     21.97 
 H(Fragment=2)         19.73     22.04     22.74 
 O(Fragment=2)         23.01     21.2      18.07 
 H(Fragment=2)         22.17     21.36     17.65 
 H(Fragment=2)         23.05     21.84     18.78 
 O(Fragment=2)         22.96     22.82     20.32 
 H(Fragment=2)         22.06     22.95     20.01 
 H(Fragment=2)         22.96     23.16     21.21 
 O(Fragment=2)         23.62     17.88     20.79 
 H(Fragment=2)         23.23     17.87     19.91 
 H(Fragment=2)         23.31     18.7      21.18 
 O(Fragment=2)         20.19     18.97     16.26 
 H(Fragment=2)         20.23     18.07     16.58 
 H(Fragment=2)         19.33     19.04     15.84 
 O(Fragment=2)         20.72     21.95     16.01 
 H(Fragment=2)         21.05     21.99     15.11 
 H(Fragment=2)         20.63     21.02     16.19 
 O(Fragment=2)         17.16     23.16     22.67 
 H(Fragment=2)         16.37     22.9      22.2 
 H(Fragment=2)         17.73     22.39     22.65 
 O(Fragment=2)         16.42     23.84     19.89 
 H(Fragment=2)         16.58     22.95     20.19 
 H(Fragment=2)         17.16     24.04     19.32 
 O(Fragment=2)         22.89     17.8      24.06 
 H(Fragment=2)         23.69     17.95     23.55 
 H(Fragment=2)         22.18     17.85     23.41 
 O(Fragment=2)         23.34     21.69     23.89 
 H(Fragment=2)         23.99     21.34     24.49 
 H(Fragment=2)         23.23     21.       23.23 
 O(Fragment=2)         25.05     19.72     18.05 
 H(Fragment=2)         24.52     20.38     17.6 
 H(Fragment=2)         24.41     19.18     18.51 
 O(Fragment=2)         21.33     20.15     25.38 
 H(Fragment=2)         21.66     20.94     24.96 
 H(Fragment=2)         20.98     19.62     24.67 
 O(Fragment=2)         15.13     20.66     17.23 
 H(Fragment=2)         15.75     21.1      16.64 
 H(Fragment=2)         15.69     20.13     17.8 
 O(Fragment=2)         19.02     16.53     16.77 
 H(Fragment=2)         19.6      15.77     16.75 
 H(Fragment=2)         18.14     16.15     16.77 
 O(Fragment=2)         22.76     24.19     22.87 
 H(Fragment=2)         23.15     23.76     23.62 
 H(Fragment=2)         21.84     23.93     22.89 
 O(Fragment=2)         20.35     14.86     21.78 
 H(Fragment=2)         20.53     13.93     21.86 
 H(Fragment=2)         19.63     14.92     21.15 
 O(Fragment=2)         20.94     24.59     16.57 
 H(Fragment=2)         21.87     24.72     16.4 
 H(Fragment=2)         20.77     23.68     16.29 
 O(Fragment=2)         19.32     15.54     24.28 
 H(Fragment=2)         19.96     14.84     24.28 
 H(Fragment=2)         19.54     16.07     23.51 
 O(Fragment=2)         17.81     19.66     14.99 
 H(Fragment=2)         17.04     19.13     14.78 
 H(Fragment=2)         17.45     20.5      15.27 
 O(Fragment=2)         20.7      23.34     25.45 
 H(Fragment=2)         20.2      23.09     24.67 
 H(Fragment=2)         20.23     22.94     26.18 
 O(Fragment=2)         20.99     13.84     18.96 
 H(Fragment=2)         21.92     13.86     19.19 
 H(Fragment=2)         20.57     14.44     19.59 
 O(Fragment=2)         23.56     21.95     15.21 
 H(Fragment=2)         23.78     21.95     16.14 
 H(Fragment=2)         24.32     21.55     14.78 
 O(Fragment=2)         23.08     18.48     14.63 
 H(Fragment=2)         22.37     18.03     15.1 
 H(Fragment=2)         23.88     18.2      15.08 
 O(Fragment=2)         21.77     16.11     16.04 
 H(Fragment=2)         22.38     15.47     16.42 
 H(Fragment=2)         21.8      15.94     15.1 
 O(Fragment=2)         16.86     19.67     25.04 
 H(Fragment=2)         17.52     19.51     25.72 
 H(Fragment=2)         16.03     19.71     25.51 
 O(Fragment=2)         18.02     14.09     20.45 
 H(Fragment=2)         17.55     14.48     19.71 
 H(Fragment=2)         18.33     13.25     20.13 
 O(Fragment=2)         17.25     26.23     21.41 
 H(Fragment=2)         16.52     26.02     21.99 
 H(Fragment=2)         17.46     25.4      20.98 
 O(Fragment=2)         14.31     17.43     22.86 
 H(Fragment=2)         14.15     18.38     22.9 
 H(Fragment=2)         15.23     17.35     22.61 
 O(Fragment=2)         16.71     21.99     15.32 
 H(Fragment=2)         15.98     22.61     15.34 
 H(Fragment=2)         17.24     22.27     14.58 
 O(Fragment=2)         18.35     25.46     17.92 
 H(Fragment=2)         19.03     25.45     17.24 
 H(Fragment=2)         18.6      26.18     18.5 
 O(Fragment=2)         25.03     23.93     18.27 
 H(Fragment=2)         24.28     24.15     18.81 
 H(Fragment=2)         24.82     24.27     17.4 
 O(Fragment=2)         25.7      15.98     20.77 
 H(Fragment=2)         25.06     16.69     20.78 
 H(Fragment=2)         26.55     16.43     20.74 
 O(Fragment=2)         14.42     23.2      18.3 
 H(Fragment=2)         14.63     22.27     18.2 
 H(Fragment=2)         15.08     23.53     18.91 
 O(Fragment=2)         23.37     14.9      22.35 
 H(Fragment=2)         24.05     15.57     22.48 
 H(Fragment=2)         23.14     14.96     21.42 
 O(Fragment=2)         14.28     15.79     20.54 
 H(Fragment=2)         15.01     16.37     20.33 
 H(Fragment=2)         13.74     16.29     21.15 
 O(Fragment=2)         13.85     19.09     19.98 
 H(Fragment=2)         13.81     18.41     19.31 
 H(Fragment=2)         13.02     19.01     20.45 
 O(Fragment=2)         14.64     22.38     22.41 
 H(Fragment=2)         14.27     21.85     21.7 
 H(Fragment=2)         13.88     22.84     22.78 
 O(Fragment=2)         26.87     21.81     19.3 
 H(Fragment=2)         26.11     21.43     18.87 
 H(Fragment=2)         27.29     22.34     18.62 
 O(Fragment=2)         21.54     20.9      13.45 
 H(Fragment=2)         21.77     20.14     12.92 
 H(Fragment=2)         22.24     20.97     14.09 
 O(Fragment=2)         14.07     17.22     18.05 
 H(Fragment=2)         13.47     16.48     17.97 
 H(Fragment=2)         14.9      16.9      17.7 
 O(Fragment=2)         16.85     16.73     25.36 
 H(Fragment=2)         16.76     17.63     25.04 
 H(Fragment=2)         17.55     16.36     24.84 
 O(Fragment=2)         25.83     23.53     21.48 
 H(Fragment=2)         26.03     23.25     20.58 
 H(Fragment=2)         24.95     23.91     21.42 
 O(Fragment=2)         17.85     24.54     25.16 
 H(Fragment=2)         17.5      23.99     24.46 
 H(Fragment=2)         18.64     24.93     24.78 
 O(Fragment=2)         13.87     20.13     23.53 
 H(Fragment=2)         13.03     20.51     23.77 
 H(Fragment=2)         14.47     20.87     23.45 
 O(Fragment=2)         26.09     20.93     22.77 
 H(Fragment=2)         25.81     21.14     23.66 
 H(Fragment=2)         25.97     21.74     22.28 
 O(Fragment=2)         18.58     19.88     26.95 
 H(Fragment=2)         18.67     20.68     27.46 
 H(Fragment=2)         19.46     19.72     26.61 
 O(Fragment=2)         16.6      14.73     22.95 
 H(Fragment=2)         16.93     14.47     22.08 
 H(Fragment=2)         17.39     14.78     23.49 
 O(Fragment=2)         20.08     26.81     19.7 
 H(Fragment=2)         20.45     27.21     20.49 
 H(Fragment=2)         19.61     27.52     19.27 
 O(Fragment=2)         14.7      25.34     21.92 
 H(Fragment=2)         13.93     25.06     22.41 
 H(Fragment=2)         15.06     24.54     21.55 
 O(Fragment=2)         18.36     20.12     12.35 
 H(Fragment=2)         18.66     20.33     13.23 
 H(Fragment=2)         18.72     19.25     12.17 
 O(Fragment=2)         16.39     15.29     16.45 
 H(Fragment=2)         16.64     14.57     17.03 
 H(Fragment=2)         15.92     14.87     15.73 
 O(Fragment=2)         23.52     15.84     25.88 
 H(Fragment=2)         23.09     16.46     25.29 
 H(Fragment=2)         24.37     15.67     25.48 
 O(Fragment=2)         20.27     25.97     24.78 
 H(Fragment=2)         20.78     26.56     25.33 
 H(Fragment=2)         20.73     25.13     24.84 
 O(Fragment=2)         20.24     16.47     26.88 
 H(Fragment=2)         19.47     16.17     27.36 
 H(Fragment=2)         20.11     16.15     25.99 
 O(Fragment=2)         23.1      26.93     22.11 
 H(Fragment=2)         23.       27.5      22.88 
 H(Fragment=2)         22.89     26.06     22.43 
 O(Fragment=2)         24.16     14.17     19.61 
 H(Fragment=2)         24.91     14.74     19.78 
 H(Fragment=2)         24.52     13.29     19.62 
 O(Fragment=2)         18.91     13.58     16.64 
 H(Fragment=2)         19.51     13.35     17.35 
 H(Fragment=2)         19.09     12.94     15.96 
 O(Fragment=2)         27.39     18.21     17.55 
 H(Fragment=2)         26.77     18.83     17.92 
 H(Fragment=2)         28.11     18.19     18.19 
 O(Fragment=2)         19.66     27.22     22.44 
 H(Fragment=2)         19.8      26.55     23.11 
 H(Fragment=2)         18.78     27.03     22.1 
 O(Fragment=2)         23.9      14.39     16.68 
 H(Fragment=2)         24.27     14.69     17.51 
 H(Fragment=2)         23.71     13.46     16.82 
 O(Fragment=2)         15.03     23.21     25.76 
 H(Fragment=2)         15.41     23.01     24.91 
 H(Fragment=2)         15.25     24.13     25.92 
 O(Fragment=2)         25.66     17.83     15.29 
 H(Fragment=2)         26.16     18.42     14.73 
 H(Fragment=2)         26.       17.98     16.17 
 O(Fragment=2)         15.38     26.05     17.66 
 H(Fragment=2)         15.16     25.15     17.43 
 H(Fragment=2)         16.32     26.04     17.81 
 O(Fragment=2)         25.28     24.07     24.5 
 H(Fragment=2)         25.31     23.71     23.61 
 H(Fragment=2)         26.2      24.17     24.75 
 O(Fragment=2)         18.59     22.81     27.39 
 H(Fragment=2)         18.31     23.51     27.98 
 H(Fragment=2)         18.23     23.05     26.54 
 O(Fragment=2)         15.56     18.47     14.23 
 H(Fragment=2)         14.77     17.99     13.98 
 H(Fragment=2)         15.7      19.1      13.52 
 O(Fragment=2)         21.4      18.96     27.95 
 H(Fragment=2)         21.86     19.27     27.17 
 H(Fragment=2)         21.12     18.07     27.72 
 O(Fragment=2)         23.26     23.57     26.66 
 H(Fragment=2)         23.88     23.82     25.97 
 H(Fragment=2)         22.47     23.32     26.19 
 O(Fragment=2)         22.41     13.47     24.39 
 H(Fragment=2)         22.65     13.99     23.62 
 H(Fragment=2)         22.69     13.99     25.14 
 O(Fragment=2)         28.05     20.06     21.01 
 H(Fragment=2)         27.68     20.72     20.43 
 H(Fragment=2)         27.42     19.98     21.72 
 O(Fragment=2)         26.89     18.57     23.99 
 H(Fragment=2)         27.42     18.76     24.76 
 H(Fragment=2)         26.85     19.4      23.52 
 O(Fragment=2)         18.17     23.29     13.24 
 H(Fragment=2)         17.98     23.28     12.3 
 H(Fragment=2)         18.76     24.04     13.36 
 O(Fragment=2)         12.52     19.2      16.32 
 H(Fragment=2)         12.9      19.84     16.92 
 H(Fragment=2)         12.93     18.37     16.56 
 O(Fragment=2)         15.45     12.99     18.85 
 H(Fragment=2)         14.7      12.47     19.13 
 H(Fragment=2)         15.3      13.85     19.24 
 O(Fragment=2)         23.8      25.68     16.27 
 H(Fragment=2)         23.67     25.41     15.36 
 H(Fragment=2)         23.26     26.46     16.37 
 O(Fragment=2)         20.08     25.12     13.58 
 H(Fragment=2)         19.94     25.98     13.97 
 H(Fragment=2)         20.94     24.84     13.9 
 O(Fragment=2)         25.7      16.1      24.33 
 H(Fragment=2)         26.03     16.96     24.07 
 H(Fragment=2)         26.36     15.48     24.01 
 O(Fragment=2)         23.16     24.44     13.61 
 H(Fragment=2)         22.49     24.21     12.97 
 H(Fragment=2)         23.52     23.61     13.9 
 O(Fragment=2)         25.12     20.56     26.02 
 H(Fragment=2)         25.93     20.05     26.02 
 H(Fragment=2)         24.69     20.32     26.85 
 O(Fragment=2)         19.93     16.79     12.57 
 H(Fragment=2)         20.8      16.43     12.75 
 H(Fragment=2)         19.32     16.19     12.99 
 O(Fragment=2)         22.11     18.93     11.82 
 H(Fragment=2)         22.61     18.59     12.56 
 H(Fragment=2)         21.75     18.16     11.39 
 O(Fragment=2)         24.28     27.47     19.5 
 H(Fragment=2)         23.75     27.16     18.77 
 H(Fragment=2)         23.8      27.18     20.28 
 O(Fragment=2)         14.41     23.55     14.99 
 H(Fragment=2)         13.7      23.97     14.51 
 H(Fragment=2)         14.41     22.65     14.68 
 O(Fragment=2)         22.25     27.77     16.91 
 H(Fragment=2)         22.79     28.51     17.19 
 H(Fragment=2)         21.61     27.66     17.62 
 O(Fragment=2)         13.7      20.74     14.3 
 H(Fragment=2)         13.6      19.96     14.85 
 H(Fragment=2)         14.42     20.53     13.7 
 O(Fragment=2)         11.9      23.75     19.12 
 H(Fragment=2)         11.65     22.83     19.19 
 H(Fragment=2)         12.79     23.74     18.76 
 O(Fragment=2)         28.02     17.25     20.43 
 H(Fragment=2)         28.06     18.2      20.55 
 H(Fragment=2)         28.94     16.98     20.42 
 O(Fragment=2)         14.68     14.39     24.8 
 H(Fragment=2)         14.07     14.27     24.08 
 H(Fragment=2)         15.52     14.57     24.37 
 O(Fragment=2)         17.12     15.72     12.59 
 H(Fragment=2)         16.95     16.33     11.87 
 H(Fragment=2)         16.73     16.15     13.36 
 O(Fragment=2)         25.99     21.06     14.27 
 H(Fragment=2)         26.61     21.03     13.55 
 H(Fragment=2)         26.32     21.76     14.84 
 O(Fragment=2)         15.76     20.31     12.34 
 H(Fragment=2)         15.47     20.17     11.44 
 H(Fragment=2)         16.7      20.16     12.32 
 O(Fragment=2)         21.55     23.09     11.8 
 H(Fragment=2)         21.35     22.16     11.94 
 H(Fragment=2)         20.71     23.5      11.62 
 O(Fragment=2)         20.25     11.76     21.98 
 H(Fragment=2)         19.4      11.54     22.34 
 H(Fragment=2)         20.83     11.84     22.74 
 O(Fragment=2)         27.12     26.02     18.35 
 H(Fragment=2)         26.45     25.35     18.48 
 H(Fragment=2)         27.72     25.91     19.09 
 O(Fragment=2)         14.24     27.1      19.71 
 H(Fragment=2)         14.57     26.53     19.02 
 H(Fragment=2)         14.11     26.52     20.46 
 O(Fragment=2)         22.41     15.53     13.12 
 H(Fragment=2)         22.54     14.6      12.96 
 H(Fragment=2)         23.14     15.95     12.66 
 O(Fragment=2)         27.35     15.09     17.7 
 H(Fragment=2)         27.18     16.01     17.49 
 H(Fragment=2)         27.05     14.98     18.6 
 O(Fragment=2)         25.62     12.83     22.77 
 H(Fragment=2)         24.85     13.4      22.74 
 H(Fragment=2)         26.26     13.31     23.29 
 O(Fragment=2)         17.52     27.64     25.19 
 H(Fragment=2)         17.88     26.8      24.91 
 H(Fragment=2)         17.26     27.5      26.1 
 O(Fragment=2)         16.26     28.59     20.67 
 H(Fragment=2)         16.71     27.93     21.19 
 H(Fragment=2)         15.53     28.12     20.26 
 O(Fragment=2)         18.       15.04     27.57 
 H(Fragment=2)         17.54     14.83     28.39 
 H(Fragment=2)         17.4      15.62     27.11 
 O(Fragment=2)         26.83     26.05     22.3 
 H(Fragment=2)         26.79     25.22     21.83 
 H(Fragment=2)         27.64     26.       22.81 
 O(Fragment=2)         19.53     11.25     19.09 
 H(Fragment=2)         19.83     11.04     19.97 
 H(Fragment=2)         20.33     11.35     18.57 
 O(Fragment=2)         14.26     16.42     26.89 
 H(Fragment=2)         15.07     16.45     26.39 
 H(Fragment=2)         13.79     15.66     26.55 
 O(Fragment=2)         12.29     15.88     24.39 
 H(Fragment=2)         11.71     15.68     23.65 
 H(Fragment=2)         13.11     16.15     23.97 
 O(Fragment=2)         23.9      21.45     28.34 
 H(Fragment=2)         23.98     22.08     27.62 
 H(Fragment=2)         23.19     21.79     28.88 
 O(Fragment=2)         14.65     19.4      27.02 
 H(Fragment=2)         14.71     18.57     27.49 
 H(Fragment=2)         13.75     19.7      27.18 
 O(Fragment=2)         13.39     13.84     22.52 
 H(Fragment=2)         12.97     14.69     22.37 
 H(Fragment=2)         13.98     13.74     21.77 
 O(Fragment=2)         15.35     22.02     28.15 
 H(Fragment=2)         15.59     22.42     27.31 
 H(Fragment=2)         14.98     21.17     27.91 
 O(Fragment=2)         11.33     18.16     20.56 
 H(Fragment=2)         10.94     18.86     21.1 
 H(Fragment=2)         10.98     18.32     19.68 
 O(Fragment=2)         13.25     16.73     14.28 
 H(Fragment=2)         13.77     16.22     14.91 
 H(Fragment=2)         12.48     16.18     14.12 
 O(Fragment=2)         20.36     29.56     21.55 
 H(Fragment=2)         19.59     30.05     21.84 
 H(Fragment=2)         20.29     28.71     21.99 
 O(Fragment=2)         17.8      13.04     13.75 
 H(Fragment=2)         17.55     12.79     12.86 
 H(Fragment=2)         17.89     13.99     13.72 
 O(Fragment=2)         10.91     20.53     21.98 
 H(Fragment=2)         11.48     20.61     22.75 
 H(Fragment=2)         10.05     20.81     22.28 
 O(Fragment=2)         16.06     25.93     13.7 
 H(Fragment=2)         16.69     25.7      13.02 
 H(Fragment=2)         15.64     25.1      13.92 
 O(Fragment=2)         12.61     24.07     23.34 
 H(Fragment=2)         12.04     24.65     22.85 
 H(Fragment=2)         12.34     24.18     24.25 
 O(Fragment=2)         22.27     14.7      27.95 
 H(Fragment=2)         21.9      15.14     28.71 
 H(Fragment=2)         22.6      15.41     27.4 
 O(Fragment=2)         17.6      10.94     17.24 
 H(Fragment=2)         18.35     11.06     17.82 
 H(Fragment=2)         17.39     11.82     16.93 
 
 NAtoms=    385 NQM=      385 NQMF=       0 NMMI=      0 NMMIF=      0
                NMic=       0 NMicF=      0.
                    Isotopes and Nuclear Properties:
 (Nuclear quadrupole moments (NQMom) in fm**2, nuclear magnetic moments (NMagM)
  in nuclear magnetons)

  Atom         1           2           3           4           5           6           7           8           9          10
 IAtWgt=          79          16           1           1          16           1           1          16           1           1
 AtmWgt=  78.9183361  15.9949146   1.0078250   1.0078250  15.9949146   1.0078250   1.0078250  15.9949146   1.0078250   1.0078250
 NucSpn=           3           0           1           1           0           1           1           0           1           1
 AtZEff=   0.0000000   0.0000000   0.0000000   0.0000000   0.0000000   0.0000000   0.0000000   0.0000000   0.0000000   0.0000000
 NQMom=   31.3000000   0.0000000   0.0000000   0.0000000   0.0000000   0.0000000   0.0000000   0.0000000   0.0000000   0.0000000
 NMagM=    2.1063990   0.0000000   2.7928460   2.7928460   0.0000000   2.7928460   2.7928460   0.0000000   2.7928460   2.7928460
 AtZNuc=  35.0000000   8.0000000   1.0000000   1.0000000   8.0000000   1.0000000   1.0000000   8.0000000   1.0000000   1.0000000

  Atom        11          12          13          14          15          16          17          18          19          20
 IAtWgt=          16           1           1          16           1           1          16           1           1          16
 AtmWgt=  15.9949146   1.0078250   1.0078250  15.9949146   1.0078250   1.0078250  15.9949146   1.0078250   1.0078250  15.9949146
 NucSpn=           0           1           1           0           1           1           0           1           1           0
 AtZEff=   0.0000000   0.0000000   0.0000000   0.0000000   0.0000000   0.0000000   0.0000000   0.0000000   0.0000000   0.0000000
 NQMom=    0.0000000   0.0000000   0.0000000   0.0000000   0.0000000   0.0000000   0.0000000   0.0000000   0.0000000   0.0000000
 NMagM=    0.0000000   2.7928460   2.7928460   0.0000000   2.7928460   2.7928460   0.0000000   2.7928460   2.7928460   0.0000000
 AtZNuc=   8.0000000   1.0000000   1.0000000   8.0000000   1.0000000   1.0000000   8.0000000   1.0000000   1.0000000   8.0000000

  Atom        21          22          23          24          25          26          27          28          29          30
 IAtWgt=           1           1          16           1           1          16           1           1          16           1
 AtmWgt=   1.0078250   1.0078250  15.9949146   1.0078250   1.0078250  15.9949146   1.0078250   1.0078250  15.9949146   1.0078250
 NucSpn=           1           1           0           1           1           0           1           1           0           1
 AtZEff=   0.0000000   0.0000000   0.0000000   0.0000000   0.0000000   0.0000000   0.0000000   0.0000000   0.0000000   0.0000000
 NQMom=    0.0000000   0.0000000   0.0000000   0.0000000   0.0000000   0.0000000   0.0000000   0.0000000   0.0000000   0.0000000
 NMagM=    2.7928460   2.7928460   0.0000000   2.7928460   2.7928460   0.0000000   2.7928460   2.7928460   0.0000000   2.7928460
 AtZNuc=   1.0000000   1.0000000   8.0000000   1.0000000   1.0000000   8.0000000   1.0000000   1.0000000   8.0000000   1.0000000

  Atom        31          32          33          34          35          36          37          38          39          40
 IAtWgt=           1          16           1           1          16           1           1          16           1           1
 AtmWgt=   1.0078250  15.9949146   1.0078250   1.0078250  15.9949146   1.0078250   1.0078250  15.9949146   1.0078250   1.0078250
 NucSpn=           1           0           1           1           0           1           1           0           1           1
 AtZEff=   0.0000000   0.0000000   0.0000000   0.0000000   0.0000000   0.0000000   0.0000000   0.0000000   0.0000000   0.0000000
 NQMom=    0.0000000   0.0000000   0.0000000   0.0000000   0.0000000   0.0000000   0.0000000   0.0000000   0.0000000   0.0000000
 NMagM=    2.7928460   0.0000000   2.7928460   2.7928460   0.0000000   2.7928460   2.7928460   0.0000000   2.7928460   2.7928460
 AtZNuc=   1.0000000   8.0000000   1.0000000   1.0000000   8.0000000   1.0000000   1.0000000   8.0000000   1.0000000   1.0000000

  Atom        41          42          43          44          45          46          47          48          49          50
 IAtWgt=          16           1           1          16           1           1          16           1           1          16
 AtmWgt=  15.9949146   1.0078250   1.0078250  15.9949146   1.0078250   1.0078250  15.9949146   1.0078250   1.0078250  15.9949146
 NucSpn=           0           1           1           0           1           1           0           1           1           0
 AtZEff=   0.0000000   0.0000000   0.0000000   0.0000000   0.0000000   0.0000000   0.0000000   0.0000000   0.0000000   0.0000000
 NQMom=    0.0000000   0.0000000   0.0000000   0.0000000   0.0000000   0.0000000   0.0000000   0.0000000   0.0000000   0.0000000
 NMagM=    0.0000000   2.7928460   2.7928460   0.0000000   2.7928460   2.7928460   0.0000000   2.7928460   2.7928460   0.0000000
 AtZNuc=   8.0000000   1.0000000   1.0000000   8.0000000   1.0000000   1.0000000   8.0000000   1.0000000   1.0000000   8.0000000

  Atom        51          52          53          54          55          56          57          58          59          60
 IAtWgt=           1           1          16           1           1          16           1           1          16           1
 AtmWgt=   1.0078250   1.0078250  15.9949146   1.0078250   1.0078250  15.9949146   1.0078250   1.0078250  15.9949146   1.0078250
 NucSpn=           1           1           0           1           1           0           1           1           0           1
 AtZEff=   0.0000000   0.0000000   0.0000000   0.0000000   0.0000000   0.0000000   0.0000000   0.0000000   0.0000000   0.0000000
 NQMom=    0.0000000   0.0000000   0.0000000   0.0000000   0.0000000   0.0000000   0.0000000   0.0000000   0.0000000   0.0000000
 NMagM=    2.7928460   2.7928460   0.0000000   2.7928460   2.7928460   0.0000000   2.7928460   2.7928460   0.0000000   2.7928460
 AtZNuc=   1.0000000   1.0000000   8.0000000   1.0000000   1.0000000   8.0000000   1.0000000   1.0000000   8.0000000   1.0000000

  Atom        61          62          63          64          65          66          67          68          69          70
 IAtWgt=           1          16           1           1          16           1           1          16           1           1
 AtmWgt=   1.0078250  15.9949146   1.0078250   1.0078250  15.9949146   1.0078250   1.0078250  15.9949146   1.0078250   1.0078250
 NucSpn=           1           0           1           1           0           1           1           0           1           1
 AtZEff=   0.0000000   0.0000000   0.0000000   0.0000000   0.0000000   0.0000000   0.0000000   0.0000000   0.0000000   0.0000000
 NQMom=    0.0000000   0.0000000   0.0000000   0.0000000   0.0000000   0.0000000   0.0000000   0.0000000   0.0000000   0.0000000
 NMagM=    2.7928460   0.0000000   2.7928460   2.7928460   0.0000000   2.7928460   2.7928460   0.0000000   2.7928460   2.7928460
 AtZNuc=   1.0000000   8.0000000   1.0000000   1.0000000   8.0000000   1.0000000   1.0000000   8.0000000   1.0000000   1.0000000

  Atom        71          72          73          74          75          76          77          78          79          80
 IAtWgt=          16           1           1          16           1           1          16           1           1          16
 AtmWgt=  15.9949146   1.0078250   1.0078250  15.9949146   1.0078250   1.0078250  15.9949146   1.0078250   1.0078250  15.9949146
 NucSpn=           0           1           1           0           1           1           0           1           1           0
 AtZEff=   0.0000000   0.0000000   0.0000000   0.0000000   0.0000000   0.0000000   0.0000000   0.0000000   0.0000000   0.0000000
 NQMom=    0.0000000   0.0000000   0.0000000   0.0000000   0.0000000   0.0000000   0.0000000   0.0000000   0.0000000   0.0000000
 NMagM=    0.0000000   2.7928460   2.7928460   0.0000000   2.7928460   2.7928460   0.0000000   2.7928460   2.7928460   0.0000000
 AtZNuc=   8.0000000   1.0000000   1.0000000   8.0000000   1.0000000   1.0000000   8.0000000   1.0000000   1.0000000   8.0000000

  Atom        81          82          83          84          85          86          87          88          89          90
 IAtWgt=           1           1          16           1           1          16           1           1          16           1
 AtmWgt=   1.0078250   1.0078250  15.9949146   1.0078250   1.0078250  15.9949146   1.0078250   1.0078250  15.9949146   1.0078250
 NucSpn=           1           1           0           1           1           0           1           1           0           1
 AtZEff=   0.0000000   0.0000000   0.0000000   0.0000000   0.0000000   0.0000000   0.0000000   0.0000000   0.0000000   0.0000000
 NQMom=    0.0000000   0.0000000   0.0000000   0.0000000   0.0000000   0.0000000   0.0000000   0.0000000   0.0000000   0.0000000
 NMagM=    2.7928460   2.7928460   0.0000000   2.7928460   2.7928460   0.0000000   2.7928460   2.7928460   0.0000000   2.7928460
 AtZNuc=   1.0000000   1.0000000   8.0000000   1.0000000   1.0000000   8.0000000   1.0000000   1.0000000   8.0000000   1.0000000

  Atom        91          92          93          94          95          96          97          98          99         100
 IAtWgt=           1          16           1           1          16           1           1          16           1           1
 AtmWgt=   1.0078250  15.9949146   1.0078250   1.0078250  15.9949146   1.0078250   1.0078250  15.9949146   1.0078250   1.0078250
 NucSpn=           1           0           1           1           0           1           1           0           1           1
 AtZEff=   0.0000000   0.0000000   0.0000000   0.0000000   0.0000000   0.0000000   0.0000000   0.0000000   0.0000000   0.0000000
 NQMom=    0.0000000   0.0000000   0.0000000   0.0000000   0.0000000   0.0000000   0.0000000   0.0000000   0.0000000   0.0000000
 NMagM=    2.7928460   0.0000000   2.7928460   2.7928460   0.0000000   2.7928460   2.7928460   0.0000000   2.7928460   2.7928460
 AtZNuc=   1.0000000   8.0000000   1.0000000   1.0000000   8.0000000   1.0000000   1.0000000   8.0000000   1.0000000   1.0000000

  Atom       101         102         103         104         105         106         107         108         109         110
 IAtWgt=          16           1           1          16           1           1          16           1           1          16
 AtmWgt=  15.9949146   1.0078250   1.0078250  15.9949146   1.0078250   1.0078250  15.9949146   1.0078250   1.0078250  15.9949146
 NucSpn=           0           1           1           0           1           1           0           1           1           0
 AtZEff=   0.0000000   0.0000000   0.0000000   0.0000000   0.0000000   0.0000000   0.0000000   0.0000000   0.0000000   0.0000000
 NQMom=    0.0000000   0.0000000   0.0000000   0.0000000   0.0000000   0.0000000   0.0000000   0.0000000   0.0000000   0.0000000
 NMagM=    0.0000000   2.7928460   2.7928460   0.0000000   2.7928460   2.7928460   0.0000000   2.7928460   2.7928460   0.0000000
 AtZNuc=   8.0000000   1.0000000   1.0000000   8.0000000   1.0000000   1.0000000   8.0000000   1.0000000   1.0000000   8.0000000

  Atom       111         112         113         114         115         116         117         118         119         120
 IAtWgt=           1           1          16           1           1          16           1           1          16           1
 AtmWgt=   1.0078250   1.0078250  15.9949146   1.0078250   1.0078250  15.9949146   1.0078250   1.0078250  15.9949146   1.0078250
 NucSpn=           1           1           0           1           1           0           1           1           0           1
 AtZEff=   0.0000000   0.0000000   0.0000000   0.0000000   0.0000000   0.0000000   0.0000000   0.0000000   0.0000000   0.0000000
 NQMom=    0.0000000   0.0000000   0.0000000   0.0000000   0.0000000   0.0000000   0.0000000   0.0000000   0.0000000   0.0000000
 NMagM=    2.7928460   2.7928460   0.0000000   2.7928460   2.7928460   0.0000000   2.7928460   2.7928460   0.0000000   2.7928460
 AtZNuc=   1.0000000   1.0000000   8.0000000   1.0000000   1.0000000   8.0000000   1.0000000   1.0000000   8.0000000   1.0000000

  Atom       121         122         123         124         125         126         127         128         129         130
 IAtWgt=           1          16           1           1          16           1           1          16           1           1
 AtmWgt=   1.0078250  15.9949146   1.0078250   1.0078250  15.9949146   1.0078250   1.0078250  15.9949146   1.0078250   1.0078250
 NucSpn=           1           0           1           1           0           1           1           0           1           1
 AtZEff=   0.0000000   0.0000000   0.0000000   0.0000000   0.0000000   0.0000000   0.0000000   0.0000000   0.0000000   0.0000000
 NQMom=    0.0000000   0.0000000   0.0000000   0.0000000   0.0000000   0.0000000   0.0000000   0.0000000   0.0000000   0.0000000
 NMagM=    2.7928460   0.0000000   2.7928460   2.7928460   0.0000000   2.7928460   2.7928460   0.0000000   2.7928460   2.7928460
 AtZNuc=   1.0000000   8.0000000   1.0000000   1.0000000   8.0000000   1.0000000   1.0000000   8.0000000   1.0000000   1.0000000

  Atom       131         132         133         134         135         136         137         138         139         140
 IAtWgt=          16           1           1          16           1           1          16           1           1          16
 AtmWgt=  15.9949146   1.0078250   1.0078250  15.9949146   1.0078250   1.0078250  15.9949146   1.0078250   1.0078250  15.9949146
 NucSpn=           0           1           1           0           1           1           0           1           1           0
 AtZEff=   0.0000000   0.0000000   0.0000000   0.0000000   0.0000000   0.0000000   0.0000000   0.0000000   0.0000000   0.0000000
 NQMom=    0.0000000   0.0000000   0.0000000   0.0000000   0.0000000   0.0000000   0.0000000   0.0000000   0.0000000   0.0000000
 NMagM=    0.0000000   2.7928460   2.7928460   0.0000000   2.7928460   2.7928460   0.0000000   2.7928460   2.7928460   0.0000000
 AtZNuc=   8.0000000   1.0000000   1.0000000   8.0000000   1.0000000   1.0000000   8.0000000   1.0000000   1.0000000   8.0000000

  Atom       141         142         143         144         145         146         147         148         149         150
 IAtWgt=           1           1          16           1           1          16           1           1          16           1
 AtmWgt=   1.0078250   1.0078250  15.9949146   1.0078250   1.0078250  15.9949146   1.0078250   1.0078250  15.9949146   1.0078250
 NucSpn=           1           1           0           1           1           0           1           1           0           1
 AtZEff=   0.0000000   0.0000000   0.0000000   0.0000000   0.0000000   0.0000000   0.0000000   0.0000000   0.0000000   0.0000000
 NQMom=    0.0000000   0.0000000   0.0000000   0.0000000   0.0000000   0.0000000   0.0000000   0.0000000   0.0000000   0.0000000
 NMagM=    2.7928460   2.7928460   0.0000000   2.7928460   2.7928460   0.0000000   2.7928460   2.7928460   0.0000000   2.7928460
 AtZNuc=   1.0000000   1.0000000   8.0000000   1.0000000   1.0000000   8.0000000   1.0000000   1.0000000   8.0000000   1.0000000

  Atom       151         152         153         154         155         156         157         158         159         160
 IAtWgt=           1          16           1           1          16           1           1          16           1           1
 AtmWgt=   1.0078250  15.9949146   1.0078250   1.0078250  15.9949146   1.0078250   1.0078250  15.9949146   1.0078250   1.0078250
 NucSpn=           1           0           1           1           0           1           1           0           1           1
 AtZEff=   0.0000000   0.0000000   0.0000000   0.0000000   0.0000000   0.0000000   0.0000000   0.0000000   0.0000000   0.0000000
 NQMom=    0.0000000   0.0000000   0.0000000   0.0000000   0.0000000   0.0000000   0.0000000   0.0000000   0.0000000   0.0000000
 NMagM=    2.7928460   0.0000000   2.7928460   2.7928460   0.0000000   2.7928460   2.7928460   0.0000000   2.7928460   2.7928460
 AtZNuc=   1.0000000   8.0000000   1.0000000   1.0000000   8.0000000   1.0000000   1.0000000   8.0000000   1.0000000   1.0000000

  Atom       161         162         163         164         165         166         167         168         169         170
 IAtWgt=          16           1           1          16           1           1          16           1           1          16
 AtmWgt=  15.9949146   1.0078250   1.0078250  15.9949146   1.0078250   1.0078250  15.9949146   1.0078250   1.0078250  15.9949146
 NucSpn=           0           1           1           0           1           1           0           1           1           0
 AtZEff=   0.0000000   0.0000000   0.0000000   0.0000000   0.0000000   0.0000000   0.0000000   0.0000000   0.0000000   0.0000000
 NQMom=    0.0000000   0.0000000   0.0000000   0.0000000   0.0000000   0.0000000   0.0000000   0.0000000   0.0000000   0.0000000
 NMagM=    0.0000000   2.7928460   2.7928460   0.0000000   2.7928460   2.7928460   0.0000000   2.7928460   2.7928460   0.0000000
 AtZNuc=   8.0000000   1.0000000   1.0000000   8.0000000   1.0000000   1.0000000   8.0000000   1.0000000   1.0000000   8.0000000

  Atom       171         172         173         174         175         176         177         178         179         180
 IAtWgt=           1           1          16           1           1          16           1           1          16           1
 AtmWgt=   1.0078250   1.0078250  15.9949146   1.0078250   1.0078250  15.9949146   1.0078250   1.0078250  15.9949146   1.0078250
 NucSpn=           1           1           0           1           1           0           1           1           0           1
 AtZEff=   0.0000000   0.0000000   0.0000000   0.0000000   0.0000000   0.0000000   0.0000000   0.0000000   0.0000000   0.0000000
 NQMom=    0.0000000   0.0000000   0.0000000   0.0000000   0.0000000   0.0000000   0.0000000   0.0000000   0.0000000   0.0000000
 NMagM=    2.7928460   2.7928460   0.0000000   2.7928460   2.7928460   0.0000000   2.7928460   2.7928460   0.0000000   2.7928460
 AtZNuc=   1.0000000   1.0000000   8.0000000   1.0000000   1.0000000   8.0000000   1.0000000   1.0000000   8.0000000   1.0000000

  Atom       181         182         183         184         185         186         187         188         189         190
 IAtWgt=           1          16           1           1          16           1           1          16           1           1
 AtmWgt=   1.0078250  15.9949146   1.0078250   1.0078250  15.9949146   1.0078250   1.0078250  15.9949146   1.0078250   1.0078250
 NucSpn=           1           0           1           1           0           1           1           0           1           1
 AtZEff=   0.0000000   0.0000000   0.0000000   0.0000000   0.0000000   0.0000000   0.0000000   0.0000000   0.0000000   0.0000000
 NQMom=    0.0000000   0.0000000   0.0000000   0.0000000   0.0000000   0.0000000   0.0000000   0.0000000   0.0000000   0.0000000
 NMagM=    2.7928460   0.0000000   2.7928460   2.7928460   0.0000000   2.7928460   2.7928460   0.0000000   2.7928460   2.7928460
 AtZNuc=   1.0000000   8.0000000   1.0000000   1.0000000   8.0000000   1.0000000   1.0000000   8.0000000   1.0000000   1.0000000

  Atom       191         192         193         194         195         196         197         198         199         200
 IAtWgt=          16           1           1          16           1           1          16           1           1          16
 AtmWgt=  15.9949146   1.0078250   1.0078250  15.9949146   1.0078250   1.0078250  15.9949146   1.0078250   1.0078250  15.9949146
 NucSpn=           0           1           1           0           1           1           0           1           1           0
 AtZEff=   0.0000000   0.0000000   0.0000000   0.0000000   0.0000000   0.0000000   0.0000000   0.0000000   0.0000000   0.0000000
 NQMom=    0.0000000   0.0000000   0.0000000   0.0000000   0.0000000   0.0000000   0.0000000   0.0000000   0.0000000   0.0000000
 NMagM=    0.0000000   2.7928460   2.7928460   0.0000000   2.7928460   2.7928460   0.0000000   2.7928460   2.7928460   0.0000000
 AtZNuc=   8.0000000   1.0000000   1.0000000   8.0000000   1.0000000   1.0000000   8.0000000   1.0000000   1.0000000   8.0000000

  Atom       201         202         203         204         205         206         207         208         209         210
 IAtWgt=           1           1          16           1           1          16           1           1          16           1
 AtmWgt=   1.0078250   1.0078250  15.9949146   1.0078250   1.0078250  15.9949146   1.0078250   1.0078250  15.9949146   1.0078250
 NucSpn=           1           1           0           1           1           0           1           1           0           1
 AtZEff=   0.0000000   0.0000000   0.0000000   0.0000000   0.0000000   0.0000000   0.0000000   0.0000000   0.0000000   0.0000000
 NQMom=    0.0000000   0.0000000   0.0000000   0.0000000   0.0000000   0.0000000   0.0000000   0.0000000   0.0000000   0.0000000
 NMagM=    2.7928460   2.7928460   0.0000000   2.7928460   2.7928460   0.0000000   2.7928460   2.7928460   0.0000000   2.7928460
 AtZNuc=   1.0000000   1.0000000   8.0000000   1.0000000   1.0000000   8.0000000   1.0000000   1.0000000   8.0000000   1.0000000

  Atom       211         212         213         214         215         216         217         218         219         220
 IAtWgt=           1          16           1           1          16           1           1          16           1           1
 AtmWgt=   1.0078250  15.9949146   1.0078250   1.0078250  15.9949146   1.0078250   1.0078250  15.9949146   1.0078250   1.0078250
 NucSpn=           1           0           1           1           0           1           1           0           1           1
 AtZEff=   0.0000000   0.0000000   0.0000000   0.0000000   0.0000000   0.0000000   0.0000000   0.0000000   0.0000000   0.0000000
 NQMom=    0.0000000   0.0000000   0.0000000   0.0000000   0.0000000   0.0000000   0.0000000   0.0000000   0.0000000   0.0000000
 NMagM=    2.7928460   0.0000000   2.7928460   2.7928460   0.0000000   2.7928460   2.7928460   0.0000000   2.7928460   2.7928460
 AtZNuc=   1.0000000   8.0000000   1.0000000   1.0000000   8.0000000   1.0000000   1.0000000   8.0000000   1.0000000   1.0000000

  Atom       221         222         223         224         225         226         227         228         229         230
 IAtWgt=          16           1           1          16           1           1          16           1           1          16
 AtmWgt=  15.9949146   1.0078250   1.0078250  15.9949146   1.0078250   1.0078250  15.9949146   1.0078250   1.0078250  15.9949146
 NucSpn=           0           1           1           0           1           1           0           1           1           0
 AtZEff=   0.0000000   0.0000000   0.0000000   0.0000000   0.0000000   0.0000000   0.0000000   0.0000000   0.0000000   0.0000000
 NQMom=    0.0000000   0.0000000   0.0000000   0.0000000   0.0000000   0.0000000   0.0000000   0.0000000   0.0000000   0.0000000
 NMagM=    0.0000000   2.7928460   2.7928460   0.0000000   2.7928460   2.7928460   0.0000000   2.7928460   2.7928460   0.0000000
 AtZNuc=   8.0000000   1.0000000   1.0000000   8.0000000   1.0000000   1.0000000   8.0000000   1.0000000   1.0000000   8.0000000

  Atom       231         232         233         234         235         236         237         238         239         240
 IAtWgt=           1           1          16           1           1          16           1           1          16           1
 AtmWgt=   1.0078250   1.0078250  15.9949146   1.0078250   1.0078250  15.9949146   1.0078250   1.0078250  15.9949146   1.0078250
 NucSpn=           1           1           0           1           1           0           1           1           0           1
 AtZEff=   0.0000000   0.0000000   0.0000000   0.0000000   0.0000000   0.0000000   0.0000000   0.0000000   0.0000000   0.0000000
 NQMom=    0.0000000   0.0000000   0.0000000   0.0000000   0.0000000   0.0000000   0.0000000   0.0000000   0.0000000   0.0000000
 NMagM=    2.7928460   2.7928460   0.0000000   2.7928460   2.7928460   0.0000000   2.7928460   2.7928460   0.0000000   2.7928460
 AtZNuc=   1.0000000   1.0000000   8.0000000   1.0000000   1.0000000   8.0000000   1.0000000   1.0000000   8.0000000   1.0000000

  Atom       241         242         243         244         245         246         247         248         249         250
 IAtWgt=           1          16           1           1          16           1           1          16           1           1
 AtmWgt=   1.0078250  15.9949146   1.0078250   1.0078250  15.9949146   1.0078250   1.0078250  15.9949146   1.0078250   1.0078250
 NucSpn=           1           0           1           1           0           1           1           0           1           1
 AtZEff=   0.0000000   0.0000000   0.0000000   0.0000000   0.0000000   0.0000000   0.0000000   0.0000000   0.0000000   0.0000000
 NQMom=    0.0000000   0.0000000   0.0000000   0.0000000   0.0000000   0.0000000   0.0000000   0.0000000   0.0000000   0.0000000
 NMagM=    2.7928460   0.0000000   2.7928460   2.7928460   0.0000000   2.7928460   2.7928460   0.0000000   2.7928460   2.7928460
 AtZNuc=   1.0000000   8.0000000   1.0000000   1.0000000   8.0000000   1.0000000   1.0000000   8.0000000   1.0000000   1.0000000

  Atom       251         252         253         254         255         256         257         258         259         260
 IAtWgt=          16           1           1          16           1           1          16           1           1          16
 AtmWgt=  15.9949146   1.0078250   1.0078250  15.9949146   1.0078250   1.0078250  15.9949146   1.0078250   1.0078250  15.9949146
 NucSpn=           0           1           1           0           1           1           0           1           1           0
 AtZEff=   0.0000000   0.0000000   0.0000000   0.0000000   0.0000000   0.0000000   0.0000000   0.0000000   0.0000000   0.0000000
 NQMom=    0.0000000   0.0000000   0.0000000   0.0000000   0.0000000   0.0000000   0.0000000   0.0000000   0.0000000   0.0000000
 NMagM=    0.0000000   2.7928460   2.7928460   0.0000000   2.7928460   2.7928460   0.0000000   2.7928460   2.7928460   0.0000000
 AtZNuc=   8.0000000   1.0000000   1.0000000   8.0000000   1.0000000   1.0000000   8.0000000   1.0000000   1.0000000   8.0000000

  Atom       261         262         263         264         265         266         267         268         269         270
 IAtWgt=           1           1          16           1           1          16           1           1          16           1
 AtmWgt=   1.0078250   1.0078250  15.9949146   1.0078250   1.0078250  15.9949146   1.0078250   1.0078250  15.9949146   1.0078250
 NucSpn=           1           1           0           1           1           0           1           1           0           1
 AtZEff=   0.0000000   0.0000000   0.0000000   0.0000000   0.0000000   0.0000000   0.0000000   0.0000000   0.0000000   0.0000000
 NQMom=    0.0000000   0.0000000   0.0000000   0.0000000   0.0000000   0.0000000   0.0000000   0.0000000   0.0000000   0.0000000
 NMagM=    2.7928460   2.7928460   0.0000000   2.7928460   2.7928460   0.0000000   2.7928460   2.7928460   0.0000000   2.7928460
 AtZNuc=   1.0000000   1.0000000   8.0000000   1.0000000   1.0000000   8.0000000   1.0000000   1.0000000   8.0000000   1.0000000

  Atom       271         272         273         274         275         276         277         278         279         280
 IAtWgt=           1          16           1           1          16           1           1          16           1           1
 AtmWgt=   1.0078250  15.9949146   1.0078250   1.0078250  15.9949146   1.0078250   1.0078250  15.9949146   1.0078250   1.0078250
 NucSpn=           1           0           1           1           0           1           1           0           1           1
 AtZEff=   0.0000000   0.0000000   0.0000000   0.0000000   0.0000000   0.0000000   0.0000000   0.0000000   0.0000000   0.0000000
 NQMom=    0.0000000   0.0000000   0.0000000   0.0000000   0.0000000   0.0000000   0.0000000   0.0000000   0.0000000   0.0000000
 NMagM=    2.7928460   0.0000000   2.7928460   2.7928460   0.0000000   2.7928460   2.7928460   0.0000000   2.7928460   2.7928460
 AtZNuc=   1.0000000   8.0000000   1.0000000   1.0000000   8.0000000   1.0000000   1.0000000   8.0000000   1.0000000   1.0000000

  Atom       281         282         283         284         285         286         287         288         289         290
 IAtWgt=          16           1           1          16           1           1          16           1           1          16
 AtmWgt=  15.9949146   1.0078250   1.0078250  15.9949146   1.0078250   1.0078250  15.9949146   1.0078250   1.0078250  15.9949146
 NucSpn=           0           1           1           0           1           1           0           1           1           0
 AtZEff=   0.0000000   0.0000000   0.0000000   0.0000000   0.0000000   0.0000000   0.0000000   0.0000000   0.0000000   0.0000000
 NQMom=    0.0000000   0.0000000   0.0000000   0.0000000   0.0000000   0.0000000   0.0000000   0.0000000   0.0000000   0.0000000
 NMagM=    0.0000000   2.7928460   2.7928460   0.0000000   2.7928460   2.7928460   0.0000000   2.7928460   2.7928460   0.0000000
 AtZNuc=   8.0000000   1.0000000   1.0000000   8.0000000   1.0000000   1.0000000   8.0000000   1.0000000   1.0000000   8.0000000

  Atom       291         292         293         294         295         296         297         298         299         300
 IAtWgt=           1           1          16           1           1          16           1           1          16           1
 AtmWgt=   1.0078250   1.0078250  15.9949146   1.0078250   1.0078250  15.9949146   1.0078250   1.0078250  15.9949146   1.0078250
 NucSpn=           1           1           0           1           1           0           1           1           0           1
 AtZEff=   0.0000000   0.0000000   0.0000000   0.0000000   0.0000000   0.0000000   0.0000000   0.0000000   0.0000000   0.0000000
 NQMom=    0.0000000   0.0000000   0.0000000   0.0000000   0.0000000   0.0000000   0.0000000   0.0000000   0.0000000   0.0000000
 NMagM=    2.7928460   2.7928460   0.0000000   2.7928460   2.7928460   0.0000000   2.7928460   2.7928460   0.0000000   2.7928460
 AtZNuc=   1.0000000   1.0000000   8.0000000   1.0000000   1.0000000   8.0000000   1.0000000   1.0000000   8.0000000   1.0000000

  Atom       301         302         303         304         305         306         307         308         309         310
 IAtWgt=           1          16           1           1          16           1           1          16           1           1
 AtmWgt=   1.0078250  15.9949146   1.0078250   1.0078250  15.9949146   1.0078250   1.0078250  15.9949146   1.0078250   1.0078250
 NucSpn=           1           0           1           1           0           1           1           0           1           1
 AtZEff=   0.0000000   0.0000000   0.0000000   0.0000000   0.0000000   0.0000000   0.0000000   0.0000000   0.0000000   0.0000000
 NQMom=    0.0000000   0.0000000   0.0000000   0.0000000   0.0000000   0.0000000   0.0000000   0.0000000   0.0000000   0.0000000
 NMagM=    2.7928460   0.0000000   2.7928460   2.7928460   0.0000000   2.7928460   2.7928460   0.0000000   2.7928460   2.7928460
 AtZNuc=   1.0000000   8.0000000   1.0000000   1.0000000   8.0000000   1.0000000   1.0000000   8.0000000   1.0000000   1.0000000

  Atom       311         312         313         314         315         316         317         318         319         320
 IAtWgt=          16           1           1          16           1           1          16           1           1          16
 AtmWgt=  15.9949146   1.0078250   1.0078250  15.9949146   1.0078250   1.0078250  15.9949146   1.0078250   1.0078250  15.9949146
 NucSpn=           0           1           1           0           1           1           0           1           1           0
 AtZEff=   0.0000000   0.0000000   0.0000000   0.0000000   0.0000000   0.0000000   0.0000000   0.0000000   0.0000000   0.0000000
 NQMom=    0.0000000   0.0000000   0.0000000   0.0000000   0.0000000   0.0000000   0.0000000   0.0000000   0.0000000   0.0000000
 NMagM=    0.0000000   2.7928460   2.7928460   0.0000000   2.7928460   2.7928460   0.0000000   2.7928460   2.7928460   0.0000000
 AtZNuc=   8.0000000   1.0000000   1.0000000   8.0000000   1.0000000   1.0000000   8.0000000   1.0000000   1.0000000   8.0000000

  Atom       321         322         323         324         325         326         327         328         329         330
 IAtWgt=           1           1          16           1           1          16           1           1          16           1
 AtmWgt=   1.0078250   1.0078250  15.9949146   1.0078250   1.0078250  15.9949146   1.0078250   1.0078250  15.9949146   1.0078250
 NucSpn=           1           1           0           1           1           0           1           1           0           1
 AtZEff=   0.0000000   0.0000000   0.0000000   0.0000000   0.0000000   0.0000000   0.0000000   0.0000000   0.0000000   0.0000000
 NQMom=    0.0000000   0.0000000   0.0000000   0.0000000   0.0000000   0.0000000   0.0000000   0.0000000   0.0000000   0.0000000
 NMagM=    2.7928460   2.7928460   0.0000000   2.7928460   2.7928460   0.0000000   2.7928460   2.7928460   0.0000000   2.7928460
 AtZNuc=   1.0000000   1.0000000   8.0000000   1.0000000   1.0000000   8.0000000   1.0000000   1.0000000   8.0000000   1.0000000

  Atom       331         332         333         334         335         336         337         338         339         340
 IAtWgt=           1          16           1           1          16           1           1          16           1           1
 AtmWgt=   1.0078250  15.9949146   1.0078250   1.0078250  15.9949146   1.0078250   1.0078250  15.9949146   1.0078250   1.0078250
 NucSpn=           1           0           1           1           0           1           1           0           1           1
 AtZEff=   0.0000000   0.0000000   0.0000000   0.0000000   0.0000000   0.0000000   0.0000000   0.0000000   0.0000000   0.0000000
 NQMom=    0.0000000   0.0000000   0.0000000   0.0000000   0.0000000   0.0000000   0.0000000   0.0000000   0.0000000   0.0000000
 NMagM=    2.7928460   0.0000000   2.7928460   2.7928460   0.0000000   2.7928460   2.7928460   0.0000000   2.7928460   2.7928460
 AtZNuc=   1.0000000   8.0000000   1.0000000   1.0000000   8.0000000   1.0000000   1.0000000   8.0000000   1.0000000   1.0000000

  Atom       341         342         343         344         345         346         347         348         349         350
 IAtWgt=          16           1           1          16           1           1          16           1           1          16
 AtmWgt=  15.9949146   1.0078250   1.0078250  15.9949146   1.0078250   1.0078250  15.9949146   1.0078250   1.0078250  15.9949146
 NucSpn=           0           1           1           0           1           1           0           1           1           0
 AtZEff=   0.0000000   0.0000000   0.0000000   0.0000000   0.0000000   0.0000000   0.0000000   0.0000000   0.0000000   0.0000000
 NQMom=    0.0000000   0.0000000   0.0000000   0.0000000   0.0000000   0.0000000   0.0000000   0.0000000   0.0000000   0.0000000
 NMagM=    0.0000000   2.7928460   2.7928460   0.0000000   2.7928460   2.7928460   0.0000000   2.7928460   2.7928460   0.0000000
 AtZNuc=   8.0000000   1.0000000   1.0000000   8.0000000   1.0000000   1.0000000   8.0000000   1.0000000   1.0000000   8.0000000

  Atom       351         352         353         354         355         356         357         358         359         360
 IAtWgt=           1           1          16           1           1          16           1           1          16           1
 AtmWgt=   1.0078250   1.0078250  15.9949146   1.0078250   1.0078250  15.9949146   1.0078250   1.0078250  15.9949146   1.0078250
 NucSpn=           1           1           0           1           1           0           1           1           0           1
 AtZEff=   0.0000000   0.0000000   0.0000000   0.0000000   0.0000000   0.0000000   0.0000000   0.0000000   0.0000000   0.0000000
 NQMom=    0.0000000   0.0000000   0.0000000   0.0000000   0.0000000   0.0000000   0.0000000   0.0000000   0.0000000   0.0000000
 NMagM=    2.7928460   2.7928460   0.0000000   2.7928460   2.7928460   0.0000000   2.7928460   2.7928460   0.0000000   2.7928460
 AtZNuc=   1.0000000   1.0000000   8.0000000   1.0000000   1.0000000   8.0000000   1.0000000   1.0000000   8.0000000   1.0000000

  Atom       361         362         363         364         365         366         367         368         369         370
 IAtWgt=           1          16           1           1          16           1           1          16           1           1
 AtmWgt=   1.0078250  15.9949146   1.0078250   1.0078250  15.9949146   1.0078250   1.0078250  15.9949146   1.0078250   1.0078250
 NucSpn=           1           0           1           1           0           1           1           0           1           1
 AtZEff=   0.0000000   0.0000000   0.0000000   0.0000000   0.0000000   0.0000000   0.0000000   0.0000000   0.0000000   0.0000000
 NQMom=    0.0000000   0.0000000   0.0000000   0.0000000   0.0000000   0.0000000   0.0000000   0.0000000   0.0000000   0.0000000
 NMagM=    2.7928460   0.0000000   2.7928460   2.7928460   0.0000000   2.7928460   2.7928460   0.0000000   2.7928460   2.7928460
 AtZNuc=   1.0000000   8.0000000   1.0000000   1.0000000   8.0000000   1.0000000   1.0000000   8.0000000   1.0000000   1.0000000

  Atom       371         372         373         374         375         376         377         378         379         380
 IAtWgt=          16           1           1          16           1           1          16           1           1          16
 AtmWgt=  15.9949146   1.0078250   1.0078250  15.9949146   1.0078250   1.0078250  15.9949146   1.0078250   1.0078250  15.9949146
 NucSpn=           0           1           1           0           1           1           0           1           1           0
 AtZEff=   0.0000000   0.0000000   0.0000000   0.0000000   0.0000000   0.0000000   0.0000000   0.0000000   0.0000000   0.0000000
 NQMom=    0.0000000   0.0000000   0.0000000   0.0000000   0.0000000   0.0000000   0.0000000   0.0000000   0.0000000   0.0000000
 NMagM=    0.0000000   2.7928460   2.7928460   0.0000000   2.7928460   2.7928460   0.0000000   2.7928460   2.7928460   0.0000000
 AtZNuc=   8.0000000   1.0000000   1.0000000   8.0000000   1.0000000   1.0000000   8.0000000   1.0000000   1.0000000   8.0000000

  Atom       381         382         383         384         385
 IAtWgt=           1           1          16           1           1
 AtmWgt=   1.0078250   1.0078250  15.9949146   1.0078250   1.0078250
 NucSpn=           1           1           0           1           1
 AtZEff=   0.0000000   0.0000000   0.0000000   0.0000000   0.0000000
 NQMom=    0.0000000   0.0000000   0.0000000   0.0000000   0.0000000
 NMagM=    2.7928460   2.7928460   0.0000000   2.7928460   2.7928460
 AtZNuc=   1.0000000   1.0000000   8.0000000   1.0000000   1.0000000
 Leave Link  101 at Wed May 16 19:40:15 2018, MaxMem= 14763950080 cpu:        57.1
 (Enter /cm/shared/gaussian/g09.e01/intel64-sandybridge/g09/l103.exe)

 GradGradGradGradGradGradGradGradGradGradGradGradGradGradGradGradGradGrad
 Berny optimization.
 Initialization pass.
 Trust Radius=3.00D-01 FncErr=1.00D-07 GrdErr=1.00D-07
 Number of steps in this run=      2 maximum allowed number of steps=      2.
 GradGradGradGradGradGradGradGradGradGradGradGradGradGradGradGradGradGrad

 Leave Link  103 at Wed May 16 19:40:15 2018, MaxMem= 14763950080 cpu:         5.3
 (Enter /cm/shared/gaussian/g09.e01/intel64-sandybridge/g09/l202.exe)
 Symmetry turned off by external request.
 Stoichiometry    BrH256O128(1-)
 Framework group  C1[X(BrH256O128)]
 Deg. of freedom  1149
 Full point group                 C1      NOp   1
                          Input orientation:                          
 ---------------------------------------------------------------------
 Center     Atomic      Atomic             Coordinates (Angstroms)
 Number     Number       Type             X           Y           Z
 ---------------------------------------------------------------------
      1         35           0       20.000000   20.000000   20.000000
      2          8           0       22.780000   20.170000   21.510000
      3          1           0       21.880000   20.000000   21.220000
      4          1           0       22.960000   21.060000   21.210000
      5          8           0       19.650000   16.740000   19.530000
      6          1           0       19.910000   17.660000   19.570000
      7          1           0       19.540000   16.560000   18.590000
      8          8           0       20.560000   17.580000   22.380000
      9          1           0       20.610000   16.700000   22.020000
     10          1           0       20.320000   18.140000   21.630000
     11          8           0       18.310000   22.280000   17.970000
     12          1           0       18.830000   21.620000   18.430000
     13          1           0       18.780000   22.420000   17.150000
     14          8           0       17.140000   18.990000   18.170000
     15          1           0       18.010000   19.050000   18.570000
     16          1           0       17.310000   19.060000   17.230000
     17          8           0       18.610000   20.530000   23.090000
     18          1           0       18.010000   20.010000   23.630000
     19          1           0       18.650000   20.050000   22.260000
     20          8           0       22.410000   17.940000   18.340000
     21          1           0       22.170000   17.290000   17.680000
     22          1           0       22.010000   18.750000   18.040000
     23          8           0       16.180000   21.080000   20.430000
     24          1           0       16.900000   20.960000   19.820000
     25          1           0       15.640000   20.290000   20.320000
     26          8           0       16.880000   17.350000   20.460000
     27          1           0       16.670000   18.010000   19.800000
     28          1           0       17.760000   17.580000   20.750000
     29          8           0       20.140000   23.720000   19.570000
     30          1           0       19.950000   24.630000   19.360000
     31          1           0       19.570000   23.210000   18.990000
     32          8           0       20.220000   22.860000   22.790000
     33          1           0       20.020000   23.310000   21.970000
     34          1           0       19.730000   22.040000   22.740000
     35          8           0       23.010000   21.200000   18.070000
     36          1           0       22.170000   21.360000   17.650000
     37          1           0       23.050000   21.840000   18.780000
     38          8           0       22.960000   22.820000   20.320000
     39          1           0       22.060000   22.950000   20.010000
     40          1           0       22.960000   23.160000   21.210000
     41          8           0       23.620000   17.880000   20.790000
     42          1           0       23.230000   17.870000   19.910000
     43          1           0       23.310000   18.700000   21.180000
     44          8           0       20.190000   18.970000   16.260000
     45          1           0       20.230000   18.070000   16.580000
     46          1           0       19.330000   19.040000   15.840000
     47          8           0       20.720000   21.950000   16.010000
     48          1           0       21.050000   21.990000   15.110000
     49          1           0       20.630000   21.020000   16.190000
     50          8           0       17.160000   23.160000   22.670000
     51          1           0       16.370000   22.900000   22.200000
     52          1           0       17.730000   22.390000   22.650000
     53          8           0       16.420000   23.840000   19.890000
     54          1           0       16.580000   22.950000   20.190000
     55          1           0       17.160000   24.040000   19.320000
     56          8           0       22.890000   17.800000   24.060000
     57          1           0       23.690000   17.950000   23.550000
     58          1           0       22.180000   17.850000   23.410000
     59          8           0       23.340000   21.690000   23.890000
     60          1           0       23.990000   21.340000   24.490000
     61          1           0       23.230000   21.000000   23.230000
     62          8           0       25.050000   19.720000   18.050000
     63          1           0       24.520000   20.380000   17.600000
     64          1           0       24.410000   19.180000   18.510000
     65          8           0       21.330000   20.150000   25.380000
     66          1           0       21.660000   20.940000   24.960000
     67          1           0       20.980000   19.620000   24.670000
     68          8           0       15.130000   20.660000   17.230000
     69          1           0       15.750000   21.100000   16.640000
     70          1           0       15.690000   20.130000   17.800000
     71          8           0       19.020000   16.530000   16.770000
     72          1           0       19.600000   15.770000   16.750000
     73          1           0       18.140000   16.150000   16.770000
     74          8           0       22.760000   24.190000   22.870000
     75          1           0       23.150000   23.760000   23.620000
     76          1           0       21.840000   23.930000   22.890000
     77          8           0       20.350000   14.860000   21.780000
     78          1           0       20.530000   13.930000   21.860000
     79          1           0       19.630000   14.920000   21.150000
     80          8           0       20.940000   24.590000   16.570000
     81          1           0       21.870000   24.720000   16.400000
     82          1           0       20.770000   23.680000   16.290000
     83          8           0       19.320000   15.540000   24.280000
     84          1           0       19.960000   14.840000   24.280000
     85          1           0       19.540000   16.070000   23.510000
     86          8           0       17.810000   19.660000   14.990000
     87          1           0       17.040000   19.130000   14.780000
     88          1           0       17.450000   20.500000   15.270000
     89          8           0       20.700000   23.340000   25.450000
     90          1           0       20.200000   23.090000   24.670000
     91          1           0       20.230000   22.940000   26.180000
     92          8           0       20.990000   13.840000   18.960000
     93          1           0       21.920000   13.860000   19.190000
     94          1           0       20.570000   14.440000   19.590000
     95          8           0       23.560000   21.950000   15.210000
     96          1           0       23.780000   21.950000   16.140000
     97          1           0       24.320000   21.550000   14.780000
     98          8           0       23.080000   18.480000   14.630000
     99          1           0       22.370000   18.030000   15.100000
    100          1           0       23.880000   18.200000   15.080000
    101          8           0       21.770000   16.110000   16.040000
    102          1           0       22.380000   15.470000   16.420000
    103          1           0       21.800000   15.940000   15.100000
    104          8           0       16.860000   19.670000   25.040000
    105          1           0       17.520000   19.510000   25.720000
    106          1           0       16.030000   19.710000   25.510000
    107          8           0       18.020000   14.090000   20.450000
    108          1           0       17.550000   14.480000   19.710000
    109          1           0       18.330000   13.250000   20.130000
    110          8           0       17.250000   26.230000   21.410000
    111          1           0       16.520000   26.020000   21.990000
    112          1           0       17.460000   25.400000   20.980000
    113          8           0       14.310000   17.430000   22.860000
    114          1           0       14.150000   18.380000   22.900000
    115          1           0       15.230000   17.350000   22.610000
    116          8           0       16.710000   21.990000   15.320000
    117          1           0       15.980000   22.610000   15.340000
    118          1           0       17.240000   22.270000   14.580000
    119          8           0       18.350000   25.460000   17.920000
    120          1           0       19.030000   25.450000   17.240000
    121          1           0       18.600000   26.180000   18.500000
    122          8           0       25.030000   23.930000   18.270000
    123          1           0       24.280000   24.150000   18.810000
    124          1           0       24.820000   24.270000   17.400000
    125          8           0       25.700000   15.980000   20.770000
    126          1           0       25.060000   16.690000   20.780000
    127          1           0       26.550000   16.430000   20.740000
    128          8           0       14.420000   23.200000   18.300000
    129          1           0       14.630000   22.270000   18.200000
    130          1           0       15.080000   23.530000   18.910000
    131          8           0       23.370000   14.900000   22.350000
    132          1           0       24.050000   15.570000   22.480000
    133          1           0       23.140000   14.960000   21.420000
    134          8           0       14.280000   15.790000   20.540000
    135          1           0       15.010000   16.370000   20.330000
    136          1           0       13.740000   16.290000   21.150000
    137          8           0       13.850000   19.090000   19.980000
    138          1           0       13.810000   18.410000   19.310000
    139          1           0       13.020000   19.010000   20.450000
    140          8           0       14.640000   22.380000   22.410000
    141          1           0       14.270000   21.850000   21.700000
    142          1           0       13.880000   22.840000   22.780000
    143          8           0       26.870000   21.810000   19.300000
    144          1           0       26.110000   21.430000   18.870000
    145          1           0       27.290000   22.340000   18.620000
    146          8           0       21.540000   20.900000   13.450000
    147          1           0       21.770000   20.140000   12.920000
    148          1           0       22.240000   20.970000   14.090000
    149          8           0       14.070000   17.220000   18.050000
    150          1           0       13.470000   16.480000   17.970000
    151          1           0       14.900000   16.900000   17.700000
    152          8           0       16.850000   16.730000   25.360000
    153          1           0       16.760000   17.630000   25.040000
    154          1           0       17.550000   16.360000   24.840000
    155          8           0       25.830000   23.530000   21.480000
    156          1           0       26.030000   23.250000   20.580000
    157          1           0       24.950000   23.910000   21.420000
    158          8           0       17.850000   24.540000   25.160000
    159          1           0       17.500000   23.990000   24.460000
    160          1           0       18.640000   24.930000   24.780000
    161          8           0       13.870000   20.130000   23.530000
    162          1           0       13.030000   20.510000   23.770000
    163          1           0       14.470000   20.870000   23.450000
    164          8           0       26.090000   20.930000   22.770000
    165          1           0       25.810000   21.140000   23.660000
    166          1           0       25.970000   21.740000   22.280000
    167          8           0       18.580000   19.880000   26.950000
    168          1           0       18.670000   20.680000   27.460000
    169          1           0       19.460000   19.720000   26.610000
    170          8           0       16.600000   14.730000   22.950000
    171          1           0       16.930000   14.470000   22.080000
    172          1           0       17.390000   14.780000   23.490000
    173          8           0       20.080000   26.810000   19.700000
    174          1           0       20.450000   27.210000   20.490000
    175          1           0       19.610000   27.520000   19.270000
    176          8           0       14.700000   25.340000   21.920000
    177          1           0       13.930000   25.060000   22.410000
    178          1           0       15.060000   24.540000   21.550000
    179          8           0       18.360000   20.120000   12.350000
    180          1           0       18.660000   20.330000   13.230000
    181          1           0       18.720000   19.250000   12.170000
    182          8           0       16.390000   15.290000   16.450000
    183          1           0       16.640000   14.570000   17.030000
    184          1           0       15.920000   14.870000   15.730000
    185          8           0       23.520000   15.840000   25.880000
    186          1           0       23.090000   16.460000   25.290000
    187          1           0       24.370000   15.670000   25.480000
    188          8           0       20.270000   25.970000   24.780000
    189          1           0       20.780000   26.560000   25.330000
    190          1           0       20.730000   25.130000   24.840000
    191          8           0       20.240000   16.470000   26.880000
    192          1           0       19.470000   16.170000   27.360000
    193          1           0       20.110000   16.150000   25.990000
    194          8           0       23.100000   26.930000   22.110000
    195          1           0       23.000000   27.500000   22.880000
    196          1           0       22.890000   26.060000   22.430000
    197          8           0       24.160000   14.170000   19.610000
    198          1           0       24.910000   14.740000   19.780000
    199          1           0       24.520000   13.290000   19.620000
    200          8           0       18.910000   13.580000   16.640000
    201          1           0       19.510000   13.350000   17.350000
    202          1           0       19.090000   12.940000   15.960000
    203          8           0       27.390000   18.210000   17.550000
    204          1           0       26.770000   18.830000   17.920000
    205          1           0       28.110000   18.190000   18.190000
    206          8           0       19.660000   27.220000   22.440000
    207          1           0       19.800000   26.550000   23.110000
[...]
   Y335      49.22737   0.01459   0.00000   0.01093   0.01008  49.23744
   Z335      42.14089   0.00479   0.00000   0.00299   0.00260  42.14350
   X336      50.62576  -0.00248   0.00000  -0.00514  -0.00431  50.62146
   Y336      47.65889  -0.01269   0.00000  -0.00673  -0.00756  47.65133
   Z336      41.25272  -0.00490   0.00000  -0.00038  -0.00080  41.25192
   X337      52.23203   0.00485   0.00000   0.00422   0.00521  52.23724
   Y337      49.13288  -0.00144   0.00000  -0.00077  -0.00174  49.13113
   Z337      43.10465   0.00173   0.00000   0.00148   0.00104  43.10569
   X338      36.90635  -0.00949   0.00000  -0.00280  -0.00391  36.90244
   Y338      21.25942   0.00165   0.00000  -0.00135  -0.00114  21.25828
   Z338      36.07487  -0.01183   0.00000  -0.00439  -0.00493  36.06994
   X339      37.47327   0.00852   0.00000   0.00827   0.00719  37.48046
   Y339      20.86258  -0.00023   0.00000   0.00357   0.00370  20.86628
   Z339      37.73783   0.01657   0.00000   0.01306   0.01249  37.75033
   X340      38.41813   0.00743   0.00000   0.00926   0.00814  38.42627
   Y340      21.44839   0.00451   0.00000   0.00785   0.00798  21.45637
   Z340      35.09221   0.00355   0.00000   0.00767   0.00709  35.09930
   X341      26.94749  -0.00703   0.00000  -0.00017  -0.00015  26.94735
   Y341      31.02930   0.01757   0.00000   0.01158   0.01215  31.04145
   Z341      50.81474   0.02559   0.00000   0.02161   0.02160  50.83633
   X342      28.47817   0.01134   0.00000   0.00317   0.00317  28.48134
   Y342      31.08599  -0.00676   0.00000  -0.00859  -0.00811  31.07789
   Z342      49.86987  -0.01643   0.00000  -0.01501  -0.01508  49.85480
   X343      26.05932   0.00092   0.00000   0.00624   0.00615  26.06547
   Y343      29.59311  -0.00778   0.00000   0.00069   0.00133  29.59444
   Z343      50.17223  -0.01230   0.00000  -0.01219  -0.01220  50.16002
   X344      23.22473  -0.01345   0.00000  -0.00906  -0.00926  23.21547
   Y344      30.00885  -0.00246   0.00000  -0.00117  -0.00025  30.00860
   Z344      46.09042   0.00305   0.00000  -0.00027  -0.00018  46.09024
   X345      22.12869  -0.00312   0.00000  -0.00522  -0.00549  22.12320
   Y345      29.63091   0.00121   0.00000   0.00157   0.00259  29.63350
   Z345      44.69202  -0.00103   0.00000  -0.00305  -0.00294  44.68908
   X346      24.77431   0.01417   0.00000   0.01054   0.01035  24.78466
   Y346      30.51908   0.00853   0.00000   0.00980   0.01063  30.52971
   Z346      45.29674  -0.00038   0.00000   0.00590   0.00595  45.30269
   X347      45.16445   0.01621   0.00000   0.01518   0.01593  45.18039
   Y347      40.53463  -0.01842   0.00000  -0.01117  -0.01189  40.52274
   Z347      53.55484   0.00286   0.00000   0.00083   0.00044  53.55528
   X348      45.31563  -0.00701   0.00000  -0.01154  -0.01075  45.30489
   Y348      41.72515   0.01575   0.00000   0.01600   0.01530  41.74046
   Z348      52.19424  -0.00599   0.00000   0.00009  -0.00029  52.19395
   X349      43.82275  -0.00833   0.00000  -0.00452  -0.00369  43.81906
   Y349      41.17713   0.00082   0.00000  -0.00605  -0.00670  41.17043
   Z349      54.57529   0.00098   0.00000  -0.00365  -0.00399  54.57130
   X350      27.68449   0.00371   0.00000   0.00428   0.00469  27.68918
   Y350      36.66069   0.01916   0.00000   0.01437   0.01488  36.67556
   Z350      51.06040  -0.00592   0.00000   0.00105   0.00113  51.06153
   X351      27.79787  -0.00269   0.00000  -0.00471  -0.00438  27.79349
   Y351      35.09221  -0.01754   0.00000  -0.01376  -0.01328  35.07893
   Z351      51.94857   0.00287   0.00000  -0.00561  -0.00556  51.94301
   X352      25.98373  -0.00357   0.00000  -0.00542  -0.00496  25.97877
   Y352      37.22760  -0.00466   0.00000  -0.00763  -0.00701  37.22059
   Z352      51.36276  -0.00273   0.00000  -0.00606  -0.00591  51.35684
   X353      25.30343  -0.01217   0.00000  -0.01851  -0.01908  25.28435
   Y353      26.15381  -0.01059   0.00000  -0.01621  -0.01536  26.13845
   Z353      42.55663  -0.00223   0.00000  -0.01075  -0.01081  42.54582
   X354      24.50975   0.00154   0.00000   0.00375   0.00328  24.51303
   Y354      27.76008   0.00242   0.00000   0.00040   0.00131  27.76139
   Z354      42.27317  -0.00220   0.00000  -0.00205  -0.00206  42.27112
   X355      26.41837   0.00613   0.00000   0.00834   0.00771  26.42608
   Y355      25.96484   0.00666   0.00000   0.01055   0.01135  25.97619
   Z355      41.13934  -0.00303   0.00000  -0.00042  -0.00052  41.13881
   X356      29.00730   0.00147   0.00000  -0.00179  -0.00097  29.00632
   Y356      41.61177   0.00916   0.00000   0.00673   0.00711  41.61887
   Z356      53.19579   0.01904   0.00000   0.01719   0.01733  53.21312
   X357      29.46083  -0.00201   0.00000  -0.00535  -0.00453  29.45630
   Y357      42.36766  -0.00298   0.00000  -0.00676  -0.00638  42.36128
   Z357      51.60842  -0.00637   0.00000  -0.00140  -0.00125  51.60717
   X358      28.30810   0.00449   0.00000   0.01171   0.01240  28.32050
   Y358      40.00550  -0.00959   0.00000  -0.00724  -0.00680  39.99870
   Z358      52.74226  -0.00519   0.00000  -0.00295  -0.00282  52.73944
   X359      21.41060   0.00171   0.00000  -0.00338  -0.00352  21.40708
   Y359      34.31743  -0.00946   0.00000  -0.01039  -0.00920  34.30823
   Z359      38.85277   0.00177   0.00000   0.00221   0.00244  38.85521
   X360      20.67360  -0.00083   0.00000   0.00262   0.00260  20.67620
   Y360      35.64023   0.00737   0.00000   0.00537   0.00659  35.64683
   Z360      39.87322   0.00458   0.00000   0.00336   0.00365  39.87687
   X361      20.74919  -0.00155   0.00000  -0.00017  -0.00034  20.74886
   Y361      34.61978   0.00279   0.00000   0.00263   0.00390  34.62368
   Z361      37.18981  -0.00453   0.00000  -0.00316  -0.00290  37.18691
   X362      25.03887   0.00862   0.00000   0.01055   0.00984  25.04872
   Y362      31.61512   0.00227   0.00000  -0.00212  -0.00092  31.61420
   Z362      26.98529   0.00028   0.00000  -0.00104  -0.00098  26.98431
   X363      26.02153  -0.00054   0.00000  -0.00037  -0.00110  26.02043
   Y363      30.65136  -0.00123   0.00000  -0.00300  -0.00189  30.64946
   Z363      28.17582   0.00376   0.00000   0.00685   0.00686  28.18267
   X364      23.58378  -0.00436   0.00000  -0.00143  -0.00221  23.58157
   Y364      30.57577  -0.00074   0.00000   0.00208   0.00338  30.57915
   Z364      26.68293  -0.00186   0.00000  -0.00219  -0.00210  26.68083
   X365      38.47482   0.01409   0.00000   0.00989   0.01126  38.48608
   Y365      55.86030   0.01504   0.00000   0.01110   0.01110  55.87140
   Z365      40.72360  -0.01654   0.00000  -0.01391  -0.01377  40.70983
   X366      37.01973  -0.00687   0.00000  -0.00516  -0.00371  37.01602
   Y366      56.78627  -0.00108   0.00000  -0.00336  -0.00327  56.78300
   Z366      41.27162   0.00210   0.00000  -0.00111  -0.00090  41.27072
   X367      38.34254  -0.00634   0.00000  -0.00735  -0.00606  38.33648
   Y367      54.25404  -0.00911   0.00000   0.00085   0.00085  54.25488
   Z367      41.55508   0.01125   0.00000   0.00888   0.00899  41.56407
   X368      33.63713   0.00316   0.00000   0.00555   0.00435  33.64147
   Y368      24.64203  -0.01092   0.00000  -0.00707  -0.00643  24.63560
   Z368      25.98373   0.01503   0.00000   0.01332   0.01296  25.99669
   X369      33.16469  -0.00162   0.00000   0.00052  -0.00077  33.16392
   Y369      24.16960   0.00219   0.00000   0.00314   0.00385  24.17345
   Z369      24.30188  -0.00568   0.00000   0.00064   0.00028  24.30216
   X370      33.80720  -0.00121   0.00000  -0.00197  -0.00305  33.80415
   Y370      26.43727   0.01107   0.00000   0.00616   0.00679  26.44406
   Z370      25.92704  -0.00696   0.00000  -0.00873  -0.00906  25.91799
   X371      20.61691   0.00736   0.00000   0.00110   0.00135  20.61826
   Y371      38.79608  -0.00439   0.00000  -0.00488  -0.00369  38.79239
   Z371      41.53618  -0.00915   0.00000  -0.00826  -0.00790  41.52828
   X372      21.69406   0.00045   0.00000  -0.00030   0.00001  21.69406
   Y372      38.94726  -0.00122   0.00000  -0.00350  -0.00242  38.94484
   Z372      42.99127  -0.00006   0.00000  -0.00344  -0.00312  42.98815
   X373      18.99175  -0.01092   0.00000  -0.00725  -0.00694  18.98480
   Y373      39.32520   0.00510   0.00000   0.00391   0.00519  39.33039
   Z373      42.10310   0.00564   0.00000   0.00418   0.00460  42.10770
   X374      30.34900  -0.00030   0.00000  -0.00238  -0.00194  30.34706
   Y374      49.00060   0.01489   0.00000   0.00753   0.00839  49.00899
   Z374      25.88925   0.00069   0.00000  -0.00238  -0.00212  25.88713
   X375      31.53953   0.00505   0.00000   0.00356   0.00392  31.54345
   Y375      48.56596  -0.00577   0.00000  -0.00758  -0.00677  48.55919
   Z375      24.60423  -0.00522   0.00000  -0.00352  -0.00331  24.60093
   X376      29.55532  -0.00337   0.00000   0.00001   0.00035  29.55567
   Y376      47.43213  -0.01266   0.00000  -0.00881  -0.00790  47.42422
   Z376      26.30499   0.00666   0.00000   0.00890   0.00916  26.31414
   X377      23.82945   0.00855   0.00000  -0.00171  -0.00093  23.82852
   Y377      45.48571  -0.01291   0.00000  -0.01066  -0.00974  45.47597
   Z377      44.10621   0.00057   0.00000  -0.00042  -0.00003  44.10618
   X378      22.75230  -0.01410   0.00000  -0.01307  -0.01224  22.74006
   Y378      46.58175   0.00820   0.00000   0.00114   0.00215  46.58390
   Z378      43.18024  -0.01326   0.00000  -0.01291  -0.01245  43.16779
   X379      23.31922   0.00129   0.00000   0.00468   0.00554  23.32476
   Y379      45.69358   0.00197   0.00000   0.00181   0.00272  45.69630
   Z379      45.82586   0.01223   0.00000   0.01122   0.01163  45.83749
   X380      42.08420   0.00286   0.00000   0.00857   0.00844  42.09264
   Y380      27.77897  -0.02153   0.00000  -0.01614  -0.01663  27.76234
   Z380      52.81785   0.00862   0.00000   0.01247   0.01191  52.82975
   X381      41.38500  -0.00675   0.00000  -0.00894  -0.00897  41.37604
   Y381      28.61045   0.00668   0.00000   0.00666   0.00618  28.61663
   Z381      54.25404   0.00458   0.00000   0.00189   0.00136  54.25540
   X382      42.70781   0.00477   0.00000   0.00212   0.00205  42.70986
   Y382      29.12068   0.00762   0.00000  -0.00196  -0.00247  29.11821
   Z382      51.77850  -0.01042   0.00000  -0.00781  -0.00837  51.77013
   X383      33.25918  -0.01092   0.00000  -0.00352  -0.00478  33.25440
   Y383      20.67360  -0.01166   0.00000  -0.01026  -0.00973  20.66387
   Z383      32.57888  -0.01598   0.00000  -0.01862  -0.01905  32.55983
   X384      34.67647   0.00371   0.00000  -0.00645  -0.00765  34.66882
   Y384      20.90037   0.00118   0.00000  -0.00238  -0.00197  20.89840
   Z384      33.67492   0.01260   0.00000   0.01240   0.01193  33.68685
   X385      32.86234  -0.00034   0.00000   0.00009  -0.00107  32.86126
   Y385      22.33656   0.00770   0.00000   0.00616   0.00673  22.34329
   Z385      31.99306   0.00146   0.00000   0.00398   0.00360  31.99666
         Item               Value     Threshold  Converged?
 Maximum Force            0.042301     0.000450     NO 
 RMS     Force            0.010609     0.000300     NO 
 Maximum Displacement     0.032051     0.001800     NO 
 RMS     Displacement     0.008841     0.001200     NO 
 Predicted change in Energy=-7.410344D-02
 GradGradGradGradGradGradGradGradGradGradGradGradGradGradGradGradGradGrad

 Leave Link  103 at Wed May 16 23:06:48 2018, MaxMem= 14763950080 cpu:      3501.3
 (Enter /cm/shared/gaussian/g09.e01/intel64-sandybridge/g09/l9999.exe)
 1\1\GINC-POPLE03\Force\RPBE1PBE\CC-pVDZ\Br1H256O128(1-)\M.PELUSO\16-Ma
 y-2018\0\\#p PBE1PBE/cc-pvDZ force Counterpoise=2 noSymm\\forces on ch
 loride comput - NWATER: 128\\-1,1\Br,20.,20.,20.\O,22.78,20.17,21.51\H
 ,21.88,20.,21.22\H,22.96,21.06,21.21\O,19.65,16.74,19.53\H,19.91,17.66
 ,19.57\H,19.54,16.56,18.59\O,20.56,17.58,22.38\H,20.61,16.7,22.02\H,20
 .32,18.14,21.63\O,18.31,22.28,17.97\H,18.83,21.62,18.43\H,18.78,22.42,
 17.15\O,17.14,18.99,18.17\H,18.01,19.05,18.57\H,17.31,19.06,17.23\O,18
 .61,20.53,23.09\H,18.01,20.01,23.63\H,18.65,20.05,22.26\O,22.41,17.94,
 18.34\H,22.17,17.29,17.68\H,22.01,18.75,18.04\O,16.18,21.08,20.43\H,16
 .9,20.96,19.82\H,15.64,20.29,20.32\O,16.88,17.35,20.46\H,16.67,18.01,1
 9.8\H,17.76,17.58,20.75\O,20.14,23.72,19.57\H,19.95,24.63,19.36\H,19.5
 7,23.21,18.99\O,20.22,22.86,22.79\H,20.02,23.31,21.97\H,19.73,22.04,22
 .74\O,23.01,21.2,18.07\H,22.17,21.36,17.65\H,23.05,21.84,18.78\O,22.96
 ,22.82,20.32\H,22.06,22.95,20.01\H,22.96,23.16,21.21\O,23.62,17.88,20.
 79\H,23.23,17.87,19.91\H,23.31,18.7,21.18\O,20.19,18.97,16.26\H,20.23,
 18.07,16.58\H,19.33,19.04,15.84\O,20.72,21.95,16.01\H,21.05,21.99,15.1
 1\H,20.63,21.02,16.19\O,17.16,23.16,22.67\H,16.37,22.9,22.2\H,17.73,22
 .39,22.65\O,16.42,23.84,19.89\H,16.58,22.95,20.19\H,17.16,24.04,19.32\
 O,22.89,17.8,24.06\H,23.69,17.95,23.55\H,22.18,17.85,23.41\O,23.34,21.
 69,23.89\H,23.99,21.34,24.49\H,23.23,21.,23.23\O,25.05,19.72,18.05\H,2
 4.52,20.38,17.6\H,24.41,19.18,18.51\O,21.33,20.15,25.38\H,21.66,20.94,
 24.96\H,20.98,19.62,24.67\O,15.13,20.66,17.23\H,15.75,21.1,16.64\H,15.
 69,20.13,17.8\O,19.02,16.53,16.77\H,19.6,15.77,16.75\H,18.14,16.15,16.
 77\O,22.76,24.19,22.87\H,23.15,23.76,23.62\H,21.84,23.93,22.89\O,20.35
 ,14.86,21.78\H,20.53,13.93,21.86\H,19.63,14.92,21.15\O,20.94,24.59,16.
 57\H,21.87,24.72,16.4\H,20.77,23.68,16.29\O,19.32,15.54,24.28\H,19.96,
 14.84,24.28\H,19.54,16.07,23.51\O,17.81,19.66,14.99\H,17.04,19.13,14.7
 8\H,17.45,20.5,15.27\O,20.7,23.34,25.45\H,20.2,23.09,24.67\H,20.23,22.
 94,26.18\O,20.99,13.84,18.96\H,21.92,13.86,19.19\H,20.57,14.44,19.59\O
 ,23.56,21.95,15.21\H,23.78,21.95,16.14\H,24.32,21.55,14.78\O,23.08,18.
 48,14.63\H,22.37,18.03,15.1\H,23.88,18.2,15.08\O,21.77,16.11,16.04\H,2
 2.38,15.47,16.42\H,21.8,15.94,15.1\O,16.86,19.67,25.04\H,17.52,19.51,2
 5.72\H,16.03,19.71,25.51\O,18.02,14.09,20.45\H,17.55,14.48,19.71\H,18.
 33,13.25,20.13\O,17.25,26.23,21.41\H,16.52,26.02,21.99\H,17.46,25.4,20
 .98\O,14.31,17.43,22.86\H,14.15,18.38,22.9\H,15.23,17.35,22.61\O,16.71
 ,21.99,15.32\H,15.98,22.61,15.34\H,17.24,22.27,14.58\O,18.35,25.46,17.
 92\H,19.03,25.45,17.24\H,18.6,26.18,18.5\O,25.03,23.93,18.27\H,24.28,2
 4.15,18.81\H,24.82,24.27,17.4\O,25.7,15.98,20.77\H,25.06,16.69,20.78\H
 ,26.55,16.43,20.74\O,14.42,23.2,18.3\H,14.63,22.27,18.2\H,15.08,23.53,
 18.91\O,23.37,14.9,22.35\H,24.05,15.57,22.48\H,23.14,14.96,21.42\O,14.
 28,15.79,20.54\H,15.01,16.37,20.33\H,13.74,16.29,21.15\O,13.85,19.09,1
 9.98\H,13.81,18.41,19.31\H,13.02,19.01,20.45\O,14.64,22.38,22.41\H,14.
 27,21.85,21.7\H,13.88,22.84,22.78\O,26.87,21.81,19.3\H,26.11,21.43,18.
 87\H,27.29,22.34,18.62\O,21.54,20.9,13.45\H,21.77,20.14,12.92\H,22.24,
 20.97,14.09\O,14.07,17.22,18.05\H,13.47,16.48,17.97\H,14.9,16.9,17.7\O
 ,16.85,16.73,25.36\H,16.76,17.63,25.04\H,17.55,16.36,24.84\O,25.83,23.
 53,21.48\H,26.03,23.25,20.58\H,24.95,23.91,21.42\O,17.85,24.54,25.16\H
 ,17.5,23.99,24.46\H,18.64,24.93,24.78\O,13.87,20.13,23.53\H,13.03,20.5
 1,23.77\H,14.47,20.87,23.45\O,26.09,20.93,22.77\H,25.81,21.14,23.66\H,
 25.97,21.74,22.28\O,18.58,19.88,26.95\H,18.67,20.68,27.46\H,19.46,19.7
 2,26.61\O,16.6,14.73,22.95\H,16.93,14.47,22.08\H,17.39,14.78,23.49\O,2
 0.08,26.81,19.7\H,20.45,27.21,20.49\H,19.61,27.52,19.27\O,14.7,25.34,2
 1.92\H,13.93,25.06,22.41\H,15.06,24.54,21.55\O,18.36,20.12,12.35\H,18.
 66,20.33,13.23\H,18.72,19.25,12.17\O,16.39,15.29,16.45\H,16.64,14.57,1
 7.03\H,15.92,14.87,15.73\O,23.52,15.84,25.88\H,23.09,16.46,25.29\H,24.
 37,15.67,25.48\O,20.27,25.97,24.78\H,20.78,26.56,25.33\H,20.73,25.13,2
 4.84\O,20.24,16.47,26.88\H,19.47,16.17,27.36\H,20.11,16.15,25.99\O,23.
 1,26.93,22.11\H,23.,27.5,22.88\H,22.89,26.06,22.43\O,24.16,14.17,19.61
 \H,24.91,14.74,19.78\H,24.52,13.29,19.62\O,18.91,13.58,16.64\H,19.51,1
 3.35,17.35\H,19.09,12.94,15.96\O,27.39,18.21,17.55\H,26.77,18.83,17.92
 \H,28.11,18.19,18.19\O,19.66,27.22,22.44\H,19.8,26.55,23.11\H,18.78,27
 .03,22.1\O,23.9,14.39,16.68\H,24.27,14.69,17.51\H,23.71,13.46,16.82\O,
 15.03,23.21,25.76\H,15.41,23.01,24.91\H,15.25,24.13,25.92\O,25.66,17.8
 3,15.29\H,26.16,18.42,14.73\H,26.,17.98,16.17\O,15.38,26.05,17.66\H,15
 .16,25.15,17.43\H,16.32,26.04,17.81\O,25.28,24.07,24.5\H,25.31,23.71,2
 3.61\H,26.2,24.17,24.75\O,18.59,22.81,27.39\H,18.31,23.51,27.98\H,18.2
 3,23.05,26.54\O,15.56,18.47,14.23\H,14.77,17.99,13.98\H,15.7,19.1,13.5
 2\O,21.4,18.96,27.95\H,21.86,19.27,27.17\H,21.12,18.07,27.72\O,23.26,2
 3.57,26.66\H,23.88,23.82,25.97\H,22.47,23.32,26.19\O,22.41,13.47,24.39
 \H,22.65,13.99,23.62\H,22.69,13.99,25.14\O,28.05,20.06,21.01\H,27.68,2
 0.72,20.43\H,27.42,19.98,21.72\O,26.89,18.57,23.99\H,27.42,18.76,24.76
 \H,26.85,19.4,23.52\O,18.17,23.29,13.24\H,17.98,23.28,12.3\H,18.76,24.
 04,13.36\O,12.52,19.2,16.32\H,12.9,19.84,16.92\H,12.93,18.37,16.56\O,1
 5.45,12.99,18.85\H,14.7,12.47,19.13\H,15.3,13.85,19.24\O,23.8,25.68,16
 .27\H,23.67,25.41,15.36\H,23.26,26.46,16.37\O,20.08,25.12,13.58\H,19.9
 4,25.98,13.97\H,20.94,24.84,13.9\O,25.7,16.1,24.33\H,26.03,16.96,24.07
 \H,26.36,15.48,24.01\O,23.16,24.44,13.61\H,22.49,24.21,12.97\H,23.52,2
 3.61,13.9\O,25.12,20.56,26.02\H,25.93,20.05,26.02\H,24.69,20.32,26.85\
 O,19.93,16.79,12.57\H,20.8,16.43,12.75\H,19.32,16.19,12.99\O,22.11,18.
 93,11.82\H,22.61,18.59,12.56\H,21.75,18.16,11.39\O,24.28,27.47,19.5\H,
 23.75,27.16,18.77\H,23.8,27.18,20.28\O,14.41,23.55,14.99\H,13.7,23.97,
 14.51\H,14.41,22.65,14.68\O,22.25,27.77,16.91\H,22.79,28.51,17.19\H,21
 .61,27.66,17.62\O,13.7,20.74,14.3\H,13.6,19.96,14.85\H,14.42,20.53,13.
 7\O,11.9,23.75,19.12\H,11.65,22.83,19.19\H,12.79,23.74,18.76\O,28.02,1
 7.25,20.43\H,28.06,18.2,20.55\H,28.94,16.98,20.42\O,14.68,14.39,24.8\H
 ,14.07,14.27,24.08\H,15.52,14.57,24.37\O,17.12,15.72,12.59\H,16.95,16.
 33,11.87\H,16.73,16.15,13.36\O,25.99,21.06,14.27\H,26.61,21.03,13.55\H
 ,26.32,21.76,14.84\O,15.76,20.31,12.34\H,15.47,20.17,11.44\H,16.7,20.1
 6,12.32\O,21.55,23.09,11.8\H,21.35,22.16,11.94\H,20.71,23.5,11.62\O,20
 .25,11.76,21.98\H,19.4,11.54,22.34\H,20.83,11.84,22.74\O,27.12,26.02,1
 8.35\H,26.45,25.35,18.48\H,27.72,25.91,19.09\O,14.24,27.1,19.71\H,14.5
 7,26.53,19.02\H,14.11,26.52,20.46\O,22.41,15.53,13.12\H,22.54,14.6,12.
 96\H,23.14,15.95,12.66\O,27.35,15.09,17.7\H,27.18,16.01,17.49\H,27.05,
 14.98,18.6\O,25.62,12.83,22.77\H,24.85,13.4,22.74\H,26.26,13.31,23.29\
 O,17.52,27.64,25.19\H,17.88,26.8,24.91\H,17.26,27.5,26.1\O,16.26,28.59
 ,20.67\H,16.71,27.93,21.19\H,15.53,28.12,20.26\O,18.,15.04,27.57\H,17.
 54,14.83,28.39\H,17.4,15.62,27.11\O,26.83,26.05,22.3\H,26.79,25.22,21.
 83\H,27.64,26.,22.81\O,19.53,11.25,19.09\H,19.83,11.04,19.97\H,20.33,1
 1.35,18.57\O,14.26,16.42,26.89\H,15.07,16.45,26.39\H,13.79,15.66,26.55
 \O,12.29,15.88,24.39\H,11.71,15.68,23.65\H,13.11,16.15,23.97\O,23.9,21
 .45,28.34\H,23.98,22.08,27.62\H,23.19,21.79,28.88\O,14.65,19.4,27.02\H
 ,14.71,18.57,27.49\H,13.75,19.7,27.18\O,13.39,13.84,22.52\H,12.97,14.6
 9,22.37\H,13.98,13.74,21.77\O,15.35,22.02,28.15\H,15.59,22.42,27.31\H,
 14.98,21.17,27.91\O,11.33,18.16,20.56\H,10.94,18.86,21.1\H,10.98,18.32
 ,19.68\O,13.25,16.73,14.28\H,13.77,16.22,14.91\H,12.48,16.18,14.12\O,2
 0.36,29.56,21.55\H,19.59,30.05,21.84\H,20.29,28.71,21.99\O,17.8,13.04,
 13.75\H,17.55,12.79,12.86\H,17.89,13.99,13.72\O,10.91,20.53,21.98\H,11
 .48,20.61,22.75\H,10.05,20.81,22.28\O,16.06,25.93,13.7\H,16.69,25.7,13
 .02\H,15.64,25.1,13.92\O,12.61,24.07,23.34\H,12.04,24.65,22.85\H,12.34
 ,24.18,24.25\O,22.27,14.7,27.95\H,21.9,15.14,28.71\H,22.6,15.41,27.4\O
 ,17.6,10.94,17.24\H,18.35,11.06,17.82\H,17.39,11.82,16.93\\Version=ES6
 4L-G09RevE.01\HF=-9773.5111249\RMSD=3.220e-10\RMSF=1.061e-02\Dipole=1.
 9167491,-5.5695326,-12.6088521\Quadrupole=718.6910876,-175.4662873,-54
 3.2248003,-1517.2913224,-1820.1537291,-1983.9281238\PG=C01 [X(Br1H256O
 128)]\\@


 DESK:  A WASTEBASKET WITH DRAWERS.
 Job cpu time:       9 days  1 hours 24 minutes 29.3 seconds.
 File lengths (MBytes):  RWF=   7285 Int=      0 D2E=      0 Chk=   2411 Scr=      1
 Normal termination of Gaussian 09 at Wed May 16 23:07:57 2018.
