 Entering Gaussian System, Link 0=/cm/shared/gaussian/g09.e01/intel64-sandybridge/g09/g09
 Initial command:
 /cm/shared/gaussian/g09.e01/intel64-sandybridge/g09/l1.exe "/local/scratch/m.peluso/128_wat/order/Gau-22712.inp" -scrdir="/local/scratch/m.peluso/128_wat/order/"
 Entering Link 1 = /cm/shared/gaussian/g09.e01/intel64-sandybridge/g09/l1.exe PID=     22713.
  
 Copyright (c) 1988,1990,1992,1993,1995,1998,2003,2009,2015,
            Gaussian, Inc.  All Rights Reserved.
  
 This is part of the Gaussian(R) 09 program.  It is based on
 the Gaussian(R) 03 system (copyright 2003, Gaussian, Inc.),
 the Gaussian(R) 98 system (copyright 1998, Gaussian, Inc.),
 the Gaussian(R) 94 system (copyright 1995, Gaussian, Inc.),
 the Gaussian 92(TM) system (copyright 1992, Gaussian, Inc.),
 the Gaussian 90(TM) system (copyright 1990, Gaussian, Inc.),
 the Gaussian 88(TM) system (copyright 1988, Gaussian, Inc.),
 the Gaussian 86(TM) system (copyright 1986, Carnegie Mellon
 University), and the Gaussian 82(TM) system (copyright 1983,
 Carnegie Mellon University). Gaussian is a federally registered
 trademark of Gaussian, Inc.
  
 This software contains proprietary and confidential information,
 including trade secrets, belonging to Gaussian, Inc.
  
 This software is provided under written license and may be
 used, copied, transmitted, or stored only in accord with that
 written license.
  
 The following legend is applicable only to US Government
 contracts under FAR:
  
                    RESTRICTED RIGHTS LEGEND
  
 Use, reproduction and disclosure by the US Government is
 subject to restrictions as set forth in subparagraphs (a)
 and (c) of the Commercial Computer Software - Restricted
 Rights clause in FAR 52.227-19.
  
 Gaussian, Inc.
 340 Quinnipiac St., Bldg. 40, Wallingford CT 06492
  
  
 ---------------------------------------------------------------
 Warning -- This program may not be used in any manner that
 competes with the business of Gaussian, Inc. or will provide
 assistance to any competitor of Gaussian, Inc.  The licensee
 of this program is prohibited from giving any competitor of
 Gaussian, Inc. access to this program.  By using this program,
 the user acknowledges that Gaussian, Inc. is engaged in the
 business of creating and licensing software in the field of
 computational chemistry and represents and warrants to the
 licensee that it is not a competitor of Gaussian, Inc. and that
 it will not use this program in any manner prohibited above.
 ---------------------------------------------------------------
  

 Cite this work as:
 Gaussian 09, Revision E.01,
 M. J. Frisch, G. W. Trucks, H. B. Schlegel, G. E. Scuseria, 
 M. A. Robb, J. R. Cheeseman, G. Scalmani, V. Barone, B. Mennucci, 
 G. A. Petersson, H. Nakatsuji, M. Caricato, X. Li, H. P. Hratchian, 
 A. F. Izmaylov, J. Bloino, G. Zheng, J. L. Sonnenberg, M. Hada, 
 M. Ehara, K. Toyota, R. Fukuda, J. Hasegawa, M. Ishida, T. Nakajima, 
 Y. Honda, O. Kitao, H. Nakai, T. Vreven, J. A. Montgomery, Jr., 
 J. E. Peralta, F. Ogliaro, M. Bearpark, J. J. Heyd, E. Brothers, 
 K. N. Kudin, V. N. Staroverov, T. Keith, R. Kobayashi, J. Normand, 
 K. Raghavachari, A. Rendell, J. C. Burant, S. S. Iyengar, J. Tomasi, 
 M. Cossi, N. Rega, J. M. Millam, M. Klene, J. E. Knox, J. B. Cross, 
 V. Bakken, C. Adamo, J. Jaramillo, R. Gomperts, R. E. Stratmann, 
 O. Yazyev, A. J. Austin, R. Cammi, C. Pomelli, J. W. Ochterski, 
 R. L. Martin, K. Morokuma, V. G. Zakrzewski, G. A. Voth, 
 P. Salvador, J. J. Dannenberg, S. Dapprich, A. D. Daniels, 
 O. Farkas, J. B. Foresman, J. V. Ortiz, J. Cioslowski, 
 and D. J. Fox, Gaussian, Inc., Wallingford CT, 2013.
 
 ******************************************
 Gaussian 09:  ES64L-G09RevE.01 30-Nov-2015
                13-May-2018 
 ******************************************
 %Mem=110GB
 %NProcShared=64
 Will use up to   64 processors via shared memory.
 %chk=snap1.chk
 ----------------------------------------------
 #p PBE1PBE/cc-pvDZ force Counterpoise=2 noSymm
 ----------------------------------------------
 1/10=7,30=1,38=1,62=2/1,3;
 2/12=2,15=1,17=6,18=5,40=1/2;
 1/10=7,30=1,38=1,53=2,62=2,63=101/22;
 3/5=16,11=2,16=1,25=1,30=1,71=1,74=-13/1,2,3;
 4//1;
 5/5=2,38=5/2;
 6/7=2,8=2,9=2,10=2,28=1/1;
 7/7=1,29=1,30=1,33=-1/1,2,3,16;
 1/10=7,30=1,53=2,62=2,63=101/22;
 3/5=7,6=11,11=2,16=1,25=1,30=1,71=1,74=-13,82=7/1,2,3;
 4//1;
 5/5=2,38=5/2;
 6/7=2,8=2,9=2,10=2,28=1/1;
 7/7=1,29=1,30=1,33=-1/1,2,3,16;
 1/10=7,30=1,53=2,62=2,63=101/22(-5);
 7/9=1,29=1,44=-1/16;
 1/10=7,30=1,62=2/3;
 99//99;
 Leave Link    1 at Sun May 13 19:08:51 2018, MaxMem= 14763950080 cpu:         4.4
 (Enter /cm/shared/gaussian/g09.e01/intel64-sandybridge/g09/l101.exe)
 ---------------------------------------
 forces on chloride comput - NWATER: 128
 ---------------------------------------
 Symbolic Z-matrix:
 Charge = -1 Multiplicity = 1 in supermolecule
 Charge = -1 Multiplicity = 1 in fragment      1.
 Charge =  0 Multiplicity = 1 in fragment      2.
 Br(Fragment=1)        20.       20.       20. 
 O(Fragment=2)         18.54     20.43     17.29 
 H(Fragment=2)         18.77     20.06     18.14 
 H(Fragment=2)         19.37     20.78     16.95 
 O(Fragment=2)         21.11     22.67     21.39 
 H(Fragment=2)         20.85     21.83     21. 
 H(Fragment=2)         20.29     23.06     21.68 
 O(Fragment=2)         19.87     19.11     23.05 
 H(Fragment=2)         19.93     19.55     22.21 
 H(Fragment=2)         19.23     19.62     23.55 
 O(Fragment=2)         23.25     19.24     20.21 
 H(Fragment=2)         22.29     19.32     20.16 
 H(Fragment=2)         23.52     19.12     19.3 
 O(Fragment=2)         16.77     19.2      19.96 
 H(Fragment=2)         17.69     19.34     19.76 
 H(Fragment=2)         16.66     18.25     19.95 
 O(Fragment=2)         20.13     16.66     20.73 
 H(Fragment=2)         20.09     17.61     20.61 
 H(Fragment=2)         20.68     16.35     20.01 
 O(Fragment=2)         18.18     22.91     20.09 
 H(Fragment=2)         18.76     22.16     19.93 
 H(Fragment=2)         17.78     23.08     19.24 
 O(Fragment=2)         21.34     19.01     17.02 
 H(Fragment=2)         21.01     18.84     17.91 
 H(Fragment=2)         20.76     18.5      16.45 
 O(Fragment=2)         16.19     19.86     22.57 
 H(Fragment=2)         16.37     19.75     21.64 
 H(Fragment=2)         16.93     20.38     22.9 
 O(Fragment=2)         22.87     21.24     16.44 
 H(Fragment=2)         22.74     21.17     15.49 
 H(Fragment=2)         22.47     20.45     16.79 
 O(Fragment=2)         17.68     15.97     19.51 
 H(Fragment=2)         17.52     15.03     19.6 
 H(Fragment=2)         18.57     16.1      19.82 
 O(Fragment=2)         18.09     16.22     22.88 
 H(Fragment=2)         18.18     15.26     22.85 
 H(Fragment=2)         18.73     16.53     22.24 
 O(Fragment=2)         24.02     17.49     21.98 
 H(Fragment=2)         23.59     17.92     21.24 
 H(Fragment=2)         24.14     18.18     22.62 
 O(Fragment=2)         17.03     23.       17.61 
 H(Fragment=2)         17.22     22.11     17.34 
 H(Fragment=2)         16.98     23.5      16.79 
 O(Fragment=2)         21.79     18.54     24.9 
 H(Fragment=2)         21.16     18.85     24.25 
 H(Fragment=2)         22.63     18.91     24.61 
 O(Fragment=2)         18.73     21.28     24.27 
 H(Fragment=2)         18.96     22.13     23.9 
 H(Fragment=2)         18.8      21.41     25.22 
 O(Fragment=2)         14.81     20.78     18.72 
 H(Fragment=2)         15.48     20.14     18.94 
 H(Fragment=2)         15.03     21.55     19.24 
 O(Fragment=2)         17.35     17.52     16.98 
 H(Fragment=2)         16.56     17.85     17.41 
 H(Fragment=2)         17.63     16.79     17.54 
 O(Fragment=2)         18.43     23.68     22.74 
 H(Fragment=2)         18.08     23.86     21.87 
 H(Fragment=2)         18.2      24.46     23.26 
 O(Fragment=2)         22.11     15.58     22.5 
 H(Fragment=2)         22.78     16.26     22.44 
 H(Fragment=2)         21.35     15.96     22.06 
 O(Fragment=2)         15.44     22.46     20.82 
 H(Fragment=2)         16.3      22.78     21.08 
 H(Fragment=2)         15.02     22.22     21.65 
 O(Fragment=2)         23.19     22.38     23.42 
 H(Fragment=2)         23.62     23.09     23.89 
 H(Fragment=2)         22.95     22.76     22.58 
 O(Fragment=2)         22.37     16.02     18.68 
 H(Fragment=2)         22.73     16.42     17.88 
 H(Fragment=2)         23.1      15.55     19.07 
 O(Fragment=2)         25.44     21.4      21.07 
 H(Fragment=2)         25.05     22.25     20.87 
 H(Fragment=2)         24.74     20.77     20.91 
 O(Fragment=2)         19.57     17.56     15.53 
 H(Fragment=2)         18.7      17.62     15.93 
 H(Fragment=2)         19.49     18.06     14.72 
 O(Fragment=2)         16.77     19.93     15.15 
 H(Fragment=2)         15.82     19.96     15.27 
 H(Fragment=2)         17.12     19.87     16.04 
 O(Fragment=2)         22.65     24.93     21.61 
 H(Fragment=2)         22.64     25.18     20.68 
 H(Fragment=2)         22.       24.23     21.67 
 O(Fragment=2)         21.67     23.95     17. 
 H(Fragment=2)         22.25     23.2      16.84 
 H(Fragment=2)         21.38     24.22     16.13 
 O(Fragment=2)         23.99     19.63     23.72 
 H(Fragment=2)         23.56     20.47     23.53 
 H(Fragment=2)         24.89     19.75     23.44 
 O(Fragment=2)         20.11     15.23     16.9 
 H(Fragment=2)         19.85     15.92     16.29 
 H(Fragment=2)         20.69     15.67     17.52 
 O(Fragment=2)         14.93     16.51     19.87 
 H(Fragment=2)         15.81     16.47     19.49 
 H(Fragment=2)         15.       15.99     20.67 
 O(Fragment=2)         24.91     18.24     18. 
 H(Fragment=2)         25.66     18.36     17.41 
 H(Fragment=2)         25.29     18.14     18.87 
 O(Fragment=2)         19.22     25.31     17.13 
 H(Fragment=2)         20.06     24.87     17.26 
 H(Fragment=2)         19.1      25.82     17.93 
 O(Fragment=2)         21.04     22.93     25.32 
 H(Fragment=2)         21.68     22.58     24.71 
 H(Fragment=2)         20.93     22.24     25.97 
 O(Fragment=2)         15.61     17.24     23.63 
 H(Fragment=2)         15.66     18.18     23.82 
 H(Fragment=2)         16.47     17.02     23.26 
 O(Fragment=2)         22.28     25.82     19.09 
 H(Fragment=2)         22.13     26.64     18.62 
 H(Fragment=2)         22.14     25.14     18.43 
 O(Fragment=2)         19.43     21.57     14.34 
 H(Fragment=2)         18.55     21.22     14.51 
 H(Fragment=2)         19.32     22.12     13.56 
 O(Fragment=2)         22.97     16.61     16.04 
 H(Fragment=2)         22.71     16.9      15.17 
 H(Fragment=2)         23.72     17.17     16.26 
 O(Fragment=2)         18.13     16.81     25.67 
 H(Fragment=2)         18.11     16.82     24.71 
 H(Fragment=2)         18.32     17.71     25.92 
 O(Fragment=2)         22.19     21.66     13.84 
 H(Fragment=2)         21.31     21.7      14.2 
 H(Fragment=2)         22.3      22.5      13.39 
 O(Fragment=2)         24.38     23.34     15.6 
 H(Fragment=2)         24.86     23.91     16.2 
 H(Fragment=2)         24.12     22.59     16.14 
 O(Fragment=2)         14.64     17.95     17.54 
 H(Fragment=2)         14.6      17.18     16.97 
 H(Fragment=2)         14.44     17.61     18.42 
 O(Fragment=2)         18.73     26.69     19.33 
 H(Fragment=2)         18.2      26.01     19.75 
 H(Fragment=2)         18.39     27.51     19.67 
 O(Fragment=2)         14.35     24.04     18.1 
 H(Fragment=2)         15.25     23.7      18.16 
 H(Fragment=2)         14.18     24.4      18.97 
 O(Fragment=2)         16.67     25.54     20.74 
 H(Fragment=2)         15.76     25.38     20.5 
 H(Fragment=2)         16.64     25.78     21.66 
 O(Fragment=2)         20.91     20.26     26.87 
 H(Fragment=2)         21.31     19.55     26.36 
 H(Fragment=2)         20.       20.       26.98 
 O(Fragment=2)         21.89     13.       21.24 
 H(Fragment=2)         21.76     12.57     22.08 
 H(Fragment=2)         22.13     13.9      21.46 
 O(Fragment=2)         17.09     24.79     15.38 
 H(Fragment=2)         16.84     25.68     15.15 
 H(Fragment=2)         17.59     24.89     16.19 
 O(Fragment=2)         26.37     17.85     20.11 
 H(Fragment=2)         26.06     17.38     20.88 
 H(Fragment=2)         26.89     18.57     20.45 
 O(Fragment=2)         25.68     15.38     21.47 
 H(Fragment=2)         25.16     16.13     21.77 
 H(Fragment=2)         25.29     15.15     20.62 
 O(Fragment=2)         15.98     19.89     26.3 
 H(Fragment=2)         16.04     20.34     25.46 
 H(Fragment=2)         15.14     20.19     26.67 
 O(Fragment=2)         13.46     17.48     21.82 
 H(Fragment=2)         14.07     17.34     22.55 
 H(Fragment=2)         13.93     17.16     21.05 
 O(Fragment=2)         12.59     20.09     21.34 
 H(Fragment=2)         13.38     19.61     21.59 
 H(Fragment=2)         11.87     19.52     21.6 
 O(Fragment=2)         19.69     27.18     22.26 
 H(Fragment=2)         19.64     27.01     21.32 
 H(Fragment=2)         19.86     26.32     22.65 
 O(Fragment=2)         18.2      13.42     22.03 
 H(Fragment=2)         18.55     12.55     22.22 
 H(Fragment=2)         18.06     13.42     21.08 
 O(Fragment=2)         18.6      13.18     16.42 
 H(Fragment=2)         18.51     12.64     17.2 
 H(Fragment=2)         19.13     13.93     16.7 
 O(Fragment=2)         20.71     24.73     14.57 
 H(Fragment=2)         20.36     24.8      13.68 
 H(Fragment=2)         19.99     25.01     15.14 
 O(Fragment=2)         26.71     22.3      23.18 
 H(Fragment=2)         27.52     21.8      23.11 
 H(Fragment=2)         26.23     22.08     22.39 
 O(Fragment=2)         14.42     22.51     23.56 
 H(Fragment=2)         14.89     23.18     24.06 
 H(Fragment=2)         14.25     21.81     24.19 
 O(Fragment=2)         15.25     14.86     22. 
 H(Fragment=2)         16.09     14.4      21.97 
 H(Fragment=2)         14.85     14.57     22.82 
 O(Fragment=2)         27.81     20.23     20.47 
 H(Fragment=2)         27.06     20.8      20.66 
 H(Fragment=2)         28.11     20.5      19.6 
 O(Fragment=2)         24.43     14.42     19.29 
 H(Fragment=2)         24.66     13.51     19.48 
 H(Fragment=2)         24.72     14.56     18.39 
 O(Fragment=2)         13.98     24.96     20.75 
 H(Fragment=2)         13.05     25.1      20.92 
 H(Fragment=2)         14.14     24.05     21.01 
 O(Fragment=2)         18.58     22.66     26.76 
 H(Fragment=2)         18.99     23.38     26.28 
 H(Fragment=2)         18.6      22.94     27.67 
 O(Fragment=2)         22.11     13.44     24.22 
 H(Fragment=2)         21.92     14.36     24.05 
 H(Fragment=2)         23.07     13.39     24.2 
 O(Fragment=2)         21.7      17.3      27.54 
 H(Fragment=2)         20.8      17.17     27.84 
 H(Fragment=2)         21.61     17.59     26.63 
 O(Fragment=2)         14.19     19.8      15.55 
 H(Fragment=2)         13.79     20.56     15.98 
 H(Fragment=2)         13.95     19.06     16.1 
 O(Fragment=2)         18.48     19.47     27.21 
 H(Fragment=2)         18.36     19.87     28.07 
 H(Fragment=2)         17.59     19.34     26.88 
 O(Fragment=2)         12.24     19.51     18.67 
 H(Fragment=2)         12.62     19.41     19.54 
 H(Fragment=2)         12.91     19.96     18.16 
 O(Fragment=2)         17.01     21.52     12.99 
 H(Fragment=2)         16.64     20.77     13.47 
 H(Fragment=2)         16.37     22.22     13.1 
 O(Fragment=2)         17.73     12.93     19.29 
 H(Fragment=2)         18.31     12.17     19.22 
 H(Fragment=2)         16.94     12.67     18.82 
 O(Fragment=2)         26.62     18.86     23.26 
 H(Fragment=2)         26.66     18.29     24.02 
 H(Fragment=2)         27.51     18.84     22.9 
 O(Fragment=2)         15.82     23.1      25.91 
 H(Fragment=2)         15.39     23.16     26.76 
 H(Fragment=2)         16.69     22.77     26.1 
 O(Fragment=2)         23.88     26.95     22.8 
 H(Fragment=2)         23.85     26.53     23.66 
 H(Fragment=2)         23.48     26.31     22.21 
 O(Fragment=2)         14.72     16.06     15.52 
 H(Fragment=2)         15.3      16.7      15.1 
 H(Fragment=2)         15.2      15.24     15.46 
 O(Fragment=2)         12.96     22.34     16.56 
 H(Fragment=2)         13.6      22.81     17.1 
 H(Fragment=2)         12.19     22.25     17.13 
 O(Fragment=2)         26.46     21.41     15.32 
 H(Fragment=2)         26.96     21.44     14.5 
 H(Fragment=2)         25.57     21.67     15.07 
 O(Fragment=2)         25.04     21.3      26.34 
 H(Fragment=2)         25.12     20.68     25.62 
 H(Fragment=2)         24.63     20.8      27.05 
 O(Fragment=2)         21.74     13.87     14.38 
 H(Fragment=2)         22.03     14.63     13.88 
 H(Fragment=2)         21.43     14.23     15.21 
 O(Fragment=2)         27.2      23.43     19.17 
 H(Fragment=2)         26.52     23.92     18.71 
 H(Fragment=2)         27.22     23.81     20.05 
 O(Fragment=2)         21.67     25.54     26.18 
 H(Fragment=2)         21.3      24.67     26.03 
 H(Fragment=2)         22.27     25.67     25.44 
 O(Fragment=2)         22.73     19.65     11.88 
 H(Fragment=2)         23.12     20.3      11.3 
 H(Fragment=2)         22.51     20.14     12.68 
 O(Fragment=2)         25.13     14.72     16.4 
 H(Fragment=2)         25.99     15.13     16.35 
 H(Fragment=2)         24.56     15.29     15.88 
 O(Fragment=2)         17.07     26.04     24.02 
 H(Fragment=2)         16.4      26.48     23.5 
 H(Fragment=2)         16.73     26.05     24.91 
 O(Fragment=2)         19.4      18.42     12.35 
 H(Fragment=2)         18.7      18.96     11.99 
 H(Fragment=2)         20.21     18.9      12.15 
 O(Fragment=2)         15.74     17.2      26.79 
 H(Fragment=2)         16.55     16.93     26.36 
 H(Fragment=2)         15.51     18.03     26.38 
 O(Fragment=2)         19.04     14.49     26.53 
 H(Fragment=2)         18.58     13.82     26.01 
 H(Fragment=2)         18.7      15.32     26.19 
 O(Fragment=2)         25.69     25.1      17.65 
 H(Fragment=2)         26.04     25.61     18.39 
 H(Fragment=2)         25.41     25.77     17.02 
 O(Fragment=2)         27.58     19.23     16.75 
 H(Fragment=2)         27.22     20.09     16.52 
 H(Fragment=2)         28.45     19.21     16.35 
 O(Fragment=2)         22.84     17.16     12.95 
 H(Fragment=2)         23.66     17.18     13.45 
 H(Fragment=2)         22.82     18.       12.48 
 O(Fragment=2)         26.62     24.54     21.7 
 H(Fragment=2)         26.57     23.94     22.44 
 H(Fragment=2)         27.16     25.26     22.02 
 O(Fragment=2)         23.26     25.88     14.43 
 H(Fragment=2)         23.95     25.23     14.28 
 H(Fragment=2)         22.45     25.37     14.43 
 O(Fragment=2)         11.82     22.89     21.16 
 H(Fragment=2)         12.21     22.21     20.61 
 H(Fragment=2)         12.19     22.74     22.03 
 O(Fragment=2)         24.55     12.79     22.38 
 H(Fragment=2)         25.08     13.58     22.41 
 H(Fragment=2)         23.83     13.       21.78 
 O(Fragment=2)         28.5      16.92     18.92 
 H(Fragment=2)         29.15     17.35     19.47 
 H(Fragment=2)         27.65     17.2      19.28 
 O(Fragment=2)         20.23     15.45     12.41 
 H(Fragment=2)         21.1      15.13     12.16 
 H(Fragment=2)         20.37     16.37     12.64 
 O(Fragment=2)         19.69     28.06     15.82 
 H(Fragment=2)         20.58     28.4      15.91 
 H(Fragment=2)         19.6      27.44     16.54 
 O(Fragment=2)         25.16     17.09     14.15 
 H(Fragment=2)         25.9      17.68     14. 
 H(Fragment=2)         25.36     16.31     13.63 
 O(Fragment=2)         15.07     23.59     13.56 
 H(Fragment=2)         14.17     23.27     13.49 
 H(Fragment=2)         15.15     23.9      14.46 
 O(Fragment=2)         25.01     23.74     13.15 
 H(Fragment=2)         24.74     23.48     14.04 
 H(Fragment=2)         25.76     24.31     13.29 
 O(Fragment=2)         19.02     17.       28.51 
 H(Fragment=2)         18.25     16.45     28.66 
 H(Fragment=2)         18.71     17.71     27.95 
 O(Fragment=2)         24.25     25.21     25.04 
 H(Fragment=2)         24.24     24.79     25.9 
 H(Fragment=2)         25.09     24.93     24.66 
 O(Fragment=2)         13.71     14.8      24.26 
 H(Fragment=2)         14.26     15.58     24.27 
 H(Fragment=2)         12.81     15.13     24.26 
 O(Fragment=2)         22.03     22.28     28.58 
 H(Fragment=2)         21.84     21.45     28.13 
 H(Fragment=2)         21.21     22.5      29.03 
 O(Fragment=2)         22.33     27.63     17.16 
 H(Fragment=2)         22.38     28.56     17.38 
 H(Fragment=2)         23.23     27.38     16.94 
 O(Fragment=2)         14.2      26.4      16.49 
 H(Fragment=2)         14.37     25.58     16.96 
 H(Fragment=2)         13.25     26.49     16.51 
 O(Fragment=2)         15.31     12.58     18.12 
 H(Fragment=2)         14.76     11.94     18.58 
 H(Fragment=2)         14.86     13.41     18.24 
 O(Fragment=2)         22.42     11.12     19.02 
 H(Fragment=2)         21.83     11.41     18.32 
 H(Fragment=2)         22.17     11.65     19.78 
 O(Fragment=2)         26.01     26.73     19.7 
 H(Fragment=2)         25.81     27.52     20.2 
 H(Fragment=2)         26.22     26.07     20.35 
 O(Fragment=2)         24.16     19.14     28.09 
 H(Fragment=2)         24.77     18.42     28.23 
 H(Fragment=2)         23.31     18.71     27.95 
 O(Fragment=2)         16.01     13.36     15.33 
 H(Fragment=2)         15.53     13.12     16.13 
 H(Fragment=2)         16.91     13.11     15.51 
 O(Fragment=2)         14.88     27.11     22.35 
 H(Fragment=2)         14.42     27.95     22.32 
 H(Fragment=2)         14.35     26.52     21.81 
 O(Fragment=2)         28.5      22.75     16.93 
 H(Fragment=2)         28.23     22.85     17.84 
 H(Fragment=2)         27.7      22.48     16.47 
 O(Fragment=2)         11.67     16.27     18.74 
 H(Fragment=2)         11.92     15.94     19.61 
 H(Fragment=2)         11.66     17.22     18.84 
 O(Fragment=2)         10.73     17.45     21.54 
 H(Fragment=2)         11.64     17.46     21.81 
 H(Fragment=2)         10.35     16.7      22. 
 O(Fragment=2)         27.44     16.07     16.17 
 H(Fragment=2)         27.67     16.62     16.91 
 H(Fragment=2)         27.9      16.45     15.43 
 O(Fragment=2)         17.98     28.52     24.58 
 H(Fragment=2)         18.14     27.58     24.46 
 H(Fragment=2)         18.79     28.86     24.95 
 O(Fragment=2)         21.       28.51     24.41 
 H(Fragment=2)         20.74     29.43     24.51 
 H(Fragment=2)         20.68     28.27     23.54 
 O(Fragment=2)         24.3      12.16     15.98 
 H(Fragment=2)         24.42     13.08     16.23 
 H(Fragment=2)         24.86     11.67     16.58 
 O(Fragment=2)         17.76     14.39     12.68 
 H(Fragment=2)         18.22     13.61     12.99 
 H(Fragment=2)         18.44     15.05     12.6 
 O(Fragment=2)         28.4      15.61     22.22 
 H(Fragment=2)         29.05     15.23     21.63 
 H(Fragment=2)         27.56     15.38     21.83 
 O(Fragment=2)         23.85     24.14     27.77 
 H(Fragment=2)         24.4      23.61     28.35 
 H(Fragment=2)         23.03     23.65     27.72 
 O(Fragment=2)         21.48     13.32     26.83 
 H(Fragment=2)         21.72     13.08     25.93 
 H(Fragment=2)         20.74     13.92     26.73 
 O(Fragment=2)         21.14     11.42     16.53 
 H(Fragment=2)         20.87     11.01     15.72 
 H(Fragment=2)         21.93     11.91     16.3 
 O(Fragment=2)         17.73     19.93     10.6 
 H(Fragment=2)         18.38     20.48     10.18 
 H(Fragment=2)         17.35     20.48     11.29 
 O(Fragment=2)         18.05     12.19     25.31 
 H(Fragment=2)         17.1      12.1      25.31 
 H(Fragment=2)         18.3      12.17     24.39 
 O(Fragment=2)         17.22     29.05     19.83 
 H(Fragment=2)         16.87     29.92     19.61 
 H(Fragment=2)         16.5      28.45     19.65 
 O(Fragment=2)         13.18     21.43     25.94 
 H(Fragment=2)         12.61     21.87     25.31 
 H(Fragment=2)         12.58     21.05     26.58 
 
 NAtoms=    385 NQM=      385 NQMF=       0 NMMI=      0 NMMIF=      0
                NMic=       0 NMicF=      0.
                    Isotopes and Nuclear Properties:
 (Nuclear quadrupole moments (NQMom) in fm**2, nuclear magnetic moments (NMagM)
  in nuclear magnetons)

  Atom         1           2           3           4           5           6           7           8           9          10
 IAtWgt=          79          16           1           1          16           1           1          16           1           1
 AtmWgt=  78.9183361  15.9949146   1.0078250   1.0078250  15.9949146   1.0078250   1.0078250  15.9949146   1.0078250   1.0078250
 NucSpn=           3           0           1           1           0           1           1           0           1           1
 AtZEff=   0.0000000   0.0000000   0.0000000   0.0000000   0.0000000   0.0000000   0.0000000   0.0000000   0.0000000   0.0000000
 NQMom=   31.3000000   0.0000000   0.0000000   0.0000000   0.0000000   0.0000000   0.0000000   0.0000000   0.0000000   0.0000000
 NMagM=    2.1063990   0.0000000   2.7928460   2.7928460   0.0000000   2.7928460   2.7928460   0.0000000   2.7928460   2.7928460
 AtZNuc=  35.0000000   8.0000000   1.0000000   1.0000000   8.0000000   1.0000000   1.0000000   8.0000000   1.0000000   1.0000000

  Atom        11          12          13          14          15          16          17          18          19          20
 IAtWgt=          16           1           1          16           1           1          16           1           1          16
 AtmWgt=  15.9949146   1.0078250   1.0078250  15.9949146   1.0078250   1.0078250  15.9949146   1.0078250   1.0078250  15.9949146
 NucSpn=           0           1           1           0           1           1           0           1           1           0
 AtZEff=   0.0000000   0.0000000   0.0000000   0.0000000   0.0000000   0.0000000   0.0000000   0.0000000   0.0000000   0.0000000
 NQMom=    0.0000000   0.0000000   0.0000000   0.0000000   0.0000000   0.0000000   0.0000000   0.0000000   0.0000000   0.0000000
 NMagM=    0.0000000   2.7928460   2.7928460   0.0000000   2.7928460   2.7928460   0.0000000   2.7928460   2.7928460   0.0000000
 AtZNuc=   8.0000000   1.0000000   1.0000000   8.0000000   1.0000000   1.0000000   8.0000000   1.0000000   1.0000000   8.0000000

  Atom        21          22          23          24          25          26          27          28          29          30
 IAtWgt=           1           1          16           1           1          16           1           1          16           1
 AtmWgt=   1.0078250   1.0078250  15.9949146   1.0078250   1.0078250  15.9949146   1.0078250   1.0078250  15.9949146   1.0078250
 NucSpn=           1           1           0           1           1           0           1           1           0           1
 AtZEff=   0.0000000   0.0000000   0.0000000   0.0000000   0.0000000   0.0000000   0.0000000   0.0000000   0.0000000   0.0000000
 NQMom=    0.0000000   0.0000000   0.0000000   0.0000000   0.0000000   0.0000000   0.0000000   0.0000000   0.0000000   0.0000000
 NMagM=    2.7928460   2.7928460   0.0000000   2.7928460   2.7928460   0.0000000   2.7928460   2.7928460   0.0000000   2.7928460
 AtZNuc=   1.0000000   1.0000000   8.0000000   1.0000000   1.0000000   8.0000000   1.0000000   1.0000000   8.0000000   1.0000000

  Atom        31          32          33          34          35          36          37          38          39          40
 IAtWgt=           1          16           1           1          16           1           1          16           1           1
 AtmWgt=   1.0078250  15.9949146   1.0078250   1.0078250  15.9949146   1.0078250   1.0078250  15.9949146   1.0078250   1.0078250
 NucSpn=           1           0           1           1           0           1           1           0           1           1
 AtZEff=   0.0000000   0.0000000   0.0000000   0.0000000   0.0000000   0.0000000   0.0000000   0.0000000   0.0000000   0.0000000
 NQMom=    0.0000000   0.0000000   0.0000000   0.0000000   0.0000000   0.0000000   0.0000000   0.0000000   0.0000000   0.0000000
 NMagM=    2.7928460   0.0000000   2.7928460   2.7928460   0.0000000   2.7928460   2.7928460   0.0000000   2.7928460   2.7928460
 AtZNuc=   1.0000000   8.0000000   1.0000000   1.0000000   8.0000000   1.0000000   1.0000000   8.0000000   1.0000000   1.0000000

  Atom        41          42          43          44          45          46          47          48          49          50
 IAtWgt=          16           1           1          16           1           1          16           1           1          16
 AtmWgt=  15.9949146   1.0078250   1.0078250  15.9949146   1.0078250   1.0078250  15.9949146   1.0078250   1.0078250  15.9949146
 NucSpn=           0           1           1           0           1           1           0           1           1           0
 AtZEff=   0.0000000   0.0000000   0.0000000   0.0000000   0.0000000   0.0000000   0.0000000   0.0000000   0.0000000   0.0000000
 NQMom=    0.0000000   0.0000000   0.0000000   0.0000000   0.0000000   0.0000000   0.0000000   0.0000000   0.0000000   0.0000000
 NMagM=    0.0000000   2.7928460   2.7928460   0.0000000   2.7928460   2.7928460   0.0000000   2.7928460   2.7928460   0.0000000
 AtZNuc=   8.0000000   1.0000000   1.0000000   8.0000000   1.0000000   1.0000000   8.0000000   1.0000000   1.0000000   8.0000000

  Atom        51          52          53          54          55          56          57          58          59          60
 IAtWgt=           1           1          16           1           1          16           1           1          16           1
 AtmWgt=   1.0078250   1.0078250  15.9949146   1.0078250   1.0078250  15.9949146   1.0078250   1.0078250  15.9949146   1.0078250
 NucSpn=           1           1           0           1           1           0           1           1           0           1
 AtZEff=   0.0000000   0.0000000   0.0000000   0.0000000   0.0000000   0.0000000   0.0000000   0.0000000   0.0000000   0.0000000
 NQMom=    0.0000000   0.0000000   0.0000000   0.0000000   0.0000000   0.0000000   0.0000000   0.0000000   0.0000000   0.0000000
 NMagM=    2.7928460   2.7928460   0.0000000   2.7928460   2.7928460   0.0000000   2.7928460   2.7928460   0.0000000   2.7928460
 AtZNuc=   1.0000000   1.0000000   8.0000000   1.0000000   1.0000000   8.0000000   1.0000000   1.0000000   8.0000000   1.0000000

  Atom        61          62          63          64          65          66          67          68          69          70
 IAtWgt=           1          16           1           1          16           1           1          16           1           1
 AtmWgt=   1.0078250  15.9949146   1.0078250   1.0078250  15.9949146   1.0078250   1.0078250  15.9949146   1.0078250   1.0078250
 NucSpn=           1           0           1           1           0           1           1           0           1           1
 AtZEff=   0.0000000   0.0000000   0.0000000   0.0000000   0.0000000   0.0000000   0.0000000   0.0000000   0.0000000   0.0000000
 NQMom=    0.0000000   0.0000000   0.0000000   0.0000000   0.0000000   0.0000000   0.0000000   0.0000000   0.0000000   0.0000000
 NMagM=    2.7928460   0.0000000   2.7928460   2.7928460   0.0000000   2.7928460   2.7928460   0.0000000   2.7928460   2.7928460
 AtZNuc=   1.0000000   8.0000000   1.0000000   1.0000000   8.0000000   1.0000000   1.0000000   8.0000000   1.0000000   1.0000000

  Atom        71          72          73          74          75          76          77          78          79          80
 IAtWgt=          16           1           1          16           1           1          16           1           1          16
 AtmWgt=  15.9949146   1.0078250   1.0078250  15.9949146   1.0078250   1.0078250  15.9949146   1.0078250   1.0078250  15.9949146
 NucSpn=           0           1           1           0           1           1           0           1           1           0
 AtZEff=   0.0000000   0.0000000   0.0000000   0.0000000   0.0000000   0.0000000   0.0000000   0.0000000   0.0000000   0.0000000
 NQMom=    0.0000000   0.0000000   0.0000000   0.0000000   0.0000000   0.0000000   0.0000000   0.0000000   0.0000000   0.0000000
 NMagM=    0.0000000   2.7928460   2.7928460   0.0000000   2.7928460   2.7928460   0.0000000   2.7928460   2.7928460   0.0000000
 AtZNuc=   8.0000000   1.0000000   1.0000000   8.0000000   1.0000000   1.0000000   8.0000000   1.0000000   1.0000000   8.0000000

  Atom        81          82          83          84          85          86          87          88          89          90
 IAtWgt=           1           1          16           1           1          16           1           1          16           1
 AtmWgt=   1.0078250   1.0078250  15.9949146   1.0078250   1.0078250  15.9949146   1.0078250   1.0078250  15.9949146   1.0078250
 NucSpn=           1           1           0           1           1           0           1           1           0           1
 AtZEff=   0.0000000   0.0000000   0.0000000   0.0000000   0.0000000   0.0000000   0.0000000   0.0000000   0.0000000   0.0000000
 NQMom=    0.0000000   0.0000000   0.0000000   0.0000000   0.0000000   0.0000000   0.0000000   0.0000000   0.0000000   0.0000000
 NMagM=    2.7928460   2.7928460   0.0000000   2.7928460   2.7928460   0.0000000   2.7928460   2.7928460   0.0000000   2.7928460
 AtZNuc=   1.0000000   1.0000000   8.0000000   1.0000000   1.0000000   8.0000000   1.0000000   1.0000000   8.0000000   1.0000000

  Atom        91          92          93          94          95          96          97          98          99         100
 IAtWgt=           1          16           1           1          16           1           1          16           1           1
 AtmWgt=   1.0078250  15.9949146   1.0078250   1.0078250  15.9949146   1.0078250   1.0078250  15.9949146   1.0078250   1.0078250
 NucSpn=           1           0           1           1           0           1           1           0           1           1
 AtZEff=   0.0000000   0.0000000   0.0000000   0.0000000   0.0000000   0.0000000   0.0000000   0.0000000   0.0000000   0.0000000
 NQMom=    0.0000000   0.0000000   0.0000000   0.0000000   0.0000000   0.0000000   0.0000000   0.0000000   0.0000000   0.0000000
 NMagM=    2.7928460   0.0000000   2.7928460   2.7928460   0.0000000   2.7928460   2.7928460   0.0000000   2.7928460   2.7928460
 AtZNuc=   1.0000000   8.0000000   1.0000000   1.0000000   8.0000000   1.0000000   1.0000000   8.0000000   1.0000000   1.0000000

  Atom       101         102         103         104         105         106         107         108         109         110
 IAtWgt=          16           1           1          16           1           1          16           1           1          16
 AtmWgt=  15.9949146   1.0078250   1.0078250  15.9949146   1.0078250   1.0078250  15.9949146   1.0078250   1.0078250  15.9949146
 NucSpn=           0           1           1           0           1           1           0           1           1           0
 AtZEff=   0.0000000   0.0000000   0.0000000   0.0000000   0.0000000   0.0000000   0.0000000   0.0000000   0.0000000   0.0000000
 NQMom=    0.0000000   0.0000000   0.0000000   0.0000000   0.0000000   0.0000000   0.0000000   0.0000000   0.0000000   0.0000000
 NMagM=    0.0000000   2.7928460   2.7928460   0.0000000   2.7928460   2.7928460   0.0000000   2.7928460   2.7928460   0.0000000
 AtZNuc=   8.0000000   1.0000000   1.0000000   8.0000000   1.0000000   1.0000000   8.0000000   1.0000000   1.0000000   8.0000000

  Atom       111         112         113         114         115         116         117         118         119         120
 IAtWgt=           1           1          16           1           1          16           1           1          16           1
 AtmWgt=   1.0078250   1.0078250  15.9949146   1.0078250   1.0078250  15.9949146   1.0078250   1.0078250  15.9949146   1.0078250
 NucSpn=           1           1           0           1           1           0           1           1           0           1
 AtZEff=   0.0000000   0.0000000   0.0000000   0.0000000   0.0000000   0.0000000   0.0000000   0.0000000   0.0000000   0.0000000
 NQMom=    0.0000000   0.0000000   0.0000000   0.0000000   0.0000000   0.0000000   0.0000000   0.0000000   0.0000000   0.0000000
 NMagM=    2.7928460   2.7928460   0.0000000   2.7928460   2.7928460   0.0000000   2.7928460   2.7928460   0.0000000   2.7928460
 AtZNuc=   1.0000000   1.0000000   8.0000000   1.0000000   1.0000000   8.0000000   1.0000000   1.0000000   8.0000000   1.0000000

  Atom       121         122         123         124         125         126         127         128         129         130
 IAtWgt=           1          16           1           1          16           1           1          16           1           1
 AtmWgt=   1.0078250  15.9949146   1.0078250   1.0078250  15.9949146   1.0078250   1.0078250  15.9949146   1.0078250   1.0078250
 NucSpn=           1           0           1           1           0           1           1           0           1           1
 AtZEff=   0.0000000   0.0000000   0.0000000   0.0000000   0.0000000   0.0000000   0.0000000   0.0000000   0.0000000   0.0000000
 NQMom=    0.0000000   0.0000000   0.0000000   0.0000000   0.0000000   0.0000000   0.0000000   0.0000000   0.0000000   0.0000000
 NMagM=    2.7928460   0.0000000   2.7928460   2.7928460   0.0000000   2.7928460   2.7928460   0.0000000   2.7928460   2.7928460
 AtZNuc=   1.0000000   8.0000000   1.0000000   1.0000000   8.0000000   1.0000000   1.0000000   8.0000000   1.0000000   1.0000000

  Atom       131         132         133         134         135         136         137         138         139         140
 IAtWgt=          16           1           1          16           1           1          16           1           1          16
 AtmWgt=  15.9949146   1.0078250   1.0078250  15.9949146   1.0078250   1.0078250  15.9949146   1.0078250   1.0078250  15.9949146
 NucSpn=           0           1           1           0           1           1           0           1           1           0
 AtZEff=   0.0000000   0.0000000   0.0000000   0.0000000   0.0000000   0.0000000   0.0000000   0.0000000   0.0000000   0.0000000
 NQMom=    0.0000000   0.0000000   0.0000000   0.0000000   0.0000000   0.0000000   0.0000000   0.0000000   0.0000000   0.0000000
 NMagM=    0.0000000   2.7928460   2.7928460   0.0000000   2.7928460   2.7928460   0.0000000   2.7928460   2.7928460   0.0000000
 AtZNuc=   8.0000000   1.0000000   1.0000000   8.0000000   1.0000000   1.0000000   8.0000000   1.0000000   1.0000000   8.0000000

  Atom       141         142         143         144         145         146         147         148         149         150
 IAtWgt=           1           1          16           1           1          16           1           1          16           1
 AtmWgt=   1.0078250   1.0078250  15.9949146   1.0078250   1.0078250  15.9949146   1.0078250   1.0078250  15.9949146   1.0078250
 NucSpn=           1           1           0           1           1           0           1           1           0           1
 AtZEff=   0.0000000   0.0000000   0.0000000   0.0000000   0.0000000   0.0000000   0.0000000   0.0000000   0.0000000   0.0000000
 NQMom=    0.0000000   0.0000000   0.0000000   0.0000000   0.0000000   0.0000000   0.0000000   0.0000000   0.0000000   0.0000000
 NMagM=    2.7928460   2.7928460   0.0000000   2.7928460   2.7928460   0.0000000   2.7928460   2.7928460   0.0000000   2.7928460
 AtZNuc=   1.0000000   1.0000000   8.0000000   1.0000000   1.0000000   8.0000000   1.0000000   1.0000000   8.0000000   1.0000000

  Atom       151         152         153         154         155         156         157         158         159         160
 IAtWgt=           1          16           1           1          16           1           1          16           1           1
 AtmWgt=   1.0078250  15.9949146   1.0078250   1.0078250  15.9949146   1.0078250   1.0078250  15.9949146   1.0078250   1.0078250
 NucSpn=           1           0           1           1           0           1           1           0           1           1
 AtZEff=   0.0000000   0.0000000   0.0000000   0.0000000   0.0000000   0.0000000   0.0000000   0.0000000   0.0000000   0.0000000
 NQMom=    0.0000000   0.0000000   0.0000000   0.0000000   0.0000000   0.0000000   0.0000000   0.0000000   0.0000000   0.0000000
 NMagM=    2.7928460   0.0000000   2.7928460   2.7928460   0.0000000   2.7928460   2.7928460   0.0000000   2.7928460   2.7928460
 AtZNuc=   1.0000000   8.0000000   1.0000000   1.0000000   8.0000000   1.0000000   1.0000000   8.0000000   1.0000000   1.0000000

  Atom       161         162         163         164         165         166         167         168         169         170
 IAtWgt=          16           1           1          16           1           1          16           1           1          16
 AtmWgt=  15.9949146   1.0078250   1.0078250  15.9949146   1.0078250   1.0078250  15.9949146   1.0078250   1.0078250  15.9949146
 NucSpn=           0           1           1           0           1           1           0           1           1           0
 AtZEff=   0.0000000   0.0000000   0.0000000   0.0000000   0.0000000   0.0000000   0.0000000   0.0000000   0.0000000   0.0000000
 NQMom=    0.0000000   0.0000000   0.0000000   0.0000000   0.0000000   0.0000000   0.0000000   0.0000000   0.0000000   0.0000000
 NMagM=    0.0000000   2.7928460   2.7928460   0.0000000   2.7928460   2.7928460   0.0000000   2.7928460   2.7928460   0.0000000
 AtZNuc=   8.0000000   1.0000000   1.0000000   8.0000000   1.0000000   1.0000000   8.0000000   1.0000000   1.0000000   8.0000000

  Atom       171         172         173         174         175         176         177         178         179         180
 IAtWgt=           1           1          16           1           1          16           1           1          16           1
 AtmWgt=   1.0078250   1.0078250  15.9949146   1.0078250   1.0078250  15.9949146   1.0078250   1.0078250  15.9949146   1.0078250
 NucSpn=           1           1           0           1           1           0           1           1           0           1
 AtZEff=   0.0000000   0.0000000   0.0000000   0.0000000   0.0000000   0.0000000   0.0000000   0.0000000   0.0000000   0.0000000
 NQMom=    0.0000000   0.0000000   0.0000000   0.0000000   0.0000000   0.0000000   0.0000000   0.0000000   0.0000000   0.0000000
 NMagM=    2.7928460   2.7928460   0.0000000   2.7928460   2.7928460   0.0000000   2.7928460   2.7928460   0.0000000   2.7928460
 AtZNuc=   1.0000000   1.0000000   8.0000000   1.0000000   1.0000000   8.0000000   1.0000000   1.0000000   8.0000000   1.0000000

  Atom       181         182         183         184         185         186         187         188         189         190
 IAtWgt=           1          16           1           1          16           1           1          16           1           1
 AtmWgt=   1.0078250  15.9949146   1.0078250   1.0078250  15.9949146   1.0078250   1.0078250  15.9949146   1.0078250   1.0078250
 NucSpn=           1           0           1           1           0           1           1           0           1           1
 AtZEff=   0.0000000   0.0000000   0.0000000   0.0000000   0.0000000   0.0000000   0.0000000   0.0000000   0.0000000   0.0000000
 NQMom=    0.0000000   0.0000000   0.0000000   0.0000000   0.0000000   0.0000000   0.0000000   0.0000000   0.0000000   0.0000000
 NMagM=    2.7928460   0.0000000   2.7928460   2.7928460   0.0000000   2.7928460   2.7928460   0.0000000   2.7928460   2.7928460
 AtZNuc=   1.0000000   8.0000000   1.0000000   1.0000000   8.0000000   1.0000000   1.0000000   8.0000000   1.0000000   1.0000000

  Atom       191         192         193         194         195         196         197         198         199         200
 IAtWgt=          16           1           1          16           1           1          16           1           1          16
 AtmWgt=  15.9949146   1.0078250   1.0078250  15.9949146   1.0078250   1.0078250  15.9949146   1.0078250   1.0078250  15.9949146
 NucSpn=           0           1           1           0           1           1           0           1           1           0
 AtZEff=   0.0000000   0.0000000   0.0000000   0.0000000   0.0000000   0.0000000   0.0000000   0.0000000   0.0000000   0.0000000
 NQMom=    0.0000000   0.0000000   0.0000000   0.0000000   0.0000000   0.0000000   0.0000000   0.0000000   0.0000000   0.0000000
 NMagM=    0.0000000   2.7928460   2.7928460   0.0000000   2.7928460   2.7928460   0.0000000   2.7928460   2.7928460   0.0000000
 AtZNuc=   8.0000000   1.0000000   1.0000000   8.0000000   1.0000000   1.0000000   8.0000000   1.0000000   1.0000000   8.0000000

  Atom       201         202         203         204         205         206         207         208         209         210
 IAtWgt=           1           1          16           1           1          16           1           1          16           1
 AtmWgt=   1.0078250   1.0078250  15.9949146   1.0078250   1.0078250  15.9949146   1.0078250   1.0078250  15.9949146   1.0078250
 NucSpn=           1           1           0           1           1           0           1           1           0           1
 AtZEff=   0.0000000   0.0000000   0.0000000   0.0000000   0.0000000   0.0000000   0.0000000   0.0000000   0.0000000   0.0000000
 NQMom=    0.0000000   0.0000000   0.0000000   0.0000000   0.0000000   0.0000000   0.0000000   0.0000000   0.0000000   0.0000000
 NMagM=    2.7928460   2.7928460   0.0000000   2.7928460   2.7928460   0.0000000   2.7928460   2.7928460   0.0000000   2.7928460
 AtZNuc=   1.0000000   1.0000000   8.0000000   1.0000000   1.0000000   8.0000000   1.0000000   1.0000000   8.0000000   1.0000000

  Atom       211         212         213         214         215         216         217         218         219         220
 IAtWgt=           1          16           1           1          16           1           1          16           1           1
 AtmWgt=   1.0078250  15.9949146   1.0078250   1.0078250  15.9949146   1.0078250   1.0078250  15.9949146   1.0078250   1.0078250
 NucSpn=           1           0           1           1           0           1           1           0           1           1
 AtZEff=   0.0000000   0.0000000   0.0000000   0.0000000   0.0000000   0.0000000   0.0000000   0.0000000   0.0000000   0.0000000
 NQMom=    0.0000000   0.0000000   0.0000000   0.0000000   0.0000000   0.0000000   0.0000000   0.0000000   0.0000000   0.0000000
 NMagM=    2.7928460   0.0000000   2.7928460   2.7928460   0.0000000   2.7928460   2.7928460   0.0000000   2.7928460   2.7928460
 AtZNuc=   1.0000000   8.0000000   1.0000000   1.0000000   8.0000000   1.0000000   1.0000000   8.0000000   1.0000000   1.0000000

  Atom       221         222         223         224         225         226         227         228         229         230
 IAtWgt=          16           1           1          16           1           1          16           1           1          16
 AtmWgt=  15.9949146   1.0078250   1.0078250  15.9949146   1.0078250   1.0078250  15.9949146   1.0078250   1.0078250  15.9949146
 NucSpn=           0           1           1           0           1           1           0           1           1           0
 AtZEff=   0.0000000   0.0000000   0.0000000   0.0000000   0.0000000   0.0000000   0.0000000   0.0000000   0.0000000   0.0000000
 NQMom=    0.0000000   0.0000000   0.0000000   0.0000000   0.0000000   0.0000000   0.0000000   0.0000000   0.0000000   0.0000000
 NMagM=    0.0000000   2.7928460   2.7928460   0.0000000   2.7928460   2.7928460   0.0000000   2.7928460   2.7928460   0.0000000
 AtZNuc=   8.0000000   1.0000000   1.0000000   8.0000000   1.0000000   1.0000000   8.0000000   1.0000000   1.0000000   8.0000000

  Atom       231         232         233         234         235         236         237         238         239         240
 IAtWgt=           1           1          16           1           1          16           1           1          16           1
 AtmWgt=   1.0078250   1.0078250  15.9949146   1.0078250   1.0078250  15.9949146   1.0078250   1.0078250  15.9949146   1.0078250
 NucSpn=           1           1           0           1           1           0           1           1           0           1
 AtZEff=   0.0000000   0.0000000   0.0000000   0.0000000   0.0000000   0.0000000   0.0000000   0.0000000   0.0000000   0.0000000
 NQMom=    0.0000000   0.0000000   0.0000000   0.0000000   0.0000000   0.0000000   0.0000000   0.0000000   0.0000000   0.0000000
 NMagM=    2.7928460   2.7928460   0.0000000   2.7928460   2.7928460   0.0000000   2.7928460   2.7928460   0.0000000   2.7928460
 AtZNuc=   1.0000000   1.0000000   8.0000000   1.0000000   1.0000000   8.0000000   1.0000000   1.0000000   8.0000000   1.0000000

  Atom       241         242         243         244         245         246         247         248         249         250
 IAtWgt=           1          16           1           1          16           1           1          16           1           1
 AtmWgt=   1.0078250  15.9949146   1.0078250   1.0078250  15.9949146   1.0078250   1.0078250  15.9949146   1.0078250   1.0078250
 NucSpn=           1           0           1           1           0           1           1           0           1           1
 AtZEff=   0.0000000   0.0000000   0.0000000   0.0000000   0.0000000   0.0000000   0.0000000   0.0000000   0.0000000   0.0000000
 NQMom=    0.0000000   0.0000000   0.0000000   0.0000000   0.0000000   0.0000000   0.0000000   0.0000000   0.0000000   0.0000000
 NMagM=    2.7928460   0.0000000   2.7928460   2.7928460   0.0000000   2.7928460   2.7928460   0.0000000   2.7928460   2.7928460
 AtZNuc=   1.0000000   8.0000000   1.0000000   1.0000000   8.0000000   1.0000000   1.0000000   8.0000000   1.0000000   1.0000000

  Atom       251         252         253         254         255         256         257         258         259         260
 IAtWgt=          16           1           1          16           1           1          16           1           1          16
 AtmWgt=  15.9949146   1.0078250   1.0078250  15.9949146   1.0078250   1.0078250  15.9949146   1.0078250   1.0078250  15.9949146
 NucSpn=           0           1           1           0           1           1           0           1           1           0
 AtZEff=   0.0000000   0.0000000   0.0000000   0.0000000   0.0000000   0.0000000   0.0000000   0.0000000   0.0000000   0.0000000
 NQMom=    0.0000000   0.0000000   0.0000000   0.0000000   0.0000000   0.0000000   0.0000000   0.0000000   0.0000000   0.0000000
 NMagM=    0.0000000   2.7928460   2.7928460   0.0000000   2.7928460   2.7928460   0.0000000   2.7928460   2.7928460   0.0000000
 AtZNuc=   8.0000000   1.0000000   1.0000000   8.0000000   1.0000000   1.0000000   8.0000000   1.0000000   1.0000000   8.0000000

  Atom       261         262         263         264         265         266         267         268         269         270
 IAtWgt=           1           1          16           1           1          16           1           1          16           1
 AtmWgt=   1.0078250   1.0078250  15.9949146   1.0078250   1.0078250  15.9949146   1.0078250   1.0078250  15.9949146   1.0078250
 NucSpn=           1           1           0           1           1           0           1           1           0           1
 AtZEff=   0.0000000   0.0000000   0.0000000   0.0000000   0.0000000   0.0000000   0.0000000   0.0000000   0.0000000   0.0000000
 NQMom=    0.0000000   0.0000000   0.0000000   0.0000000   0.0000000   0.0000000   0.0000000   0.0000000   0.0000000   0.0000000
 NMagM=    2.7928460   2.7928460   0.0000000   2.7928460   2.7928460   0.0000000   2.7928460   2.7928460   0.0000000   2.7928460
 AtZNuc=   1.0000000   1.0000000   8.0000000   1.0000000   1.0000000   8.0000000   1.0000000   1.0000000   8.0000000   1.0000000

  Atom       271         272         273         274         275         276         277         278         279         280
 IAtWgt=           1          16           1           1          16           1           1          16           1           1
 AtmWgt=   1.0078250  15.9949146   1.0078250   1.0078250  15.9949146   1.0078250   1.0078250  15.9949146   1.0078250   1.0078250
 NucSpn=           1           0           1           1           0           1           1           0           1           1
 AtZEff=   0.0000000   0.0000000   0.0000000   0.0000000   0.0000000   0.0000000   0.0000000   0.0000000   0.0000000   0.0000000
 NQMom=    0.0000000   0.0000000   0.0000000   0.0000000   0.0000000   0.0000000   0.0000000   0.0000000   0.0000000   0.0000000
 NMagM=    2.7928460   0.0000000   2.7928460   2.7928460   0.0000000   2.7928460   2.7928460   0.0000000   2.7928460   2.7928460
 AtZNuc=   1.0000000   8.0000000   1.0000000   1.0000000   8.0000000   1.0000000   1.0000000   8.0000000   1.0000000   1.0000000

  Atom       281         282         283         284         285         286         287         288         289         290
 IAtWgt=          16           1           1          16           1           1          16           1           1          16
 AtmWgt=  15.9949146   1.0078250   1.0078250  15.9949146   1.0078250   1.0078250  15.9949146   1.0078250   1.0078250  15.9949146
 NucSpn=           0           1           1           0           1           1           0           1           1           0
 AtZEff=   0.0000000   0.0000000   0.0000000   0.0000000   0.0000000   0.0000000   0.0000000   0.0000000   0.0000000   0.0000000
 NQMom=    0.0000000   0.0000000   0.0000000   0.0000000   0.0000000   0.0000000   0.0000000   0.0000000   0.0000000   0.0000000
 NMagM=    0.0000000   2.7928460   2.7928460   0.0000000   2.7928460   2.7928460   0.0000000   2.7928460   2.7928460   0.0000000
 AtZNuc=   8.0000000   1.0000000   1.0000000   8.0000000   1.0000000   1.0000000   8.0000000   1.0000000   1.0000000   8.0000000

  Atom       291         292         293         294         295         296         297         298         299         300
 IAtWgt=           1           1          16           1           1          16           1           1          16           1
 AtmWgt=   1.0078250   1.0078250  15.9949146   1.0078250   1.0078250  15.9949146   1.0078250   1.0078250  15.9949146   1.0078250
 NucSpn=           1           1           0           1           1           0           1           1           0           1
 AtZEff=   0.0000000   0.0000000   0.0000000   0.0000000   0.0000000   0.0000000   0.0000000   0.0000000   0.0000000   0.0000000
 NQMom=    0.0000000   0.0000000   0.0000000   0.0000000   0.0000000   0.0000000   0.0000000   0.0000000   0.0000000   0.0000000
 NMagM=    2.7928460   2.7928460   0.0000000   2.7928460   2.7928460   0.0000000   2.7928460   2.7928460   0.0000000   2.7928460
 AtZNuc=   1.0000000   1.0000000   8.0000000   1.0000000   1.0000000   8.0000000   1.0000000   1.0000000   8.0000000   1.0000000

  Atom       301         302         303         304         305         306         307         308         309         310
 IAtWgt=           1          16           1           1          16           1           1          16           1           1
 AtmWgt=   1.0078250  15.9949146   1.0078250   1.0078250  15.9949146   1.0078250   1.0078250  15.9949146   1.0078250   1.0078250
 NucSpn=           1           0           1           1           0           1           1           0           1           1
 AtZEff=   0.0000000   0.0000000   0.0000000   0.0000000   0.0000000   0.0000000   0.0000000   0.0000000   0.0000000   0.0000000
 NQMom=    0.0000000   0.0000000   0.0000000   0.0000000   0.0000000   0.0000000   0.0000000   0.0000000   0.0000000   0.0000000
 NMagM=    2.7928460   0.0000000   2.7928460   2.7928460   0.0000000   2.7928460   2.7928460   0.0000000   2.7928460   2.7928460
 AtZNuc=   1.0000000   8.0000000   1.0000000   1.0000000   8.0000000   1.0000000   1.0000000   8.0000000   1.0000000   1.0000000

  Atom       311         312         313         314         315         316         317         318         319         320
 IAtWgt=          16           1           1          16           1           1          16           1           1          16
 AtmWgt=  15.9949146   1.0078250   1.0078250  15.9949146   1.0078250   1.0078250  15.9949146   1.0078250   1.0078250  15.9949146
 NucSpn=           0           1           1           0           1           1           0           1           1           0
 AtZEff=   0.0000000   0.0000000   0.0000000   0.0000000   0.0000000   0.0000000   0.0000000   0.0000000   0.0000000   0.0000000
 NQMom=    0.0000000   0.0000000   0.0000000   0.0000000   0.0000000   0.0000000   0.0000000   0.0000000   0.0000000   0.0000000
 NMagM=    0.0000000   2.7928460   2.7928460   0.0000000   2.7928460   2.7928460   0.0000000   2.7928460   2.7928460   0.0000000
 AtZNuc=   8.0000000   1.0000000   1.0000000   8.0000000   1.0000000   1.0000000   8.0000000   1.0000000   1.0000000   8.0000000

  Atom       321         322         323         324         325         326         327         328         329         330
 IAtWgt=           1           1          16           1           1          16           1           1          16           1
 AtmWgt=   1.0078250   1.0078250  15.9949146   1.0078250   1.0078250  15.9949146   1.0078250   1.0078250  15.9949146   1.0078250
 NucSpn=           1           1           0           1           1           0           1           1           0           1
 AtZEff=   0.0000000   0.0000000   0.0000000   0.0000000   0.0000000   0.0000000   0.0000000   0.0000000   0.0000000   0.0000000
 NQMom=    0.0000000   0.0000000   0.0000000   0.0000000   0.0000000   0.0000000   0.0000000   0.0000000   0.0000000   0.0000000
 NMagM=    2.7928460   2.7928460   0.0000000   2.7928460   2.7928460   0.0000000   2.7928460   2.7928460   0.0000000   2.7928460
 AtZNuc=   1.0000000   1.0000000   8.0000000   1.0000000   1.0000000   8.0000000   1.0000000   1.0000000   8.0000000   1.0000000

  Atom       331         332         333         334         335         336         337         338         339         340
 IAtWgt=           1          16           1           1          16           1           1          16           1           1
 AtmWgt=   1.0078250  15.9949146   1.0078250   1.0078250  15.9949146   1.0078250   1.0078250  15.9949146   1.0078250   1.0078250
 NucSpn=           1           0           1           1           0           1           1           0           1           1
 AtZEff=   0.0000000   0.0000000   0.0000000   0.0000000   0.0000000   0.0000000   0.0000000   0.0000000   0.0000000   0.0000000
 NQMom=    0.0000000   0.0000000   0.0000000   0.0000000   0.0000000   0.0000000   0.0000000   0.0000000   0.0000000   0.0000000
 NMagM=    2.7928460   0.0000000   2.7928460   2.7928460   0.0000000   2.7928460   2.7928460   0.0000000   2.7928460   2.7928460
 AtZNuc=   1.0000000   8.0000000   1.0000000   1.0000000   8.0000000   1.0000000   1.0000000   8.0000000   1.0000000   1.0000000

  Atom       341         342         343         344         345         346         347         348         349         350
 IAtWgt=          16           1           1          16           1           1          16           1           1          16
 AtmWgt=  15.9949146   1.0078250   1.0078250  15.9949146   1.0078250   1.0078250  15.9949146   1.0078250   1.0078250  15.9949146
 NucSpn=           0           1           1           0           1           1           0           1           1           0
 AtZEff=   0.0000000   0.0000000   0.0000000   0.0000000   0.0000000   0.0000000   0.0000000   0.0000000   0.0000000   0.0000000
 NQMom=    0.0000000   0.0000000   0.0000000   0.0000000   0.0000000   0.0000000   0.0000000   0.0000000   0.0000000   0.0000000
 NMagM=    0.0000000   2.7928460   2.7928460   0.0000000   2.7928460   2.7928460   0.0000000   2.7928460   2.7928460   0.0000000
 AtZNuc=   8.0000000   1.0000000   1.0000000   8.0000000   1.0000000   1.0000000   8.0000000   1.0000000   1.0000000   8.0000000

  Atom       351         352         353         354         355         356         357         358         359         360
 IAtWgt=           1           1          16           1           1          16           1           1          16           1
 AtmWgt=   1.0078250   1.0078250  15.9949146   1.0078250   1.0078250  15.9949146   1.0078250   1.0078250  15.9949146   1.0078250
 NucSpn=           1           1           0           1           1           0           1           1           0           1
 AtZEff=   0.0000000   0.0000000   0.0000000   0.0000000   0.0000000   0.0000000   0.0000000   0.0000000   0.0000000   0.0000000
 NQMom=    0.0000000   0.0000000   0.0000000   0.0000000   0.0000000   0.0000000   0.0000000   0.0000000   0.0000000   0.0000000
 NMagM=    2.7928460   2.7928460   0.0000000   2.7928460   2.7928460   0.0000000   2.7928460   2.7928460   0.0000000   2.7928460
 AtZNuc=   1.0000000   1.0000000   8.0000000   1.0000000   1.0000000   8.0000000   1.0000000   1.0000000   8.0000000   1.0000000

  Atom       361         362         363         364         365         366         367         368         369         370
 IAtWgt=           1          16           1           1          16           1           1          16           1           1
 AtmWgt=   1.0078250  15.9949146   1.0078250   1.0078250  15.9949146   1.0078250   1.0078250  15.9949146   1.0078250   1.0078250
 NucSpn=           1           0           1           1           0           1           1           0           1           1
 AtZEff=   0.0000000   0.0000000   0.0000000   0.0000000   0.0000000   0.0000000   0.0000000   0.0000000   0.0000000   0.0000000
 NQMom=    0.0000000   0.0000000   0.0000000   0.0000000   0.0000000   0.0000000   0.0000000   0.0000000   0.0000000   0.0000000
 NMagM=    2.7928460   0.0000000   2.7928460   2.7928460   0.0000000   2.7928460   2.7928460   0.0000000   2.7928460   2.7928460
 AtZNuc=   1.0000000   8.0000000   1.0000000   1.0000000   8.0000000   1.0000000   1.0000000   8.0000000   1.0000000   1.0000000

  Atom       371         372         373         374         375         376         377         378         379         380
 IAtWgt=          16           1           1          16           1           1          16           1           1          16
 AtmWgt=  15.9949146   1.0078250   1.0078250  15.9949146   1.0078250   1.0078250  15.9949146   1.0078250   1.0078250  15.9949146
 NucSpn=           0           1           1           0           1           1           0           1           1           0
 AtZEff=   0.0000000   0.0000000   0.0000000   0.0000000   0.0000000   0.0000000   0.0000000   0.0000000   0.0000000   0.0000000
 NQMom=    0.0000000   0.0000000   0.0000000   0.0000000   0.0000000   0.0000000   0.0000000   0.0000000   0.0000000   0.0000000
 NMagM=    0.0000000   2.7928460   2.7928460   0.0000000   2.7928460   2.7928460   0.0000000   2.7928460   2.7928460   0.0000000
 AtZNuc=   8.0000000   1.0000000   1.0000000   8.0000000   1.0000000   1.0000000   8.0000000   1.0000000   1.0000000   8.0000000

  Atom       381         382         383         384         385
 IAtWgt=           1           1          16           1           1
 AtmWgt=   1.0078250   1.0078250  15.9949146   1.0078250   1.0078250
 NucSpn=           1           1           0           1           1
 AtZEff=   0.0000000   0.0000000   0.0000000   0.0000000   0.0000000
 NQMom=    0.0000000   0.0000000   0.0000000   0.0000000   0.0000000
 NMagM=    2.7928460   2.7928460   0.0000000   2.7928460   2.7928460
 AtZNuc=   1.0000000   1.0000000   8.0000000   1.0000000   1.0000000
 Leave Link  101 at Sun May 13 19:08:52 2018, MaxMem= 14763950080 cpu:        33.3
 (Enter /cm/shared/gaussian/g09.e01/intel64-sandybridge/g09/l103.exe)

 GradGradGradGradGradGradGradGradGradGradGradGradGradGradGradGradGradGrad
 Berny optimization.
 Initialization pass.
 Trust Radius=3.00D-01 FncErr=1.00D-07 GrdErr=1.00D-07
 Number of steps in this run=      2 maximum allowed number of steps=      2.
 GradGradGradGradGradGradGradGradGradGradGradGradGradGradGradGradGradGrad

 Leave Link  103 at Sun May 13 19:08:52 2018, MaxMem= 14763950080 cpu:         3.7
 (Enter /cm/shared/gaussian/g09.e01/intel64-sandybridge/g09/l202.exe)
 Symmetry turned off by external request.
 Stoichiometry    BrH256O128(1-)
 Framework group  C1[X(BrH256O128)]
 Deg. of freedom  1149
 Full point group                 C1      NOp   1
                          Input orientation:                          
 ---------------------------------------------------------------------
 Center     Atomic      Atomic             Coordinates (Angstroms)
 Number     Number       Type             X           Y           Z
 ---------------------------------------------------------------------
      1         35           0       20.000000   20.000000   20.000000
      2          8           0       18.540000   20.430000   17.290000
      3          1           0       18.770000   20.060000   18.140000
      4          1           0       19.370000   20.780000   16.950000
      5          8           0       21.110000   22.670000   21.390000
      6          1           0       20.850000   21.830000   21.000000
      7          1           0       20.290000   23.060000   21.680000
      8          8           0       19.870000   19.110000   23.050000
      9          1           0       19.930000   19.550000   22.210000
     10          1           0       19.230000   19.620000   23.550000
     11          8           0       23.250000   19.240000   20.210000
     12          1           0       22.290000   19.320000   20.160000
     13          1           0       23.520000   19.120000   19.300000
     14          8           0       16.770000   19.200000   19.960000
     15          1           0       17.690000   19.340000   19.760000
     16          1           0       16.660000   18.250000   19.950000
     17          8           0       20.130000   16.660000   20.730000
     18          1           0       20.090000   17.610000   20.610000
     19          1           0       20.680000   16.350000   20.010000
     20          8           0       18.180000   22.910000   20.090000
     21          1           0       18.760000   22.160000   19.930000
     22          1           0       17.780000   23.080000   19.240000
     23          8           0       21.340000   19.010000   17.020000
     24          1           0       21.010000   18.840000   17.910000
     25          1           0       20.760000   18.500000   16.450000
     26          8           0       16.190000   19.860000   22.570000
     27          1           0       16.370000   19.750000   21.640000
     28          1           0       16.930000   20.380000   22.900000
     29          8           0       22.870000   21.240000   16.440000
     30          1           0       22.740000   21.170000   15.490000
     31          1           0       22.470000   20.450000   16.790000
     32          8           0       17.680000   15.970000   19.510000
     33          1           0       17.520000   15.030000   19.600000
     34          1           0       18.570000   16.100000   19.820000
     35          8           0       18.090000   16.220000   22.880000
     36          1           0       18.180000   15.260000   22.850000
     37          1           0       18.730000   16.530000   22.240000
     38          8           0       24.020000   17.490000   21.980000
     39          1           0       23.590000   17.920000   21.240000
     40          1           0       24.140000   18.180000   22.620000
     41          8           0       17.030000   23.000000   17.610000
     42          1           0       17.220000   22.110000   17.340000
     43          1           0       16.980000   23.500000   16.790000
     44          8           0       21.790000   18.540000   24.900000
     45          1           0       21.160000   18.850000   24.250000
     46          1           0       22.630000   18.910000   24.610000
     47          8           0       18.730000   21.280000   24.270000
     48          1           0       18.960000   22.130000   23.900000
     49          1           0       18.800000   21.410000   25.220000
     50          8           0       14.810000   20.780000   18.720000
     51          1           0       15.480000   20.140000   18.940000
     52          1           0       15.030000   21.550000   19.240000
     53          8           0       17.350000   17.520000   16.980000
     54          1           0       16.560000   17.850000   17.410000
     55          1           0       17.630000   16.790000   17.540000
     56          8           0       18.430000   23.680000   22.740000
     57          1           0       18.080000   23.860000   21.870000
     58          1           0       18.200000   24.460000   23.260000
     59          8           0       22.110000   15.580000   22.500000
     60          1           0       22.780000   16.260000   22.440000
     61          1           0       21.350000   15.960000   22.060000
     62          8           0       15.440000   22.460000   20.820000
     63          1           0       16.300000   22.780000   21.080000
     64          1           0       15.020000   22.220000   21.650000
     65          8           0       23.190000   22.380000   23.420000
     66          1           0       23.620000   23.090000   23.890000
     67          1           0       22.950000   22.760000   22.580000
     68          8           0       22.370000   16.020000   18.680000
     69          1           0       22.730000   16.420000   17.880000
     70          1           0       23.100000   15.550000   19.070000
     71          8           0       25.440000   21.400000   21.070000
     72          1           0       25.050000   22.250000   20.870000
     73          1           0       24.740000   20.770000   20.910000
     74          8           0       19.570000   17.560000   15.530000
     75          1           0       18.700000   17.620000   15.930000
     76          1           0       19.490000   18.060000   14.720000
     77          8           0       16.770000   19.930000   15.150000
     78          1           0       15.820000   19.960000   15.270000
     79          1           0       17.120000   19.870000   16.040000
     80          8           0       22.650000   24.930000   21.610000
     81          1           0       22.640000   25.180000   20.680000
     82          1           0       22.000000   24.230000   21.670000
     83          8           0       21.670000   23.950000   17.000000
     84          1           0       22.250000   23.200000   16.840000
     85          1           0       21.380000   24.220000   16.130000
     86          8           0       23.990000   19.630000   23.720000
     87          1           0       23.560000   20.470000   23.530000
     88          1           0       24.890000   19.750000   23.440000
     89          8           0       20.110000   15.230000   16.900000
     90          1           0       19.850000   15.920000   16.290000
     91          1           0       20.690000   15.670000   17.520000
     92          8           0       14.930000   16.510000   19.870000
     93          1           0       15.810000   16.470000   19.490000
     94          1           0       15.000000   15.990000   20.670000
     95          8           0       24.910000   18.240000   18.000000
     96          1           0       25.660000   18.360000   17.410000
     97          1           0       25.290000   18.140000   18.870000
     98          8           0       19.220000   25.310000   17.130000
     99          1           0       20.060000   24.870000   17.260000
    100          1           0       19.100000   25.820000   17.930000
    101          8           0       21.040000   22.930000   25.320000
    102          1           0       21.680000   22.580000   24.710000
    103          1           0       20.930000   22.240000   25.970000
    104          8           0       15.610000   17.240000   23.630000
    105          1           0       15.660000   18.180000   23.820000
    106          1           0       16.470000   17.020000   23.260000
    107          8           0       22.280000   25.820000   19.090000
    108          1           0       22.130000   26.640000   18.620000
    109          1           0       22.140000   25.140000   18.430000
    110          8           0       19.430000   21.570000   14.340000
    111          1           0       18.550000   21.220000   14.510000
    112          1           0       19.320000   22.120000   13.560000
    113          8           0       22.970000   16.610000   16.040000
    114          1           0       22.710000   16.900000   15.170000
    115          1           0       23.720000   17.170000   16.260000
    116          8           0       18.130000   16.810000   25.670000
    117          1           0       18.110000   16.820000   24.710000
    118          1           0       18.320000   17.710000   25.920000
    119          8           0       22.190000   21.660000   13.840000
    120          1           0       21.310000   21.700000   14.200000
    121          1           0       22.300000   22.500000   13.390000
    122          8           0       24.380000   23.340000   15.600000
    123          1           0       24.860000   23.910000   16.200000
    124          1           0       24.120000   22.590000   16.140000
    125          8           0       14.640000   17.950000   17.540000
    126          1           0       14.600000   17.180000   16.970000
    127          1           0       14.440000   17.610000   18.420000
    128          8           0       18.730000   26.690000   19.330000
    129          1           0       18.200000   26.010000   19.750000
    130          1           0       18.390000   27.510000   19.670000
    131          8           0       14.350000   24.040000   18.100000
    132          1           0       15.250000   23.700000   18.160000
    133          1           0       14.180000   24.400000   18.970000
    134          8           0       16.670000   25.540000   20.740000
    135          1           0       15.760000   25.380000   20.500000
    136          1           0       16.640000   25.780000   21.660000
    137          8           0       20.910000   20.260000   26.870000
    138          1           0       21.310000   19.550000   26.360000
    139          1           0       20.000000   20.000000   26.980000
    140          8           0       21.890000   13.000000   21.240000
    141          1           0       21.760000   12.570000   22.080000
    142          1           0       22.130000   13.900000   21.460000
    143          8           0       17.090000   24.790000   15.380000
    144          1           0       16.840000   25.680000   15.150000
    145          1           0       17.590000   24.890000   16.190000
    146          8           0       26.370000   17.850000   20.110000
    147          1           0       26.060000   17.380000   20.880000
    148          1           0       26.890000   18.570000   20.450000
    149          8           0       25.680000   15.380000   21.470000
    150          1           0       25.160000   16.130000   21.770000
    151          1           0       25.290000   15.150000   20.620000
    152          8           0       15.980000   19.890000   26.300000
    153          1           0       16.040000   20.340000   25.460000
    154          1           0       15.140000   20.190000   26.670000
    155          8           0       13.460000   17.480000   21.820000
    156          1           0       14.070000   17.340000   22.550000
    157          1           0       13.930000   17.160000   21.050000
    158          8           0       12.590000   20.090000   21.340000
    159          1           0       13.380000   19.610000   21.590000
    160          1           0       11.870000   19.520000   21.600000
    161          8           0       19.690000   27.180000   22.260000
    162          1           0       19.640000   27.010000   21.320000
    163          1           0       19.860000   26.320000   22.650000
    164          8           0       18.200000   13.420000   22.030000
    165          1           0       18.550000   12.550000   22.220000
    166          1           0       18.060000   13.420000   21.080000
    167          8           0       18.600000   13.180000   16.420000
    168          1           0       18.510000   12.640000   17.200000
    169          1           0       19.130000   13.930000   16.700000
    170          8           0       20.710000   24.730000   14.570000
    171          1           0       20.360000   24.800000   13.680000
    172          1           0       19.990000   25.010000   15.140000
    173          8           0       26.710000   22.300000   23.180000
    174          1           0       27.520000   21.800000   23.110000
    175          1           0       26.230000   22.080000   22.390000
    176          8           0       14.420000   22.510000   23.560000
    177          1           0       14.890000   23.180000   24.060000
    178          1           0       14.250000   21.810000   24.190000
    179          8           0       15.250000   14.860000   22.000000
    180          1           0       16.090000   14.400000   21.970000
    181          1           0       14.850000   14.570000   22.820000
    182          8           0       27.810000   20.230000   20.470000
    183          1           0       27.060000   20.800000   20.660000
    184          1           0       28.110000   20.500000   19.600000
    185          8           0       24.430000   14.420000   19.290000
    186          1           0       24.660000   13.510000   19.480000
    187          1           0       24.720000   14.560000   18.390000
    188          8           0       13.980000   24.960000   20.750000
    189          1           0       13.050000   25.100000   20.920000
    190          1           0       14.140000   24.050000   21.010000
    191          8           0       18.580000   22.660000   26.760000
    192          1           0       18.990000   23.380000   26.280000
    193          1           0       18.600000   22.940000   27.670000
    194          8           0       22.110000   13.440000   24.220000
    195          1           0       21.920000   14.360000   24.050000
    196          1           0       23.070000   13.390000   24.200000
    197          8           0       21.700000   17.300000   27.540000
    198          1           0       20.800000   17.170000   27.840000
    199          1           0       21.610000   17.590000   26.630000
    200          8           0       14.190000   19.800000   15.550000
    201          1           0       13.790000   20.560000   15.980000
    202          1           0       13.950000   19.060000   16.100000
    203          8           0       18.480000   19.470000   27.210000
    204          1           0       18.360000   19.870000   28.070000
    205          1           0       17.590000   19.340000   26.880000
    206          8           0       12.240000   19.510000   18.670000
    207          1           0       12.620000   19.410000   19.540000
[...]
   Y335      51.23048   0.00177   0.00000  -0.00081  -0.00012  51.23035
   Z335      42.23538   0.00920   0.00000   0.01036   0.00971  42.24509
   X336      27.24985   0.00080   0.00000   0.00366   0.00419  27.25404
   Y336      52.81785   0.00659   0.00000   0.00595   0.00667  52.82452
   Z336      42.17869   0.00138   0.00000   0.00291   0.00216  42.18085
   X337      27.11757  -0.00214   0.00000   0.00268   0.00309  27.12066
   Y337      50.11554  -0.00994   0.00000  -0.01006  -0.00939  50.10615
   Z337      41.21493  -0.00516   0.00000  -0.00174  -0.00234  41.21259
   X338      53.85719   0.01512   0.00000   0.01214   0.01233  53.86953
   Y338      42.99127  -0.00704   0.00000  -0.00994  -0.01106  42.98021
   Z338      31.99306  -0.01915   0.00000  -0.01269  -0.01253  31.98053
   X339      53.34697  -0.00746   0.00000  -0.00448  -0.00430  53.34267
   Y339      43.18024   0.00598   0.00000   0.00926   0.00826  43.18850
   Z339      33.71271   0.01522   0.00000   0.00491   0.00505  33.71777
   X340      52.34541  -0.00610   0.00000  -0.00546  -0.00528  52.34014
   Y340      42.48104  -0.00006   0.00000   0.00191   0.00081  42.48186
   Z340      31.12379  -0.00024   0.00000  -0.00003   0.00014  31.12393
   X341      22.05310   0.00256   0.00000   0.00517   0.00473  22.05783
   Y341      30.74584  -0.01797   0.00000  -0.01119  -0.01059  30.73525
   Z341      35.41347  -0.00359   0.00000  -0.00433  -0.00393  35.40954
   X342      22.52554  -0.00179   0.00000  -0.00245  -0.00294  22.52259
   Y342      30.12223   0.00624   0.00000   0.00830   0.00897  30.13121
   Z342      37.05753   0.00133   0.00000   0.00316   0.00359  37.06112
   X343      22.03421   0.00049   0.00000   0.00084   0.00048  22.03469
   Y343      32.54108   0.01587   0.00000   0.00824   0.00885  32.54993
   Z343      35.60244   0.00141   0.00000  -0.00139  -0.00109  35.60135
   X344      20.27676  -0.02326   0.00000  -0.01098  -0.01139  20.26537
   Y344      32.97572   0.00855   0.00000   0.00820   0.00918  32.98490
   Z344      40.70470  -0.00750   0.00000  -0.00080  -0.00055  40.70415
   X345      21.99641   0.02903   0.00000   0.02161   0.02119  22.01760
   Y345      32.99462  -0.00593   0.00000  -0.01005  -0.00913  32.98549
   Z345      41.21493   0.00452   0.00000  -0.00199  -0.00172  41.21321
   X346      19.55867  -0.00200   0.00000  -0.00268  -0.00317  19.55550
   Y346      31.55843  -0.00312   0.00000  -0.00206  -0.00100  31.55743
   Z346      41.57397   0.00161   0.00000  -0.00035  -0.00003  41.57395
   X347      51.85409  -0.01037   0.00000  -0.00493  -0.00533  51.84876
   Y347      30.36790  -0.01515   0.00000  -0.00395  -0.00506  30.36284
   Z347      30.55687  -0.00726   0.00000  -0.00250  -0.00167  30.55520
   X348      52.28872   0.01050   0.00000   0.01183   0.01146  52.30018
   Y348      31.40725   0.01242   0.00000   0.00680   0.00575  31.41300
   Z348      31.95527   0.02148   0.00000   0.01747   0.01824  31.97351
   X349      52.72336   0.00572   0.00000   0.00453   0.00419  52.72755
   Y349      31.08599   0.00490   0.00000   0.00426   0.00303  31.08903
   Z349      29.15847  -0.00806   0.00000  -0.00655  -0.00575  29.15273
   X350      33.97728  -0.01748   0.00000  -0.01537  -0.01485  33.96243
   Y350      53.89499   0.00893   0.00000   0.00778   0.00841  53.90340
   Z350      46.44947   0.00269   0.00000   0.01081   0.01009  46.45956
   X351      34.27963   0.00466   0.00000   0.00365   0.00409  34.28372
   Y351      52.11865  -0.00236   0.00000   0.00401   0.00461  52.12326
   Z351      46.22270  -0.00544   0.00000  -0.00915  -0.00976  46.21294
   X352      35.50795   0.01335   0.00000   0.01114   0.01168  35.51964
   Y352      54.53750  -0.00314   0.00000  -0.00768  -0.00708  54.53041
   Z352      47.14867   0.00231   0.00000  -0.00033  -0.00105  47.14761
   X353      39.68425   0.00254   0.00000  -0.00400  -0.00348  39.68077
   Y353      53.87609   0.00278   0.00000   0.00050   0.00084  53.87693
   Z353      46.12821   0.01802   0.00000   0.01361   0.01298  46.14120
   X354      39.19292   0.00202   0.00000   0.00368   0.00429  39.19721
   Y354      55.61464   0.00332   0.00000   0.00519   0.00556  55.62020
   Z354      46.31719  -0.00362   0.00000  -0.00511  -0.00584  46.31135
   X355      39.07954  -0.00514   0.00000  -0.00230  -0.00177  39.07776
   Y355      53.42256  -0.00497   0.00000  -0.00474  -0.00447  53.41809
   Z355      44.48415  -0.01525   0.00000  -0.00804  -0.00866  44.47550
   X356      45.92035  -0.01411   0.00000  -0.01383  -0.01458  45.90576
   Y356      22.97907  -0.01123   0.00000  -0.00885  -0.00969  22.96938
   Z356      30.19782  -0.00915   0.00000  -0.00563  -0.00448  30.19335
   X357      46.14711   0.00722   0.00000   0.00994   0.00927  46.15638
   Y357      24.71762   0.00855   0.00000   0.00291   0.00209  24.71970
   Z357      30.67026   0.00015   0.00000  -0.00560  -0.00454  30.66572
   X358      46.97859   0.00238   0.00000  -0.00178  -0.00259  46.97601
   Y358      22.05310  -0.00288   0.00000  -0.00141  -0.00223  22.05087
   Z358      31.33166   0.00748   0.00000   0.00517   0.00639  31.33805
   X359      33.56154  -0.02821   0.00000  -0.02190  -0.02236  33.53918
   Y359      27.19316  -0.00696   0.00000  -0.00322  -0.00381  27.18935
   Z359      23.96173  -0.00117   0.00000  -0.00113  -0.00038  23.96135
   X360      34.43081   0.00703   0.00000   0.00488   0.00435  34.43516
   Y360      25.71917  -0.00098   0.00000   0.00336   0.00277  25.72194
   Z360      24.54754   0.00316   0.00000   0.00231   0.00315  24.55069
   X361      34.84655   0.01714   0.00000   0.01131   0.01091  34.85746
   Y361      28.44038   0.00396   0.00000  -0.00542  -0.00608  28.43430
   Z361      23.81055  -0.00142   0.00000  -0.00238  -0.00168  23.80887
   X362      53.66822   0.01404   0.00000   0.00903   0.00843  53.67666
   Y362      29.49862   0.01145   0.00000   0.01133   0.01076  29.50938
   Z362      41.98971   0.01278   0.00000   0.00484   0.00574  41.99546
   X363      54.89654   0.00291   0.00000   0.00174   0.00113  54.89767
   Y363      28.78053  -0.00288   0.00000  -0.00134  -0.00203  28.77850
   Z363      40.87478  -0.00639   0.00000  -0.00663  -0.00567  40.86910
   X364      52.08085  -0.01888   0.00000  -0.01231  -0.01292  52.06793
   Y364      29.06399  -0.00351   0.00000   0.00062   0.00009  29.06407
   Z364      41.25272  -0.00695   0.00000  -0.00189  -0.00098  41.25174
   X365      45.06997   0.01550   0.00000   0.01211   0.01215  45.08212
   Y365      45.61799   0.01861   0.00000   0.01321   0.01363  45.63162
   Z365      52.47769  -0.00942   0.00000  -0.01110  -0.01120  52.46649
   X366      46.10932   0.00065   0.00000  -0.00024  -0.00026  46.10905
   Y366      44.61643  -0.00620   0.00000  -0.00532  -0.00489  44.61155
   Z366      53.57374  -0.00041   0.00000  -0.00505  -0.00508  53.56865
   X367      43.52039  -0.01103   0.00000  -0.00288  -0.00289  43.51751
   Y367      44.69202  -0.00952   0.00000  -0.00418  -0.00368  44.68834
   Z367      52.38321   0.00318   0.00000   0.00472   0.00465  52.38785
   X368      40.59132   0.01466   0.00000   0.01162   0.01069  40.60201
   Y368      25.17115  -0.01241   0.00000  -0.01050  -0.00996  25.16120
   Z368      50.70135   0.01664   0.00000   0.01492   0.01588  50.71723
   X369      41.04485  -0.00308   0.00000  -0.00412  -0.00504  41.03981
   Y369      24.71762   0.00337   0.00000   0.00543   0.00586  24.72348
   Z369      49.00060  -0.00436   0.00000  -0.00089   0.00010  49.00070
   X370      39.19292  -0.01123   0.00000  -0.00409  -0.00496  39.18796
   Y370      26.30499   0.00708   0.00000  -0.00002   0.00058  26.30557
   Z370      50.51238  -0.00199   0.00000   0.00127   0.00215  50.51452
   X371      39.94881  -0.00488   0.00000   0.00035  -0.00048  39.94833
   Y371      21.58067   0.00407   0.00000   0.00647   0.00598  21.58665
   Z371      31.23717   0.02230   0.00000   0.01262   0.01377  31.25094
   X372      39.43858  -0.00442   0.00000  -0.00311  -0.00396  39.43462
   Y372      20.80588  -0.00398   0.00000   0.00141   0.00085  20.80674
   Z372      29.70649  -0.01465   0.00000  -0.00750  -0.00631  29.70018
   X373      41.44169   0.01455   0.00000   0.01449   0.01371  41.45540
   Y373      22.50664   0.00418   0.00000   0.00114   0.00055  22.50719
   Z373      30.80254  -0.00877   0.00000  -0.01047  -0.00936  30.79318
   X374      33.50484  -0.00544   0.00000  -0.00286  -0.00276  33.50209
   Y374      37.66224  -0.01980   0.00000  -0.01008  -0.01088  37.65136
   Z374      20.03110   0.00094   0.00000   0.00588   0.00605  20.03715
   X375      34.73317   0.00975   0.00000   0.00465   0.00481  34.73798
   Y375      38.70159   0.01051   0.00000   0.00670   0.00580  38.70739
   Z375      19.23741  -0.00525   0.00000  -0.00222  -0.00209  19.23532
   X376      32.78675  -0.00647   0.00000  -0.00595  -0.00581  32.78093
   Y376      38.70159   0.01479   0.00000   0.01533   0.01463  38.71623
   Z376      21.33501   0.01119   0.00000   0.00804   0.00814  21.34315
   X377      34.10956   0.00679   0.00000   0.00385   0.00286  34.11242
   Y377      23.03576   0.00063   0.00000  -0.00162  -0.00092  23.03484
   Z377      47.82897   0.00954   0.00000   0.00398   0.00496  47.83393
   X378      32.31432  -0.01154   0.00000  -0.00798  -0.00898  32.30533
   Y378      22.86569  -0.00109   0.00000  -0.00127  -0.00048  22.86520
   Z378      47.82897  -0.00158   0.00000  -0.00245  -0.00148  47.82749
   X379      34.58199   0.00193   0.00000   0.00219   0.00122  34.58321
   Y379      22.99797   0.00018   0.00000   0.00025   0.00083  22.99880
   Z379      46.09042  -0.00955   0.00000  -0.00720  -0.00621  46.08421
   X380      32.54108   0.00817   0.00000   0.00257   0.00327  32.54435
   Y380      54.89654   0.00331   0.00000  -0.00133  -0.00113  54.89542
   Z380      37.47327   0.00405   0.00000   0.00563   0.00485  37.47811
   X381      31.87968   0.00162   0.00000   0.00325   0.00403  31.88371
   Y381      56.54061  -0.00066   0.00000  -0.00181  -0.00159  56.53901
   Z381      37.05753  -0.00119   0.00000  -0.00117  -0.00206  37.05547
   X382      31.18048  -0.01089   0.00000  -0.00985  -0.00921  31.17127
   Y382      53.76271  -0.00653   0.00000  -0.00440  -0.00414  53.75856
   Z382      37.13312  -0.00175   0.00000  -0.00009  -0.00083  37.13228
   X383      24.90659   0.01365   0.00000   0.00868   0.00852  24.91511
   Y383      40.49683  -0.00197   0.00000  -0.00310  -0.00189  40.49494
   Z383      49.01950   0.00364   0.00000   0.00410   0.00400  49.02349
   X384      23.82945  -0.00622   0.00000  -0.00198  -0.00208  23.82737
   Y384      41.32831   0.00550   0.00000   0.00327   0.00447  41.33278
   Z384      47.82897  -0.00569   0.00000  -0.00196  -0.00212  47.82684
   X385      23.77275  -0.00772   0.00000  -0.00668  -0.00689  23.76587
   Y385      39.77874  -0.00438   0.00000  -0.00542  -0.00409  39.77465
   Z385      50.22892   0.00420   0.00000   0.00204   0.00196  50.23088
         Item               Value     Threshold  Converged?
 Maximum Force            0.040902     0.000450     NO 
 RMS     Force            0.010825     0.000300     NO 
 Maximum Displacement     0.028611     0.001800     NO 
 RMS     Displacement     0.008812     0.001200     NO 
 Predicted change in Energy=-7.528911D-02
 GradGradGradGradGradGradGradGradGradGradGradGradGradGradGradGradGradGrad

 Leave Link  103 at Sun May 13 21:55:44 2018, MaxMem= 14763950080 cpu:      2882.3
 (Enter /cm/shared/gaussian/g09.e01/intel64-sandybridge/g09/l9999.exe)
 1\1\GINC-POPLE03\Force\RPBE1PBE\CC-pVDZ\Br1H256O128(1-)\M.PELUSO\13-Ma
 y-2018\0\\#p PBE1PBE/cc-pvDZ force Counterpoise=2 noSymm\\forces on ch
 loride comput - NWATER: 128\\-1,1\Br,20.,20.,20.\O,18.54,20.43,17.29\H
 ,18.77,20.06,18.14\H,19.37,20.78,16.95\O,21.11,22.67,21.39\H,20.85,21.
 83,21.\H,20.29,23.06,21.68\O,19.87,19.11,23.05\H,19.93,19.55,22.21\H,1
 9.23,19.62,23.55\O,23.25,19.24,20.21\H,22.29,19.32,20.16\H,23.52,19.12
 ,19.3\O,16.77,19.2,19.96\H,17.69,19.34,19.76\H,16.66,18.25,19.95\O,20.
 13,16.66,20.73\H,20.09,17.61,20.61\H,20.68,16.35,20.01\O,18.18,22.91,2
 0.09\H,18.76,22.16,19.93\H,17.78,23.08,19.24\O,21.34,19.01,17.02\H,21.
 01,18.84,17.91\H,20.76,18.5,16.45\O,16.19,19.86,22.57\H,16.37,19.75,21
 .64\H,16.93,20.38,22.9\O,22.87,21.24,16.44\H,22.74,21.17,15.49\H,22.47
 ,20.45,16.79\O,17.68,15.97,19.51\H,17.52,15.03,19.6\H,18.57,16.1,19.82
 \O,18.09,16.22,22.88\H,18.18,15.26,22.85\H,18.73,16.53,22.24\O,24.02,1
 7.49,21.98\H,23.59,17.92,21.24\H,24.14,18.18,22.62\O,17.03,23.,17.61\H
 ,17.22,22.11,17.34\H,16.98,23.5,16.79\O,21.79,18.54,24.9\H,21.16,18.85
 ,24.25\H,22.63,18.91,24.61\O,18.73,21.28,24.27\H,18.96,22.13,23.9\H,18
 .8,21.41,25.22\O,14.81,20.78,18.72\H,15.48,20.14,18.94\H,15.03,21.55,1
 9.24\O,17.35,17.52,16.98\H,16.56,17.85,17.41\H,17.63,16.79,17.54\O,18.
 43,23.68,22.74\H,18.08,23.86,21.87\H,18.2,24.46,23.26\O,22.11,15.58,22
 .5\H,22.78,16.26,22.44\H,21.35,15.96,22.06\O,15.44,22.46,20.82\H,16.3,
 22.78,21.08\H,15.02,22.22,21.65\O,23.19,22.38,23.42\H,23.62,23.09,23.8
 9\H,22.95,22.76,22.58\O,22.37,16.02,18.68\H,22.73,16.42,17.88\H,23.1,1
 5.55,19.07\O,25.44,21.4,21.07\H,25.05,22.25,20.87\H,24.74,20.77,20.91\
 O,19.57,17.56,15.53\H,18.7,17.62,15.93\H,19.49,18.06,14.72\O,16.77,19.
 93,15.15\H,15.82,19.96,15.27\H,17.12,19.87,16.04\O,22.65,24.93,21.61\H
 ,22.64,25.18,20.68\H,22.,24.23,21.67\O,21.67,23.95,17.\H,22.25,23.2,16
 .84\H,21.38,24.22,16.13\O,23.99,19.63,23.72\H,23.56,20.47,23.53\H,24.8
 9,19.75,23.44\O,20.11,15.23,16.9\H,19.85,15.92,16.29\H,20.69,15.67,17.
 52\O,14.93,16.51,19.87\H,15.81,16.47,19.49\H,15.,15.99,20.67\O,24.91,1
 8.24,18.\H,25.66,18.36,17.41\H,25.29,18.14,18.87\O,19.22,25.31,17.13\H
 ,20.06,24.87,17.26\H,19.1,25.82,17.93\O,21.04,22.93,25.32\H,21.68,22.5
 8,24.71\H,20.93,22.24,25.97\O,15.61,17.24,23.63\H,15.66,18.18,23.82\H,
 16.47,17.02,23.26\O,22.28,25.82,19.09\H,22.13,26.64,18.62\H,22.14,25.1
 4,18.43\O,19.43,21.57,14.34\H,18.55,21.22,14.51\H,19.32,22.12,13.56\O,
 22.97,16.61,16.04\H,22.71,16.9,15.17\H,23.72,17.17,16.26\O,18.13,16.81
 ,25.67\H,18.11,16.82,24.71\H,18.32,17.71,25.92\O,22.19,21.66,13.84\H,2
 1.31,21.7,14.2\H,22.3,22.5,13.39\O,24.38,23.34,15.6\H,24.86,23.91,16.2
 \H,24.12,22.59,16.14\O,14.64,17.95,17.54\H,14.6,17.18,16.97\H,14.44,17
 .61,18.42\O,18.73,26.69,19.33\H,18.2,26.01,19.75\H,18.39,27.51,19.67\O
 ,14.35,24.04,18.1\H,15.25,23.7,18.16\H,14.18,24.4,18.97\O,16.67,25.54,
 20.74\H,15.76,25.38,20.5\H,16.64,25.78,21.66\O,20.91,20.26,26.87\H,21.
 31,19.55,26.36\H,20.,20.,26.98\O,21.89,13.,21.24\H,21.76,12.57,22.08\H
 ,22.13,13.9,21.46\O,17.09,24.79,15.38\H,16.84,25.68,15.15\H,17.59,24.8
 9,16.19\O,26.37,17.85,20.11\H,26.06,17.38,20.88\H,26.89,18.57,20.45\O,
 25.68,15.38,21.47\H,25.16,16.13,21.77\H,25.29,15.15,20.62\O,15.98,19.8
 9,26.3\H,16.04,20.34,25.46\H,15.14,20.19,26.67\O,13.46,17.48,21.82\H,1
 4.07,17.34,22.55\H,13.93,17.16,21.05\O,12.59,20.09,21.34\H,13.38,19.61
 ,21.59\H,11.87,19.52,21.6\O,19.69,27.18,22.26\H,19.64,27.01,21.32\H,19
 .86,26.32,22.65\O,18.2,13.42,22.03\H,18.55,12.55,22.22\H,18.06,13.42,2
 1.08\O,18.6,13.18,16.42\H,18.51,12.64,17.2\H,19.13,13.93,16.7\O,20.71,
 24.73,14.57\H,20.36,24.8,13.68\H,19.99,25.01,15.14\O,26.71,22.3,23.18\
 H,27.52,21.8,23.11\H,26.23,22.08,22.39\O,14.42,22.51,23.56\H,14.89,23.
 18,24.06\H,14.25,21.81,24.19\O,15.25,14.86,22.\H,16.09,14.4,21.97\H,14
 .85,14.57,22.82\O,27.81,20.23,20.47\H,27.06,20.8,20.66\H,28.11,20.5,19
 .6\O,24.43,14.42,19.29\H,24.66,13.51,19.48\H,24.72,14.56,18.39\O,13.98
 ,24.96,20.75\H,13.05,25.1,20.92\H,14.14,24.05,21.01\O,18.58,22.66,26.7
 6\H,18.99,23.38,26.28\H,18.6,22.94,27.67\O,22.11,13.44,24.22\H,21.92,1
 4.36,24.05\H,23.07,13.39,24.2\O,21.7,17.3,27.54\H,20.8,17.17,27.84\H,2
 1.61,17.59,26.63\O,14.19,19.8,15.55\H,13.79,20.56,15.98\H,13.95,19.06,
 16.1\O,18.48,19.47,27.21\H,18.36,19.87,28.07\H,17.59,19.34,26.88\O,12.
 24,19.51,18.67\H,12.62,19.41,19.54\H,12.91,19.96,18.16\O,17.01,21.52,1
 2.99\H,16.64,20.77,13.47\H,16.37,22.22,13.1\O,17.73,12.93,19.29\H,18.3
 1,12.17,19.22\H,16.94,12.67,18.82\O,26.62,18.86,23.26\H,26.66,18.29,24
 .02\H,27.51,18.84,22.9\O,15.82,23.1,25.91\H,15.39,23.16,26.76\H,16.69,
 22.77,26.1\O,23.88,26.95,22.8\H,23.85,26.53,23.66\H,23.48,26.31,22.21\
 O,14.72,16.06,15.52\H,15.3,16.7,15.1\H,15.2,15.24,15.46\O,12.96,22.34,
 16.56\H,13.6,22.81,17.1\H,12.19,22.25,17.13\O,26.46,21.41,15.32\H,26.9
 6,21.44,14.5\H,25.57,21.67,15.07\O,25.04,21.3,26.34\H,25.12,20.68,25.6
 2\H,24.63,20.8,27.05\O,21.74,13.87,14.38\H,22.03,14.63,13.88\H,21.43,1
 4.23,15.21\O,27.2,23.43,19.17\H,26.52,23.92,18.71\H,27.22,23.81,20.05\
 O,21.67,25.54,26.18\H,21.3,24.67,26.03\H,22.27,25.67,25.44\O,22.73,19.
 65,11.88\H,23.12,20.3,11.3\H,22.51,20.14,12.68\O,25.13,14.72,16.4\H,25
 .99,15.13,16.35\H,24.56,15.29,15.88\O,17.07,26.04,24.02\H,16.4,26.48,2
 3.5\H,16.73,26.05,24.91\O,19.4,18.42,12.35\H,18.7,18.96,11.99\H,20.21,
 18.9,12.15\O,15.74,17.2,26.79\H,16.55,16.93,26.36\H,15.51,18.03,26.38\
 O,19.04,14.49,26.53\H,18.58,13.82,26.01\H,18.7,15.32,26.19\O,25.69,25.
 1,17.65\H,26.04,25.61,18.39\H,25.41,25.77,17.02\O,27.58,19.23,16.75\H,
 27.22,20.09,16.52\H,28.45,19.21,16.35\O,22.84,17.16,12.95\H,23.66,17.1
 8,13.45\H,22.82,18.,12.48\O,26.62,24.54,21.7\H,26.57,23.94,22.44\H,27.
 16,25.26,22.02\O,23.26,25.88,14.43\H,23.95,25.23,14.28\H,22.45,25.37,1
 4.43\O,11.82,22.89,21.16\H,12.21,22.21,20.61\H,12.19,22.74,22.03\O,24.
 55,12.79,22.38\H,25.08,13.58,22.41\H,23.83,13.,21.78\O,28.5,16.92,18.9
 2\H,29.15,17.35,19.47\H,27.65,17.2,19.28\O,20.23,15.45,12.41\H,21.1,15
 .13,12.16\H,20.37,16.37,12.64\O,19.69,28.06,15.82\H,20.58,28.4,15.91\H
 ,19.6,27.44,16.54\O,25.16,17.09,14.15\H,25.9,17.68,14.\H,25.36,16.31,1
 3.63\O,15.07,23.59,13.56\H,14.17,23.27,13.49\H,15.15,23.9,14.46\O,25.0
 1,23.74,13.15\H,24.74,23.48,14.04\H,25.76,24.31,13.29\O,19.02,17.,28.5
 1\H,18.25,16.45,28.66\H,18.71,17.71,27.95\O,24.25,25.21,25.04\H,24.24,
 24.79,25.9\H,25.09,24.93,24.66\O,13.71,14.8,24.26\H,14.26,15.58,24.27\
 H,12.81,15.13,24.26\O,22.03,22.28,28.58\H,21.84,21.45,28.13\H,21.21,22
 .5,29.03\O,22.33,27.63,17.16\H,22.38,28.56,17.38\H,23.23,27.38,16.94\O
 ,14.2,26.4,16.49\H,14.37,25.58,16.96\H,13.25,26.49,16.51\O,15.31,12.58
 ,18.12\H,14.76,11.94,18.58\H,14.86,13.41,18.24\O,22.42,11.12,19.02\H,2
 1.83,11.41,18.32\H,22.17,11.65,19.78\O,26.01,26.73,19.7\H,25.81,27.52,
 20.2\H,26.22,26.07,20.35\O,24.16,19.14,28.09\H,24.77,18.42,28.23\H,23.
 31,18.71,27.95\O,16.01,13.36,15.33\H,15.53,13.12,16.13\H,16.91,13.11,1
 5.51\O,14.88,27.11,22.35\H,14.42,27.95,22.32\H,14.35,26.52,21.81\O,28.
 5,22.75,16.93\H,28.23,22.85,17.84\H,27.7,22.48,16.47\O,11.67,16.27,18.
 74\H,11.92,15.94,19.61\H,11.66,17.22,18.84\O,10.73,17.45,21.54\H,11.64
 ,17.46,21.81\H,10.35,16.7,22.\O,27.44,16.07,16.17\H,27.67,16.62,16.91\
 H,27.9,16.45,15.43\O,17.98,28.52,24.58\H,18.14,27.58,24.46\H,18.79,28.
 86,24.95\O,21.,28.51,24.41\H,20.74,29.43,24.51\H,20.68,28.27,23.54\O,2
 4.3,12.16,15.98\H,24.42,13.08,16.23\H,24.86,11.67,16.58\O,17.76,14.39,
 12.68\H,18.22,13.61,12.99\H,18.44,15.05,12.6\O,28.4,15.61,22.22\H,29.0
 5,15.23,21.63\H,27.56,15.38,21.83\O,23.85,24.14,27.77\H,24.4,23.61,28.
 35\H,23.03,23.65,27.72\O,21.48,13.32,26.83\H,21.72,13.08,25.93\H,20.74
 ,13.92,26.73\O,21.14,11.42,16.53\H,20.87,11.01,15.72\H,21.93,11.91,16.
 3\O,17.73,19.93,10.6\H,18.38,20.48,10.18\H,17.35,20.48,11.29\O,18.05,1
 2.19,25.31\H,17.1,12.1,25.31\H,18.3,12.17,24.39\O,17.22,29.05,19.83\H,
 16.87,29.92,19.61\H,16.5,28.45,19.65\O,13.18,21.43,25.94\H,12.61,21.87
 ,25.31\H,12.58,21.05,26.58\\Version=ES64L-G09RevE.01\HF=-9773.5284721\
 RMSD=1.440e-09\RMSF=1.082e-02\Dipole=-1.3463217,8.5802746,0.7150278\Qu
 adrupole=-213.9763741,414.5181301,-200.541756,-1166.175322,-1664.33902
 43,-1095.3678158\PG=C01 [X(Br1H256O128)]\\@


 IBM COMPATIBILITY IS LIKE PREGNANCY. YOU ARE OR
 OR YOU ARE NOT. -- ADAM OSBORNE
 Job cpu time:       7 days  7 hours  1 minutes 39.4 seconds.
 File lengths (MBytes):  RWF=   7285 Int=      0 D2E=      0 Chk=   2411 Scr=      1
 Normal termination of Gaussian 09 at Sun May 13 21:56:14 2018.
