 Entering Gaussian System, Link 0=/cm/shared/gaussian/g09.e01/intel64-sandybridge/g09/g09
 Initial command:
 /cm/shared/gaussian/g09.e01/intel64-sandybridge/g09/l1.exe "/local/scratch/m.peluso/128_wat/order/Gau-53347.inp" -scrdir="/local/scratch/m.peluso/128_wat/order/"
 Entering Link 1 = /cm/shared/gaussian/g09.e01/intel64-sandybridge/g09/l1.exe PID=     53348.
  
 Copyright (c) 1988,1990,1992,1993,1995,1998,2003,2009,2015,
            Gaussian, Inc.  All Rights Reserved.
  
 This is part of the Gaussian(R) 09 program.  It is based on
 the Gaussian(R) 03 system (copyright 2003, Gaussian, Inc.),
 the Gaussian(R) 98 system (copyright 1998, Gaussian, Inc.),
 the Gaussian(R) 94 system (copyright 1995, Gaussian, Inc.),
 the Gaussian 92(TM) system (copyright 1992, Gaussian, Inc.),
 the Gaussian 90(TM) system (copyright 1990, Gaussian, Inc.),
 the Gaussian 88(TM) system (copyright 1988, Gaussian, Inc.),
 the Gaussian 86(TM) system (copyright 1986, Carnegie Mellon
 University), and the Gaussian 82(TM) system (copyright 1983,
 Carnegie Mellon University). Gaussian is a federally registered
 trademark of Gaussian, Inc.
  
 This software contains proprietary and confidential information,
 including trade secrets, belonging to Gaussian, Inc.
  
 This software is provided under written license and may be
 used, copied, transmitted, or stored only in accord with that
 written license.
  
 The following legend is applicable only to US Government
 contracts under FAR:
  
                    RESTRICTED RIGHTS LEGEND
  
 Use, reproduction and disclosure by the US Government is
 subject to restrictions as set forth in subparagraphs (a)
 and (c) of the Commercial Computer Software - Restricted
 Rights clause in FAR 52.227-19.
  
 Gaussian, Inc.
 340 Quinnipiac St., Bldg. 40, Wallingford CT 06492
  
  
 ---------------------------------------------------------------
 Warning -- This program may not be used in any manner that
 competes with the business of Gaussian, Inc. or will provide
 assistance to any competitor of Gaussian, Inc.  The licensee
 of this program is prohibited from giving any competitor of
 Gaussian, Inc. access to this program.  By using this program,
 the user acknowledges that Gaussian, Inc. is engaged in the
 business of creating and licensing software in the field of
 computational chemistry and represents and warrants to the
 licensee that it is not a competitor of Gaussian, Inc. and that
 it will not use this program in any manner prohibited above.
 ---------------------------------------------------------------
  

 Cite this work as:
 Gaussian 09, Revision E.01,
 M. J. Frisch, G. W. Trucks, H. B. Schlegel, G. E. Scuseria, 
 M. A. Robb, J. R. Cheeseman, G. Scalmani, V. Barone, B. Mennucci, 
 G. A. Petersson, H. Nakatsuji, M. Caricato, X. Li, H. P. Hratchian, 
 A. F. Izmaylov, J. Bloino, G. Zheng, J. L. Sonnenberg, M. Hada, 
 M. Ehara, K. Toyota, R. Fukuda, J. Hasegawa, M. Ishida, T. Nakajima, 
 Y. Honda, O. Kitao, H. Nakai, T. Vreven, J. A. Montgomery, Jr., 
 J. E. Peralta, F. Ogliaro, M. Bearpark, J. J. Heyd, E. Brothers, 
 K. N. Kudin, V. N. Staroverov, T. Keith, R. Kobayashi, J. Normand, 
 K. Raghavachari, A. Rendell, J. C. Burant, S. S. Iyengar, J. Tomasi, 
 M. Cossi, N. Rega, J. M. Millam, M. Klene, J. E. Knox, J. B. Cross, 
 V. Bakken, C. Adamo, J. Jaramillo, R. Gomperts, R. E. Stratmann, 
 O. Yazyev, A. J. Austin, R. Cammi, C. Pomelli, J. W. Ochterski, 
 R. L. Martin, K. Morokuma, V. G. Zakrzewski, G. A. Voth, 
 P. Salvador, J. J. Dannenberg, S. Dapprich, A. D. Daniels, 
 O. Farkas, J. B. Foresman, J. V. Ortiz, J. Cioslowski, 
 and D. J. Fox, Gaussian, Inc., Wallingford CT, 2013.
 
 ******************************************
 Gaussian 09:  ES64L-G09RevE.01 30-Nov-2015
                16-May-2018 
 ******************************************
 %Mem=110GB
 %NProcShared=64
 Will use up to   64 processors via shared memory.
 %chk=snap111.chk
 ----------------------------------------------
 #p PBE1PBE/cc-pvDZ force Counterpoise=2 noSymm
 ----------------------------------------------
 1/10=7,30=1,38=1,62=2/1,3;
 2/12=2,15=1,17=6,18=5,40=1/2;
 1/10=7,30=1,38=1,53=2,62=2,63=101/22;
 3/5=16,11=2,16=1,25=1,30=1,71=1,74=-13/1,2,3;
 4//1;
 5/5=2,38=5/2;
 6/7=2,8=2,9=2,10=2,28=1/1;
 7/7=1,29=1,30=1,33=-1/1,2,3,16;
 1/10=7,30=1,53=2,62=2,63=101/22;
 3/5=7,6=11,11=2,16=1,25=1,30=1,71=1,74=-13,82=7/1,2,3;
 4//1;
 5/5=2,38=5/2;
 6/7=2,8=2,9=2,10=2,28=1/1;
 7/7=1,29=1,30=1,33=-1/1,2,3,16;
 1/10=7,30=1,53=2,62=2,63=101/22(-5);
 7/9=1,29=1,44=-1/16;
 1/10=7,30=1,62=2/3;
 99//99;
 Leave Link    1 at Wed May 16 09:00:04 2018, MaxMem= 14763950080 cpu:         7.7
 (Enter /cm/shared/gaussian/g09.e01/intel64-sandybridge/g09/l101.exe)
 ---------------------------------------
 forces on chloride comput - NWATER: 128
 ---------------------------------------
 Symbolic Z-matrix:
 Charge = -1 Multiplicity = 1 in supermolecule
 Charge = -1 Multiplicity = 1 in fragment      1.
 Charge =  0 Multiplicity = 1 in fragment      2.
 Br(Fragment=1)        20.       20.       20. 
 O(Fragment=2)         17.35     21.07     18.94 
 H(Fragment=2)         17.47     22.       19.11 
 H(Fragment=2)         18.12     20.64     19.3 
 O(Fragment=2)         19.17     19.68     23.22 
 H(Fragment=2)         19.04     19.78     22.28 
 H(Fragment=2)         19.78     20.38     23.46 
 O(Fragment=2)         18.75     17.49     17.98 
 H(Fragment=2)         19.23     18.22     18.39 
 H(Fragment=2)         18.29     17.89     17.25 
 O(Fragment=2)         23.02     18.71     19.4 
 H(Fragment=2)         22.99     18.06     20.11 
 H(Fragment=2)         22.43     19.4      19.69 
 O(Fragment=2)         21.94     20.7      22.76 
 H(Fragment=2)         22.67     21.33     22.79 
 H(Fragment=2)         21.54     20.85     21.9 
 O(Fragment=2)         20.26     23.68     19.88 
 H(Fragment=2)         19.44     24.12     20.11 
 H(Fragment=2)         20.02     22.77     19.74 
 O(Fragment=2)         21.72     20.73     16.83 
 H(Fragment=2)         20.93     21.22     16.59 
 H(Fragment=2)         21.72     20.73     17.78 
 O(Fragment=2)         19.89     16.64     22.13 
 H(Fragment=2)         19.07     16.37     21.7 
 H(Fragment=2)         19.91     17.59     22.03 
 O(Fragment=2)         16.11     19.88     21.41 
 H(Fragment=2)         16.74     19.5      22.02 
 H(Fragment=2)         16.65     20.25     20.71 
 O(Fragment=2)         18.68     20.09     16.31 
 H(Fragment=2)         19.59     20.35     16.14 
 H(Fragment=2)         18.4      20.65     17.03 
 O(Fragment=2)         17.58     16.59     20.38 
 H(Fragment=2)         17.91     17.06     19.61 
 H(Fragment=2)         16.75     16.21     20.1 
 O(Fragment=2)         24.4      21.31     19.62 
 H(Fragment=2)         24.01     20.44     19.53 
 H(Fragment=2)         24.27     21.55     20.53 
 O(Fragment=2)         22.6      16.7      21.28 
 H(Fragment=2)         22.08     16.38     20.54 
 H(Fragment=2)         21.96     16.94     21.94 
 O(Fragment=2)         22.31     18.13     23.73 
 H(Fragment=2)         21.78     17.95     24.51 
 H(Fragment=2)         22.16     19.06     23.55 
 O(Fragment=2)         23.44     17.25     17.01 
 H(Fragment=2)         23.36     17.77     16.2 
 H(Fragment=2)         23.24     17.88     17.71 
 O(Fragment=2)         20.74     22.89     23.9 
 H(Fragment=2)         21.       23.25     24.75 
 H(Fragment=2)         21.09     22.       23.9 
 O(Fragment=2)         20.03     22.48     15.88 
 H(Fragment=2)         20.21     23.36     16.23 
 H(Fragment=2)         19.86     22.63     14.95 
 O(Fragment=2)         17.78     24.5      20.27 
 H(Fragment=2)         17.54     25.22     20.86 
 H(Fragment=2)         16.94     24.15     19.97 
 O(Fragment=2)         21.86     15.13     18.87 
 H(Fragment=2)         20.93     15.13     19.13 
 H(Fragment=2)         22.09     14.21     18.8 
 O(Fragment=2)         14.79     17.61     20.86 
 H(Fragment=2)         15.25     18.44     20.93 
 H(Fragment=2)         14.6      17.35     21.76 
 O(Fragment=2)         24.22     20.55     15.93 
 H(Fragment=2)         23.49     20.95     16.4 
 H(Fragment=2)         23.81     20.07     15.21 
 O(Fragment=2)         18.91     14.4      17.92 
 H(Fragment=2)         18.95     15.34     18.05 
 H(Fragment=2)         18.56     14.06     18.74 
 O(Fragment=2)         22.42     25.21     19.18 
 H(Fragment=2)         22.95     24.43     19.04 
 H(Fragment=2)         21.53     24.88     19.28 
 O(Fragment=2)         17.09     17.93     15.03 
 H(Fragment=2)         17.53     18.6      15.55 
 H(Fragment=2)         16.54     18.42     14.42 
 O(Fragment=2)         17.8      23.76     24.38 
 H(Fragment=2)         18.42     23.36     23.77 
 H(Fragment=2)         17.79     23.18     25.14 
 O(Fragment=2)         14.09     20.65     18.24 
 H(Fragment=2)         13.79     21.36     17.67 
 H(Fragment=2)         15.04     20.71     18.21 
 O(Fragment=2)         18.4      18.71     26.03 
 H(Fragment=2)         17.56     18.27     25.87 
 H(Fragment=2)         18.76     18.85     25.16 
 O(Fragment=2)         16.83     15.56     23.14 
 H(Fragment=2)         17.28     15.95     22.39 
 H(Fragment=2)         16.31     14.85     22.77 
 O(Fragment=2)         25.03     17.4      22.53 
 H(Fragment=2)         24.65     17.9      23.26 
 H(Fragment=2)         24.29     17.19     21.97 
 O(Fragment=2)         13.89     21.07     21.16 
 H(Fragment=2)         14.57     20.44     21.38 
 H(Fragment=2)         13.64     20.86     20.26 
 O(Fragment=2)         24.35     22.51     22.58 
 H(Fragment=2)         25.24     22.73     22.83 
 H(Fragment=2)         23.89     23.35     22.52 
 O(Fragment=2)         17.14     22.07     14.32 
 H(Fragment=2)         16.46     22.67     14.63 
 H(Fragment=2)         17.3      21.49     15.06 
 O(Fragment=2)         21.59     14.51     23.26 
 H(Fragment=2)         21.8      15.43     23.14 
 H(Fragment=2)         20.71     14.5      23.64 
 O(Fragment=2)         24.61     15.52     19.42 
 H(Fragment=2)         23.98     15.45     18.7 
 H(Fragment=2)         24.09     15.83     20.16 
 O(Fragment=2)         24.93     23.69     18.4 
 H(Fragment=2)         24.98     22.74     18.4 
 H(Fragment=2)         25.64     23.97     18.98 
 O(Fragment=2)         26.23     19.79     17.42 
 H(Fragment=2)         26.75     20.02     16.64 
 H(Fragment=2)         25.36     20.15     17.24 
 O(Fragment=2)         18.49     15.6      15.3 
 H(Fragment=2)         18.01     16.42     15.23 
 H(Fragment=2)         18.17     15.2      16.11 
 O(Fragment=2)         23.03     18.44     14.58 
 H(Fragment=2)         22.13     18.28     14.31 
 H(Fragment=2)         23.56     18.2      13.82 
 O(Fragment=2)         20.79     26.89     22.09 
 H(Fragment=2)         20.02     27.12     21.57 
 H(Fragment=2)         21.09     26.06     21.72 
 O(Fragment=2)         16.1      17.7      24.78 
 H(Fragment=2)         16.44     16.9      24.38 
 H(Fragment=2)         15.33     17.92     24.25 
 O(Fragment=2)         24.01     25.26     21.47 
 H(Fragment=2)         24.87     24.88     21.29 
 H(Fragment=2)         23.59     25.32     20.61 
 O(Fragment=2)         20.98     17.63     25.96 
 H(Fragment=2)         20.15     18.02     26.23 
 H(Fragment=2)         20.94     16.73     26.29 
 O(Fragment=2)         15.17     21.89     24.48 
 H(Fragment=2)         15.01     22.82     24.67 
 H(Fragment=2)         14.88     21.78     23.58 
 O(Fragment=2)         27.04     21.05     21.04 
 H(Fragment=2)         26.45     20.73     20.36 
 H(Fragment=2)         27.37     20.26     21.46 
 O(Fragment=2)         21.6      15.52     14.65 
 H(Fragment=2)         20.65     15.52     14.74 
 H(Fragment=2)         21.93     15.59     15.54 
 O(Fragment=2)         19.74     26.51     18.14 
 H(Fragment=2)         20.57     26.95     18.28 
 H(Fragment=2)         19.86     26.01     17.34 
 O(Fragment=2)         20.72     25.14     15.88 
 H(Fragment=2)         21.46     24.67     15.51 
 H(Fragment=2)         20.97     26.07     15.84 
 O(Fragment=2)         12.93     18.06     18.84 
 H(Fragment=2)         13.34     18.59     18.16 
 H(Fragment=2)         13.61     17.97     19.51 
 O(Fragment=2)         20.22     12.75     21.49 
 H(Fragment=2)         20.54     13.54     21.93 
 H(Fragment=2)         19.43     13.03     21.03 
 O(Fragment=2)         22.79     24.17     14.61 
 H(Fragment=2)         23.67     24.25     14.25 
 H(Fragment=2)         22.62     23.23     14.65 
 O(Fragment=2)         18.77     19.94     12.89 
 H(Fragment=2)         18.54     20.72     13.4 
 H(Fragment=2)         18.21     20.01     12.11 
 O(Fragment=2)         14.45     15.93     16.5 
 H(Fragment=2)         15.21     16.46     16.69 
 H(Fragment=2)         14.8      15.17     16.02 
 O(Fragment=2)         26.69     17.29     18.66 
 H(Fragment=2)         26.36     18.12     18.32 
 H(Fragment=2)         25.91     16.78     18.87 
 O(Fragment=2)         20.54     17.82     13.29 
 H(Fragment=2)         19.77     18.39     13.23 
 H(Fragment=2)         20.2      16.99     13.6 
 O(Fragment=2)         13.56     23.62     20.06 
 H(Fragment=2)         13.67     22.86     20.63 
 H(Fragment=2)         12.73     23.47     19.61 
 O(Fragment=2)         17.09     27.07     18.5 
 H(Fragment=2)         16.77     26.99     17.6 
 H(Fragment=2)         17.91     26.56     18.51 
 O(Fragment=2)         25.36     15.62     15.97 
 H(Fragment=2)         25.44     15.99     15.1 
 H(Fragment=2)         24.64     16.1      16.38 
 O(Fragment=2)         18.95     14.05     23.98 
 H(Fragment=2)         18.69     13.2      24.33 
 H(Fragment=2)         18.29     14.66     24.31 
 O(Fragment=2)         21.1      21.35     13.14 
 H(Fragment=2)         20.34     20.85     12.82 
 H(Fragment=2)         21.86     20.86     12.82 
 O(Fragment=2)         18.22     25.07     14.88 
 H(Fragment=2)         19.09     25.25     15.22 
 H(Fragment=2)         18.36     24.73     14. 
 O(Fragment=2)         23.18     19.14     26.79 
 H(Fragment=2)         22.5      18.51     26.55 
 H(Fragment=2)         23.94     18.9      26.27 
 O(Fragment=2)         27.5      18.72     22.23 
 H(Fragment=2)         27.84     18.74     23.13 
 H(Fragment=2)         26.77     18.1      22.27 
 O(Fragment=2)         13.74     18.22     23.57 
 H(Fragment=2)         13.04     18.85     23.43 
 H(Fragment=2)         13.34     17.54     24.12 
 O(Fragment=2)         14.97     25.08     23.74 
 H(Fragment=2)         15.8      24.67     23.98 
 H(Fragment=2)         15.21     25.76     23.11 
 O(Fragment=2)         14.09     22.18     15.86 
 H(Fragment=2)         14.06     22.21     14.91 
 H(Fragment=2)         14.38     23.05     16.13 
 O(Fragment=2)         21.66     23.26     26.52 
 H(Fragment=2)         22.35     23.91     26.38 
 H(Fragment=2)         22.11     22.49     26.85 
 O(Fragment=2)         26.82     23.65     20.26 
 H(Fragment=2)         27.7      23.99     20.11 
 H(Fragment=2)         26.95     22.72     20.44 
 O(Fragment=2)         17.52     12.93     20.06 
 H(Fragment=2)         16.97     12.75     19.3 
 H(Fragment=2)         17.3      12.25     20.69 
 O(Fragment=2)         22.49     12.68     19.64 
 H(Fragment=2)         23.29     13.14     19.93 
 H(Fragment=2)         21.89     12.76     20.39 
 O(Fragment=2)         18.86     22.52     26.97 
 H(Fragment=2)         19.81     22.69     27.03 
 H(Fragment=2)         18.5      23.       27.72 
 O(Fragment=2)         12.13     20.41     23.1 
 H(Fragment=2)         11.99     21.2      23.63 
 H(Fragment=2)         12.86     20.63     22.52 
 O(Fragment=2)         22.33     27.77     18.16 
 H(Fragment=2)         22.65     27.1      18.76 
 H(Fragment=2)         23.09     28.02     17.64 
 O(Fragment=2)         15.31     21.15     27.03 
 H(Fragment=2)         15.35     21.24     26.08 
 H(Fragment=2)         16.22     21.05     27.3 
 O(Fragment=2)         17.94     20.36     28.22 
 H(Fragment=2)         18.02     19.73     27.51 
 H(Fragment=2)         18.4      21.14     27.9 
 O(Fragment=2)         16.38     26.8      21.35 
 H(Fragment=2)         16.87     27.5      20.91 
 H(Fragment=2)         15.71     27.26     21.86 
 O(Fragment=2)         15.06     19.51     13.88 
 H(Fragment=2)         15.17     20.08     13.11 
 H(Fragment=2)         14.12     19.5      14.03 
 O(Fragment=2)         21.31     20.86     27.98 
 H(Fragment=2)         21.85     20.13     27.69 
 H(Fragment=2)         20.87     20.54     28.77 
 O(Fragment=2)         25.46     18.55     25.54 
 H(Fragment=2)         25.97     17.78     25.8 
 H(Fragment=2)         26.08     19.07     25.02 
 O(Fragment=2)         25.87     14.8      22.82 
 H(Fragment=2)         26.05     15.74     22.85 
 H(Fragment=2)         25.5      14.59     23.68 
 O(Fragment=2)         15.3      24.74     15.5 
 H(Fragment=2)         15.99     24.89     14.85 
 H(Fragment=2)         14.83     25.58     15.53 
 O(Fragment=2)         13.91     26.35     19.65 
 H(Fragment=2)         14.01     25.4      19.59 
 H(Fragment=2)         14.05     26.55     20.58 
 O(Fragment=2)         12.9      14.97     18.85 
 H(Fragment=2)         11.97     15.18     18.79 
 H(Fragment=2)         13.32     15.53     18.2 
 O(Fragment=2)         21.65     23.8      11.92 
 H(Fragment=2)         21.2      24.49     12.41 
 H(Fragment=2)         21.55     23.02     12.47 
 O(Fragment=2)         27.21     22.73     23.46 
 H(Fragment=2)         27.57     22.24     24.21 
 H(Fragment=2)         27.49     22.22     22.69 
 O(Fragment=2)         20.99     27.97     24.59 
 H(Fragment=2)         20.97     27.26     23.94 
 H(Fragment=2)         20.17     28.43     24.47 
 O(Fragment=2)         14.74     17.33     27.18 
 H(Fragment=2)         15.33     17.75     26.55 
 H(Fragment=2)         14.63     16.44     26.85 
 O(Fragment=2)         18.39     11.56     16.79 
 H(Fragment=2)         17.44     11.6      16.94 
 H(Fragment=2)         18.66     12.46     16.66 
 O(Fragment=2)         24.77     21.3      27.9 
 H(Fragment=2)         25.34     20.57     28.17 
 H(Fragment=2)         24.18     20.92     27.25 
 O(Fragment=2)         16.82     27.12     15.82 
 H(Fragment=2)         17.18     27.95     15.52 
 H(Fragment=2)         17.28     26.46     15.3 
 O(Fragment=2)         17.92     13.79     13.23 
 H(Fragment=2)         18.2      14.32     13.98 
 H(Fragment=2)         18.65     13.2      13.06 
 O(Fragment=2)         18.5      26.51     26.34 
 H(Fragment=2)         18.28     25.59     26.16 
 H(Fragment=2)         18.77     26.86     25.49 
 O(Fragment=2)         26.19     13.29     18.24 
 H(Fragment=2)         26.01     14.14     18.64 
 H(Fragment=2)         26.25     12.69     18.98 
 O(Fragment=2)         15.42     13.35     22.68 
 H(Fragment=2)         14.77     12.84     23.17 
 H(Fragment=2)         16.02     12.7      22.32 
 O(Fragment=2)         27.9      15.59     20.81 
 H(Fragment=2)         27.13     15.22     21.23 
 H(Fragment=2)         27.56     16.08     20.06 
 O(Fragment=2)         23.68     27.96     22.8 
 H(Fragment=2)         23.97     27.07     22.61 
 H(Fragment=2)         22.99     27.84     23.46 
 O(Fragment=2)         23.17     12.36     23.95 
 H(Fragment=2)         23.55     13.       23.35 
 H(Fragment=2)         22.86     12.88     24.69 
 O(Fragment=2)         28.64     21.63     18.22 
 H(Fragment=2)         29.59     21.6      18.17 
 H(Fragment=2)         28.39     20.79     18.59 
 O(Fragment=2)         23.64     15.36     12.84 
 H(Fragment=2)         22.81     15.4      13.32 
 H(Fragment=2)         23.4      15.43     11.92 
 O(Fragment=2)         21.86     29.32     20.89 
 H(Fragment=2)         22.56     29.12     21.51 
 H(Fragment=2)         21.44     28.47     20.73 
 O(Fragment=2)         22.21     11.63     16.96 
 H(Fragment=2)         22.8      12.27     16.57 
 H(Fragment=2)         22.15     11.9      17.88 
 O(Fragment=2)         27.38     23.67     16.45 
 H(Fragment=2)         27.6      23.1      15.71 
 H(Fragment=2)         27.59     23.14     17.23 
 O(Fragment=2)         25.03     12.59     21.04 
 H(Fragment=2)         25.86     12.11     20.92 
 H(Fragment=2)         25.24     13.26     21.69 
 O(Fragment=2)         27.98     16.64     16.32 
 H(Fragment=2)         27.61     16.85     17.18 
 H(Fragment=2)         27.24     16.28     15.83 
 O(Fragment=2)         15.87     14.22     14.93 
 H(Fragment=2)         16.5      14.08     14.23 
 H(Fragment=2)         15.21     13.53     14.81 
 O(Fragment=2)         15.15     16.12     12.74 
 H(Fragment=2)         15.37     15.3      12.29 
 H(Fragment=2)         15.52     16.02     13.62 
 O(Fragment=2)         23.55     24.99     26.29 
 H(Fragment=2)         23.48     25.85     26.7 
 H(Fragment=2)         24.4      25.01     25.84 
 O(Fragment=2)         12.08     17.19     15.49 
 H(Fragment=2)         12.35     18.07     15.25 
 H(Fragment=2)         12.84     16.81     15.93 
 O(Fragment=2)         13.01     25.78     16.81 
 H(Fragment=2)         13.73     25.67     17.42 
 H(Fragment=2)         12.42     25.05     17.01 
 O(Fragment=2)         20.75     16.52     10.97 
 H(Fragment=2)         20.93     17.15     11.67 
 H(Fragment=2)         21.43     15.85     11.08 
 O(Fragment=2)         17.02     23.68     11.96 
 H(Fragment=2)         16.85     22.77     12.19 
 H(Fragment=2)         16.16     24.09     11.9 
 O(Fragment=2)         24.66     12.86     16.07 
 H(Fragment=2)         24.7      13.77     15.77 
 H(Fragment=2)         25.28     12.82     16.79 
 O(Fragment=2)         20.13     15.48     27.64 
 H(Fragment=2)         20.23     14.58     27.94 
 H(Fragment=2)         19.27     15.74     27.96 
 O(Fragment=2)         10.73     17.09     20.32 
 H(Fragment=2)         11.53     17.3      19.85 
 H(Fragment=2)         11.       16.43     20.96 
 O(Fragment=2)         10.76     21.15     20.47 
 H(Fragment=2)         11.26     21.03     21.28 
 H(Fragment=2)         10.64     22.09     20.4 
 O(Fragment=2)         12.43     20.29     14.26 
 H(Fragment=2)         12.65     20.9      14.96 
 H(Fragment=2)         11.48     20.17     14.33 
 O(Fragment=2)         11.68     23.38     17.64 
 H(Fragment=2)         10.75     23.57     17.79 
 H(Fragment=2)         11.7      22.44     17.46 
 O(Fragment=2)         12.16     25.07     22.48 
 H(Fragment=2)         12.31     25.       21.54 
 H(Fragment=2)         13.03     24.96     22.87 
 O(Fragment=2)         17.68     16.41     27.95 
 H(Fragment=2)         17.38     16.32     28.86 
 H(Fragment=2)         17.21     15.72     27.48 
 O(Fragment=2)         18.18     28.13     24.1 
 H(Fragment=2)         17.27     28.28     24.35 
 H(Fragment=2)         18.21     28.31     23.16 
 O(Fragment=2)         26.27     24.59     25.51 
 H(Fragment=2)         26.9      25.31     25.58 
 H(Fragment=2)         26.61     24.06     24.78 
 O(Fragment=2)         13.03     19.73     26.87 
 H(Fragment=2)         13.12     18.8      27.07 
 H(Fragment=2)         13.94     20.04     26.82 
 O(Fragment=2)         13.07     13.29     20.98 
 H(Fragment=2)         13.28     13.79     20.2 
 H(Fragment=2)         13.86     13.34     21.52 
 O(Fragment=2)         10.95     20.8      17.65 
 H(Fragment=2)         10.53     19.99     17.37 
 H(Fragment=2)         10.94     20.76     18.61 
 O(Fragment=2)         17.15     11.27     22.34 
 H(Fragment=2)         18.05     11.38     22.64 
 H(Fragment=2)         17.04     10.32     22.25 
 O(Fragment=2)         20.8      29.47     16.89 
 H(Fragment=2)         21.2      28.79     17.44 
 H(Fragment=2)         21.49     30.12     16.78 
 O(Fragment=2)         20.5      12.39     14.1 
 H(Fragment=2)         21.06     12.21     13.34 
 H(Fragment=2)         21.11     12.4      14.84 
 O(Fragment=2)         21.01     27.64     14.77 
 H(Fragment=2)         21.88     27.63     14.38 
 H(Fragment=2)         21.       28.43     15.32 
 O(Fragment=2)         21.25     10.3      22.46 
 H(Fragment=2)         20.6      10.94     22.16 
 H(Fragment=2)         21.94     10.84     22.86 
 
 NAtoms=    385 NQM=      385 NQMF=       0 NMMI=      0 NMMIF=      0
                NMic=       0 NMicF=      0.
                    Isotopes and Nuclear Properties:
 (Nuclear quadrupole moments (NQMom) in fm**2, nuclear magnetic moments (NMagM)
  in nuclear magnetons)

  Atom         1           2           3           4           5           6           7           8           9          10
 IAtWgt=          79          16           1           1          16           1           1          16           1           1
 AtmWgt=  78.9183361  15.9949146   1.0078250   1.0078250  15.9949146   1.0078250   1.0078250  15.9949146   1.0078250   1.0078250
 NucSpn=           3           0           1           1           0           1           1           0           1           1
 AtZEff=   0.0000000   0.0000000   0.0000000   0.0000000   0.0000000   0.0000000   0.0000000   0.0000000   0.0000000   0.0000000
 NQMom=   31.3000000   0.0000000   0.0000000   0.0000000   0.0000000   0.0000000   0.0000000   0.0000000   0.0000000   0.0000000
 NMagM=    2.1063990   0.0000000   2.7928460   2.7928460   0.0000000   2.7928460   2.7928460   0.0000000   2.7928460   2.7928460
 AtZNuc=  35.0000000   8.0000000   1.0000000   1.0000000   8.0000000   1.0000000   1.0000000   8.0000000   1.0000000   1.0000000

  Atom        11          12          13          14          15          16          17          18          19          20
 IAtWgt=          16           1           1          16           1           1          16           1           1          16
 AtmWgt=  15.9949146   1.0078250   1.0078250  15.9949146   1.0078250   1.0078250  15.9949146   1.0078250   1.0078250  15.9949146
 NucSpn=           0           1           1           0           1           1           0           1           1           0
 AtZEff=   0.0000000   0.0000000   0.0000000   0.0000000   0.0000000   0.0000000   0.0000000   0.0000000   0.0000000   0.0000000
 NQMom=    0.0000000   0.0000000   0.0000000   0.0000000   0.0000000   0.0000000   0.0000000   0.0000000   0.0000000   0.0000000
 NMagM=    0.0000000   2.7928460   2.7928460   0.0000000   2.7928460   2.7928460   0.0000000   2.7928460   2.7928460   0.0000000
 AtZNuc=   8.0000000   1.0000000   1.0000000   8.0000000   1.0000000   1.0000000   8.0000000   1.0000000   1.0000000   8.0000000

  Atom        21          22          23          24          25          26          27          28          29          30
 IAtWgt=           1           1          16           1           1          16           1           1          16           1
 AtmWgt=   1.0078250   1.0078250  15.9949146   1.0078250   1.0078250  15.9949146   1.0078250   1.0078250  15.9949146   1.0078250
 NucSpn=           1           1           0           1           1           0           1           1           0           1
 AtZEff=   0.0000000   0.0000000   0.0000000   0.0000000   0.0000000   0.0000000   0.0000000   0.0000000   0.0000000   0.0000000
 NQMom=    0.0000000   0.0000000   0.0000000   0.0000000   0.0000000   0.0000000   0.0000000   0.0000000   0.0000000   0.0000000
 NMagM=    2.7928460   2.7928460   0.0000000   2.7928460   2.7928460   0.0000000   2.7928460   2.7928460   0.0000000   2.7928460
 AtZNuc=   1.0000000   1.0000000   8.0000000   1.0000000   1.0000000   8.0000000   1.0000000   1.0000000   8.0000000   1.0000000

  Atom        31          32          33          34          35          36          37          38          39          40
 IAtWgt=           1          16           1           1          16           1           1          16           1           1
 AtmWgt=   1.0078250  15.9949146   1.0078250   1.0078250  15.9949146   1.0078250   1.0078250  15.9949146   1.0078250   1.0078250
 NucSpn=           1           0           1           1           0           1           1           0           1           1
 AtZEff=   0.0000000   0.0000000   0.0000000   0.0000000   0.0000000   0.0000000   0.0000000   0.0000000   0.0000000   0.0000000
 NQMom=    0.0000000   0.0000000   0.0000000   0.0000000   0.0000000   0.0000000   0.0000000   0.0000000   0.0000000   0.0000000
 NMagM=    2.7928460   0.0000000   2.7928460   2.7928460   0.0000000   2.7928460   2.7928460   0.0000000   2.7928460   2.7928460
 AtZNuc=   1.0000000   8.0000000   1.0000000   1.0000000   8.0000000   1.0000000   1.0000000   8.0000000   1.0000000   1.0000000

  Atom        41          42          43          44          45          46          47          48          49          50
 IAtWgt=          16           1           1          16           1           1          16           1           1          16
 AtmWgt=  15.9949146   1.0078250   1.0078250  15.9949146   1.0078250   1.0078250  15.9949146   1.0078250   1.0078250  15.9949146
 NucSpn=           0           1           1           0           1           1           0           1           1           0
 AtZEff=   0.0000000   0.0000000   0.0000000   0.0000000   0.0000000   0.0000000   0.0000000   0.0000000   0.0000000   0.0000000
 NQMom=    0.0000000   0.0000000   0.0000000   0.0000000   0.0000000   0.0000000   0.0000000   0.0000000   0.0000000   0.0000000
 NMagM=    0.0000000   2.7928460   2.7928460   0.0000000   2.7928460   2.7928460   0.0000000   2.7928460   2.7928460   0.0000000
 AtZNuc=   8.0000000   1.0000000   1.0000000   8.0000000   1.0000000   1.0000000   8.0000000   1.0000000   1.0000000   8.0000000

  Atom        51          52          53          54          55          56          57          58          59          60
 IAtWgt=           1           1          16           1           1          16           1           1          16           1
 AtmWgt=   1.0078250   1.0078250  15.9949146   1.0078250   1.0078250  15.9949146   1.0078250   1.0078250  15.9949146   1.0078250
 NucSpn=           1           1           0           1           1           0           1           1           0           1
 AtZEff=   0.0000000   0.0000000   0.0000000   0.0000000   0.0000000   0.0000000   0.0000000   0.0000000   0.0000000   0.0000000
 NQMom=    0.0000000   0.0000000   0.0000000   0.0000000   0.0000000   0.0000000   0.0000000   0.0000000   0.0000000   0.0000000
 NMagM=    2.7928460   2.7928460   0.0000000   2.7928460   2.7928460   0.0000000   2.7928460   2.7928460   0.0000000   2.7928460
 AtZNuc=   1.0000000   1.0000000   8.0000000   1.0000000   1.0000000   8.0000000   1.0000000   1.0000000   8.0000000   1.0000000

  Atom        61          62          63          64          65          66          67          68          69          70
 IAtWgt=           1          16           1           1          16           1           1          16           1           1
 AtmWgt=   1.0078250  15.9949146   1.0078250   1.0078250  15.9949146   1.0078250   1.0078250  15.9949146   1.0078250   1.0078250
 NucSpn=           1           0           1           1           0           1           1           0           1           1
 AtZEff=   0.0000000   0.0000000   0.0000000   0.0000000   0.0000000   0.0000000   0.0000000   0.0000000   0.0000000   0.0000000
 NQMom=    0.0000000   0.0000000   0.0000000   0.0000000   0.0000000   0.0000000   0.0000000   0.0000000   0.0000000   0.0000000
 NMagM=    2.7928460   0.0000000   2.7928460   2.7928460   0.0000000   2.7928460   2.7928460   0.0000000   2.7928460   2.7928460
 AtZNuc=   1.0000000   8.0000000   1.0000000   1.0000000   8.0000000   1.0000000   1.0000000   8.0000000   1.0000000   1.0000000

  Atom        71          72          73          74          75          76          77          78          79          80
 IAtWgt=          16           1           1          16           1           1          16           1           1          16
 AtmWgt=  15.9949146   1.0078250   1.0078250  15.9949146   1.0078250   1.0078250  15.9949146   1.0078250   1.0078250  15.9949146
 NucSpn=           0           1           1           0           1           1           0           1           1           0
 AtZEff=   0.0000000   0.0000000   0.0000000   0.0000000   0.0000000   0.0000000   0.0000000   0.0000000   0.0000000   0.0000000
 NQMom=    0.0000000   0.0000000   0.0000000   0.0000000   0.0000000   0.0000000   0.0000000   0.0000000   0.0000000   0.0000000
 NMagM=    0.0000000   2.7928460   2.7928460   0.0000000   2.7928460   2.7928460   0.0000000   2.7928460   2.7928460   0.0000000
 AtZNuc=   8.0000000   1.0000000   1.0000000   8.0000000   1.0000000   1.0000000   8.0000000   1.0000000   1.0000000   8.0000000

  Atom        81          82          83          84          85          86          87          88          89          90
 IAtWgt=           1           1          16           1           1          16           1           1          16           1
 AtmWgt=   1.0078250   1.0078250  15.9949146   1.0078250   1.0078250  15.9949146   1.0078250   1.0078250  15.9949146   1.0078250
 NucSpn=           1           1           0           1           1           0           1           1           0           1
 AtZEff=   0.0000000   0.0000000   0.0000000   0.0000000   0.0000000   0.0000000   0.0000000   0.0000000   0.0000000   0.0000000
 NQMom=    0.0000000   0.0000000   0.0000000   0.0000000   0.0000000   0.0000000   0.0000000   0.0000000   0.0000000   0.0000000
 NMagM=    2.7928460   2.7928460   0.0000000   2.7928460   2.7928460   0.0000000   2.7928460   2.7928460   0.0000000   2.7928460
 AtZNuc=   1.0000000   1.0000000   8.0000000   1.0000000   1.0000000   8.0000000   1.0000000   1.0000000   8.0000000   1.0000000

  Atom        91          92          93          94          95          96          97          98          99         100
 IAtWgt=           1          16           1           1          16           1           1          16           1           1
 AtmWgt=   1.0078250  15.9949146   1.0078250   1.0078250  15.9949146   1.0078250   1.0078250  15.9949146   1.0078250   1.0078250
 NucSpn=           1           0           1           1           0           1           1           0           1           1
 AtZEff=   0.0000000   0.0000000   0.0000000   0.0000000   0.0000000   0.0000000   0.0000000   0.0000000   0.0000000   0.0000000
 NQMom=    0.0000000   0.0000000   0.0000000   0.0000000   0.0000000   0.0000000   0.0000000   0.0000000   0.0000000   0.0000000
 NMagM=    2.7928460   0.0000000   2.7928460   2.7928460   0.0000000   2.7928460   2.7928460   0.0000000   2.7928460   2.7928460
 AtZNuc=   1.0000000   8.0000000   1.0000000   1.0000000   8.0000000   1.0000000   1.0000000   8.0000000   1.0000000   1.0000000

  Atom       101         102         103         104         105         106         107         108         109         110
 IAtWgt=          16           1           1          16           1           1          16           1           1          16
 AtmWgt=  15.9949146   1.0078250   1.0078250  15.9949146   1.0078250   1.0078250  15.9949146   1.0078250   1.0078250  15.9949146
 NucSpn=           0           1           1           0           1           1           0           1           1           0
 AtZEff=   0.0000000   0.0000000   0.0000000   0.0000000   0.0000000   0.0000000   0.0000000   0.0000000   0.0000000   0.0000000
 NQMom=    0.0000000   0.0000000   0.0000000   0.0000000   0.0000000   0.0000000   0.0000000   0.0000000   0.0000000   0.0000000
 NMagM=    0.0000000   2.7928460   2.7928460   0.0000000   2.7928460   2.7928460   0.0000000   2.7928460   2.7928460   0.0000000
 AtZNuc=   8.0000000   1.0000000   1.0000000   8.0000000   1.0000000   1.0000000   8.0000000   1.0000000   1.0000000   8.0000000

  Atom       111         112         113         114         115         116         117         118         119         120
 IAtWgt=           1           1          16           1           1          16           1           1          16           1
 AtmWgt=   1.0078250   1.0078250  15.9949146   1.0078250   1.0078250  15.9949146   1.0078250   1.0078250  15.9949146   1.0078250
 NucSpn=           1           1           0           1           1           0           1           1           0           1
 AtZEff=   0.0000000   0.0000000   0.0000000   0.0000000   0.0000000   0.0000000   0.0000000   0.0000000   0.0000000   0.0000000
 NQMom=    0.0000000   0.0000000   0.0000000   0.0000000   0.0000000   0.0000000   0.0000000   0.0000000   0.0000000   0.0000000
 NMagM=    2.7928460   2.7928460   0.0000000   2.7928460   2.7928460   0.0000000   2.7928460   2.7928460   0.0000000   2.7928460
 AtZNuc=   1.0000000   1.0000000   8.0000000   1.0000000   1.0000000   8.0000000   1.0000000   1.0000000   8.0000000   1.0000000

  Atom       121         122         123         124         125         126         127         128         129         130
 IAtWgt=           1          16           1           1          16           1           1          16           1           1
 AtmWgt=   1.0078250  15.9949146   1.0078250   1.0078250  15.9949146   1.0078250   1.0078250  15.9949146   1.0078250   1.0078250
 NucSpn=           1           0           1           1           0           1           1           0           1           1
 AtZEff=   0.0000000   0.0000000   0.0000000   0.0000000   0.0000000   0.0000000   0.0000000   0.0000000   0.0000000   0.0000000
 NQMom=    0.0000000   0.0000000   0.0000000   0.0000000   0.0000000   0.0000000   0.0000000   0.0000000   0.0000000   0.0000000
 NMagM=    2.7928460   0.0000000   2.7928460   2.7928460   0.0000000   2.7928460   2.7928460   0.0000000   2.7928460   2.7928460
 AtZNuc=   1.0000000   8.0000000   1.0000000   1.0000000   8.0000000   1.0000000   1.0000000   8.0000000   1.0000000   1.0000000

  Atom       131         132         133         134         135         136         137         138         139         140
 IAtWgt=          16           1           1          16           1           1          16           1           1          16
 AtmWgt=  15.9949146   1.0078250   1.0078250  15.9949146   1.0078250   1.0078250  15.9949146   1.0078250   1.0078250  15.9949146
 NucSpn=           0           1           1           0           1           1           0           1           1           0
 AtZEff=   0.0000000   0.0000000   0.0000000   0.0000000   0.0000000   0.0000000   0.0000000   0.0000000   0.0000000   0.0000000
 NQMom=    0.0000000   0.0000000   0.0000000   0.0000000   0.0000000   0.0000000   0.0000000   0.0000000   0.0000000   0.0000000
 NMagM=    0.0000000   2.7928460   2.7928460   0.0000000   2.7928460   2.7928460   0.0000000   2.7928460   2.7928460   0.0000000
 AtZNuc=   8.0000000   1.0000000   1.0000000   8.0000000   1.0000000   1.0000000   8.0000000   1.0000000   1.0000000   8.0000000

  Atom       141         142         143         144         145         146         147         148         149         150
 IAtWgt=           1           1          16           1           1          16           1           1          16           1
 AtmWgt=   1.0078250   1.0078250  15.9949146   1.0078250   1.0078250  15.9949146   1.0078250   1.0078250  15.9949146   1.0078250
 NucSpn=           1           1           0           1           1           0           1           1           0           1
 AtZEff=   0.0000000   0.0000000   0.0000000   0.0000000   0.0000000   0.0000000   0.0000000   0.0000000   0.0000000   0.0000000
 NQMom=    0.0000000   0.0000000   0.0000000   0.0000000   0.0000000   0.0000000   0.0000000   0.0000000   0.0000000   0.0000000
 NMagM=    2.7928460   2.7928460   0.0000000   2.7928460   2.7928460   0.0000000   2.7928460   2.7928460   0.0000000   2.7928460
 AtZNuc=   1.0000000   1.0000000   8.0000000   1.0000000   1.0000000   8.0000000   1.0000000   1.0000000   8.0000000   1.0000000

  Atom       151         152         153         154         155         156         157         158         159         160
 IAtWgt=           1          16           1           1          16           1           1          16           1           1
 AtmWgt=   1.0078250  15.9949146   1.0078250   1.0078250  15.9949146   1.0078250   1.0078250  15.9949146   1.0078250   1.0078250
 NucSpn=           1           0           1           1           0           1           1           0           1           1
 AtZEff=   0.0000000   0.0000000   0.0000000   0.0000000   0.0000000   0.0000000   0.0000000   0.0000000   0.0000000   0.0000000
 NQMom=    0.0000000   0.0000000   0.0000000   0.0000000   0.0000000   0.0000000   0.0000000   0.0000000   0.0000000   0.0000000
 NMagM=    2.7928460   0.0000000   2.7928460   2.7928460   0.0000000   2.7928460   2.7928460   0.0000000   2.7928460   2.7928460
 AtZNuc=   1.0000000   8.0000000   1.0000000   1.0000000   8.0000000   1.0000000   1.0000000   8.0000000   1.0000000   1.0000000

  Atom       161         162         163         164         165         166         167         168         169         170
 IAtWgt=          16           1           1          16           1           1          16           1           1          16
 AtmWgt=  15.9949146   1.0078250   1.0078250  15.9949146   1.0078250   1.0078250  15.9949146   1.0078250   1.0078250  15.9949146
 NucSpn=           0           1           1           0           1           1           0           1           1           0
 AtZEff=   0.0000000   0.0000000   0.0000000   0.0000000   0.0000000   0.0000000   0.0000000   0.0000000   0.0000000   0.0000000
 NQMom=    0.0000000   0.0000000   0.0000000   0.0000000   0.0000000   0.0000000   0.0000000   0.0000000   0.0000000   0.0000000
 NMagM=    0.0000000   2.7928460   2.7928460   0.0000000   2.7928460   2.7928460   0.0000000   2.7928460   2.7928460   0.0000000
 AtZNuc=   8.0000000   1.0000000   1.0000000   8.0000000   1.0000000   1.0000000   8.0000000   1.0000000   1.0000000   8.0000000

  Atom       171         172         173         174         175         176         177         178         179         180
 IAtWgt=           1           1          16           1           1          16           1           1          16           1
 AtmWgt=   1.0078250   1.0078250  15.9949146   1.0078250   1.0078250  15.9949146   1.0078250   1.0078250  15.9949146   1.0078250
 NucSpn=           1           1           0           1           1           0           1           1           0           1
 AtZEff=   0.0000000   0.0000000   0.0000000   0.0000000   0.0000000   0.0000000   0.0000000   0.0000000   0.0000000   0.0000000
 NQMom=    0.0000000   0.0000000   0.0000000   0.0000000   0.0000000   0.0000000   0.0000000   0.0000000   0.0000000   0.0000000
 NMagM=    2.7928460   2.7928460   0.0000000   2.7928460   2.7928460   0.0000000   2.7928460   2.7928460   0.0000000   2.7928460
 AtZNuc=   1.0000000   1.0000000   8.0000000   1.0000000   1.0000000   8.0000000   1.0000000   1.0000000   8.0000000   1.0000000

  Atom       181         182         183         184         185         186         187         188         189         190
 IAtWgt=           1          16           1           1          16           1           1          16           1           1
 AtmWgt=   1.0078250  15.9949146   1.0078250   1.0078250  15.9949146   1.0078250   1.0078250  15.9949146   1.0078250   1.0078250
 NucSpn=           1           0           1           1           0           1           1           0           1           1
 AtZEff=   0.0000000   0.0000000   0.0000000   0.0000000   0.0000000   0.0000000   0.0000000   0.0000000   0.0000000   0.0000000
 NQMom=    0.0000000   0.0000000   0.0000000   0.0000000   0.0000000   0.0000000   0.0000000   0.0000000   0.0000000   0.0000000
 NMagM=    2.7928460   0.0000000   2.7928460   2.7928460   0.0000000   2.7928460   2.7928460   0.0000000   2.7928460   2.7928460
 AtZNuc=   1.0000000   8.0000000   1.0000000   1.0000000   8.0000000   1.0000000   1.0000000   8.0000000   1.0000000   1.0000000

  Atom       191         192         193         194         195         196         197         198         199         200
 IAtWgt=          16           1           1          16           1           1          16           1           1          16
 AtmWgt=  15.9949146   1.0078250   1.0078250  15.9949146   1.0078250   1.0078250  15.9949146   1.0078250   1.0078250  15.9949146
 NucSpn=           0           1           1           0           1           1           0           1           1           0
 AtZEff=   0.0000000   0.0000000   0.0000000   0.0000000   0.0000000   0.0000000   0.0000000   0.0000000   0.0000000   0.0000000
 NQMom=    0.0000000   0.0000000   0.0000000   0.0000000   0.0000000   0.0000000   0.0000000   0.0000000   0.0000000   0.0000000
 NMagM=    0.0000000   2.7928460   2.7928460   0.0000000   2.7928460   2.7928460   0.0000000   2.7928460   2.7928460   0.0000000
 AtZNuc=   8.0000000   1.0000000   1.0000000   8.0000000   1.0000000   1.0000000   8.0000000   1.0000000   1.0000000   8.0000000

  Atom       201         202         203         204         205         206         207         208         209         210
 IAtWgt=           1           1          16           1           1          16           1           1          16           1
 AtmWgt=   1.0078250   1.0078250  15.9949146   1.0078250   1.0078250  15.9949146   1.0078250   1.0078250  15.9949146   1.0078250
 NucSpn=           1           1           0           1           1           0           1           1           0           1
 AtZEff=   0.0000000   0.0000000   0.0000000   0.0000000   0.0000000   0.0000000   0.0000000   0.0000000   0.0000000   0.0000000
 NQMom=    0.0000000   0.0000000   0.0000000   0.0000000   0.0000000   0.0000000   0.0000000   0.0000000   0.0000000   0.0000000
 NMagM=    2.7928460   2.7928460   0.0000000   2.7928460   2.7928460   0.0000000   2.7928460   2.7928460   0.0000000   2.7928460
 AtZNuc=   1.0000000   1.0000000   8.0000000   1.0000000   1.0000000   8.0000000   1.0000000   1.0000000   8.0000000   1.0000000

  Atom       211         212         213         214         215         216         217         218         219         220
 IAtWgt=           1          16           1           1          16           1           1          16           1           1
 AtmWgt=   1.0078250  15.9949146   1.0078250   1.0078250  15.9949146   1.0078250   1.0078250  15.9949146   1.0078250   1.0078250
 NucSpn=           1           0           1           1           0           1           1           0           1           1
 AtZEff=   0.0000000   0.0000000   0.0000000   0.0000000   0.0000000   0.0000000   0.0000000   0.0000000   0.0000000   0.0000000
 NQMom=    0.0000000   0.0000000   0.0000000   0.0000000   0.0000000   0.0000000   0.0000000   0.0000000   0.0000000   0.0000000
 NMagM=    2.7928460   0.0000000   2.7928460   2.7928460   0.0000000   2.7928460   2.7928460   0.0000000   2.7928460   2.7928460
 AtZNuc=   1.0000000   8.0000000   1.0000000   1.0000000   8.0000000   1.0000000   1.0000000   8.0000000   1.0000000   1.0000000

  Atom       221         222         223         224         225         226         227         228         229         230
 IAtWgt=          16           1           1          16           1           1          16           1           1          16
 AtmWgt=  15.9949146   1.0078250   1.0078250  15.9949146   1.0078250   1.0078250  15.9949146   1.0078250   1.0078250  15.9949146
 NucSpn=           0           1           1           0           1           1           0           1           1           0
 AtZEff=   0.0000000   0.0000000   0.0000000   0.0000000   0.0000000   0.0000000   0.0000000   0.0000000   0.0000000   0.0000000
 NQMom=    0.0000000   0.0000000   0.0000000   0.0000000   0.0000000   0.0000000   0.0000000   0.0000000   0.0000000   0.0000000
 NMagM=    0.0000000   2.7928460   2.7928460   0.0000000   2.7928460   2.7928460   0.0000000   2.7928460   2.7928460   0.0000000
 AtZNuc=   8.0000000   1.0000000   1.0000000   8.0000000   1.0000000   1.0000000   8.0000000   1.0000000   1.0000000   8.0000000

  Atom       231         232         233         234         235         236         237         238         239         240
 IAtWgt=           1           1          16           1           1          16           1           1          16           1
 AtmWgt=   1.0078250   1.0078250  15.9949146   1.0078250   1.0078250  15.9949146   1.0078250   1.0078250  15.9949146   1.0078250
 NucSpn=           1           1           0           1           1           0           1           1           0           1
 AtZEff=   0.0000000   0.0000000   0.0000000   0.0000000   0.0000000   0.0000000   0.0000000   0.0000000   0.0000000   0.0000000
 NQMom=    0.0000000   0.0000000   0.0000000   0.0000000   0.0000000   0.0000000   0.0000000   0.0000000   0.0000000   0.0000000
 NMagM=    2.7928460   2.7928460   0.0000000   2.7928460   2.7928460   0.0000000   2.7928460   2.7928460   0.0000000   2.7928460
 AtZNuc=   1.0000000   1.0000000   8.0000000   1.0000000   1.0000000   8.0000000   1.0000000   1.0000000   8.0000000   1.0000000

  Atom       241         242         243         244         245         246         247         248         249         250
 IAtWgt=           1          16           1           1          16           1           1          16           1           1
 AtmWgt=   1.0078250  15.9949146   1.0078250   1.0078250  15.9949146   1.0078250   1.0078250  15.9949146   1.0078250   1.0078250
 NucSpn=           1           0           1           1           0           1           1           0           1           1
 AtZEff=   0.0000000   0.0000000   0.0000000   0.0000000   0.0000000   0.0000000   0.0000000   0.0000000   0.0000000   0.0000000
 NQMom=    0.0000000   0.0000000   0.0000000   0.0000000   0.0000000   0.0000000   0.0000000   0.0000000   0.0000000   0.0000000
 NMagM=    2.7928460   0.0000000   2.7928460   2.7928460   0.0000000   2.7928460   2.7928460   0.0000000   2.7928460   2.7928460
 AtZNuc=   1.0000000   8.0000000   1.0000000   1.0000000   8.0000000   1.0000000   1.0000000   8.0000000   1.0000000   1.0000000

  Atom       251         252         253         254         255         256         257         258         259         260
 IAtWgt=          16           1           1          16           1           1          16           1           1          16
 AtmWgt=  15.9949146   1.0078250   1.0078250  15.9949146   1.0078250   1.0078250  15.9949146   1.0078250   1.0078250  15.9949146
 NucSpn=           0           1           1           0           1           1           0           1           1           0
 AtZEff=   0.0000000   0.0000000   0.0000000   0.0000000   0.0000000   0.0000000   0.0000000   0.0000000   0.0000000   0.0000000
 NQMom=    0.0000000   0.0000000   0.0000000   0.0000000   0.0000000   0.0000000   0.0000000   0.0000000   0.0000000   0.0000000
 NMagM=    0.0000000   2.7928460   2.7928460   0.0000000   2.7928460   2.7928460   0.0000000   2.7928460   2.7928460   0.0000000
 AtZNuc=   8.0000000   1.0000000   1.0000000   8.0000000   1.0000000   1.0000000   8.0000000   1.0000000   1.0000000   8.0000000

  Atom       261         262         263         264         265         266         267         268         269         270
 IAtWgt=           1           1          16           1           1          16           1           1          16           1
 AtmWgt=   1.0078250   1.0078250  15.9949146   1.0078250   1.0078250  15.9949146   1.0078250   1.0078250  15.9949146   1.0078250
 NucSpn=           1           1           0           1           1           0           1           1           0           1
 AtZEff=   0.0000000   0.0000000   0.0000000   0.0000000   0.0000000   0.0000000   0.0000000   0.0000000   0.0000000   0.0000000
 NQMom=    0.0000000   0.0000000   0.0000000   0.0000000   0.0000000   0.0000000   0.0000000   0.0000000   0.0000000   0.0000000
 NMagM=    2.7928460   2.7928460   0.0000000   2.7928460   2.7928460   0.0000000   2.7928460   2.7928460   0.0000000   2.7928460
 AtZNuc=   1.0000000   1.0000000   8.0000000   1.0000000   1.0000000   8.0000000   1.0000000   1.0000000   8.0000000   1.0000000

  Atom       271         272         273         274         275         276         277         278         279         280
 IAtWgt=           1          16           1           1          16           1           1          16           1           1
 AtmWgt=   1.0078250  15.9949146   1.0078250   1.0078250  15.9949146   1.0078250   1.0078250  15.9949146   1.0078250   1.0078250
 NucSpn=           1           0           1           1           0           1           1           0           1           1
 AtZEff=   0.0000000   0.0000000   0.0000000   0.0000000   0.0000000   0.0000000   0.0000000   0.0000000   0.0000000   0.0000000
 NQMom=    0.0000000   0.0000000   0.0000000   0.0000000   0.0000000   0.0000000   0.0000000   0.0000000   0.0000000   0.0000000
 NMagM=    2.7928460   0.0000000   2.7928460   2.7928460   0.0000000   2.7928460   2.7928460   0.0000000   2.7928460   2.7928460
 AtZNuc=   1.0000000   8.0000000   1.0000000   1.0000000   8.0000000   1.0000000   1.0000000   8.0000000   1.0000000   1.0000000

  Atom       281         282         283         284         285         286         287         288         289         290
 IAtWgt=          16           1           1          16           1           1          16           1           1          16
 AtmWgt=  15.9949146   1.0078250   1.0078250  15.9949146   1.0078250   1.0078250  15.9949146   1.0078250   1.0078250  15.9949146
 NucSpn=           0           1           1           0           1           1           0           1           1           0
 AtZEff=   0.0000000   0.0000000   0.0000000   0.0000000   0.0000000   0.0000000   0.0000000   0.0000000   0.0000000   0.0000000
 NQMom=    0.0000000   0.0000000   0.0000000   0.0000000   0.0000000   0.0000000   0.0000000   0.0000000   0.0000000   0.0000000
 NMagM=    0.0000000   2.7928460   2.7928460   0.0000000   2.7928460   2.7928460   0.0000000   2.7928460   2.7928460   0.0000000
 AtZNuc=   8.0000000   1.0000000   1.0000000   8.0000000   1.0000000   1.0000000   8.0000000   1.0000000   1.0000000   8.0000000

  Atom       291         292         293         294         295         296         297         298         299         300
 IAtWgt=           1           1          16           1           1          16           1           1          16           1
 AtmWgt=   1.0078250   1.0078250  15.9949146   1.0078250   1.0078250  15.9949146   1.0078250   1.0078250  15.9949146   1.0078250
 NucSpn=           1           1           0           1           1           0           1           1           0           1
 AtZEff=   0.0000000   0.0000000   0.0000000   0.0000000   0.0000000   0.0000000   0.0000000   0.0000000   0.0000000   0.0000000
 NQMom=    0.0000000   0.0000000   0.0000000   0.0000000   0.0000000   0.0000000   0.0000000   0.0000000   0.0000000   0.0000000
 NMagM=    2.7928460   2.7928460   0.0000000   2.7928460   2.7928460   0.0000000   2.7928460   2.7928460   0.0000000   2.7928460
 AtZNuc=   1.0000000   1.0000000   8.0000000   1.0000000   1.0000000   8.0000000   1.0000000   1.0000000   8.0000000   1.0000000

  Atom       301         302         303         304         305         306         307         308         309         310
 IAtWgt=           1          16           1           1          16           1           1          16           1           1
 AtmWgt=   1.0078250  15.9949146   1.0078250   1.0078250  15.9949146   1.0078250   1.0078250  15.9949146   1.0078250   1.0078250
 NucSpn=           1           0           1           1           0           1           1           0           1           1
 AtZEff=   0.0000000   0.0000000   0.0000000   0.0000000   0.0000000   0.0000000   0.0000000   0.0000000   0.0000000   0.0000000
 NQMom=    0.0000000   0.0000000   0.0000000   0.0000000   0.0000000   0.0000000   0.0000000   0.0000000   0.0000000   0.0000000
 NMagM=    2.7928460   0.0000000   2.7928460   2.7928460   0.0000000   2.7928460   2.7928460   0.0000000   2.7928460   2.7928460
 AtZNuc=   1.0000000   8.0000000   1.0000000   1.0000000   8.0000000   1.0000000   1.0000000   8.0000000   1.0000000   1.0000000

  Atom       311         312         313         314         315         316         317         318         319         320
 IAtWgt=          16           1           1          16           1           1          16           1           1          16
 AtmWgt=  15.9949146   1.0078250   1.0078250  15.9949146   1.0078250   1.0078250  15.9949146   1.0078250   1.0078250  15.9949146
 NucSpn=           0           1           1           0           1           1           0           1           1           0
 AtZEff=   0.0000000   0.0000000   0.0000000   0.0000000   0.0000000   0.0000000   0.0000000   0.0000000   0.0000000   0.0000000
 NQMom=    0.0000000   0.0000000   0.0000000   0.0000000   0.0000000   0.0000000   0.0000000   0.0000000   0.0000000   0.0000000
 NMagM=    0.0000000   2.7928460   2.7928460   0.0000000   2.7928460   2.7928460   0.0000000   2.7928460   2.7928460   0.0000000
 AtZNuc=   8.0000000   1.0000000   1.0000000   8.0000000   1.0000000   1.0000000   8.0000000   1.0000000   1.0000000   8.0000000

  Atom       321         322         323         324         325         326         327         328         329         330
 IAtWgt=           1           1          16           1           1          16           1           1          16           1
 AtmWgt=   1.0078250   1.0078250  15.9949146   1.0078250   1.0078250  15.9949146   1.0078250   1.0078250  15.9949146   1.0078250
 NucSpn=           1           1           0           1           1           0           1           1           0           1
 AtZEff=   0.0000000   0.0000000   0.0000000   0.0000000   0.0000000   0.0000000   0.0000000   0.0000000   0.0000000   0.0000000
 NQMom=    0.0000000   0.0000000   0.0000000   0.0000000   0.0000000   0.0000000   0.0000000   0.0000000   0.0000000   0.0000000
 NMagM=    2.7928460   2.7928460   0.0000000   2.7928460   2.7928460   0.0000000   2.7928460   2.7928460   0.0000000   2.7928460
 AtZNuc=   1.0000000   1.0000000   8.0000000   1.0000000   1.0000000   8.0000000   1.0000000   1.0000000   8.0000000   1.0000000

  Atom       331         332         333         334         335         336         337         338         339         340
 IAtWgt=           1          16           1           1          16           1           1          16           1           1
 AtmWgt=   1.0078250  15.9949146   1.0078250   1.0078250  15.9949146   1.0078250   1.0078250  15.9949146   1.0078250   1.0078250
 NucSpn=           1           0           1           1           0           1           1           0           1           1
 AtZEff=   0.0000000   0.0000000   0.0000000   0.0000000   0.0000000   0.0000000   0.0000000   0.0000000   0.0000000   0.0000000
 NQMom=    0.0000000   0.0000000   0.0000000   0.0000000   0.0000000   0.0000000   0.0000000   0.0000000   0.0000000   0.0000000
 NMagM=    2.7928460   0.0000000   2.7928460   2.7928460   0.0000000   2.7928460   2.7928460   0.0000000   2.7928460   2.7928460
 AtZNuc=   1.0000000   8.0000000   1.0000000   1.0000000   8.0000000   1.0000000   1.0000000   8.0000000   1.0000000   1.0000000

  Atom       341         342         343         344         345         346         347         348         349         350
 IAtWgt=          16           1           1          16           1           1          16           1           1          16
 AtmWgt=  15.9949146   1.0078250   1.0078250  15.9949146   1.0078250   1.0078250  15.9949146   1.0078250   1.0078250  15.9949146
 NucSpn=           0           1           1           0           1           1           0           1           1           0
 AtZEff=   0.0000000   0.0000000   0.0000000   0.0000000   0.0000000   0.0000000   0.0000000   0.0000000   0.0000000   0.0000000
 NQMom=    0.0000000   0.0000000   0.0000000   0.0000000   0.0000000   0.0000000   0.0000000   0.0000000   0.0000000   0.0000000
 NMagM=    0.0000000   2.7928460   2.7928460   0.0000000   2.7928460   2.7928460   0.0000000   2.7928460   2.7928460   0.0000000
 AtZNuc=   8.0000000   1.0000000   1.0000000   8.0000000   1.0000000   1.0000000   8.0000000   1.0000000   1.0000000   8.0000000

  Atom       351         352         353         354         355         356         357         358         359         360
 IAtWgt=           1           1          16           1           1          16           1           1          16           1
 AtmWgt=   1.0078250   1.0078250  15.9949146   1.0078250   1.0078250  15.9949146   1.0078250   1.0078250  15.9949146   1.0078250
 NucSpn=           1           1           0           1           1           0           1           1           0           1
 AtZEff=   0.0000000   0.0000000   0.0000000   0.0000000   0.0000000   0.0000000   0.0000000   0.0000000   0.0000000   0.0000000
 NQMom=    0.0000000   0.0000000   0.0000000   0.0000000   0.0000000   0.0000000   0.0000000   0.0000000   0.0000000   0.0000000
 NMagM=    2.7928460   2.7928460   0.0000000   2.7928460   2.7928460   0.0000000   2.7928460   2.7928460   0.0000000   2.7928460
 AtZNuc=   1.0000000   1.0000000   8.0000000   1.0000000   1.0000000   8.0000000   1.0000000   1.0000000   8.0000000   1.0000000

  Atom       361         362         363         364         365         366         367         368         369         370
 IAtWgt=           1          16           1           1          16           1           1          16           1           1
 AtmWgt=   1.0078250  15.9949146   1.0078250   1.0078250  15.9949146   1.0078250   1.0078250  15.9949146   1.0078250   1.0078250
 NucSpn=           1           0           1           1           0           1           1           0           1           1
 AtZEff=   0.0000000   0.0000000   0.0000000   0.0000000   0.0000000   0.0000000   0.0000000   0.0000000   0.0000000   0.0000000
 NQMom=    0.0000000   0.0000000   0.0000000   0.0000000   0.0000000   0.0000000   0.0000000   0.0000000   0.0000000   0.0000000
 NMagM=    2.7928460   0.0000000   2.7928460   2.7928460   0.0000000   2.7928460   2.7928460   0.0000000   2.7928460   2.7928460
 AtZNuc=   1.0000000   8.0000000   1.0000000   1.0000000   8.0000000   1.0000000   1.0000000   8.0000000   1.0000000   1.0000000

  Atom       371         372         373         374         375         376         377         378         379         380
 IAtWgt=          16           1           1          16           1           1          16           1           1          16
 AtmWgt=  15.9949146   1.0078250   1.0078250  15.9949146   1.0078250   1.0078250  15.9949146   1.0078250   1.0078250  15.9949146
 NucSpn=           0           1           1           0           1           1           0           1           1           0
 AtZEff=   0.0000000   0.0000000   0.0000000   0.0000000   0.0000000   0.0000000   0.0000000   0.0000000   0.0000000   0.0000000
 NQMom=    0.0000000   0.0000000   0.0000000   0.0000000   0.0000000   0.0000000   0.0000000   0.0000000   0.0000000   0.0000000
 NMagM=    0.0000000   2.7928460   2.7928460   0.0000000   2.7928460   2.7928460   0.0000000   2.7928460   2.7928460   0.0000000
 AtZNuc=   8.0000000   1.0000000   1.0000000   8.0000000   1.0000000   1.0000000   8.0000000   1.0000000   1.0000000   8.0000000

  Atom       381         382         383         384         385
 IAtWgt=           1           1          16           1           1
 AtmWgt=   1.0078250   1.0078250  15.9949146   1.0078250   1.0078250
 NucSpn=           1           1           0           1           1
 AtZEff=   0.0000000   0.0000000   0.0000000   0.0000000   0.0000000
 NQMom=    0.0000000   0.0000000   0.0000000   0.0000000   0.0000000
 NMagM=    2.7928460   2.7928460   0.0000000   2.7928460   2.7928460
 AtZNuc=   1.0000000   1.0000000   8.0000000   1.0000000   1.0000000
 Leave Link  101 at Wed May 16 09:00:04 2018, MaxMem= 14763950080 cpu:        35.4
 (Enter /cm/shared/gaussian/g09.e01/intel64-sandybridge/g09/l103.exe)

 GradGradGradGradGradGradGradGradGradGradGradGradGradGradGradGradGradGrad
 Berny optimization.
 Initialization pass.
 Trust Radius=3.00D-01 FncErr=1.00D-07 GrdErr=1.00D-07
 Number of steps in this run=      2 maximum allowed number of steps=      2.
 GradGradGradGradGradGradGradGradGradGradGradGradGradGradGradGradGradGrad

 Leave Link  103 at Wed May 16 09:00:05 2018, MaxMem= 14763950080 cpu:         4.5
 (Enter /cm/shared/gaussian/g09.e01/intel64-sandybridge/g09/l202.exe)
 Symmetry turned off by external request.
 Stoichiometry    BrH256O128(1-)
 Framework group  C1[X(BrH256O128)]
 Deg. of freedom  1149
 Full point group                 C1      NOp   1
                          Input orientation:                          
 ---------------------------------------------------------------------
 Center     Atomic      Atomic             Coordinates (Angstroms)
 Number     Number       Type             X           Y           Z
 ---------------------------------------------------------------------
      1         35           0       20.000000   20.000000   20.000000
      2          8           0       17.350000   21.070000   18.940000
      3          1           0       17.470000   22.000000   19.110000
      4          1           0       18.120000   20.640000   19.300000
      5          8           0       19.170000   19.680000   23.220000
      6          1           0       19.040000   19.780000   22.280000
      7          1           0       19.780000   20.380000   23.460000
      8          8           0       18.750000   17.490000   17.980000
      9          1           0       19.230000   18.220000   18.390000
     10          1           0       18.290000   17.890000   17.250000
     11          8           0       23.020000   18.710000   19.400000
     12          1           0       22.990000   18.060000   20.110000
     13          1           0       22.430000   19.400000   19.690000
     14          8           0       21.940000   20.700000   22.760000
     15          1           0       22.670000   21.330000   22.790000
     16          1           0       21.540000   20.850000   21.900000
     17          8           0       20.260000   23.680000   19.880000
     18          1           0       19.440000   24.120000   20.110000
     19          1           0       20.020000   22.770000   19.740000
     20          8           0       21.720000   20.730000   16.830000
     21          1           0       20.930000   21.220000   16.590000
     22          1           0       21.720000   20.730000   17.780000
     23          8           0       19.890000   16.640000   22.130000
     24          1           0       19.070000   16.370000   21.700000
     25          1           0       19.910000   17.590000   22.030000
     26          8           0       16.110000   19.880000   21.410000
     27          1           0       16.740000   19.500000   22.020000
     28          1           0       16.650000   20.250000   20.710000
     29          8           0       18.680000   20.090000   16.310000
     30          1           0       19.590000   20.350000   16.140000
     31          1           0       18.400000   20.650000   17.030000
     32          8           0       17.580000   16.590000   20.380000
     33          1           0       17.910000   17.060000   19.610000
     34          1           0       16.750000   16.210000   20.100000
     35          8           0       24.400000   21.310000   19.620000
     36          1           0       24.010000   20.440000   19.530000
     37          1           0       24.270000   21.550000   20.530000
     38          8           0       22.600000   16.700000   21.280000
     39          1           0       22.080000   16.380000   20.540000
     40          1           0       21.960000   16.940000   21.940000
     41          8           0       22.310000   18.130000   23.730000
     42          1           0       21.780000   17.950000   24.510000
     43          1           0       22.160000   19.060000   23.550000
     44          8           0       23.440000   17.250000   17.010000
     45          1           0       23.360000   17.770000   16.200000
     46          1           0       23.240000   17.880000   17.710000
     47          8           0       20.740000   22.890000   23.900000
     48          1           0       21.000000   23.250000   24.750000
     49          1           0       21.090000   22.000000   23.900000
     50          8           0       20.030000   22.480000   15.880000
     51          1           0       20.210000   23.360000   16.230000
     52          1           0       19.860000   22.630000   14.950000
     53          8           0       17.780000   24.500000   20.270000
     54          1           0       17.540000   25.220000   20.860000
     55          1           0       16.940000   24.150000   19.970000
     56          8           0       21.860000   15.130000   18.870000
     57          1           0       20.930000   15.130000   19.130000
     58          1           0       22.090000   14.210000   18.800000
     59          8           0       14.790000   17.610000   20.860000
     60          1           0       15.250000   18.440000   20.930000
     61          1           0       14.600000   17.350000   21.760000
     62          8           0       24.220000   20.550000   15.930000
     63          1           0       23.490000   20.950000   16.400000
     64          1           0       23.810000   20.070000   15.210000
     65          8           0       18.910000   14.400000   17.920000
     66          1           0       18.950000   15.340000   18.050000
     67          1           0       18.560000   14.060000   18.740000
     68          8           0       22.420000   25.210000   19.180000
     69          1           0       22.950000   24.430000   19.040000
     70          1           0       21.530000   24.880000   19.280000
     71          8           0       17.090000   17.930000   15.030000
     72          1           0       17.530000   18.600000   15.550000
     73          1           0       16.540000   18.420000   14.420000
     74          8           0       17.800000   23.760000   24.380000
     75          1           0       18.420000   23.360000   23.770000
     76          1           0       17.790000   23.180000   25.140000
     77          8           0       14.090000   20.650000   18.240000
     78          1           0       13.790000   21.360000   17.670000
     79          1           0       15.040000   20.710000   18.210000
     80          8           0       18.400000   18.710000   26.030000
     81          1           0       17.560000   18.270000   25.870000
     82          1           0       18.760000   18.850000   25.160000
     83          8           0       16.830000   15.560000   23.140000
     84          1           0       17.280000   15.950000   22.390000
     85          1           0       16.310000   14.850000   22.770000
     86          8           0       25.030000   17.400000   22.530000
     87          1           0       24.650000   17.900000   23.260000
     88          1           0       24.290000   17.190000   21.970000
     89          8           0       13.890000   21.070000   21.160000
     90          1           0       14.570000   20.440000   21.380000
     91          1           0       13.640000   20.860000   20.260000
     92          8           0       24.350000   22.510000   22.580000
     93          1           0       25.240000   22.730000   22.830000
     94          1           0       23.890000   23.350000   22.520000
     95          8           0       17.140000   22.070000   14.320000
     96          1           0       16.460000   22.670000   14.630000
     97          1           0       17.300000   21.490000   15.060000
     98          8           0       21.590000   14.510000   23.260000
     99          1           0       21.800000   15.430000   23.140000
    100          1           0       20.710000   14.500000   23.640000
    101          8           0       24.610000   15.520000   19.420000
    102          1           0       23.980000   15.450000   18.700000
    103          1           0       24.090000   15.830000   20.160000
    104          8           0       24.930000   23.690000   18.400000
    105          1           0       24.980000   22.740000   18.400000
    106          1           0       25.640000   23.970000   18.980000
    107          8           0       26.230000   19.790000   17.420000
    108          1           0       26.750000   20.020000   16.640000
    109          1           0       25.360000   20.150000   17.240000
    110          8           0       18.490000   15.600000   15.300000
    111          1           0       18.010000   16.420000   15.230000
    112          1           0       18.170000   15.200000   16.110000
    113          8           0       23.030000   18.440000   14.580000
    114          1           0       22.130000   18.280000   14.310000
    115          1           0       23.560000   18.200000   13.820000
    116          8           0       20.790000   26.890000   22.090000
    117          1           0       20.020000   27.120000   21.570000
    118          1           0       21.090000   26.060000   21.720000
    119          8           0       16.100000   17.700000   24.780000
    120          1           0       16.440000   16.900000   24.380000
    121          1           0       15.330000   17.920000   24.250000
    122          8           0       24.010000   25.260000   21.470000
    123          1           0       24.870000   24.880000   21.290000
    124          1           0       23.590000   25.320000   20.610000
    125          8           0       20.980000   17.630000   25.960000
    126          1           0       20.150000   18.020000   26.230000
    127          1           0       20.940000   16.730000   26.290000
    128          8           0       15.170000   21.890000   24.480000
    129          1           0       15.010000   22.820000   24.670000
    130          1           0       14.880000   21.780000   23.580000
    131          8           0       27.040000   21.050000   21.040000
    132          1           0       26.450000   20.730000   20.360000
    133          1           0       27.370000   20.260000   21.460000
    134          8           0       21.600000   15.520000   14.650000
    135          1           0       20.650000   15.520000   14.740000
    136          1           0       21.930000   15.590000   15.540000
    137          8           0       19.740000   26.510000   18.140000
    138          1           0       20.570000   26.950000   18.280000
    139          1           0       19.860000   26.010000   17.340000
    140          8           0       20.720000   25.140000   15.880000
    141          1           0       21.460000   24.670000   15.510000
    142          1           0       20.970000   26.070000   15.840000
    143          8           0       12.930000   18.060000   18.840000
    144          1           0       13.340000   18.590000   18.160000
    145          1           0       13.610000   17.970000   19.510000
    146          8           0       20.220000   12.750000   21.490000
    147          1           0       20.540000   13.540000   21.930000
    148          1           0       19.430000   13.030000   21.030000
    149          8           0       22.790000   24.170000   14.610000
    150          1           0       23.670000   24.250000   14.250000
    151          1           0       22.620000   23.230000   14.650000
    152          8           0       18.770000   19.940000   12.890000
    153          1           0       18.540000   20.720000   13.400000
    154          1           0       18.210000   20.010000   12.110000
    155          8           0       14.450000   15.930000   16.500000
    156          1           0       15.210000   16.460000   16.690000
    157          1           0       14.800000   15.170000   16.020000
    158          8           0       26.690000   17.290000   18.660000
    159          1           0       26.360000   18.120000   18.320000
    160          1           0       25.910000   16.780000   18.870000
    161          8           0       20.540000   17.820000   13.290000
    162          1           0       19.770000   18.390000   13.230000
    163          1           0       20.200000   16.990000   13.600000
    164          8           0       13.560000   23.620000   20.060000
    165          1           0       13.670000   22.860000   20.630000
    166          1           0       12.730000   23.470000   19.610000
    167          8           0       17.090000   27.070000   18.500000
    168          1           0       16.770000   26.990000   17.600000
    169          1           0       17.910000   26.560000   18.510000
    170          8           0       25.360000   15.620000   15.970000
    171          1           0       25.440000   15.990000   15.100000
    172          1           0       24.640000   16.100000   16.380000
    173          8           0       18.950000   14.050000   23.980000
    174          1           0       18.690000   13.200000   24.330000
    175          1           0       18.290000   14.660000   24.310000
    176          8           0       21.100000   21.350000   13.140000
    177          1           0       20.340000   20.850000   12.820000
    178          1           0       21.860000   20.860000   12.820000
    179          8           0       18.220000   25.070000   14.880000
    180          1           0       19.090000   25.250000   15.220000
    181          1           0       18.360000   24.730000   14.000000
    182          8           0       23.180000   19.140000   26.790000
    183          1           0       22.500000   18.510000   26.550000
    184          1           0       23.940000   18.900000   26.270000
    185          8           0       27.500000   18.720000   22.230000
    186          1           0       27.840000   18.740000   23.130000
    187          1           0       26.770000   18.100000   22.270000
    188          8           0       13.740000   18.220000   23.570000
    189          1           0       13.040000   18.850000   23.430000
    190          1           0       13.340000   17.540000   24.120000
    191          8           0       14.970000   25.080000   23.740000
    192          1           0       15.800000   24.670000   23.980000
    193          1           0       15.210000   25.760000   23.110000
    194          8           0       14.090000   22.180000   15.860000
    195          1           0       14.060000   22.210000   14.910000
    196          1           0       14.380000   23.050000   16.130000
    197          8           0       21.660000   23.260000   26.520000
    198          1           0       22.350000   23.910000   26.380000
    199          1           0       22.110000   22.490000   26.850000
    200          8           0       26.820000   23.650000   20.260000
    201          1           0       27.700000   23.990000   20.110000
    202          1           0       26.950000   22.720000   20.440000
    203          8           0       17.520000   12.930000   20.060000
    204          1           0       16.970000   12.750000   19.300000
    205          1           0       17.300000   12.250000   20.690000
    206          8           0       22.490000   12.680000   19.640000
    207          1           0       23.290000   13.140000   19.930000
[...]
   Z335      52.23203  -0.01150   0.00000  -0.00774  -0.00780  52.22423
   X336      38.22916   0.00385   0.00000   0.00581   0.00667  38.23583
   Y336      27.55221  -0.00914   0.00000  -0.00972  -0.00984  27.54237
   Z336      52.79895   0.00178   0.00000   0.00097   0.00088  52.79983
   X337      36.41502  -0.02073   0.00000  -0.00935  -0.00862  36.40640
   Y337      29.74429   0.01340   0.00000   0.01593   0.01570  29.75999
   Z337      52.83674   0.00272   0.00000  -0.00582  -0.00584  52.83090
   X338      20.27676  -0.01973   0.00000  -0.01201  -0.01169  20.26507
   Y338      32.29542  -0.00523   0.00000  -0.00597  -0.00687  32.28855
   Z338      38.39924   0.00601   0.00000   0.00084   0.00116  38.40039
   X339      21.78854   0.01606   0.00000   0.00661   0.00689  21.79543
   Y339      32.69226   0.00870   0.00000   0.01094   0.01015  32.70241
   Z339      37.51106  -0.01289   0.00000  -0.01100  -0.01070  37.50037
   X340      20.78699   0.00397   0.00000   0.00500   0.00541  20.79240
   Y340      31.04820  -0.00454   0.00000  -0.00431  -0.00520  31.04300
   Z340      39.60866   0.00332   0.00000   0.00274   0.00303  39.61169
   X341      20.33345  -0.00213   0.00000   0.00429   0.00416  20.33761
   Y341      39.96771  -0.00844   0.00000  -0.00025  -0.00115  39.96655
   Z341      38.68269  -0.01657   0.00000  -0.01611  -0.01564  38.66706
   X342      21.27832   0.00395   0.00000  -0.00220  -0.00229  21.27602
   Y342      39.74094  -0.00791   0.00000  -0.01233  -0.01320  39.72774
   Z342      40.21337   0.01263   0.00000   0.00733   0.00778  40.22115
   X343      20.10669  -0.00263   0.00000  -0.00309  -0.00333  20.10335
   Y343      41.74405   0.01622   0.00000   0.01503   0.01412  41.75817
   Z343      38.55041   0.00285   0.00000   0.00539   0.00590  38.55632
   X344      23.48930   0.00383   0.00000   0.00452   0.00428  23.49357
   Y344      38.34254  -0.00805   0.00000  -0.00172  -0.00219  38.34035
   Z344      26.94749  -0.01080   0.00000  -0.00476  -0.00438  26.94312
   X345      23.90504   0.00009   0.00000  -0.00267  -0.00296  23.90207
   Y345      39.49528   0.00801   0.00000   0.00286   0.00238  39.49766
   Z345      28.27030   0.01786   0.00000   0.01822   0.01862  28.28893
   X346      21.69406  -0.00401   0.00000  -0.00121  -0.00144  21.69262
   Y346      38.11578  -0.00134   0.00000  -0.00218  -0.00276  38.11302
   Z346      27.07978  -0.00025   0.00000  -0.00220  -0.00179  27.07798
   X347      22.07200   0.00721   0.00000   0.00673   0.00625  22.07825
   Y347      44.18180   0.02281   0.00000   0.01436   0.01367  44.19547
   Z347      33.33477   0.01043   0.00000   0.01364   0.01417  33.34894
   X348      20.31456  -0.00465   0.00000  -0.00336  -0.00386  20.31070
   Y348      44.54084  -0.00228   0.00000  -0.00158  -0.00238  44.53847
   Z348      33.61823  -0.00055   0.00000  -0.00155  -0.00098  33.61725
   X349      22.10980  -0.00660   0.00000  -0.00932  -0.00970  22.10010
   Y349      42.40545  -0.01925   0.00000  -0.00833  -0.00901  42.39645
   Z349      32.99462  -0.00711   0.00000  -0.00860  -0.00811  32.98651
   X350      22.97907  -0.01143   0.00000  -0.00513  -0.00564  22.97343
   Y350      47.37543   0.00256   0.00000   0.00339   0.00257  47.37800
   Z350      42.48104   0.00732   0.00000   0.00239   0.00297  42.48401
   X351      23.26253   0.00743   0.00000   0.01015   0.00962  23.27215
   Y351      47.24315  -0.00165   0.00000  -0.00132  -0.00209  47.24107
   Z351      40.70470  -0.01151   0.00000  -0.00820  -0.00763  40.69707
   X352      24.62313   0.00923   0.00000   0.00609   0.00561  24.62874
   Y352      47.16756  -0.00331   0.00000  -0.00410  -0.00484  47.16273
   Z352      43.21804   0.00366   0.00000   0.00317   0.00371  43.22175
   X353      33.41036   0.00653   0.00000   0.00586   0.00651  33.41687
   Y353      31.01041   0.00088   0.00000  -0.00377  -0.00418  31.00623
   Z353      52.81785   0.00288   0.00000   0.00419   0.00424  52.82209
   X354      32.84344  -0.00693   0.00000  -0.01205  -0.01136  32.83208
   Y354      30.84033   0.00405   0.00000   0.00814   0.00766  30.84799
   Z354      54.53750   0.00279   0.00000   0.00245   0.00251  54.54001
   X355      32.52219  -0.00766   0.00000  -0.01052  -0.00981  32.51238
   Y355      29.70649  -0.00274   0.00000   0.00091   0.00046  29.70696
   Z355      51.92967  -0.00292   0.00000  -0.00176  -0.00171  51.92796
   X356      34.35522   0.00912   0.00000   0.00680   0.00600  34.36122
   Y356      53.15800  -0.00016   0.00000   0.00273   0.00253  53.16052
   Z356      45.54240  -0.00117   0.00000  -0.00401  -0.00351  45.53889
   X357      32.63557  -0.00817   0.00000  -0.00305  -0.00385  32.63172
   Y357      53.44146   0.00078   0.00000  -0.00026  -0.00058  53.44088
   Z357      46.01483   0.00526   0.00000   0.00620   0.00673  46.02156
   X358      34.41191  -0.00174   0.00000  -0.00274  -0.00359  34.40832
   Y358      53.49815   0.00031   0.00000  -0.00012  -0.00029  53.49786
   Z358      43.76606  -0.00702   0.00000  -0.00902  -0.00852  43.75754
   X359      49.64311  -0.00525   0.00000  -0.00230  -0.00265  49.64045
   Y359      46.46837  -0.00034   0.00000  -0.00084  -0.00019  46.46817
   Z359      48.20691   0.00389   0.00000   0.00213   0.00222  48.20913
   X360      50.83363   0.00320   0.00000   0.00206   0.00163  50.83526
   Y360      47.82897   0.00441   0.00000   0.00331   0.00404  47.83300
   Z360      48.33919  -0.00007   0.00000  -0.00033  -0.00023  48.33896
   X361      50.28561  -0.00077   0.00000  -0.00379  -0.00410  50.28151
   Y361      45.46681  -0.00079   0.00000   0.00148   0.00220  45.46901
   Z361      46.82741  -0.00759   0.00000  -0.00890  -0.00885  46.81857
   X362      24.62313  -0.01971   0.00000  -0.01615  -0.01591  24.60723
   Y362      37.28430   0.00080   0.00000  -0.00305  -0.00394  37.28035
   Z362      50.77694  -0.00997   0.00000  -0.01714  -0.01680  50.76014
   X363      24.79321   0.00618   0.00000   0.00794   0.00829  24.80150
   Y363      35.52685  -0.00909   0.00000  -0.00638  -0.00727  35.51958
   Z363      51.15489   0.00319   0.00000   0.00352   0.00382  51.15871
   X364      26.34278   0.00936   0.00000  -0.00014   0.00007  26.34285
   Y364      37.87011   0.00667   0.00000   0.00907   0.00828  37.87840
   Z364      50.68245   0.00866   0.00000   0.01607   0.01640  50.69885
   X365      24.69872  -0.01066   0.00000  -0.00669  -0.00591  24.69281
   Y365      25.11446  -0.01887   0.00000  -0.01478  -0.01544  25.09902
   Z365      39.64645   0.01853   0.00000   0.00989   0.00998  39.65643
   X366      25.09556   0.00096   0.00000  -0.00763  -0.00694  25.08862
   Y366      26.05932   0.01513   0.00000   0.01095   0.01035  26.06967
   Z366      38.17247  -0.01943   0.00000  -0.01040  -0.01030  38.16217
   X367      26.19160   0.00663   0.00000   0.00648   0.00726  26.19887
   Y367      25.20895   0.00528   0.00000   0.00853   0.00794  25.21689
   Z367      40.66691  -0.00072   0.00000  -0.00270  -0.00263  40.66427
   X368      20.69250   0.00456   0.00000   0.00180   0.00162  20.69412
   Y368      39.30630   0.01205   0.00000   0.00957   0.00881  39.31511
   Z368      33.35367  -0.01340   0.00000  -0.00607  -0.00561  33.34805
   X369      19.89882  -0.00175   0.00000   0.00263   0.00253  19.90134
   Y369      37.77563  -0.01000   0.00000  -0.00660  -0.00741  37.76822
   Z369      32.82454  -0.00180   0.00000  -0.00177  -0.00133  32.82321
   X370      20.67360   0.00089   0.00000   0.00284   0.00269  20.67629
   Y370      39.23071  -0.00579   0.00000  -0.00745  -0.00826  39.22245
   Z370      35.16780   0.01937   0.00000   0.01412   0.01458  35.18238
   X371      32.40880  -0.00952   0.00000  -0.00371  -0.00266  32.40614
   Y371      21.29721   0.00270   0.00000   0.00124   0.00099  21.29820
   Z371      42.21648  -0.00434   0.00000  -0.00288  -0.00301  42.21348
   X372      34.10956   0.01587   0.00000   0.01251   0.01355  34.12311
   Y372      21.50508   0.00235   0.00000   0.00280   0.00264  21.50772
   Z372      42.78340   0.00257   0.00000  -0.00046  -0.00061  42.78279
   X373      32.20093  -0.00052   0.00000  -0.00130  -0.00015  32.20078
   Y373      19.50197  -0.00586   0.00000  -0.00482  -0.00508  19.49689
   Z373      42.04641  -0.00163   0.00000  -0.00244  -0.00260  42.04381
   X374      39.30630  -0.01397   0.00000  -0.00419  -0.00538  39.30092
   Y374      55.69023   0.00266   0.00000  -0.00225  -0.00188  55.68835
   Z374      31.91747  -0.02135   0.00000  -0.02858  -0.02811  31.88936
   X375      40.06219   0.00335   0.00000  -0.00315  -0.00424  40.05795
   Y375      54.40522  -0.00471   0.00000   0.00392   0.00431  54.40953
   Z375      32.95682   0.01309   0.00000   0.01237   0.01279  32.96962
   X376      40.61021   0.00726   0.00000   0.00480   0.00353  40.61375
   Y376      56.91855   0.00892   0.00000   0.00970   0.01016  56.92871
   Z376      31.70960   0.00362   0.00000   0.00639   0.00686  31.71646
   X377      38.73939  -0.01190   0.00000  -0.00868  -0.00804  38.73135
   Y377      23.41371   0.00462   0.00000   0.00707   0.00752  23.42123
   Z377      26.64514  -0.01062   0.00000  -0.00807  -0.00826  26.63688
   X378      39.79763   0.00518   0.00000   0.00661   0.00725  39.80488
   Y378      23.07356  -0.00088   0.00000  -0.00142  -0.00088  23.07267
   Z378      25.20895   0.00035   0.00000   0.00203   0.00181  25.21076
   X379      39.89212   0.00460   0.00000  -0.00368  -0.00301  39.88911
   Y379      23.43260  -0.00339   0.00000  -0.00642  -0.00594  23.42667
   Z379      28.04354   0.01185   0.00000   0.00951   0.00930  28.05283
   X380      39.70315  -0.00694   0.00000   0.00008  -0.00098  39.70217
   Y380      52.23203  -0.01559   0.00000  -0.01111  -0.01064  52.22139
   Z380      27.91125  -0.00274   0.00000   0.00212   0.00250  27.91376
   X381      41.34721   0.01086   0.00000   0.00933   0.00826  41.35547
   Y381      52.21313   0.00020   0.00000   0.00018   0.00077  52.21390
   Z381      27.17426  -0.00611   0.00000  -0.00634  -0.00599  27.16828
   X382      39.68425  -0.00547   0.00000  -0.00898  -0.01011  39.67414
   Y382      53.72491   0.01413   0.00000   0.00714   0.00759  53.73250
   Z382      28.95060   0.01530   0.00000   0.01486   0.01527  28.96587
   X383      40.15668  -0.00414   0.00000  -0.00759  -0.00643  40.15025
   Y383      19.46418  -0.01430   0.00000  -0.01142  -0.01121  19.45297
   Z383      42.44325   0.00460   0.00000   0.01096   0.01067  42.45391
   X384      38.92836   0.00462   0.00000   0.01117   0.01224  38.94060
   Y384      20.67360   0.00974   0.00000   0.01047   0.01061  20.68422
   Z384      41.87633  -0.00451   0.00000  -0.00676  -0.00701  41.86932
   X385      41.46059   0.00268   0.00000  -0.00118  -0.00007  41.46052
   Y385      20.48463   0.00726   0.00000   0.00524   0.00551  20.49014
   Z385      43.19914   0.00211   0.00000   0.00067   0.00037  43.19951
         Item               Value     Threshold  Converged?
 Maximum Force            0.043160     0.000450     NO 
 RMS     Force            0.010557     0.000300     NO 
 Maximum Displacement     0.029728     0.001800     NO 
 RMS     Displacement     0.008837     0.001200     NO 
 Predicted change in Energy=-7.311516D-02
 GradGradGradGradGradGradGradGradGradGradGradGradGradGradGradGradGradGrad

 Leave Link  103 at Wed May 16 12:57:45 2018, MaxMem= 14763950080 cpu:      3028.0
 (Enter /cm/shared/gaussian/g09.e01/intel64-sandybridge/g09/l9999.exe)
 1\1\GINC-POPLE03\Force\RPBE1PBE\CC-pVDZ\Br1H256O128(1-)\M.PELUSO\16-Ma
 y-2018\0\\#p PBE1PBE/cc-pvDZ force Counterpoise=2 noSymm\\forces on ch
 loride comput - NWATER: 128\\-1,1\Br,20.,20.,20.\O,17.35,21.07,18.94\H
 ,17.47,22.,19.11\H,18.12,20.64,19.3\O,19.17,19.68,23.22\H,19.04,19.78,
 22.28\H,19.78,20.38,23.46\O,18.75,17.49,17.98\H,19.23,18.22,18.39\H,18
 .29,17.89,17.25\O,23.02,18.71,19.4\H,22.99,18.06,20.11\H,22.43,19.4,19
 .69\O,21.94,20.7,22.76\H,22.67,21.33,22.79\H,21.54,20.85,21.9\O,20.26,
 23.68,19.88\H,19.44,24.12,20.11\H,20.02,22.77,19.74\O,21.72,20.73,16.8
 3\H,20.93,21.22,16.59\H,21.72,20.73,17.78\O,19.89,16.64,22.13\H,19.07,
 16.37,21.7\H,19.91,17.59,22.03\O,16.11,19.88,21.41\H,16.74,19.5,22.02\
 H,16.65,20.25,20.71\O,18.68,20.09,16.31\H,19.59,20.35,16.14\H,18.4,20.
 65,17.03\O,17.58,16.59,20.38\H,17.91,17.06,19.61\H,16.75,16.21,20.1\O,
 24.4,21.31,19.62\H,24.01,20.44,19.53\H,24.27,21.55,20.53\O,22.6,16.7,2
 1.28\H,22.08,16.38,20.54\H,21.96,16.94,21.94\O,22.31,18.13,23.73\H,21.
 78,17.95,24.51\H,22.16,19.06,23.55\O,23.44,17.25,17.01\H,23.36,17.77,1
 6.2\H,23.24,17.88,17.71\O,20.74,22.89,23.9\H,21.,23.25,24.75\H,21.09,2
 2.,23.9\O,20.03,22.48,15.88\H,20.21,23.36,16.23\H,19.86,22.63,14.95\O,
 17.78,24.5,20.27\H,17.54,25.22,20.86\H,16.94,24.15,19.97\O,21.86,15.13
 ,18.87\H,20.93,15.13,19.13\H,22.09,14.21,18.8\O,14.79,17.61,20.86\H,15
 .25,18.44,20.93\H,14.6,17.35,21.76\O,24.22,20.55,15.93\H,23.49,20.95,1
 6.4\H,23.81,20.07,15.21\O,18.91,14.4,17.92\H,18.95,15.34,18.05\H,18.56
 ,14.06,18.74\O,22.42,25.21,19.18\H,22.95,24.43,19.04\H,21.53,24.88,19.
 28\O,17.09,17.93,15.03\H,17.53,18.6,15.55\H,16.54,18.42,14.42\O,17.8,2
 3.76,24.38\H,18.42,23.36,23.77\H,17.79,23.18,25.14\O,14.09,20.65,18.24
 \H,13.79,21.36,17.67\H,15.04,20.71,18.21\O,18.4,18.71,26.03\H,17.56,18
 .27,25.87\H,18.76,18.85,25.16\O,16.83,15.56,23.14\H,17.28,15.95,22.39\
 H,16.31,14.85,22.77\O,25.03,17.4,22.53\H,24.65,17.9,23.26\H,24.29,17.1
 9,21.97\O,13.89,21.07,21.16\H,14.57,20.44,21.38\H,13.64,20.86,20.26\O,
 24.35,22.51,22.58\H,25.24,22.73,22.83\H,23.89,23.35,22.52\O,17.14,22.0
 7,14.32\H,16.46,22.67,14.63\H,17.3,21.49,15.06\O,21.59,14.51,23.26\H,2
 1.8,15.43,23.14\H,20.71,14.5,23.64\O,24.61,15.52,19.42\H,23.98,15.45,1
 8.7\H,24.09,15.83,20.16\O,24.93,23.69,18.4\H,24.98,22.74,18.4\H,25.64,
 23.97,18.98\O,26.23,19.79,17.42\H,26.75,20.02,16.64\H,25.36,20.15,17.2
 4\O,18.49,15.6,15.3\H,18.01,16.42,15.23\H,18.17,15.2,16.11\O,23.03,18.
 44,14.58\H,22.13,18.28,14.31\H,23.56,18.2,13.82\O,20.79,26.89,22.09\H,
 20.02,27.12,21.57\H,21.09,26.06,21.72\O,16.1,17.7,24.78\H,16.44,16.9,2
 4.38\H,15.33,17.92,24.25\O,24.01,25.26,21.47\H,24.87,24.88,21.29\H,23.
 59,25.32,20.61\O,20.98,17.63,25.96\H,20.15,18.02,26.23\H,20.94,16.73,2
 6.29\O,15.17,21.89,24.48\H,15.01,22.82,24.67\H,14.88,21.78,23.58\O,27.
 04,21.05,21.04\H,26.45,20.73,20.36\H,27.37,20.26,21.46\O,21.6,15.52,14
 .65\H,20.65,15.52,14.74\H,21.93,15.59,15.54\O,19.74,26.51,18.14\H,20.5
 7,26.95,18.28\H,19.86,26.01,17.34\O,20.72,25.14,15.88\H,21.46,24.67,15
 .51\H,20.97,26.07,15.84\O,12.93,18.06,18.84\H,13.34,18.59,18.16\H,13.6
 1,17.97,19.51\O,20.22,12.75,21.49\H,20.54,13.54,21.93\H,19.43,13.03,21
 .03\O,22.79,24.17,14.61\H,23.67,24.25,14.25\H,22.62,23.23,14.65\O,18.7
 7,19.94,12.89\H,18.54,20.72,13.4\H,18.21,20.01,12.11\O,14.45,15.93,16.
 5\H,15.21,16.46,16.69\H,14.8,15.17,16.02\O,26.69,17.29,18.66\H,26.36,1
 8.12,18.32\H,25.91,16.78,18.87\O,20.54,17.82,13.29\H,19.77,18.39,13.23
 \H,20.2,16.99,13.6\O,13.56,23.62,20.06\H,13.67,22.86,20.63\H,12.73,23.
 47,19.61\O,17.09,27.07,18.5\H,16.77,26.99,17.6\H,17.91,26.56,18.51\O,2
 5.36,15.62,15.97\H,25.44,15.99,15.1\H,24.64,16.1,16.38\O,18.95,14.05,2
 3.98\H,18.69,13.2,24.33\H,18.29,14.66,24.31\O,21.1,21.35,13.14\H,20.34
 ,20.85,12.82\H,21.86,20.86,12.82\O,18.22,25.07,14.88\H,19.09,25.25,15.
 22\H,18.36,24.73,14.\O,23.18,19.14,26.79\H,22.5,18.51,26.55\H,23.94,18
 .9,26.27\O,27.5,18.72,22.23\H,27.84,18.74,23.13\H,26.77,18.1,22.27\O,1
 3.74,18.22,23.57\H,13.04,18.85,23.43\H,13.34,17.54,24.12\O,14.97,25.08
 ,23.74\H,15.8,24.67,23.98\H,15.21,25.76,23.11\O,14.09,22.18,15.86\H,14
 .06,22.21,14.91\H,14.38,23.05,16.13\O,21.66,23.26,26.52\H,22.35,23.91,
 26.38\H,22.11,22.49,26.85\O,26.82,23.65,20.26\H,27.7,23.99,20.11\H,26.
 95,22.72,20.44\O,17.52,12.93,20.06\H,16.97,12.75,19.3\H,17.3,12.25,20.
 69\O,22.49,12.68,19.64\H,23.29,13.14,19.93\H,21.89,12.76,20.39\O,18.86
 ,22.52,26.97\H,19.81,22.69,27.03\H,18.5,23.,27.72\O,12.13,20.41,23.1\H
 ,11.99,21.2,23.63\H,12.86,20.63,22.52\O,22.33,27.77,18.16\H,22.65,27.1
 ,18.76\H,23.09,28.02,17.64\O,15.31,21.15,27.03\H,15.35,21.24,26.08\H,1
 6.22,21.05,27.3\O,17.94,20.36,28.22\H,18.02,19.73,27.51\H,18.4,21.14,2
 7.9\O,16.38,26.8,21.35\H,16.87,27.5,20.91\H,15.71,27.26,21.86\O,15.06,
 19.51,13.88\H,15.17,20.08,13.11\H,14.12,19.5,14.03\O,21.31,20.86,27.98
 \H,21.85,20.13,27.69\H,20.87,20.54,28.77\O,25.46,18.55,25.54\H,25.97,1
 7.78,25.8\H,26.08,19.07,25.02\O,25.87,14.8,22.82\H,26.05,15.74,22.85\H
 ,25.5,14.59,23.68\O,15.3,24.74,15.5\H,15.99,24.89,14.85\H,14.83,25.58,
 15.53\O,13.91,26.35,19.65\H,14.01,25.4,19.59\H,14.05,26.55,20.58\O,12.
 9,14.97,18.85\H,11.97,15.18,18.79\H,13.32,15.53,18.2\O,21.65,23.8,11.9
 2\H,21.2,24.49,12.41\H,21.55,23.02,12.47\O,27.21,22.73,23.46\H,27.57,2
 2.24,24.21\H,27.49,22.22,22.69\O,20.99,27.97,24.59\H,20.97,27.26,23.94
 \H,20.17,28.43,24.47\O,14.74,17.33,27.18\H,15.33,17.75,26.55\H,14.63,1
 6.44,26.85\O,18.39,11.56,16.79\H,17.44,11.6,16.94\H,18.66,12.46,16.66\
 O,24.77,21.3,27.9\H,25.34,20.57,28.17\H,24.18,20.92,27.25\O,16.82,27.1
 2,15.82\H,17.18,27.95,15.52\H,17.28,26.46,15.3\O,17.92,13.79,13.23\H,1
 8.2,14.32,13.98\H,18.65,13.2,13.06\O,18.5,26.51,26.34\H,18.28,25.59,26
 .16\H,18.77,26.86,25.49\O,26.19,13.29,18.24\H,26.01,14.14,18.64\H,26.2
 5,12.69,18.98\O,15.42,13.35,22.68\H,14.77,12.84,23.17\H,16.02,12.7,22.
 32\O,27.9,15.59,20.81\H,27.13,15.22,21.23\H,27.56,16.08,20.06\O,23.68,
 27.96,22.8\H,23.97,27.07,22.61\H,22.99,27.84,23.46\O,23.17,12.36,23.95
 \H,23.55,13.,23.35\H,22.86,12.88,24.69\O,28.64,21.63,18.22\H,29.59,21.
 6,18.17\H,28.39,20.79,18.59\O,23.64,15.36,12.84\H,22.81,15.4,13.32\H,2
 3.4,15.43,11.92\O,21.86,29.32,20.89\H,22.56,29.12,21.51\H,21.44,28.47,
 20.73\O,22.21,11.63,16.96\H,22.8,12.27,16.57\H,22.15,11.9,17.88\O,27.3
 8,23.67,16.45\H,27.6,23.1,15.71\H,27.59,23.14,17.23\O,25.03,12.59,21.0
 4\H,25.86,12.11,20.92\H,25.24,13.26,21.69\O,27.98,16.64,16.32\H,27.61,
 16.85,17.18\H,27.24,16.28,15.83\O,15.87,14.22,14.93\H,16.5,14.08,14.23
 \H,15.21,13.53,14.81\O,15.15,16.12,12.74\H,15.37,15.3,12.29\H,15.52,16
 .02,13.62\O,23.55,24.99,26.29\H,23.48,25.85,26.7\H,24.4,25.01,25.84\O,
 12.08,17.19,15.49\H,12.35,18.07,15.25\H,12.84,16.81,15.93\O,13.01,25.7
 8,16.81\H,13.73,25.67,17.42\H,12.42,25.05,17.01\O,20.75,16.52,10.97\H,
 20.93,17.15,11.67\H,21.43,15.85,11.08\O,17.02,23.68,11.96\H,16.85,22.7
 7,12.19\H,16.16,24.09,11.9\O,24.66,12.86,16.07\H,24.7,13.77,15.77\H,25
 .28,12.82,16.79\O,20.13,15.48,27.64\H,20.23,14.58,27.94\H,19.27,15.74,
 27.96\O,10.73,17.09,20.32\H,11.53,17.3,19.85\H,11.,16.43,20.96\O,10.76
 ,21.15,20.47\H,11.26,21.03,21.28\H,10.64,22.09,20.4\O,12.43,20.29,14.2
 6\H,12.65,20.9,14.96\H,11.48,20.17,14.33\O,11.68,23.38,17.64\H,10.75,2
 3.57,17.79\H,11.7,22.44,17.46\O,12.16,25.07,22.48\H,12.31,25.,21.54\H,
 13.03,24.96,22.87\O,17.68,16.41,27.95\H,17.38,16.32,28.86\H,17.21,15.7
 2,27.48\O,18.18,28.13,24.1\H,17.27,28.28,24.35\H,18.21,28.31,23.16\O,2
 6.27,24.59,25.51\H,26.9,25.31,25.58\H,26.61,24.06,24.78\O,13.03,19.73,
 26.87\H,13.12,18.8,27.07\H,13.94,20.04,26.82\O,13.07,13.29,20.98\H,13.
 28,13.79,20.2\H,13.86,13.34,21.52\O,10.95,20.8,17.65\H,10.53,19.99,17.
 37\H,10.94,20.76,18.61\O,17.15,11.27,22.34\H,18.05,11.38,22.64\H,17.04
 ,10.32,22.25\O,20.8,29.47,16.89\H,21.2,28.79,17.44\H,21.49,30.12,16.78
 \O,20.5,12.39,14.1\H,21.06,12.21,13.34\H,21.11,12.4,14.84\O,21.01,27.6
 4,14.77\H,21.88,27.63,14.38\H,21.,28.43,15.32\O,21.25,10.3,22.46\H,20.
 6,10.94,22.16\H,21.94,10.84,22.86\\Version=ES64L-G09RevE.01\HF=-9773.3
 665539\RMSD=1.262e-09\RMSF=1.056e-02\Dipole=1.7467055,0.7279856,0.1698
 215\Quadrupole=84.5764343,-71.1564091,-13.4200252,-1208.1230343,-1225.
 3007121,-1546.9382236\PG=C01 [X(Br1H256O128)]\\@


 LAW OF COMPENSATION:
      NO CALCULATION IS EVER A COMPLETE FAILURE; IT 
      CAN ALWAYS SERVE AS A BAD EXAMPLE.

                                           -- ANON
 Job cpu time:      10 days 10 hours  2 minutes 29.8 seconds.
 File lengths (MBytes):  RWF=   7285 Int=      0 D2E=      0 Chk=   2411 Scr=      1
 Normal termination of Gaussian 09 at Wed May 16 12:58:20 2018.
