 Entering Gaussian System, Link 0=/cm/shared/gaussian/g09.e01/intel64-sandybridge/g09/g09
 Initial command:
 /cm/shared/gaussian/g09.e01/intel64-sandybridge/g09/l1.exe "/local/scratch/m.peluso/128_wat/order/Gau-61734.inp" -scrdir="/local/scratch/m.peluso/128_wat/order/"
 Entering Link 1 = /cm/shared/gaussian/g09.e01/intel64-sandybridge/g09/l1.exe PID=     61735.
  
 Copyright (c) 1988,1990,1992,1993,1995,1998,2003,2009,2015,
            Gaussian, Inc.  All Rights Reserved.
  
 This is part of the Gaussian(R) 09 program.  It is based on
 the Gaussian(R) 03 system (copyright 2003, Gaussian, Inc.),
 the Gaussian(R) 98 system (copyright 1998, Gaussian, Inc.),
 the Gaussian(R) 94 system (copyright 1995, Gaussian, Inc.),
 the Gaussian 92(TM) system (copyright 1992, Gaussian, Inc.),
 the Gaussian 90(TM) system (copyright 1990, Gaussian, Inc.),
 the Gaussian 88(TM) system (copyright 1988, Gaussian, Inc.),
 the Gaussian 86(TM) system (copyright 1986, Carnegie Mellon
 University), and the Gaussian 82(TM) system (copyright 1983,
 Carnegie Mellon University). Gaussian is a federally registered
 trademark of Gaussian, Inc.
  
 This software contains proprietary and confidential information,
 including trade secrets, belonging to Gaussian, Inc.
  
 This software is provided under written license and may be
 used, copied, transmitted, or stored only in accord with that
 written license.
  
 The following legend is applicable only to US Government
 contracts under FAR:
  
                    RESTRICTED RIGHTS LEGEND
  
 Use, reproduction and disclosure by the US Government is
 subject to restrictions as set forth in subparagraphs (a)
 and (c) of the Commercial Computer Software - Restricted
 Rights clause in FAR 52.227-19.
  
 Gaussian, Inc.
 340 Quinnipiac St., Bldg. 40, Wallingford CT 06492
  
  
 ---------------------------------------------------------------
 Warning -- This program may not be used in any manner that
 competes with the business of Gaussian, Inc. or will provide
 assistance to any competitor of Gaussian, Inc.  The licensee
 of this program is prohibited from giving any competitor of
 Gaussian, Inc. access to this program.  By using this program,
 the user acknowledges that Gaussian, Inc. is engaged in the
 business of creating and licensing software in the field of
 computational chemistry and represents and warrants to the
 licensee that it is not a competitor of Gaussian, Inc. and that
 it will not use this program in any manner prohibited above.
 ---------------------------------------------------------------
  

 Cite this work as:
 Gaussian 09, Revision E.01,
 M. J. Frisch, G. W. Trucks, H. B. Schlegel, G. E. Scuseria, 
 M. A. Robb, J. R. Cheeseman, G. Scalmani, V. Barone, B. Mennucci, 
 G. A. Petersson, H. Nakatsuji, M. Caricato, X. Li, H. P. Hratchian, 
 A. F. Izmaylov, J. Bloino, G. Zheng, J. L. Sonnenberg, M. Hada, 
 M. Ehara, K. Toyota, R. Fukuda, J. Hasegawa, M. Ishida, T. Nakajima, 
 Y. Honda, O. Kitao, H. Nakai, T. Vreven, J. A. Montgomery, Jr., 
 J. E. Peralta, F. Ogliaro, M. Bearpark, J. J. Heyd, E. Brothers, 
 K. N. Kudin, V. N. Staroverov, T. Keith, R. Kobayashi, J. Normand, 
 K. Raghavachari, A. Rendell, J. C. Burant, S. S. Iyengar, J. Tomasi, 
 M. Cossi, N. Rega, J. M. Millam, M. Klene, J. E. Knox, J. B. Cross, 
 V. Bakken, C. Adamo, J. Jaramillo, R. Gomperts, R. E. Stratmann, 
 O. Yazyev, A. J. Austin, R. Cammi, C. Pomelli, J. W. Ochterski, 
 R. L. Martin, K. Morokuma, V. G. Zakrzewski, G. A. Voth, 
 P. Salvador, J. J. Dannenberg, S. Dapprich, A. D. Daniels, 
 O. Farkas, J. B. Foresman, J. V. Ortiz, J. Cioslowski, 
 and D. J. Fox, Gaussian, Inc., Wallingford CT, 2013.
 
 ******************************************
 Gaussian 09:  ES64L-G09RevE.01 30-Nov-2015
                15-May-2018 
 ******************************************
 %Mem=110GB
 %NProcShared=64
 Will use up to   64 processors via shared memory.
 %chk=snap31.chk
 ----------------------------------------------
 #p PBE1PBE/cc-pvDZ force Counterpoise=2 noSymm
 ----------------------------------------------
 1/10=7,30=1,38=1,62=2/1,3;
 2/12=2,15=1,17=6,18=5,40=1/2;
 1/10=7,30=1,38=1,53=2,62=2,63=101/22;
 3/5=16,11=2,16=1,25=1,30=1,71=1,74=-13/1,2,3;
 4//1;
 5/5=2,38=5/2;
 6/7=2,8=2,9=2,10=2,28=1/1;
 7/7=1,29=1,30=1,33=-1/1,2,3,16;
 1/10=7,30=1,53=2,62=2,63=101/22;
 3/5=7,6=11,11=2,16=1,25=1,30=1,71=1,74=-13,82=7/1,2,3;
 4//1;
 5/5=2,38=5/2;
 6/7=2,8=2,9=2,10=2,28=1/1;
 7/7=1,29=1,30=1,33=-1/1,2,3,16;
 1/10=7,30=1,53=2,62=2,63=101/22(-5);
 7/9=1,29=1,44=-1/16;
 1/10=7,30=1,62=2/3;
 99//99;
 Leave Link    1 at Tue May 15 07:05:32 2018, MaxMem= 14763950080 cpu:         8.6
 (Enter /cm/shared/gaussian/g09.e01/intel64-sandybridge/g09/l101.exe)
 ---------------------------------------
 forces on chloride comput - NWATER: 128
 ---------------------------------------
 Symbolic Z-matrix:
 Charge = -1 Multiplicity = 1 in supermolecule
 Charge = -1 Multiplicity = 1 in fragment      1.
 Charge =  0 Multiplicity = 1 in fragment      2.
 Br(Fragment=1)        20.       20.       20. 
 O(Fragment=2)         22.61     21.56     20.72 
 H(Fragment=2)         22.41     22.42     20.36 
 H(Fragment=2)         21.81     21.05     20.58 
 O(Fragment=2)         22.07     21.22     17.79 
 H(Fragment=2)         21.37     21.01     18.41 
 H(Fragment=2)         21.94     20.61     17.07 
 O(Fragment=2)         16.6      20.32     19.8 
 H(Fragment=2)         17.56     20.29     19.77 
 H(Fragment=2)         16.39     21.24     19.64 
 O(Fragment=2)         19.34     21.14     23.13 
 H(Fragment=2)         19.23     20.71     22.28 
 H(Fragment=2)         19.94     20.57     23.61 
 O(Fragment=2)         19.18     21.48     17.17 
 H(Fragment=2)         19.09     20.74     17.77 
 H(Fragment=2)         19.48     21.1      16.35 
 O(Fragment=2)         20.91     17.02     18.64 
 H(Fragment=2)         21.05     17.87     19.06 
 H(Fragment=2)         20.35     16.54     19.25 
 O(Fragment=2)         17.92     17.93     17.7 
 H(Fragment=2)         18.66     17.91     18.31 
 H(Fragment=2)         17.21     17.5      18.18 
 O(Fragment=2)         21.75     17.94     22.95 
 H(Fragment=2)         21.17     18.55     22.5 
 H(Fragment=2)         22.6      18.37     22.95 
 O(Fragment=2)         23.82     18.23     20.4 
 H(Fragment=2)         22.98     18.32     20.86 
 H(Fragment=2)         24.42     18.8      20.88 
 O(Fragment=2)         19.82     23.88     18.66 
 H(Fragment=2)         20.76     23.69     18.58 
 H(Fragment=2)         19.39     23.19     18.16 
 O(Fragment=2)         17.39     17.84     22.14 
 H(Fragment=2)         17.2      18.77     22.16 
 H(Fragment=2)         17.67     17.63     23.03 
 O(Fragment=2)         23.32     20.34     22.89 
 H(Fragment=2)         23.02     20.79     22.1 
 H(Fragment=2)         22.6      20.44     23.51 
 O(Fragment=2)         17.6      23.75     20.78 
 H(Fragment=2)         17.89     23.16     20.08 
 H(Fragment=2)         18.4      23.95     21.26 
 O(Fragment=2)         20.17     23.71     22.16 
 H(Fragment=2)         19.88     22.88     22.55 
 H(Fragment=2)         20.63     24.15     22.87 
 O(Fragment=2)         16.58     22.54     18.18 
 H(Fragment=2)         17.44     22.18     17.96 
 H(Fragment=2)         16.55     23.37     17.71 
 O(Fragment=2)         18.56     16.09     20.62 
 H(Fragment=2)         18.01     16.65     21.17 
 H(Fragment=2)         19.43     16.17     21. 
 O(Fragment=2)         24.78     21.07     18.92 
 H(Fragment=2)         23.84     21.09     19.11 
 H(Fragment=2)         24.92     20.22     18.5 
 O(Fragment=2)         22.66     18.53     16.69 
 H(Fragment=2)         22.41     17.76     17.2 
 H(Fragment=2)         23.49     18.82     17.07 
 O(Fragment=2)         19.92     16.57     16.18 
 H(Fragment=2)         20.37     16.77     17. 
 H(Fragment=2)         19.1      17.05     16.23 
 O(Fragment=2)         15.12     20.47     22.05 
 H(Fragment=2)         15.57     20.38     21.21 
 H(Fragment=2)         15.7      21.01     22.58 
 O(Fragment=2)         16.89     21.97     24.01 
 H(Fragment=2)         16.87     22.83     24.43 
 H(Fragment=2)         17.69     21.99     23.47 
 O(Fragment=2)         21.21     15.49     21.57 
 H(Fragment=2)         21.96     14.89     21.57 
 H(Fragment=2)         21.48     16.19     22.17 
 O(Fragment=2)         22.51     24.41     20.51 
 H(Fragment=2)         21.59     24.3      20.76 
 H(Fragment=2)         22.88     24.97     21.19 
 O(Fragment=2)         17.21     19.15     15.37 
 H(Fragment=2)         18.07     19.48     15.1 
 H(Fragment=2)         17.33     18.86     16.27 
 O(Fragment=2)         23.43     23.76     17.43 
 H(Fragment=2)         23.29     23.96     18.35 
 H(Fragment=2)         23.14     22.85     17.33 
 O(Fragment=2)         17.65     19.28     24.72 
 H(Fragment=2)         17.82     20.22     24.6 
 H(Fragment=2)         17.97     19.09     25.6 
 O(Fragment=2)         21.19     20.29     24.95 
 H(Fragment=2)         20.8      20.71     25.72 
 H(Fragment=2)         21.76     19.61     25.31 
 O(Fragment=2)         15.85     16.8      19.27 
 H(Fragment=2)         16.16     16.18     19.94 
 H(Fragment=2)         15.05     16.4      18.93 
 O(Fragment=2)         18.43     22.97     14.85 
 H(Fragment=2)         17.93     23.77     15.02 
 H(Fragment=2)         18.22     22.4      15.59 
 O(Fragment=2)         19.8      20.09     14.67 
 H(Fragment=2)         20.39     19.36     14.48 
 H(Fragment=2)         20.04     20.76     14.03 
 O(Fragment=2)         13.91     18.67     19.49 
 H(Fragment=2)         13.36     17.89     19.51 
 H(Fragment=2)         14.79     18.33     19.32 
 O(Fragment=2)         22.46     14.43     17.78 
 H(Fragment=2)         22.04     15.15     18.25 
 H(Fragment=2)         22.42     13.69     18.37 
 O(Fragment=2)         21.77     18.32     13.9 
 H(Fragment=2)         22.39     17.6      13.79 
 H(Fragment=2)         21.92     18.64     14.79 
 O(Fragment=2)         25.61     16.29     19.46 
 H(Fragment=2)         25.83     16.05     20.36 
 H(Fragment=2)         24.87     16.88     19.54 
 O(Fragment=2)         18.12     26.06     18.89 
 H(Fragment=2)         18.98     25.65     18.8 
 H(Fragment=2)         17.62     25.45     19.43 
 O(Fragment=2)         25.61     18.9      23.04 
 H(Fragment=2)         25.91     18.85     23.95 
 H(Fragment=2)         25.05     19.67     23.02 
 O(Fragment=2)         25.31     18.76     17.7 
 H(Fragment=2)         26.16     19.09     17.41 
 H(Fragment=2)         25.52     18.04     18.29 
 O(Fragment=2)         15.27     24.6      22.04 
 H(Fragment=2)         16.07     24.33     21.59 
 H(Fragment=2)         15.35     24.22     22.92 
 O(Fragment=2)         17.37     24.92     16.73 
 H(Fragment=2)         16.65     25.55     16.73 
 H(Fragment=2)         17.98     25.24     17.39 
 O(Fragment=2)         19.69     12.93     20.93 
 H(Fragment=2)         19.67     13.78     20.49 
 H(Fragment=2)         20.61     12.77     21.11 
 O(Fragment=2)         26.66     22.32     20.91 
 H(Fragment=2)         25.95     21.92     20.41 
 H(Fragment=2)         26.23     23.01     21.43 
 O(Fragment=2)         23.74     23.48     24.24 
 H(Fragment=2)         24.38     23.84     23.63 
 H(Fragment=2)         23.97     22.55     24.31 
 O(Fragment=2)         14.71     22.87     16.05 
 H(Fragment=2)         14.88     22.14     16.65 
 H(Fragment=2)         14.38     23.57     16.6 
 O(Fragment=2)         14.83     18.74     24.67 
 H(Fragment=2)         15.76     18.9      24.81 
 H(Fragment=2)         14.65     19.14     23.82 
 O(Fragment=2)         20.35     22.36     13.27 
 H(Fragment=2)         19.66     22.48     13.92 
 H(Fragment=2)         20.04     22.83     12.49 
 O(Fragment=2)         21.87     25.41     23.92 
 H(Fragment=2)         22.52     24.72     24. 
 H(Fragment=2)         22.25     26.02     23.29 
 O(Fragment=2)         26.01     23.69     18.33 
 H(Fragment=2)         25.89     23.       18.99 
 H(Fragment=2)         25.23     23.63     17.78 
 O(Fragment=2)         21.13     15.19     14.17 
 H(Fragment=2)         20.52     14.48     14.36 
 H(Fragment=2)         21.07     15.77     14.93 
 O(Fragment=2)         24.87     15.93     16.53 
 H(Fragment=2)         24.19     15.59     17.11 
 H(Fragment=2)         25.69     15.73     16.97 
 O(Fragment=2)         25.47     18.53     14.97 
 H(Fragment=2)         25.21     18.72     15.88 
 H(Fragment=2)         25.46     17.57     14.92 
 O(Fragment=2)         14.6      17.63     15.32 
 H(Fragment=2)         15.13     18.4      15.55 
 H(Fragment=2)         13.82     17.71     15.86 
 O(Fragment=2)         12.71     21.19     18.67 
 H(Fragment=2)         13.27     20.67     19.24 
 H(Fragment=2)         13.03     22.09     18.76 
 O(Fragment=2)         19.       13.88     23.61 
 H(Fragment=2)         19.73     13.61     24.16 
 H(Fragment=2)         19.3      13.72     22.72 
 O(Fragment=2)         12.45     20.86     21.78 
 H(Fragment=2)         12.43     21.76     22.12 
 H(Fragment=2)         13.38     20.62     21.83 
 O(Fragment=2)         16.99     13.09     19.41 
 H(Fragment=2)         17.11     12.73     20.29 
 H(Fragment=2)         17.86     13.41     19.16 
 O(Fragment=2)         26.01     16.15     22.16 
 H(Fragment=2)         26.05     15.49     22.85 
 H(Fragment=2)         25.73     16.95     22.6 
 O(Fragment=2)         19.14     13.64     15.42 
 H(Fragment=2)         18.88     14.52     15.69 
 H(Fragment=2)         18.53     13.41     14.73 
 O(Fragment=2)         19.06     16.98     13.26 
 H(Fragment=2)         19.95     16.97     13.62 
 H(Fragment=2)         19.04     17.76     12.7 
 O(Fragment=2)         16.74     24.57     24.38 
 H(Fragment=2)         16.15     24.68     25.13 
 H(Fragment=2)         17.3      25.34     24.4 
 O(Fragment=2)         19.16     25.92     24.38 
 H(Fragment=2)         20.07     25.94     24.09 
 H(Fragment=2)         19.12     26.56     25.09 
 O(Fragment=2)         22.6      14.78     24.27 
 H(Fragment=2)         22.75     14.28     23.47 
 H(Fragment=2)         21.69     14.6      24.5 
 O(Fragment=2)         19.33     21.19     27.1 
 H(Fragment=2)         19.9      21.11     27.86 
 H(Fragment=2)         18.44     21.1      27.45 
 O(Fragment=2)         20.33     27.83     21.31 
 H(Fragment=2)         20.22     27.29     20.53 
 H(Fragment=2)         19.92     28.66     21.09 
 O(Fragment=2)         14.3      16.23     24.1 
 H(Fragment=2)         15.09     15.68     24.17 
 H(Fragment=2)         14.63     17.13     24.1 
 O(Fragment=2)         22.98     22.82     13.05 
 H(Fragment=2)         22.13     22.7      13.48 
 H(Fragment=2)         22.79     23.38     12.3 
 O(Fragment=2)         19.74     24.23     26.94 
 H(Fragment=2)         19.84     23.32     26.64 
 H(Fragment=2)         19.36     24.69     26.2 
 O(Fragment=2)         25.38     24.61     22.44 
 H(Fragment=2)         25.16     25.37     21.91 
 H(Fragment=2)         25.96     24.95     23.12 
 O(Fragment=2)         17.69     27.42     22.38 
 H(Fragment=2)         17.3      26.55     22.45 
 H(Fragment=2)         18.62     27.29     22.59 
 O(Fragment=2)         23.88     25.41     15. 
 H(Fragment=2)         23.89     24.62     15.55 
 H(Fragment=2)         24.39     25.17     14.23 
 O(Fragment=2)         16.27     18.22     12.64 
 H(Fragment=2)         16.42     18.59     13.52 
 H(Fragment=2)         16.93     18.63     12.09 
 O(Fragment=2)         16.46     14.36     24.29 
 H(Fragment=2)         17.42     14.31     24.28 
 H(Fragment=2)         16.19     13.96     23.46 
 O(Fragment=2)         25.04     20.71     13.5 
 H(Fragment=2)         25.1      19.8      13.78 
 H(Fragment=2)         24.13     20.96     13.67 
 O(Fragment=2)         24.86     15.72     24.85 
 H(Fragment=2)         25.27     14.88     25.04 
 H(Fragment=2)         23.93     15.51     24.74 
 O(Fragment=2)         13.79     24.07     18.27 
 H(Fragment=2)         13.02     24.14     18.83 
 H(Fragment=2)         14.25     24.9      18.37 
 O(Fragment=2)         24.38     26.63     19.76 
 H(Fragment=2)         23.69     26.63     19.1 
 H(Fragment=2)         25.19     26.57     19.25 
 O(Fragment=2)         17.93     17.79     27.08 
 H(Fragment=2)         17.81     18.2      27.94 
 H(Fragment=2)         17.25     17.12     27.04 
 O(Fragment=2)         12.46     17.69     17.04 
 H(Fragment=2)         12.34     18.64     17.02 
 H(Fragment=2)         12.88     17.52     17.89 
 O(Fragment=2)         23.11     19.88     27.51 
 H(Fragment=2)         23.36     20.69     27.08 
 H(Fragment=2)         22.44     20.13     28.14 
 O(Fragment=2)         21.32     20.18     11.31 
 H(Fragment=2)         22.21     20.45     11.11 
 H(Fragment=2)         21.34     19.93     12.23 
 O(Fragment=2)         22.99     27.14     21.93 
 H(Fragment=2)         23.52     26.97     21.15 
 H(Fragment=2)         22.26     27.67     21.61 
 O(Fragment=2)         18.58     28.04     17.4 
 H(Fragment=2)         17.99     27.88     16.65 
 H(Fragment=2)         18.26     27.46     18.08 
 O(Fragment=2)         22.34     12.42     19.81 
 H(Fragment=2)         23.04     12.36     20.46 
 H(Fragment=2)         22.64     11.85     19.09 
 O(Fragment=2)         15.92     24.11     13.25 
 H(Fragment=2)         16.21     23.71     14.08 
 H(Fragment=2)         16.61     24.72     13.02 
 O(Fragment=2)         26.58     21.7      24.37 
 H(Fragment=2)         26.82     20.84     24.03 
 H(Fragment=2)         26.1      21.52     25.18 
 O(Fragment=2)         28.71     19.47     21.64 
 H(Fragment=2)         29.11     18.71     22.07 
 H(Fragment=2)         27.77     19.33     21.73 
 O(Fragment=2)         14.49     13.89     19.53 
 H(Fragment=2)         15.31     13.57     19.16 
 H(Fragment=2)         14.62     13.83     20.48 
 O(Fragment=2)         22.36     12.55     15.4 
 H(Fragment=2)         22.04     13.37     15.76 
 H(Fragment=2)         22.97     12.81     14.71 
 O(Fragment=2)         20.73     18.1      28.4 
 H(Fragment=2)         19.91     18.4      28. 
 H(Fragment=2)         20.51     17.96     29.32 
 O(Fragment=2)         27.9      18.78     18.29 
 H(Fragment=2)         28.65     18.56     17.74 
 H(Fragment=2)         28.15     19.59     18.73 
 O(Fragment=2)         22.02     12.44     22.71 
 H(Fragment=2)         22.89     12.46     22.31 
 H(Fragment=2)         21.85     11.52     22.88 
 O(Fragment=2)         12.59     16.25     19.68 
 H(Fragment=2)         11.81     15.79     19.36 
 H(Fragment=2)         12.47     16.3      20.63 
 O(Fragment=2)         26.49     18.56     25.66 
 H(Fragment=2)         25.6      18.34     25.92 
 H(Fragment=2)         26.97     17.74     25.71 
 O(Fragment=2)         15.98     15.7      26.54 
 H(Fragment=2)         15.38     16.4      26.3 
 H(Fragment=2)         16.17     15.25     25.72 
 O(Fragment=2)         11.8      20.15     16.3 
 H(Fragment=2)         12.17     20.63     17.04 
 H(Fragment=2)         10.99     20.61     16.09 
 O(Fragment=2)         23.14     27.31     17.08 
 H(Fragment=2)         24.03     27.15     17.38 
 H(Fragment=2)         23.08     26.86     16.24 
 O(Fragment=2)         21.93     26.27     26.58 
 H(Fragment=2)         21.04     26.16     26.92 
 H(Fragment=2)         21.91     25.87     25.71 
 O(Fragment=2)         28.89     21.29     19.69 
 H(Fragment=2)         28.89     20.81     20.52 
 H(Fragment=2)         28.19     21.93     19.78 
 O(Fragment=2)         16.38     23.7      27.15 
 H(Fragment=2)         17.31     23.81     27.31 
 H(Fragment=2)         16.26     22.76     27.04 
 O(Fragment=2)         13.29     14.79     17.13 
 H(Fragment=2)         12.53     15.37     17.27 
 H(Fragment=2)         13.68     14.68     18. 
 O(Fragment=2)         12.89     25.72     22.03 
 H(Fragment=2)         13.79     25.44     22.13 
 H(Fragment=2)         12.54     25.18     21.32 
 O(Fragment=2)         23.64     22.56     27.29 
 H(Fragment=2)         24.38     23.13     27.08 
 H(Fragment=2)         23.26     22.94     28.09 
 O(Fragment=2)         14.9      14.76     14.75 
 H(Fragment=2)         15.03     15.69     14.54 
 H(Fragment=2)         14.42     14.77     15.58 
 O(Fragment=2)         14.87     26.85     19.71 
 H(Fragment=2)         14.58     26.9      20.62 
 H(Fragment=2)         15.65     27.41     19.67 
 O(Fragment=2)         12.26     15.93     22.35 
 H(Fragment=2)         12.98     16.09     22.96 
 H(Fragment=2)         11.94     15.06     22.58 
 O(Fragment=2)         27.23     14.03     18.38 
 H(Fragment=2)         26.48     14.51     18.75 
 H(Fragment=2)         27.92     14.11     19.04 
 O(Fragment=2)         27.69     25.13     19.98 
 H(Fragment=2)         28.49     24.7      19.69 
 H(Fragment=2)         27.04     24.88     19.32 
 O(Fragment=2)         18.19     19.81     11.58 
 H(Fragment=2)         19.14     19.79     11.42 
 H(Fragment=2)         17.91     20.64     11.2 
 O(Fragment=2)         18.53     14.34     12.75 
 H(Fragment=2)         18.66     15.27     12.92 
 H(Fragment=2)         19.25     14.11     12.16 
 O(Fragment=2)         23.76     16.65     12.93 
 H(Fragment=2)         24.43     17.03     12.36 
 H(Fragment=2)         24.18     15.87     13.3 
 O(Fragment=2)         27.07     24.33     15.64 
 H(Fragment=2)         26.74     24.42     16.53 
 H(Fragment=2)         26.6      24.98     15.13 
 O(Fragment=2)         12.89     22.33     14.2 
 H(Fragment=2)         12.83     21.48     14.64 
 H(Fragment=2)         13.62     22.78     14.63 
 O(Fragment=2)         15.44     27.       17.11 
 H(Fragment=2)         15.01     26.96     17.96 
 H(Fragment=2)         14.76     27.33     16.52 
 O(Fragment=2)         28.17     15.03     20.81 
 H(Fragment=2)         27.51     15.54     21.29 
 H(Fragment=2)         28.82     15.67     20.54 
 O(Fragment=2)         15.85     21.23     27.77 
 H(Fragment=2)         16.01     21.47     28.68 
 H(Fragment=2)         15.12     20.61     27.81 
 O(Fragment=2)         10.59     19.18     20.36 
 H(Fragment=2)         11.16     19.64     20.97 
 H(Fragment=2)         11.18     18.67     19.8 
 O(Fragment=2)         24.42     17.43     27.95 
 H(Fragment=2)         23.97     18.27     27.87 
 H(Fragment=2)         23.73     16.78     27.82 
 O(Fragment=2)         18.59     10.43     22.06 
 H(Fragment=2)         18.33     9.89      21.31 
 H(Fragment=2)         18.97     11.22     21.67 
 O(Fragment=2)         20.64     13.17     25.84 
 H(Fragment=2)         21.43     12.97     26.34 
 H(Fragment=2)         20.18     12.33     25.78 
 O(Fragment=2)         14.88     12.9      22.15 
 H(Fragment=2)         14.01     12.84     22.53 
 H(Fragment=2)         15.28     12.05     22.34 
 O(Fragment=2)         19.8      11.       16.24 
 H(Fragment=2)         20.65     11.22     15.87 
 H(Fragment=2)         19.31     11.83     16.22 
 O(Fragment=2)         19.65     25.55     12.64 
 H(Fragment=2)         20.6      25.64     12.61 
 H(Fragment=2)         19.38     26.1      13.37 
 O(Fragment=2)         13.55     17.44     26.96 
 H(Fragment=2)         13.       17.91     27.59 
 H(Fragment=2)         13.83     18.11     26.33 
 O(Fragment=2)         22.21     26.64     13.31 
 H(Fragment=2)         22.82     26.77     12.57 
 H(Fragment=2)         22.73     26.18     13.96 
 O(Fragment=2)         12.13     22.92     23.51 
 H(Fragment=2)         11.56     23.66     23.34 
 H(Fragment=2)         12.24     22.92     24.47 
 O(Fragment=2)         13.63     18.94     12.66 
 H(Fragment=2)         14.54     18.67     12.77 
 H(Fragment=2)         13.14     18.39     13.26 
 O(Fragment=2)         28.18     18.54     14.21 
 H(Fragment=2)         27.25     18.61     14.43 
 H(Fragment=2)         28.57     19.36     14.52 
 O(Fragment=2)         11.56     23.87     19.91 
 H(Fragment=2)         11.26     23.03     20.27 
 H(Fragment=2)         10.83     24.18     19.38 
 O(Fragment=2)         16.51     12.7      15.1 
 H(Fragment=2)         16.       13.45     14.8 
 H(Fragment=2)         16.2      12.53     15.99 
 
 NAtoms=    385 NQM=      385 NQMF=       0 NMMI=      0 NMMIF=      0
                NMic=       0 NMicF=      0.
                    Isotopes and Nuclear Properties:
 (Nuclear quadrupole moments (NQMom) in fm**2, nuclear magnetic moments (NMagM)
  in nuclear magnetons)

  Atom         1           2           3           4           5           6           7           8           9          10
 IAtWgt=          79          16           1           1          16           1           1          16           1           1
 AtmWgt=  78.9183361  15.9949146   1.0078250   1.0078250  15.9949146   1.0078250   1.0078250  15.9949146   1.0078250   1.0078250
 NucSpn=           3           0           1           1           0           1           1           0           1           1
 AtZEff=   0.0000000   0.0000000   0.0000000   0.0000000   0.0000000   0.0000000   0.0000000   0.0000000   0.0000000   0.0000000
 NQMom=   31.3000000   0.0000000   0.0000000   0.0000000   0.0000000   0.0000000   0.0000000   0.0000000   0.0000000   0.0000000
 NMagM=    2.1063990   0.0000000   2.7928460   2.7928460   0.0000000   2.7928460   2.7928460   0.0000000   2.7928460   2.7928460
 AtZNuc=  35.0000000   8.0000000   1.0000000   1.0000000   8.0000000   1.0000000   1.0000000   8.0000000   1.0000000   1.0000000

  Atom        11          12          13          14          15          16          17          18          19          20
 IAtWgt=          16           1           1          16           1           1          16           1           1          16
 AtmWgt=  15.9949146   1.0078250   1.0078250  15.9949146   1.0078250   1.0078250  15.9949146   1.0078250   1.0078250  15.9949146
 NucSpn=           0           1           1           0           1           1           0           1           1           0
 AtZEff=   0.0000000   0.0000000   0.0000000   0.0000000   0.0000000   0.0000000   0.0000000   0.0000000   0.0000000   0.0000000
 NQMom=    0.0000000   0.0000000   0.0000000   0.0000000   0.0000000   0.0000000   0.0000000   0.0000000   0.0000000   0.0000000
 NMagM=    0.0000000   2.7928460   2.7928460   0.0000000   2.7928460   2.7928460   0.0000000   2.7928460   2.7928460   0.0000000
 AtZNuc=   8.0000000   1.0000000   1.0000000   8.0000000   1.0000000   1.0000000   8.0000000   1.0000000   1.0000000   8.0000000

  Atom        21          22          23          24          25          26          27          28          29          30
 IAtWgt=           1           1          16           1           1          16           1           1          16           1
 AtmWgt=   1.0078250   1.0078250  15.9949146   1.0078250   1.0078250  15.9949146   1.0078250   1.0078250  15.9949146   1.0078250
 NucSpn=           1           1           0           1           1           0           1           1           0           1
 AtZEff=   0.0000000   0.0000000   0.0000000   0.0000000   0.0000000   0.0000000   0.0000000   0.0000000   0.0000000   0.0000000
 NQMom=    0.0000000   0.0000000   0.0000000   0.0000000   0.0000000   0.0000000   0.0000000   0.0000000   0.0000000   0.0000000
 NMagM=    2.7928460   2.7928460   0.0000000   2.7928460   2.7928460   0.0000000   2.7928460   2.7928460   0.0000000   2.7928460
 AtZNuc=   1.0000000   1.0000000   8.0000000   1.0000000   1.0000000   8.0000000   1.0000000   1.0000000   8.0000000   1.0000000

  Atom        31          32          33          34          35          36          37          38          39          40
 IAtWgt=           1          16           1           1          16           1           1          16           1           1
 AtmWgt=   1.0078250  15.9949146   1.0078250   1.0078250  15.9949146   1.0078250   1.0078250  15.9949146   1.0078250   1.0078250
 NucSpn=           1           0           1           1           0           1           1           0           1           1
 AtZEff=   0.0000000   0.0000000   0.0000000   0.0000000   0.0000000   0.0000000   0.0000000   0.0000000   0.0000000   0.0000000
 NQMom=    0.0000000   0.0000000   0.0000000   0.0000000   0.0000000   0.0000000   0.0000000   0.0000000   0.0000000   0.0000000
 NMagM=    2.7928460   0.0000000   2.7928460   2.7928460   0.0000000   2.7928460   2.7928460   0.0000000   2.7928460   2.7928460
 AtZNuc=   1.0000000   8.0000000   1.0000000   1.0000000   8.0000000   1.0000000   1.0000000   8.0000000   1.0000000   1.0000000

  Atom        41          42          43          44          45          46          47          48          49          50
 IAtWgt=          16           1           1          16           1           1          16           1           1          16
 AtmWgt=  15.9949146   1.0078250   1.0078250  15.9949146   1.0078250   1.0078250  15.9949146   1.0078250   1.0078250  15.9949146
 NucSpn=           0           1           1           0           1           1           0           1           1           0
 AtZEff=   0.0000000   0.0000000   0.0000000   0.0000000   0.0000000   0.0000000   0.0000000   0.0000000   0.0000000   0.0000000
 NQMom=    0.0000000   0.0000000   0.0000000   0.0000000   0.0000000   0.0000000   0.0000000   0.0000000   0.0000000   0.0000000
 NMagM=    0.0000000   2.7928460   2.7928460   0.0000000   2.7928460   2.7928460   0.0000000   2.7928460   2.7928460   0.0000000
 AtZNuc=   8.0000000   1.0000000   1.0000000   8.0000000   1.0000000   1.0000000   8.0000000   1.0000000   1.0000000   8.0000000

  Atom        51          52          53          54          55          56          57          58          59          60
 IAtWgt=           1           1          16           1           1          16           1           1          16           1
 AtmWgt=   1.0078250   1.0078250  15.9949146   1.0078250   1.0078250  15.9949146   1.0078250   1.0078250  15.9949146   1.0078250
 NucSpn=           1           1           0           1           1           0           1           1           0           1
 AtZEff=   0.0000000   0.0000000   0.0000000   0.0000000   0.0000000   0.0000000   0.0000000   0.0000000   0.0000000   0.0000000
 NQMom=    0.0000000   0.0000000   0.0000000   0.0000000   0.0000000   0.0000000   0.0000000   0.0000000   0.0000000   0.0000000
 NMagM=    2.7928460   2.7928460   0.0000000   2.7928460   2.7928460   0.0000000   2.7928460   2.7928460   0.0000000   2.7928460
 AtZNuc=   1.0000000   1.0000000   8.0000000   1.0000000   1.0000000   8.0000000   1.0000000   1.0000000   8.0000000   1.0000000

  Atom        61          62          63          64          65          66          67          68          69          70
 IAtWgt=           1          16           1           1          16           1           1          16           1           1
 AtmWgt=   1.0078250  15.9949146   1.0078250   1.0078250  15.9949146   1.0078250   1.0078250  15.9949146   1.0078250   1.0078250
 NucSpn=           1           0           1           1           0           1           1           0           1           1
 AtZEff=   0.0000000   0.0000000   0.0000000   0.0000000   0.0000000   0.0000000   0.0000000   0.0000000   0.0000000   0.0000000
 NQMom=    0.0000000   0.0000000   0.0000000   0.0000000   0.0000000   0.0000000   0.0000000   0.0000000   0.0000000   0.0000000
 NMagM=    2.7928460   0.0000000   2.7928460   2.7928460   0.0000000   2.7928460   2.7928460   0.0000000   2.7928460   2.7928460
 AtZNuc=   1.0000000   8.0000000   1.0000000   1.0000000   8.0000000   1.0000000   1.0000000   8.0000000   1.0000000   1.0000000

  Atom        71          72          73          74          75          76          77          78          79          80
 IAtWgt=          16           1           1          16           1           1          16           1           1          16
 AtmWgt=  15.9949146   1.0078250   1.0078250  15.9949146   1.0078250   1.0078250  15.9949146   1.0078250   1.0078250  15.9949146
 NucSpn=           0           1           1           0           1           1           0           1           1           0
 AtZEff=   0.0000000   0.0000000   0.0000000   0.0000000   0.0000000   0.0000000   0.0000000   0.0000000   0.0000000   0.0000000
 NQMom=    0.0000000   0.0000000   0.0000000   0.0000000   0.0000000   0.0000000   0.0000000   0.0000000   0.0000000   0.0000000
 NMagM=    0.0000000   2.7928460   2.7928460   0.0000000   2.7928460   2.7928460   0.0000000   2.7928460   2.7928460   0.0000000
 AtZNuc=   8.0000000   1.0000000   1.0000000   8.0000000   1.0000000   1.0000000   8.0000000   1.0000000   1.0000000   8.0000000

  Atom        81          82          83          84          85          86          87          88          89          90
 IAtWgt=           1           1          16           1           1          16           1           1          16           1
 AtmWgt=   1.0078250   1.0078250  15.9949146   1.0078250   1.0078250  15.9949146   1.0078250   1.0078250  15.9949146   1.0078250
 NucSpn=           1           1           0           1           1           0           1           1           0           1
 AtZEff=   0.0000000   0.0000000   0.0000000   0.0000000   0.0000000   0.0000000   0.0000000   0.0000000   0.0000000   0.0000000
 NQMom=    0.0000000   0.0000000   0.0000000   0.0000000   0.0000000   0.0000000   0.0000000   0.0000000   0.0000000   0.0000000
 NMagM=    2.7928460   2.7928460   0.0000000   2.7928460   2.7928460   0.0000000   2.7928460   2.7928460   0.0000000   2.7928460
 AtZNuc=   1.0000000   1.0000000   8.0000000   1.0000000   1.0000000   8.0000000   1.0000000   1.0000000   8.0000000   1.0000000

  Atom        91          92          93          94          95          96          97          98          99         100
 IAtWgt=           1          16           1           1          16           1           1          16           1           1
 AtmWgt=   1.0078250  15.9949146   1.0078250   1.0078250  15.9949146   1.0078250   1.0078250  15.9949146   1.0078250   1.0078250
 NucSpn=           1           0           1           1           0           1           1           0           1           1
 AtZEff=   0.0000000   0.0000000   0.0000000   0.0000000   0.0000000   0.0000000   0.0000000   0.0000000   0.0000000   0.0000000
 NQMom=    0.0000000   0.0000000   0.0000000   0.0000000   0.0000000   0.0000000   0.0000000   0.0000000   0.0000000   0.0000000
 NMagM=    2.7928460   0.0000000   2.7928460   2.7928460   0.0000000   2.7928460   2.7928460   0.0000000   2.7928460   2.7928460
 AtZNuc=   1.0000000   8.0000000   1.0000000   1.0000000   8.0000000   1.0000000   1.0000000   8.0000000   1.0000000   1.0000000

  Atom       101         102         103         104         105         106         107         108         109         110
 IAtWgt=          16           1           1          16           1           1          16           1           1          16
 AtmWgt=  15.9949146   1.0078250   1.0078250  15.9949146   1.0078250   1.0078250  15.9949146   1.0078250   1.0078250  15.9949146
 NucSpn=           0           1           1           0           1           1           0           1           1           0
 AtZEff=   0.0000000   0.0000000   0.0000000   0.0000000   0.0000000   0.0000000   0.0000000   0.0000000   0.0000000   0.0000000
 NQMom=    0.0000000   0.0000000   0.0000000   0.0000000   0.0000000   0.0000000   0.0000000   0.0000000   0.0000000   0.0000000
 NMagM=    0.0000000   2.7928460   2.7928460   0.0000000   2.7928460   2.7928460   0.0000000   2.7928460   2.7928460   0.0000000
 AtZNuc=   8.0000000   1.0000000   1.0000000   8.0000000   1.0000000   1.0000000   8.0000000   1.0000000   1.0000000   8.0000000

  Atom       111         112         113         114         115         116         117         118         119         120
 IAtWgt=           1           1          16           1           1          16           1           1          16           1
 AtmWgt=   1.0078250   1.0078250  15.9949146   1.0078250   1.0078250  15.9949146   1.0078250   1.0078250  15.9949146   1.0078250
 NucSpn=           1           1           0           1           1           0           1           1           0           1
 AtZEff=   0.0000000   0.0000000   0.0000000   0.0000000   0.0000000   0.0000000   0.0000000   0.0000000   0.0000000   0.0000000
 NQMom=    0.0000000   0.0000000   0.0000000   0.0000000   0.0000000   0.0000000   0.0000000   0.0000000   0.0000000   0.0000000
 NMagM=    2.7928460   2.7928460   0.0000000   2.7928460   2.7928460   0.0000000   2.7928460   2.7928460   0.0000000   2.7928460
 AtZNuc=   1.0000000   1.0000000   8.0000000   1.0000000   1.0000000   8.0000000   1.0000000   1.0000000   8.0000000   1.0000000

  Atom       121         122         123         124         125         126         127         128         129         130
 IAtWgt=           1          16           1           1          16           1           1          16           1           1
 AtmWgt=   1.0078250  15.9949146   1.0078250   1.0078250  15.9949146   1.0078250   1.0078250  15.9949146   1.0078250   1.0078250
 NucSpn=           1           0           1           1           0           1           1           0           1           1
 AtZEff=   0.0000000   0.0000000   0.0000000   0.0000000   0.0000000   0.0000000   0.0000000   0.0000000   0.0000000   0.0000000
 NQMom=    0.0000000   0.0000000   0.0000000   0.0000000   0.0000000   0.0000000   0.0000000   0.0000000   0.0000000   0.0000000
 NMagM=    2.7928460   0.0000000   2.7928460   2.7928460   0.0000000   2.7928460   2.7928460   0.0000000   2.7928460   2.7928460
 AtZNuc=   1.0000000   8.0000000   1.0000000   1.0000000   8.0000000   1.0000000   1.0000000   8.0000000   1.0000000   1.0000000

  Atom       131         132         133         134         135         136         137         138         139         140
 IAtWgt=          16           1           1          16           1           1          16           1           1          16
 AtmWgt=  15.9949146   1.0078250   1.0078250  15.9949146   1.0078250   1.0078250  15.9949146   1.0078250   1.0078250  15.9949146
 NucSpn=           0           1           1           0           1           1           0           1           1           0
 AtZEff=   0.0000000   0.0000000   0.0000000   0.0000000   0.0000000   0.0000000   0.0000000   0.0000000   0.0000000   0.0000000
 NQMom=    0.0000000   0.0000000   0.0000000   0.0000000   0.0000000   0.0000000   0.0000000   0.0000000   0.0000000   0.0000000
 NMagM=    0.0000000   2.7928460   2.7928460   0.0000000   2.7928460   2.7928460   0.0000000   2.7928460   2.7928460   0.0000000
 AtZNuc=   8.0000000   1.0000000   1.0000000   8.0000000   1.0000000   1.0000000   8.0000000   1.0000000   1.0000000   8.0000000

  Atom       141         142         143         144         145         146         147         148         149         150
 IAtWgt=           1           1          16           1           1          16           1           1          16           1
 AtmWgt=   1.0078250   1.0078250  15.9949146   1.0078250   1.0078250  15.9949146   1.0078250   1.0078250  15.9949146   1.0078250
 NucSpn=           1           1           0           1           1           0           1           1           0           1
 AtZEff=   0.0000000   0.0000000   0.0000000   0.0000000   0.0000000   0.0000000   0.0000000   0.0000000   0.0000000   0.0000000
 NQMom=    0.0000000   0.0000000   0.0000000   0.0000000   0.0000000   0.0000000   0.0000000   0.0000000   0.0000000   0.0000000
 NMagM=    2.7928460   2.7928460   0.0000000   2.7928460   2.7928460   0.0000000   2.7928460   2.7928460   0.0000000   2.7928460
 AtZNuc=   1.0000000   1.0000000   8.0000000   1.0000000   1.0000000   8.0000000   1.0000000   1.0000000   8.0000000   1.0000000

  Atom       151         152         153         154         155         156         157         158         159         160
 IAtWgt=           1          16           1           1          16           1           1          16           1           1
 AtmWgt=   1.0078250  15.9949146   1.0078250   1.0078250  15.9949146   1.0078250   1.0078250  15.9949146   1.0078250   1.0078250
 NucSpn=           1           0           1           1           0           1           1           0           1           1
 AtZEff=   0.0000000   0.0000000   0.0000000   0.0000000   0.0000000   0.0000000   0.0000000   0.0000000   0.0000000   0.0000000
 NQMom=    0.0000000   0.0000000   0.0000000   0.0000000   0.0000000   0.0000000   0.0000000   0.0000000   0.0000000   0.0000000
 NMagM=    2.7928460   0.0000000   2.7928460   2.7928460   0.0000000   2.7928460   2.7928460   0.0000000   2.7928460   2.7928460
 AtZNuc=   1.0000000   8.0000000   1.0000000   1.0000000   8.0000000   1.0000000   1.0000000   8.0000000   1.0000000   1.0000000

  Atom       161         162         163         164         165         166         167         168         169         170
 IAtWgt=          16           1           1          16           1           1          16           1           1          16
 AtmWgt=  15.9949146   1.0078250   1.0078250  15.9949146   1.0078250   1.0078250  15.9949146   1.0078250   1.0078250  15.9949146
 NucSpn=           0           1           1           0           1           1           0           1           1           0
 AtZEff=   0.0000000   0.0000000   0.0000000   0.0000000   0.0000000   0.0000000   0.0000000   0.0000000   0.0000000   0.0000000
 NQMom=    0.0000000   0.0000000   0.0000000   0.0000000   0.0000000   0.0000000   0.0000000   0.0000000   0.0000000   0.0000000
 NMagM=    0.0000000   2.7928460   2.7928460   0.0000000   2.7928460   2.7928460   0.0000000   2.7928460   2.7928460   0.0000000
 AtZNuc=   8.0000000   1.0000000   1.0000000   8.0000000   1.0000000   1.0000000   8.0000000   1.0000000   1.0000000   8.0000000

  Atom       171         172         173         174         175         176         177         178         179         180
 IAtWgt=           1           1          16           1           1          16           1           1          16           1
 AtmWgt=   1.0078250   1.0078250  15.9949146   1.0078250   1.0078250  15.9949146   1.0078250   1.0078250  15.9949146   1.0078250
 NucSpn=           1           1           0           1           1           0           1           1           0           1
 AtZEff=   0.0000000   0.0000000   0.0000000   0.0000000   0.0000000   0.0000000   0.0000000   0.0000000   0.0000000   0.0000000
 NQMom=    0.0000000   0.0000000   0.0000000   0.0000000   0.0000000   0.0000000   0.0000000   0.0000000   0.0000000   0.0000000
 NMagM=    2.7928460   2.7928460   0.0000000   2.7928460   2.7928460   0.0000000   2.7928460   2.7928460   0.0000000   2.7928460
 AtZNuc=   1.0000000   1.0000000   8.0000000   1.0000000   1.0000000   8.0000000   1.0000000   1.0000000   8.0000000   1.0000000

  Atom       181         182         183         184         185         186         187         188         189         190
 IAtWgt=           1          16           1           1          16           1           1          16           1           1
 AtmWgt=   1.0078250  15.9949146   1.0078250   1.0078250  15.9949146   1.0078250   1.0078250  15.9949146   1.0078250   1.0078250
 NucSpn=           1           0           1           1           0           1           1           0           1           1
 AtZEff=   0.0000000   0.0000000   0.0000000   0.0000000   0.0000000   0.0000000   0.0000000   0.0000000   0.0000000   0.0000000
 NQMom=    0.0000000   0.0000000   0.0000000   0.0000000   0.0000000   0.0000000   0.0000000   0.0000000   0.0000000   0.0000000
 NMagM=    2.7928460   0.0000000   2.7928460   2.7928460   0.0000000   2.7928460   2.7928460   0.0000000   2.7928460   2.7928460
 AtZNuc=   1.0000000   8.0000000   1.0000000   1.0000000   8.0000000   1.0000000   1.0000000   8.0000000   1.0000000   1.0000000

  Atom       191         192         193         194         195         196         197         198         199         200
 IAtWgt=          16           1           1          16           1           1          16           1           1          16
 AtmWgt=  15.9949146   1.0078250   1.0078250  15.9949146   1.0078250   1.0078250  15.9949146   1.0078250   1.0078250  15.9949146
 NucSpn=           0           1           1           0           1           1           0           1           1           0
 AtZEff=   0.0000000   0.0000000   0.0000000   0.0000000   0.0000000   0.0000000   0.0000000   0.0000000   0.0000000   0.0000000
 NQMom=    0.0000000   0.0000000   0.0000000   0.0000000   0.0000000   0.0000000   0.0000000   0.0000000   0.0000000   0.0000000
 NMagM=    0.0000000   2.7928460   2.7928460   0.0000000   2.7928460   2.7928460   0.0000000   2.7928460   2.7928460   0.0000000
 AtZNuc=   8.0000000   1.0000000   1.0000000   8.0000000   1.0000000   1.0000000   8.0000000   1.0000000   1.0000000   8.0000000

  Atom       201         202         203         204         205         206         207         208         209         210
 IAtWgt=           1           1          16           1           1          16           1           1          16           1
 AtmWgt=   1.0078250   1.0078250  15.9949146   1.0078250   1.0078250  15.9949146   1.0078250   1.0078250  15.9949146   1.0078250
 NucSpn=           1           1           0           1           1           0           1           1           0           1
 AtZEff=   0.0000000   0.0000000   0.0000000   0.0000000   0.0000000   0.0000000   0.0000000   0.0000000   0.0000000   0.0000000
 NQMom=    0.0000000   0.0000000   0.0000000   0.0000000   0.0000000   0.0000000   0.0000000   0.0000000   0.0000000   0.0000000
 NMagM=    2.7928460   2.7928460   0.0000000   2.7928460   2.7928460   0.0000000   2.7928460   2.7928460   0.0000000   2.7928460
 AtZNuc=   1.0000000   1.0000000   8.0000000   1.0000000   1.0000000   8.0000000   1.0000000   1.0000000   8.0000000   1.0000000

  Atom       211         212         213         214         215         216         217         218         219         220
 IAtWgt=           1          16           1           1          16           1           1          16           1           1
 AtmWgt=   1.0078250  15.9949146   1.0078250   1.0078250  15.9949146   1.0078250   1.0078250  15.9949146   1.0078250   1.0078250
 NucSpn=           1           0           1           1           0           1           1           0           1           1
 AtZEff=   0.0000000   0.0000000   0.0000000   0.0000000   0.0000000   0.0000000   0.0000000   0.0000000   0.0000000   0.0000000
 NQMom=    0.0000000   0.0000000   0.0000000   0.0000000   0.0000000   0.0000000   0.0000000   0.0000000   0.0000000   0.0000000
 NMagM=    2.7928460   0.0000000   2.7928460   2.7928460   0.0000000   2.7928460   2.7928460   0.0000000   2.7928460   2.7928460
 AtZNuc=   1.0000000   8.0000000   1.0000000   1.0000000   8.0000000   1.0000000   1.0000000   8.0000000   1.0000000   1.0000000

  Atom       221         222         223         224         225         226         227         228         229         230
 IAtWgt=          16           1           1          16           1           1          16           1           1          16
 AtmWgt=  15.9949146   1.0078250   1.0078250  15.9949146   1.0078250   1.0078250  15.9949146   1.0078250   1.0078250  15.9949146
 NucSpn=           0           1           1           0           1           1           0           1           1           0
 AtZEff=   0.0000000   0.0000000   0.0000000   0.0000000   0.0000000   0.0000000   0.0000000   0.0000000   0.0000000   0.0000000
 NQMom=    0.0000000   0.0000000   0.0000000   0.0000000   0.0000000   0.0000000   0.0000000   0.0000000   0.0000000   0.0000000
 NMagM=    0.0000000   2.7928460   2.7928460   0.0000000   2.7928460   2.7928460   0.0000000   2.7928460   2.7928460   0.0000000
 AtZNuc=   8.0000000   1.0000000   1.0000000   8.0000000   1.0000000   1.0000000   8.0000000   1.0000000   1.0000000   8.0000000

  Atom       231         232         233         234         235         236         237         238         239         240
 IAtWgt=           1           1          16           1           1          16           1           1          16           1
 AtmWgt=   1.0078250   1.0078250  15.9949146   1.0078250   1.0078250  15.9949146   1.0078250   1.0078250  15.9949146   1.0078250
 NucSpn=           1           1           0           1           1           0           1           1           0           1
 AtZEff=   0.0000000   0.0000000   0.0000000   0.0000000   0.0000000   0.0000000   0.0000000   0.0000000   0.0000000   0.0000000
 NQMom=    0.0000000   0.0000000   0.0000000   0.0000000   0.0000000   0.0000000   0.0000000   0.0000000   0.0000000   0.0000000
 NMagM=    2.7928460   2.7928460   0.0000000   2.7928460   2.7928460   0.0000000   2.7928460   2.7928460   0.0000000   2.7928460
 AtZNuc=   1.0000000   1.0000000   8.0000000   1.0000000   1.0000000   8.0000000   1.0000000   1.0000000   8.0000000   1.0000000

  Atom       241         242         243         244         245         246         247         248         249         250
 IAtWgt=           1          16           1           1          16           1           1          16           1           1
 AtmWgt=   1.0078250  15.9949146   1.0078250   1.0078250  15.9949146   1.0078250   1.0078250  15.9949146   1.0078250   1.0078250
 NucSpn=           1           0           1           1           0           1           1           0           1           1
 AtZEff=   0.0000000   0.0000000   0.0000000   0.0000000   0.0000000   0.0000000   0.0000000   0.0000000   0.0000000   0.0000000
 NQMom=    0.0000000   0.0000000   0.0000000   0.0000000   0.0000000   0.0000000   0.0000000   0.0000000   0.0000000   0.0000000
 NMagM=    2.7928460   0.0000000   2.7928460   2.7928460   0.0000000   2.7928460   2.7928460   0.0000000   2.7928460   2.7928460
 AtZNuc=   1.0000000   8.0000000   1.0000000   1.0000000   8.0000000   1.0000000   1.0000000   8.0000000   1.0000000   1.0000000

  Atom       251         252         253         254         255         256         257         258         259         260
 IAtWgt=          16           1           1          16           1           1          16           1           1          16
 AtmWgt=  15.9949146   1.0078250   1.0078250  15.9949146   1.0078250   1.0078250  15.9949146   1.0078250   1.0078250  15.9949146
 NucSpn=           0           1           1           0           1           1           0           1           1           0
 AtZEff=   0.0000000   0.0000000   0.0000000   0.0000000   0.0000000   0.0000000   0.0000000   0.0000000   0.0000000   0.0000000
 NQMom=    0.0000000   0.0000000   0.0000000   0.0000000   0.0000000   0.0000000   0.0000000   0.0000000   0.0000000   0.0000000
 NMagM=    0.0000000   2.7928460   2.7928460   0.0000000   2.7928460   2.7928460   0.0000000   2.7928460   2.7928460   0.0000000
 AtZNuc=   8.0000000   1.0000000   1.0000000   8.0000000   1.0000000   1.0000000   8.0000000   1.0000000   1.0000000   8.0000000

  Atom       261         262         263         264         265         266         267         268         269         270
 IAtWgt=           1           1          16           1           1          16           1           1          16           1
 AtmWgt=   1.0078250   1.0078250  15.9949146   1.0078250   1.0078250  15.9949146   1.0078250   1.0078250  15.9949146   1.0078250
 NucSpn=           1           1           0           1           1           0           1           1           0           1
 AtZEff=   0.0000000   0.0000000   0.0000000   0.0000000   0.0000000   0.0000000   0.0000000   0.0000000   0.0000000   0.0000000
 NQMom=    0.0000000   0.0000000   0.0000000   0.0000000   0.0000000   0.0000000   0.0000000   0.0000000   0.0000000   0.0000000
 NMagM=    2.7928460   2.7928460   0.0000000   2.7928460   2.7928460   0.0000000   2.7928460   2.7928460   0.0000000   2.7928460
 AtZNuc=   1.0000000   1.0000000   8.0000000   1.0000000   1.0000000   8.0000000   1.0000000   1.0000000   8.0000000   1.0000000

  Atom       271         272         273         274         275         276         277         278         279         280
 IAtWgt=           1          16           1           1          16           1           1          16           1           1
 AtmWgt=   1.0078250  15.9949146   1.0078250   1.0078250  15.9949146   1.0078250   1.0078250  15.9949146   1.0078250   1.0078250
 NucSpn=           1           0           1           1           0           1           1           0           1           1
 AtZEff=   0.0000000   0.0000000   0.0000000   0.0000000   0.0000000   0.0000000   0.0000000   0.0000000   0.0000000   0.0000000
 NQMom=    0.0000000   0.0000000   0.0000000   0.0000000   0.0000000   0.0000000   0.0000000   0.0000000   0.0000000   0.0000000
 NMagM=    2.7928460   0.0000000   2.7928460   2.7928460   0.0000000   2.7928460   2.7928460   0.0000000   2.7928460   2.7928460
 AtZNuc=   1.0000000   8.0000000   1.0000000   1.0000000   8.0000000   1.0000000   1.0000000   8.0000000   1.0000000   1.0000000

  Atom       281         282         283         284         285         286         287         288         289         290
 IAtWgt=          16           1           1          16           1           1          16           1           1          16
 AtmWgt=  15.9949146   1.0078250   1.0078250  15.9949146   1.0078250   1.0078250  15.9949146   1.0078250   1.0078250  15.9949146
 NucSpn=           0           1           1           0           1           1           0           1           1           0
 AtZEff=   0.0000000   0.0000000   0.0000000   0.0000000   0.0000000   0.0000000   0.0000000   0.0000000   0.0000000   0.0000000
 NQMom=    0.0000000   0.0000000   0.0000000   0.0000000   0.0000000   0.0000000   0.0000000   0.0000000   0.0000000   0.0000000
 NMagM=    0.0000000   2.7928460   2.7928460   0.0000000   2.7928460   2.7928460   0.0000000   2.7928460   2.7928460   0.0000000
 AtZNuc=   8.0000000   1.0000000   1.0000000   8.0000000   1.0000000   1.0000000   8.0000000   1.0000000   1.0000000   8.0000000

  Atom       291         292         293         294         295         296         297         298         299         300
 IAtWgt=           1           1          16           1           1          16           1           1          16           1
 AtmWgt=   1.0078250   1.0078250  15.9949146   1.0078250   1.0078250  15.9949146   1.0078250   1.0078250  15.9949146   1.0078250
 NucSpn=           1           1           0           1           1           0           1           1           0           1
 AtZEff=   0.0000000   0.0000000   0.0000000   0.0000000   0.0000000   0.0000000   0.0000000   0.0000000   0.0000000   0.0000000
 NQMom=    0.0000000   0.0000000   0.0000000   0.0000000   0.0000000   0.0000000   0.0000000   0.0000000   0.0000000   0.0000000
 NMagM=    2.7928460   2.7928460   0.0000000   2.7928460   2.7928460   0.0000000   2.7928460   2.7928460   0.0000000   2.7928460
 AtZNuc=   1.0000000   1.0000000   8.0000000   1.0000000   1.0000000   8.0000000   1.0000000   1.0000000   8.0000000   1.0000000

  Atom       301         302         303         304         305         306         307         308         309         310
 IAtWgt=           1          16           1           1          16           1           1          16           1           1
 AtmWgt=   1.0078250  15.9949146   1.0078250   1.0078250  15.9949146   1.0078250   1.0078250  15.9949146   1.0078250   1.0078250
 NucSpn=           1           0           1           1           0           1           1           0           1           1
 AtZEff=   0.0000000   0.0000000   0.0000000   0.0000000   0.0000000   0.0000000   0.0000000   0.0000000   0.0000000   0.0000000
 NQMom=    0.0000000   0.0000000   0.0000000   0.0000000   0.0000000   0.0000000   0.0000000   0.0000000   0.0000000   0.0000000
 NMagM=    2.7928460   0.0000000   2.7928460   2.7928460   0.0000000   2.7928460   2.7928460   0.0000000   2.7928460   2.7928460
 AtZNuc=   1.0000000   8.0000000   1.0000000   1.0000000   8.0000000   1.0000000   1.0000000   8.0000000   1.0000000   1.0000000

  Atom       311         312         313         314         315         316         317         318         319         320
 IAtWgt=          16           1           1          16           1           1          16           1           1          16
 AtmWgt=  15.9949146   1.0078250   1.0078250  15.9949146   1.0078250   1.0078250  15.9949146   1.0078250   1.0078250  15.9949146
 NucSpn=           0           1           1           0           1           1           0           1           1           0
 AtZEff=   0.0000000   0.0000000   0.0000000   0.0000000   0.0000000   0.0000000   0.0000000   0.0000000   0.0000000   0.0000000
 NQMom=    0.0000000   0.0000000   0.0000000   0.0000000   0.0000000   0.0000000   0.0000000   0.0000000   0.0000000   0.0000000
 NMagM=    0.0000000   2.7928460   2.7928460   0.0000000   2.7928460   2.7928460   0.0000000   2.7928460   2.7928460   0.0000000
 AtZNuc=   8.0000000   1.0000000   1.0000000   8.0000000   1.0000000   1.0000000   8.0000000   1.0000000   1.0000000   8.0000000

  Atom       321         322         323         324         325         326         327         328         329         330
 IAtWgt=           1           1          16           1           1          16           1           1          16           1
 AtmWgt=   1.0078250   1.0078250  15.9949146   1.0078250   1.0078250  15.9949146   1.0078250   1.0078250  15.9949146   1.0078250
 NucSpn=           1           1           0           1           1           0           1           1           0           1
 AtZEff=   0.0000000   0.0000000   0.0000000   0.0000000   0.0000000   0.0000000   0.0000000   0.0000000   0.0000000   0.0000000
 NQMom=    0.0000000   0.0000000   0.0000000   0.0000000   0.0000000   0.0000000   0.0000000   0.0000000   0.0000000   0.0000000
 NMagM=    2.7928460   2.7928460   0.0000000   2.7928460   2.7928460   0.0000000   2.7928460   2.7928460   0.0000000   2.7928460
 AtZNuc=   1.0000000   1.0000000   8.0000000   1.0000000   1.0000000   8.0000000   1.0000000   1.0000000   8.0000000   1.0000000

  Atom       331         332         333         334         335         336         337         338         339         340
 IAtWgt=           1          16           1           1          16           1           1          16           1           1
 AtmWgt=   1.0078250  15.9949146   1.0078250   1.0078250  15.9949146   1.0078250   1.0078250  15.9949146   1.0078250   1.0078250
 NucSpn=           1           0           1           1           0           1           1           0           1           1
 AtZEff=   0.0000000   0.0000000   0.0000000   0.0000000   0.0000000   0.0000000   0.0000000   0.0000000   0.0000000   0.0000000
 NQMom=    0.0000000   0.0000000   0.0000000   0.0000000   0.0000000   0.0000000   0.0000000   0.0000000   0.0000000   0.0000000
 NMagM=    2.7928460   0.0000000   2.7928460   2.7928460   0.0000000   2.7928460   2.7928460   0.0000000   2.7928460   2.7928460
 AtZNuc=   1.0000000   8.0000000   1.0000000   1.0000000   8.0000000   1.0000000   1.0000000   8.0000000   1.0000000   1.0000000

  Atom       341         342         343         344         345         346         347         348         349         350
 IAtWgt=          16           1           1          16           1           1          16           1           1          16
 AtmWgt=  15.9949146   1.0078250   1.0078250  15.9949146   1.0078250   1.0078250  15.9949146   1.0078250   1.0078250  15.9949146
 NucSpn=           0           1           1           0           1           1           0           1           1           0
 AtZEff=   0.0000000   0.0000000   0.0000000   0.0000000   0.0000000   0.0000000   0.0000000   0.0000000   0.0000000   0.0000000
 NQMom=    0.0000000   0.0000000   0.0000000   0.0000000   0.0000000   0.0000000   0.0000000   0.0000000   0.0000000   0.0000000
 NMagM=    0.0000000   2.7928460   2.7928460   0.0000000   2.7928460   2.7928460   0.0000000   2.7928460   2.7928460   0.0000000
 AtZNuc=   8.0000000   1.0000000   1.0000000   8.0000000   1.0000000   1.0000000   8.0000000   1.0000000   1.0000000   8.0000000

  Atom       351         352         353         354         355         356         357         358         359         360
 IAtWgt=           1           1          16           1           1          16           1           1          16           1
 AtmWgt=   1.0078250   1.0078250  15.9949146   1.0078250   1.0078250  15.9949146   1.0078250   1.0078250  15.9949146   1.0078250
 NucSpn=           1           1           0           1           1           0           1           1           0           1
 AtZEff=   0.0000000   0.0000000   0.0000000   0.0000000   0.0000000   0.0000000   0.0000000   0.0000000   0.0000000   0.0000000
 NQMom=    0.0000000   0.0000000   0.0000000   0.0000000   0.0000000   0.0000000   0.0000000   0.0000000   0.0000000   0.0000000
 NMagM=    2.7928460   2.7928460   0.0000000   2.7928460   2.7928460   0.0000000   2.7928460   2.7928460   0.0000000   2.7928460
 AtZNuc=   1.0000000   1.0000000   8.0000000   1.0000000   1.0000000   8.0000000   1.0000000   1.0000000   8.0000000   1.0000000

  Atom       361         362         363         364         365         366         367         368         369         370
 IAtWgt=           1          16           1           1          16           1           1          16           1           1
 AtmWgt=   1.0078250  15.9949146   1.0078250   1.0078250  15.9949146   1.0078250   1.0078250  15.9949146   1.0078250   1.0078250
 NucSpn=           1           0           1           1           0           1           1           0           1           1
 AtZEff=   0.0000000   0.0000000   0.0000000   0.0000000   0.0000000   0.0000000   0.0000000   0.0000000   0.0000000   0.0000000
 NQMom=    0.0000000   0.0000000   0.0000000   0.0000000   0.0000000   0.0000000   0.0000000   0.0000000   0.0000000   0.0000000
 NMagM=    2.7928460   0.0000000   2.7928460   2.7928460   0.0000000   2.7928460   2.7928460   0.0000000   2.7928460   2.7928460
 AtZNuc=   1.0000000   8.0000000   1.0000000   1.0000000   8.0000000   1.0000000   1.0000000   8.0000000   1.0000000   1.0000000

  Atom       371         372         373         374         375         376         377         378         379         380
 IAtWgt=          16           1           1          16           1           1          16           1           1          16
 AtmWgt=  15.9949146   1.0078250   1.0078250  15.9949146   1.0078250   1.0078250  15.9949146   1.0078250   1.0078250  15.9949146
 NucSpn=           0           1           1           0           1           1           0           1           1           0
 AtZEff=   0.0000000   0.0000000   0.0000000   0.0000000   0.0000000   0.0000000   0.0000000   0.0000000   0.0000000   0.0000000
 NQMom=    0.0000000   0.0000000   0.0000000   0.0000000   0.0000000   0.0000000   0.0000000   0.0000000   0.0000000   0.0000000
 NMagM=    0.0000000   2.7928460   2.7928460   0.0000000   2.7928460   2.7928460   0.0000000   2.7928460   2.7928460   0.0000000
 AtZNuc=   8.0000000   1.0000000   1.0000000   8.0000000   1.0000000   1.0000000   8.0000000   1.0000000   1.0000000   8.0000000

  Atom       381         382         383         384         385
 IAtWgt=           1           1          16           1           1
 AtmWgt=   1.0078250   1.0078250  15.9949146   1.0078250   1.0078250
 NucSpn=           1           1           0           1           1
 AtZEff=   0.0000000   0.0000000   0.0000000   0.0000000   0.0000000
 NQMom=    0.0000000   0.0000000   0.0000000   0.0000000   0.0000000
 NMagM=    2.7928460   2.7928460   0.0000000   2.7928460   2.7928460
 AtZNuc=   1.0000000   1.0000000   8.0000000   1.0000000   1.0000000
 Leave Link  101 at Tue May 15 07:05:32 2018, MaxMem= 14763950080 cpu:        34.3
 (Enter /cm/shared/gaussian/g09.e01/intel64-sandybridge/g09/l103.exe)

 GradGradGradGradGradGradGradGradGradGradGradGradGradGradGradGradGradGrad
 Berny optimization.
 Initialization pass.
 Trust Radius=3.00D-01 FncErr=1.00D-07 GrdErr=1.00D-07
 Number of steps in this run=      2 maximum allowed number of steps=      2.
 GradGradGradGradGradGradGradGradGradGradGradGradGradGradGradGradGradGrad

 Leave Link  103 at Tue May 15 07:05:32 2018, MaxMem= 14763950080 cpu:         5.1
 (Enter /cm/shared/gaussian/g09.e01/intel64-sandybridge/g09/l202.exe)
 Symmetry turned off by external request.
 Stoichiometry    BrH256O128(1-)
 Framework group  C1[X(BrH256O128)]
 Deg. of freedom  1149
 Full point group                 C1      NOp   1
                          Input orientation:                          
 ---------------------------------------------------------------------
 Center     Atomic      Atomic             Coordinates (Angstroms)
 Number     Number       Type             X           Y           Z
 ---------------------------------------------------------------------
      1         35           0       20.000000   20.000000   20.000000
      2          8           0       22.610000   21.560000   20.720000
      3          1           0       22.410000   22.420000   20.360000
      4          1           0       21.810000   21.050000   20.580000
      5          8           0       22.070000   21.220000   17.790000
      6          1           0       21.370000   21.010000   18.410000
      7          1           0       21.940000   20.610000   17.070000
      8          8           0       16.600000   20.320000   19.800000
      9          1           0       17.560000   20.290000   19.770000
     10          1           0       16.390000   21.240000   19.640000
     11          8           0       19.340000   21.140000   23.130000
     12          1           0       19.230000   20.710000   22.280000
     13          1           0       19.940000   20.570000   23.610000
     14          8           0       19.180000   21.480000   17.170000
     15          1           0       19.090000   20.740000   17.770000
     16          1           0       19.480000   21.100000   16.350000
     17          8           0       20.910000   17.020000   18.640000
     18          1           0       21.050000   17.870000   19.060000
     19          1           0       20.350000   16.540000   19.250000
     20          8           0       17.920000   17.930000   17.700000
     21          1           0       18.660000   17.910000   18.310000
     22          1           0       17.210000   17.500000   18.180000
     23          8           0       21.750000   17.940000   22.950000
     24          1           0       21.170000   18.550000   22.500000
     25          1           0       22.600000   18.370000   22.950000
     26          8           0       23.820000   18.230000   20.400000
     27          1           0       22.980000   18.320000   20.860000
     28          1           0       24.420000   18.800000   20.880000
     29          8           0       19.820000   23.880000   18.660000
     30          1           0       20.760000   23.690000   18.580000
     31          1           0       19.390000   23.190000   18.160000
     32          8           0       17.390000   17.840000   22.140000
     33          1           0       17.200000   18.770000   22.160000
     34          1           0       17.670000   17.630000   23.030000
     35          8           0       23.320000   20.340000   22.890000
     36          1           0       23.020000   20.790000   22.100000
     37          1           0       22.600000   20.440000   23.510000
     38          8           0       17.600000   23.750000   20.780000
     39          1           0       17.890000   23.160000   20.080000
     40          1           0       18.400000   23.950000   21.260000
     41          8           0       20.170000   23.710000   22.160000
     42          1           0       19.880000   22.880000   22.550000
     43          1           0       20.630000   24.150000   22.870000
     44          8           0       16.580000   22.540000   18.180000
     45          1           0       17.440000   22.180000   17.960000
     46          1           0       16.550000   23.370000   17.710000
     47          8           0       18.560000   16.090000   20.620000
     48          1           0       18.010000   16.650000   21.170000
     49          1           0       19.430000   16.170000   21.000000
     50          8           0       24.780000   21.070000   18.920000
     51          1           0       23.840000   21.090000   19.110000
     52          1           0       24.920000   20.220000   18.500000
     53          8           0       22.660000   18.530000   16.690000
     54          1           0       22.410000   17.760000   17.200000
     55          1           0       23.490000   18.820000   17.070000
     56          8           0       19.920000   16.570000   16.180000
     57          1           0       20.370000   16.770000   17.000000
     58          1           0       19.100000   17.050000   16.230000
     59          8           0       15.120000   20.470000   22.050000
     60          1           0       15.570000   20.380000   21.210000
     61          1           0       15.700000   21.010000   22.580000
     62          8           0       16.890000   21.970000   24.010000
     63          1           0       16.870000   22.830000   24.430000
     64          1           0       17.690000   21.990000   23.470000
     65          8           0       21.210000   15.490000   21.570000
     66          1           0       21.960000   14.890000   21.570000
     67          1           0       21.480000   16.190000   22.170000
     68          8           0       22.510000   24.410000   20.510000
     69          1           0       21.590000   24.300000   20.760000
     70          1           0       22.880000   24.970000   21.190000
     71          8           0       17.210000   19.150000   15.370000
     72          1           0       18.070000   19.480000   15.100000
     73          1           0       17.330000   18.860000   16.270000
     74          8           0       23.430000   23.760000   17.430000
     75          1           0       23.290000   23.960000   18.350000
     76          1           0       23.140000   22.850000   17.330000
     77          8           0       17.650000   19.280000   24.720000
     78          1           0       17.820000   20.220000   24.600000
     79          1           0       17.970000   19.090000   25.600000
     80          8           0       21.190000   20.290000   24.950000
     81          1           0       20.800000   20.710000   25.720000
     82          1           0       21.760000   19.610000   25.310000
     83          8           0       15.850000   16.800000   19.270000
     84          1           0       16.160000   16.180000   19.940000
     85          1           0       15.050000   16.400000   18.930000
     86          8           0       18.430000   22.970000   14.850000
     87          1           0       17.930000   23.770000   15.020000
     88          1           0       18.220000   22.400000   15.590000
     89          8           0       19.800000   20.090000   14.670000
     90          1           0       20.390000   19.360000   14.480000
     91          1           0       20.040000   20.760000   14.030000
     92          8           0       13.910000   18.670000   19.490000
     93          1           0       13.360000   17.890000   19.510000
     94          1           0       14.790000   18.330000   19.320000
     95          8           0       22.460000   14.430000   17.780000
     96          1           0       22.040000   15.150000   18.250000
     97          1           0       22.420000   13.690000   18.370000
     98          8           0       21.770000   18.320000   13.900000
     99          1           0       22.390000   17.600000   13.790000
    100          1           0       21.920000   18.640000   14.790000
    101          8           0       25.610000   16.290000   19.460000
    102          1           0       25.830000   16.050000   20.360000
    103          1           0       24.870000   16.880000   19.540000
    104          8           0       18.120000   26.060000   18.890000
    105          1           0       18.980000   25.650000   18.800000
    106          1           0       17.620000   25.450000   19.430000
    107          8           0       25.610000   18.900000   23.040000
    108          1           0       25.910000   18.850000   23.950000
    109          1           0       25.050000   19.670000   23.020000
    110          8           0       25.310000   18.760000   17.700000
    111          1           0       26.160000   19.090000   17.410000
    112          1           0       25.520000   18.040000   18.290000
    113          8           0       15.270000   24.600000   22.040000
    114          1           0       16.070000   24.330000   21.590000
    115          1           0       15.350000   24.220000   22.920000
    116          8           0       17.370000   24.920000   16.730000
    117          1           0       16.650000   25.550000   16.730000
    118          1           0       17.980000   25.240000   17.390000
    119          8           0       19.690000   12.930000   20.930000
    120          1           0       19.670000   13.780000   20.490000
    121          1           0       20.610000   12.770000   21.110000
    122          8           0       26.660000   22.320000   20.910000
    123          1           0       25.950000   21.920000   20.410000
    124          1           0       26.230000   23.010000   21.430000
    125          8           0       23.740000   23.480000   24.240000
    126          1           0       24.380000   23.840000   23.630000
    127          1           0       23.970000   22.550000   24.310000
    128          8           0       14.710000   22.870000   16.050000
    129          1           0       14.880000   22.140000   16.650000
    130          1           0       14.380000   23.570000   16.600000
    131          8           0       14.830000   18.740000   24.670000
    132          1           0       15.760000   18.900000   24.810000
    133          1           0       14.650000   19.140000   23.820000
    134          8           0       20.350000   22.360000   13.270000
    135          1           0       19.660000   22.480000   13.920000
    136          1           0       20.040000   22.830000   12.490000
    137          8           0       21.870000   25.410000   23.920000
    138          1           0       22.520000   24.720000   24.000000
    139          1           0       22.250000   26.020000   23.290000
    140          8           0       26.010000   23.690000   18.330000
    141          1           0       25.890000   23.000000   18.990000
    142          1           0       25.230000   23.630000   17.780000
    143          8           0       21.130000   15.190000   14.170000
    144          1           0       20.520000   14.480000   14.360000
    145          1           0       21.070000   15.770000   14.930000
    146          8           0       24.870000   15.930000   16.530000
    147          1           0       24.190000   15.590000   17.110000
    148          1           0       25.690000   15.730000   16.970000
    149          8           0       25.470000   18.530000   14.970000
    150          1           0       25.210000   18.720000   15.880000
    151          1           0       25.460000   17.570000   14.920000
    152          8           0       14.600000   17.630000   15.320000
    153          1           0       15.130000   18.400000   15.550000
    154          1           0       13.820000   17.710000   15.860000
    155          8           0       12.710000   21.190000   18.670000
    156          1           0       13.270000   20.670000   19.240000
    157          1           0       13.030000   22.090000   18.760000
    158          8           0       19.000000   13.880000   23.610000
    159          1           0       19.730000   13.610000   24.160000
    160          1           0       19.300000   13.720000   22.720000
    161          8           0       12.450000   20.860000   21.780000
    162          1           0       12.430000   21.760000   22.120000
    163          1           0       13.380000   20.620000   21.830000
    164          8           0       16.990000   13.090000   19.410000
    165          1           0       17.110000   12.730000   20.290000
    166          1           0       17.860000   13.410000   19.160000
    167          8           0       26.010000   16.150000   22.160000
    168          1           0       26.050000   15.490000   22.850000
    169          1           0       25.730000   16.950000   22.600000
    170          8           0       19.140000   13.640000   15.420000
    171          1           0       18.880000   14.520000   15.690000
    172          1           0       18.530000   13.410000   14.730000
    173          8           0       19.060000   16.980000   13.260000
    174          1           0       19.950000   16.970000   13.620000
    175          1           0       19.040000   17.760000   12.700000
    176          8           0       16.740000   24.570000   24.380000
    177          1           0       16.150000   24.680000   25.130000
    178          1           0       17.300000   25.340000   24.400000
    179          8           0       19.160000   25.920000   24.380000
    180          1           0       20.070000   25.940000   24.090000
    181          1           0       19.120000   26.560000   25.090000
    182          8           0       22.600000   14.780000   24.270000
    183          1           0       22.750000   14.280000   23.470000
    184          1           0       21.690000   14.600000   24.500000
    185          8           0       19.330000   21.190000   27.100000
    186          1           0       19.900000   21.110000   27.860000
    187          1           0       18.440000   21.100000   27.450000
    188          8           0       20.330000   27.830000   21.310000
    189          1           0       20.220000   27.290000   20.530000
    190          1           0       19.920000   28.660000   21.090000
    191          8           0       14.300000   16.230000   24.100000
    192          1           0       15.090000   15.680000   24.170000
    193          1           0       14.630000   17.130000   24.100000
    194          8           0       22.980000   22.820000   13.050000
    195          1           0       22.130000   22.700000   13.480000
    196          1           0       22.790000   23.380000   12.300000
    197          8           0       19.740000   24.230000   26.940000
    198          1           0       19.840000   23.320000   26.640000
    199          1           0       19.360000   24.690000   26.200000
    200          8           0       25.380000   24.610000   22.440000
    201          1           0       25.160000   25.370000   21.910000
    202          1           0       25.960000   24.950000   23.120000
    203          8           0       17.690000   27.420000   22.380000
    204          1           0       17.300000   26.550000   22.450000
    205          1           0       18.620000   27.290000   22.590000
    206          8           0       23.880000   25.410000   15.000000
    207          1           0       23.890000   24.620000   15.550000
[...]
   Z335      32.33321  -0.01703   0.00000  -0.01071  -0.01087  32.32234
   X336      28.36479  -0.01054   0.00000  -0.00653  -0.00665  28.35814
   Y336      50.94702  -0.00061   0.00000  -0.00043  -0.00045  50.94657
   Z336      33.93948   0.01781   0.00000   0.01010   0.00995  33.94943
   X337      27.89236  -0.00350   0.00000  -0.00166  -0.00182  27.89054
   Y337      51.64622   0.00064   0.00000  -0.00073  -0.00077  51.64545
   Z337      31.21828  -0.00545   0.00000  -0.00723  -0.00738  31.21090
   X338      53.23359   0.00358   0.00000   0.00810   0.00850  53.24208
   Y338      28.40258  -0.01755   0.00000  -0.01225  -0.01174  28.39084
   Z338      39.32520   0.00404   0.00000   0.01006   0.00970  39.33490
   X339      51.98637  -0.00484   0.00000  -0.00173  -0.00134  51.98503
   Y339      29.36634   0.00827   0.00000   0.00641   0.00689  29.37324
   Z339      40.23227   0.00376   0.00000   0.00128   0.00093  40.23320
   X340      54.46191   0.00704   0.00000   0.00277   0.00314  54.46505
   Y340      29.61201   0.01210   0.00000   0.00931   0.00984  29.62185
   Z340      38.81497  -0.00506   0.00000  -0.00530  -0.00567  38.80930
   X341      29.95216   0.01064   0.00000   0.01520   0.01550  29.96766
   Y341      40.11889  -0.00923   0.00000  -0.01826  -0.01820  40.10069
   Z341      52.47769  -0.00585   0.00000   0.00089   0.00075  52.47844
   X342      30.25452  -0.00222   0.00000  -0.00624  -0.00593  30.24859
   Y342      40.57242   0.00539   0.00000   0.00659   0.00666  40.57908
   Z342      54.19735   0.01166   0.00000   0.01004   0.00990  54.20724
   X343      28.57266  -0.00543   0.00000  -0.00456  -0.00424  28.56842
   Y343      38.94726  -0.00609   0.00000  -0.00637  -0.00634  38.94091
   Z343      52.55328  -0.00348   0.00000  -0.00628  -0.00640  52.54689
   X344      20.01220  -0.01937   0.00000  -0.01374  -0.01351  19.99869
   Y344      36.24495  -0.01066   0.00000  -0.00869  -0.00888  36.23607
   Z344      38.47482  -0.00865   0.00000  -0.00117  -0.00119  38.47363
   X345      21.08934   0.01644   0.00000   0.01213   0.01236  21.10170
   Y345      37.11422   0.01094   0.00000   0.00870   0.00854  37.12276
   Z345      39.62756   0.00830   0.00000  -0.00001  -0.00004  39.62752
   X346      21.12714   0.00415   0.00000   0.00306   0.00330  21.13044
   Y346      35.28119   0.00129   0.00000   0.00327   0.00310  35.28429
   Z346      37.41658  -0.00052   0.00000  -0.00027  -0.00030  37.41628
   X347      46.14711   0.01738   0.00000   0.01138   0.01184  46.15895
   Y347      32.93793  -0.00909   0.00000  -0.00468  -0.00429  32.93364
   Z347      52.81785   0.00033   0.00000  -0.00231  -0.00260  52.81525
   X348      45.29674  -0.00953   0.00000  -0.00611  -0.00569  45.29104
   Y348      34.52530   0.01483   0.00000   0.00931   0.00968  34.53498
   Z348      52.66667  -0.00061   0.00000   0.00111   0.00082  52.66749
   X349      44.84320  -0.00651   0.00000  -0.00427  -0.00379  44.83941
   Y349      31.70960  -0.00284   0.00000  -0.00066  -0.00030  31.70931
   Z349      52.57218  -0.00347   0.00000  -0.00459  -0.00487  52.56731
   X350      35.13001  -0.00249   0.00000  -0.00236  -0.00176  35.12825
   Y350      19.70984  -0.00398   0.00000  -0.00080  -0.00066  19.70918
   Z350      41.68736   0.01181   0.00000   0.00831   0.00817  41.69553
   X351      34.63868   0.00075   0.00000   0.00211   0.00273  34.64141
   Y351      18.68939  -0.00043   0.00000   0.00155   0.00168  18.69107
   Z351      40.27006  -0.00572   0.00000  -0.00364  -0.00378  40.26629
   X352      35.84810   0.00026   0.00000  -0.00424  -0.00368  35.84443
   Y352      21.20273   0.00887   0.00000   0.00676   0.00691  21.20964
   Z352      40.95037  -0.00793   0.00000  -0.00749  -0.00764  40.94273
   X353      39.00395  -0.00367   0.00000  -0.00211  -0.00153  39.00242
   Y353      24.88769   0.00653   0.00000   0.00228   0.00251  24.89021
   Z353      48.83052  -0.00660   0.00000  -0.00614  -0.00633  48.82419
   X354      40.49683   0.00788   0.00000   0.00525   0.00584  40.50267
   Y354      24.50975  -0.00115   0.00000   0.00041   0.00068  24.51043
   Z354      49.77539   0.00370   0.00000   0.00128   0.00107  49.77645
   X355      38.13467  -0.00440   0.00000  -0.00530  -0.00470  38.12998
   Y355      23.30032  -0.00600   0.00000  -0.00460  -0.00439  23.29594
   Z355      48.71714   0.00152   0.00000   0.00302   0.00284  48.71998
   X356      28.11912   0.01600   0.00000   0.01291   0.01342  28.13255
   Y356      24.37747   0.00953   0.00000   0.00771   0.00770  24.38517
   Z356      41.85743  -0.00176   0.00000   0.00696   0.00688  41.86431
   X357      26.47506  -0.01418   0.00000  -0.00832  -0.00780  26.46726
   Y357      24.26408  -0.00003   0.00000   0.00199   0.00195  24.26603
   Z357      42.57553   0.00680   0.00000   0.00428   0.00422  42.57975
   X358      28.87502   0.00276   0.00000   0.00200   0.00255  28.87757
   Y358      22.77120  -0.00875   0.00000  -0.00839  -0.00838  22.76282
   Z358      42.21648  -0.00001   0.00000  -0.00194  -0.00202  42.21446
   X359      37.41658  -0.00953   0.00000  -0.00304  -0.00258  37.41400
   Y359      20.78699  -0.01601   0.00000  -0.01061  -0.01045  20.77654
   Z359      30.68915   0.01438   0.00000   0.01608   0.01591  30.70506
   X360      39.02284   0.01131   0.00000   0.00326   0.00370  39.02655
   Y360      21.20273   0.01073   0.00000   0.01077   0.01095  21.21368
   Z360      29.98995  -0.00871   0.00000  -0.00723  -0.00742  29.98253
   X361      36.49061   0.00173   0.00000   0.00466   0.00509  36.49570
   Y361      22.35546   0.00833   0.00000   0.00477   0.00490  22.36036
   Z361      30.65136  -0.00620   0.00000  -0.00923  -0.00939  30.64197
   X362      37.13312  -0.01761   0.00000  -0.01148  -0.01165  37.12147
   Y362      48.28250  -0.01606   0.00000  -0.01406  -0.01393  48.26857
   Z362      23.88614  -0.01482   0.00000  -0.01031  -0.01054  23.87560
   X363      38.92836   0.01477   0.00000   0.00678   0.00660  38.93496
   Y363      48.45258   0.00824   0.00000   0.00988   0.01005  48.46263
   Z363      23.82945   0.00781   0.00000   0.01115   0.01089  23.84034
   X364      36.62289   0.00261   0.00000   0.00477   0.00459  36.62748
   Y364      49.32185   0.00678   0.00000   0.00185   0.00198  49.32383
   Z364      25.26564   0.00914   0.00000   0.00376   0.00353  25.26916
   X365      25.60579   0.00523   0.00000   0.01001   0.01044  25.61623
   Y365      32.95682  -0.00476   0.00000   0.00104   0.00101  32.95783
   Z365      50.94702   0.00694   0.00000   0.00729   0.00722  50.95424
   X366      24.56644  -0.00265   0.00000  -0.00310  -0.00268  24.56376
   Y366      33.84500   0.00191   0.00000   0.00184   0.00179  33.84678
   Z366      52.13754   0.00139   0.00000   0.00033   0.00027  52.13781
   X367      26.13491  -0.00110   0.00000  -0.00557  -0.00518  26.12973
   Y367      34.22294   0.00584   0.00000   0.00253   0.00250  34.22544
   Z367      49.75649  -0.01297   0.00000  -0.01569  -0.01577  49.74072
   X368      41.97082  -0.01339   0.00000  -0.01013  -0.01033  41.96049
   Y368      50.34230   0.01166   0.00000   0.00398   0.00421  50.34652
   Z368      25.15225  -0.02543   0.00000  -0.01803  -0.01832  25.13393
   X369      43.12355  -0.00231   0.00000   0.00013  -0.00009  43.12346
   Y369      50.58797   0.00151   0.00000   0.00372   0.00398  50.59194
   Z369      23.75386   0.00309   0.00000   0.00004  -0.00026  23.75360
   X370      42.95348   0.00889   0.00000  -0.00164  -0.00181  42.95166
   Y370      49.47303  -0.01405   0.00000  -0.01007  -0.00981  49.46322
   Z370      26.38058   0.01744   0.00000   0.01017   0.00987  26.39044
   X371      22.92238   0.00829   0.00000   0.00308   0.00322  22.92560
   Y371      43.31252  -0.00830   0.00000  -0.00072  -0.00083  43.31169
   Z371      44.42746   0.00757   0.00000   0.00436   0.00429  44.43175
   X372      21.84523  -0.00621   0.00000  -0.00029  -0.00017  21.84506
   Y372      44.71092   0.01769   0.00000   0.01763   0.01750  44.72842
   Z372      44.10621  -0.00336   0.00000  -0.00255  -0.00261  44.10360
   X373      23.13025  -0.00044   0.00000  -0.00032  -0.00015  23.13010
   Y373      43.31252  -0.00085   0.00000  -0.00133  -0.00143  43.31109
   Z373      46.24160  -0.00416   0.00000  -0.00145  -0.00153  46.24007
   X374      25.75697  -0.01885   0.00000  -0.01514  -0.01506  25.74191
   Y374      35.79141   0.01790   0.00000   0.01352   0.01342  35.80483
   Z374      23.92393  -0.01191   0.00000  -0.00644  -0.00652  23.91741
   X375      27.47662   0.01674   0.00000   0.00635   0.00645  27.48306
   Y375      35.28119  -0.00766   0.00000  -0.00449  -0.00455  35.27663
   Z375      24.13180  -0.00192   0.00000  -0.00832  -0.00842  24.12338
   X376      24.83100  -0.00147   0.00000   0.00206   0.00218  24.83318
   Y376      34.75206  -0.00901   0.00000  -0.00660  -0.00672  34.74535
   Z376      25.05777   0.01144   0.00000   0.01080   0.01073  25.06850
   X377      53.25248   0.01698   0.00000   0.01186   0.01199  53.26447
   Y377      35.03552  -0.00941   0.00000  -0.00924  -0.00877  35.02676
   Z377      26.85301  -0.00427   0.00000   0.00076   0.00038  26.85339
   X378      51.49504  -0.01275   0.00000  -0.00525  -0.00511  51.48992
   Y378      35.16780   0.00605   0.00000   0.00673   0.00716  35.17497
   Z378      27.26875   0.00547   0.00000   0.00467   0.00432  27.27306
   X379      53.98948  -0.00270   0.00000  -0.00428  -0.00418  53.98530
   Y379      36.58510   0.00513   0.00000   0.00421   0.00470  36.58980
   Z379      27.43882   0.00082   0.00000  -0.00060  -0.00099  27.43784
   X380      21.84523   0.01003   0.00000   0.00293   0.00297  21.84820
   Y380      45.10776   0.00728   0.00000   0.00840   0.00825  45.11601
   Z380      37.62445   0.00752   0.00000   0.00947   0.00941  37.63385
   X381      21.27832   0.00232   0.00000   0.00794   0.00802  21.28634
   Y381      43.52039  -0.01119   0.00000  -0.01121  -0.01137  43.50902
   Z381      38.30475  -0.00074   0.00000  -0.00470  -0.00475  38.30000
   X382      20.46573  -0.01089   0.00000  -0.00843  -0.00841  20.45732
   Y382      45.69358   0.00263   0.00000   0.00093   0.00076  45.69433
   Z382      36.62289  -0.00645   0.00000  -0.00395  -0.00400  36.61889
   X383      31.19938   0.02086   0.00000   0.01214   0.01251  31.21189
   Y383      23.99952  -0.02743   0.00000  -0.01976  -0.01973  23.97979
   Z383      28.53486  -0.00059   0.00000  -0.00386  -0.00397  28.53090
   X384      30.23562  -0.01631   0.00000  -0.00890  -0.00856  30.22706
   Y384      25.41682   0.02219   0.00000   0.01180   0.01181  25.42862
   Z384      27.96795  -0.00506   0.00000  -0.00079  -0.00089  27.96705
   X385      30.61356  -0.00220   0.00000  -0.00016   0.00024  30.61380
   Y385      23.67827   0.00241   0.00000   0.00277   0.00279  23.68105
   Z385      30.21672   0.00420   0.00000   0.00243   0.00232  30.21904
         Item               Value     Threshold  Converged?
 Maximum Force            0.031763     0.000450     NO 
 RMS     Force            0.010758     0.000300     NO 
 Maximum Displacement     0.032390     0.001800     NO 
 RMS     Displacement     0.008852     0.001200     NO 
 Predicted change in Energy=-7.472755D-02
 GradGradGradGradGradGradGradGradGradGradGradGradGradGradGradGradGradGrad

 Leave Link  103 at Tue May 15 10:22:49 2018, MaxMem= 14763950080 cpu:      3073.0
 (Enter /cm/shared/gaussian/g09.e01/intel64-sandybridge/g09/l9999.exe)
 1\1\GINC-POPLE03\Force\RPBE1PBE\CC-pVDZ\Br1H256O128(1-)\M.PELUSO\15-Ma
 y-2018\0\\#p PBE1PBE/cc-pvDZ force Counterpoise=2 noSymm\\forces on ch
 loride comput - NWATER: 128\\-1,1\Br,20.,20.,20.\O,22.61,21.56,20.72\H
 ,22.41,22.42,20.36\H,21.81,21.05,20.58\O,22.07,21.22,17.79\H,21.37,21.
 01,18.41\H,21.94,20.61,17.07\O,16.6,20.32,19.8\H,17.56,20.29,19.77\H,1
 6.39,21.24,19.64\O,19.34,21.14,23.13\H,19.23,20.71,22.28\H,19.94,20.57
 ,23.61\O,19.18,21.48,17.17\H,19.09,20.74,17.77\H,19.48,21.1,16.35\O,20
 .91,17.02,18.64\H,21.05,17.87,19.06\H,20.35,16.54,19.25\O,17.92,17.93,
 17.7\H,18.66,17.91,18.31\H,17.21,17.5,18.18\O,21.75,17.94,22.95\H,21.1
 7,18.55,22.5\H,22.6,18.37,22.95\O,23.82,18.23,20.4\H,22.98,18.32,20.86
 \H,24.42,18.8,20.88\O,19.82,23.88,18.66\H,20.76,23.69,18.58\H,19.39,23
 .19,18.16\O,17.39,17.84,22.14\H,17.2,18.77,22.16\H,17.67,17.63,23.03\O
 ,23.32,20.34,22.89\H,23.02,20.79,22.1\H,22.6,20.44,23.51\O,17.6,23.75,
 20.78\H,17.89,23.16,20.08\H,18.4,23.95,21.26\O,20.17,23.71,22.16\H,19.
 88,22.88,22.55\H,20.63,24.15,22.87\O,16.58,22.54,18.18\H,17.44,22.18,1
 7.96\H,16.55,23.37,17.71\O,18.56,16.09,20.62\H,18.01,16.65,21.17\H,19.
 43,16.17,21.\O,24.78,21.07,18.92\H,23.84,21.09,19.11\H,24.92,20.22,18.
 5\O,22.66,18.53,16.69\H,22.41,17.76,17.2\H,23.49,18.82,17.07\O,19.92,1
 6.57,16.18\H,20.37,16.77,17.\H,19.1,17.05,16.23\O,15.12,20.47,22.05\H,
 15.57,20.38,21.21\H,15.7,21.01,22.58\O,16.89,21.97,24.01\H,16.87,22.83
 ,24.43\H,17.69,21.99,23.47\O,21.21,15.49,21.57\H,21.96,14.89,21.57\H,2
 1.48,16.19,22.17\O,22.51,24.41,20.51\H,21.59,24.3,20.76\H,22.88,24.97,
 21.19\O,17.21,19.15,15.37\H,18.07,19.48,15.1\H,17.33,18.86,16.27\O,23.
 43,23.76,17.43\H,23.29,23.96,18.35\H,23.14,22.85,17.33\O,17.65,19.28,2
 4.72\H,17.82,20.22,24.6\H,17.97,19.09,25.6\O,21.19,20.29,24.95\H,20.8,
 20.71,25.72\H,21.76,19.61,25.31\O,15.85,16.8,19.27\H,16.16,16.18,19.94
 \H,15.05,16.4,18.93\O,18.43,22.97,14.85\H,17.93,23.77,15.02\H,18.22,22
 .4,15.59\O,19.8,20.09,14.67\H,20.39,19.36,14.48\H,20.04,20.76,14.03\O,
 13.91,18.67,19.49\H,13.36,17.89,19.51\H,14.79,18.33,19.32\O,22.46,14.4
 3,17.78\H,22.04,15.15,18.25\H,22.42,13.69,18.37\O,21.77,18.32,13.9\H,2
 2.39,17.6,13.79\H,21.92,18.64,14.79\O,25.61,16.29,19.46\H,25.83,16.05,
 20.36\H,24.87,16.88,19.54\O,18.12,26.06,18.89\H,18.98,25.65,18.8\H,17.
 62,25.45,19.43\O,25.61,18.9,23.04\H,25.91,18.85,23.95\H,25.05,19.67,23
 .02\O,25.31,18.76,17.7\H,26.16,19.09,17.41\H,25.52,18.04,18.29\O,15.27
 ,24.6,22.04\H,16.07,24.33,21.59\H,15.35,24.22,22.92\O,17.37,24.92,16.7
 3\H,16.65,25.55,16.73\H,17.98,25.24,17.39\O,19.69,12.93,20.93\H,19.67,
 13.78,20.49\H,20.61,12.77,21.11\O,26.66,22.32,20.91\H,25.95,21.92,20.4
 1\H,26.23,23.01,21.43\O,23.74,23.48,24.24\H,24.38,23.84,23.63\H,23.97,
 22.55,24.31\O,14.71,22.87,16.05\H,14.88,22.14,16.65\H,14.38,23.57,16.6
 \O,14.83,18.74,24.67\H,15.76,18.9,24.81\H,14.65,19.14,23.82\O,20.35,22
 .36,13.27\H,19.66,22.48,13.92\H,20.04,22.83,12.49\O,21.87,25.41,23.92\
 H,22.52,24.72,24.\H,22.25,26.02,23.29\O,26.01,23.69,18.33\H,25.89,23.,
 18.99\H,25.23,23.63,17.78\O,21.13,15.19,14.17\H,20.52,14.48,14.36\H,21
 .07,15.77,14.93\O,24.87,15.93,16.53\H,24.19,15.59,17.11\H,25.69,15.73,
 16.97\O,25.47,18.53,14.97\H,25.21,18.72,15.88\H,25.46,17.57,14.92\O,14
 .6,17.63,15.32\H,15.13,18.4,15.55\H,13.82,17.71,15.86\O,12.71,21.19,18
 .67\H,13.27,20.67,19.24\H,13.03,22.09,18.76\O,19.,13.88,23.61\H,19.73,
 13.61,24.16\H,19.3,13.72,22.72\O,12.45,20.86,21.78\H,12.43,21.76,22.12
 \H,13.38,20.62,21.83\O,16.99,13.09,19.41\H,17.11,12.73,20.29\H,17.86,1
 3.41,19.16\O,26.01,16.15,22.16\H,26.05,15.49,22.85\H,25.73,16.95,22.6\
 O,19.14,13.64,15.42\H,18.88,14.52,15.69\H,18.53,13.41,14.73\O,19.06,16
 .98,13.26\H,19.95,16.97,13.62\H,19.04,17.76,12.7\O,16.74,24.57,24.38\H
 ,16.15,24.68,25.13\H,17.3,25.34,24.4\O,19.16,25.92,24.38\H,20.07,25.94
 ,24.09\H,19.12,26.56,25.09\O,22.6,14.78,24.27\H,22.75,14.28,23.47\H,21
 .69,14.6,24.5\O,19.33,21.19,27.1\H,19.9,21.11,27.86\H,18.44,21.1,27.45
 \O,20.33,27.83,21.31\H,20.22,27.29,20.53\H,19.92,28.66,21.09\O,14.3,16
 .23,24.1\H,15.09,15.68,24.17\H,14.63,17.13,24.1\O,22.98,22.82,13.05\H,
 22.13,22.7,13.48\H,22.79,23.38,12.3\O,19.74,24.23,26.94\H,19.84,23.32,
 26.64\H,19.36,24.69,26.2\O,25.38,24.61,22.44\H,25.16,25.37,21.91\H,25.
 96,24.95,23.12\O,17.69,27.42,22.38\H,17.3,26.55,22.45\H,18.62,27.29,22
 .59\O,23.88,25.41,15.\H,23.89,24.62,15.55\H,24.39,25.17,14.23\O,16.27,
 18.22,12.64\H,16.42,18.59,13.52\H,16.93,18.63,12.09\O,16.46,14.36,24.2
 9\H,17.42,14.31,24.28\H,16.19,13.96,23.46\O,25.04,20.71,13.5\H,25.1,19
 .8,13.78\H,24.13,20.96,13.67\O,24.86,15.72,24.85\H,25.27,14.88,25.04\H
 ,23.93,15.51,24.74\O,13.79,24.07,18.27\H,13.02,24.14,18.83\H,14.25,24.
 9,18.37\O,24.38,26.63,19.76\H,23.69,26.63,19.1\H,25.19,26.57,19.25\O,1
 7.93,17.79,27.08\H,17.81,18.2,27.94\H,17.25,17.12,27.04\O,12.46,17.69,
 17.04\H,12.34,18.64,17.02\H,12.88,17.52,17.89\O,23.11,19.88,27.51\H,23
 .36,20.69,27.08\H,22.44,20.13,28.14\O,21.32,20.18,11.31\H,22.21,20.45,
 11.11\H,21.34,19.93,12.23\O,22.99,27.14,21.93\H,23.52,26.97,21.15\H,22
 .26,27.67,21.61\O,18.58,28.04,17.4\H,17.99,27.88,16.65\H,18.26,27.46,1
 8.08\O,22.34,12.42,19.81\H,23.04,12.36,20.46\H,22.64,11.85,19.09\O,15.
 92,24.11,13.25\H,16.21,23.71,14.08\H,16.61,24.72,13.02\O,26.58,21.7,24
 .37\H,26.82,20.84,24.03\H,26.1,21.52,25.18\O,28.71,19.47,21.64\H,29.11
 ,18.71,22.07\H,27.77,19.33,21.73\O,14.49,13.89,19.53\H,15.31,13.57,19.
 16\H,14.62,13.83,20.48\O,22.36,12.55,15.4\H,22.04,13.37,15.76\H,22.97,
 12.81,14.71\O,20.73,18.1,28.4\H,19.91,18.4,28.\H,20.51,17.96,29.32\O,2
 7.9,18.78,18.29\H,28.65,18.56,17.74\H,28.15,19.59,18.73\O,22.02,12.44,
 22.71\H,22.89,12.46,22.31\H,21.85,11.52,22.88\O,12.59,16.25,19.68\H,11
 .81,15.79,19.36\H,12.47,16.3,20.63\O,26.49,18.56,25.66\H,25.6,18.34,25
 .92\H,26.97,17.74,25.71\O,15.98,15.7,26.54\H,15.38,16.4,26.3\H,16.17,1
 5.25,25.72\O,11.8,20.15,16.3\H,12.17,20.63,17.04\H,10.99,20.61,16.09\O
 ,23.14,27.31,17.08\H,24.03,27.15,17.38\H,23.08,26.86,16.24\O,21.93,26.
 27,26.58\H,21.04,26.16,26.92\H,21.91,25.87,25.71\O,28.89,21.29,19.69\H
 ,28.89,20.81,20.52\H,28.19,21.93,19.78\O,16.38,23.7,27.15\H,17.31,23.8
 1,27.31\H,16.26,22.76,27.04\O,13.29,14.79,17.13\H,12.53,15.37,17.27\H,
 13.68,14.68,18.\O,12.89,25.72,22.03\H,13.79,25.44,22.13\H,12.54,25.18,
 21.32\O,23.64,22.56,27.29\H,24.38,23.13,27.08\H,23.26,22.94,28.09\O,14
 .9,14.76,14.75\H,15.03,15.69,14.54\H,14.42,14.77,15.58\O,14.87,26.85,1
 9.71\H,14.58,26.9,20.62\H,15.65,27.41,19.67\O,12.26,15.93,22.35\H,12.9
 8,16.09,22.96\H,11.94,15.06,22.58\O,27.23,14.03,18.38\H,26.48,14.51,18
 .75\H,27.92,14.11,19.04\O,27.69,25.13,19.98\H,28.49,24.7,19.69\H,27.04
 ,24.88,19.32\O,18.19,19.81,11.58\H,19.14,19.79,11.42\H,17.91,20.64,11.
 2\O,18.53,14.34,12.75\H,18.66,15.27,12.92\H,19.25,14.11,12.16\O,23.76,
 16.65,12.93\H,24.43,17.03,12.36\H,24.18,15.87,13.3\O,27.07,24.33,15.64
 \H,26.74,24.42,16.53\H,26.6,24.98,15.13\O,12.89,22.33,14.2\H,12.83,21.
 48,14.64\H,13.62,22.78,14.63\O,15.44,27.,17.11\H,15.01,26.96,17.96\H,1
 4.76,27.33,16.52\O,28.17,15.03,20.81\H,27.51,15.54,21.29\H,28.82,15.67
 ,20.54\O,15.85,21.23,27.77\H,16.01,21.47,28.68\H,15.12,20.61,27.81\O,1
 0.59,19.18,20.36\H,11.16,19.64,20.97\H,11.18,18.67,19.8\O,24.42,17.43,
 27.95\H,23.97,18.27,27.87\H,23.73,16.78,27.82\O,18.59,10.43,22.06\H,18
 .33,9.89,21.31\H,18.97,11.22,21.67\O,20.64,13.17,25.84\H,21.43,12.97,2
 6.34\H,20.18,12.33,25.78\O,14.88,12.9,22.15\H,14.01,12.84,22.53\H,15.2
 8,12.05,22.34\O,19.8,11.,16.24\H,20.65,11.22,15.87\H,19.31,11.83,16.22
 \O,19.65,25.55,12.64\H,20.6,25.64,12.61\H,19.38,26.1,13.37\O,13.55,17.
 44,26.96\H,13.,17.91,27.59\H,13.83,18.11,26.33\O,22.21,26.64,13.31\H,2
 2.82,26.77,12.57\H,22.73,26.18,13.96\O,12.13,22.92,23.51\H,11.56,23.66
 ,23.34\H,12.24,22.92,24.47\O,13.63,18.94,12.66\H,14.54,18.67,12.77\H,1
 3.14,18.39,13.26\O,28.18,18.54,14.21\H,27.25,18.61,14.43\H,28.57,19.36
 ,14.52\O,11.56,23.87,19.91\H,11.26,23.03,20.27\H,10.83,24.18,19.38\O,1
 6.51,12.7,15.1\H,16.,13.45,14.8\H,16.2,12.53,15.99\\Version=ES64L-G09R
 evE.01\HF=-9773.3762295\RMSD=7.466e-10\RMSF=1.076e-02\Dipole=7.2799027
 ,2.7011905,24.0830385\Quadrupole=-391.8680389,-595.1378988,987.0059377
 ,-1098.9946741,-311.5396898,-526.4382667\PG=C01 [X(Br1H256O128)]\\@


 NO HUMAN INVESTIGATION CAN BECOME REAL SCIENCE
 WITHOUT GOING THROUGH MATHEMATICAL PEOPLE.
 -- LEONARDO DA VINCI, IN "PENSIERI" CA. 1492
 Job cpu time:       8 days 15 hours  7 minutes  1.0 seconds.
 File lengths (MBytes):  RWF=   7285 Int=      0 D2E=      0 Chk=   2411 Scr=      1
 Normal termination of Gaussian 09 at Tue May 15 10:23:19 2018.
