 Entering Gaussian System, Link 0=/cm/shared/gaussian/g09.e01/intel64-sandybridge/g09/g09
 Initial command:
 /cm/shared/gaussian/g09.e01/intel64-sandybridge/g09/l1.exe "/local/scratch/m.peluso/128_wat/order/Gau-16736.inp" -scrdir="/local/scratch/m.peluso/128_wat/order/"
 Entering Link 1 = /cm/shared/gaussian/g09.e01/intel64-sandybridge/g09/l1.exe PID=     16737.
  
 Copyright (c) 1988,1990,1992,1993,1995,1998,2003,2009,2015,
            Gaussian, Inc.  All Rights Reserved.
  
 This is part of the Gaussian(R) 09 program.  It is based on
 the Gaussian(R) 03 system (copyright 2003, Gaussian, Inc.),
 the Gaussian(R) 98 system (copyright 1998, Gaussian, Inc.),
 the Gaussian(R) 94 system (copyright 1995, Gaussian, Inc.),
 the Gaussian 92(TM) system (copyright 1992, Gaussian, Inc.),
 the Gaussian 90(TM) system (copyright 1990, Gaussian, Inc.),
 the Gaussian 88(TM) system (copyright 1988, Gaussian, Inc.),
 the Gaussian 86(TM) system (copyright 1986, Carnegie Mellon
 University), and the Gaussian 82(TM) system (copyright 1983,
 Carnegie Mellon University). Gaussian is a federally registered
 trademark of Gaussian, Inc.
  
 This software contains proprietary and confidential information,
 including trade secrets, belonging to Gaussian, Inc.
  
 This software is provided under written license and may be
 used, copied, transmitted, or stored only in accord with that
 written license.
  
 The following legend is applicable only to US Government
 contracts under FAR:
  
                    RESTRICTED RIGHTS LEGEND
  
 Use, reproduction and disclosure by the US Government is
 subject to restrictions as set forth in subparagraphs (a)
 and (c) of the Commercial Computer Software - Restricted
 Rights clause in FAR 52.227-19.
  
 Gaussian, Inc.
 340 Quinnipiac St., Bldg. 40, Wallingford CT 06492
  
  
 ---------------------------------------------------------------
 Warning -- This program may not be used in any manner that
 competes with the business of Gaussian, Inc. or will provide
 assistance to any competitor of Gaussian, Inc.  The licensee
 of this program is prohibited from giving any competitor of
 Gaussian, Inc. access to this program.  By using this program,
 the user acknowledges that Gaussian, Inc. is engaged in the
 business of creating and licensing software in the field of
 computational chemistry and represents and warrants to the
 licensee that it is not a competitor of Gaussian, Inc. and that
 it will not use this program in any manner prohibited above.
 ---------------------------------------------------------------
  

 Cite this work as:
 Gaussian 09, Revision E.01,
 M. J. Frisch, G. W. Trucks, H. B. Schlegel, G. E. Scuseria, 
 M. A. Robb, J. R. Cheeseman, G. Scalmani, V. Barone, B. Mennucci, 
 G. A. Petersson, H. Nakatsuji, M. Caricato, X. Li, H. P. Hratchian, 
 A. F. Izmaylov, J. Bloino, G. Zheng, J. L. Sonnenberg, M. Hada, 
 M. Ehara, K. Toyota, R. Fukuda, J. Hasegawa, M. Ishida, T. Nakajima, 
 Y. Honda, O. Kitao, H. Nakai, T. Vreven, J. A. Montgomery, Jr., 
 J. E. Peralta, F. Ogliaro, M. Bearpark, J. J. Heyd, E. Brothers, 
 K. N. Kudin, V. N. Staroverov, T. Keith, R. Kobayashi, J. Normand, 
 K. Raghavachari, A. Rendell, J. C. Burant, S. S. Iyengar, J. Tomasi, 
 M. Cossi, N. Rega, J. M. Millam, M. Klene, J. E. Knox, J. B. Cross, 
 V. Bakken, C. Adamo, J. Jaramillo, R. Gomperts, R. E. Stratmann, 
 O. Yazyev, A. J. Austin, R. Cammi, C. Pomelli, J. W. Ochterski, 
 R. L. Martin, K. Morokuma, V. G. Zakrzewski, G. A. Voth, 
 P. Salvador, J. J. Dannenberg, S. Dapprich, A. D. Daniels, 
 O. Farkas, J. B. Foresman, J. V. Ortiz, J. Cioslowski, 
 and D. J. Fox, Gaussian, Inc., Wallingford CT, 2013.
 
 ******************************************
 Gaussian 09:  ES64L-G09RevE.01 30-Nov-2015
                17-May-2018 
 ******************************************
 %Mem=110GB
 %NProcShared=64
 Will use up to   64 processors via shared memory.
 %chk=snap85.chk
 ----------------------------------------------
 #p PBE1PBE/cc-pvDZ force Counterpoise=2 noSymm
 ----------------------------------------------
 1/10=7,30=1,38=1,62=2/1,3;
 2/12=2,15=1,17=6,18=5,40=1/2;
 1/10=7,30=1,38=1,53=2,62=2,63=101/22;
 3/5=16,11=2,16=1,25=1,30=1,71=1,74=-13/1,2,3;
 4//1;
 5/5=2,38=5/2;
 6/7=2,8=2,9=2,10=2,28=1/1;
 7/7=1,29=1,30=1,33=-1/1,2,3,16;
 1/10=7,30=1,53=2,62=2,63=101/22;
 3/5=7,6=11,11=2,16=1,25=1,30=1,71=1,74=-13,82=7/1,2,3;
 4//1;
 5/5=2,38=5/2;
 6/7=2,8=2,9=2,10=2,28=1/1;
 7/7=1,29=1,30=1,33=-1/1,2,3,16;
 1/10=7,30=1,53=2,62=2,63=101/22(-5);
 7/9=1,29=1,44=-1/16;
 1/10=7,30=1,62=2/3;
 99//99;
 Leave Link    1 at Thu May 17 19:27:03 2018, MaxMem= 14763950080 cpu:         6.3
 (Enter /cm/shared/gaussian/g09.e01/intel64-sandybridge/g09/l101.exe)
 ---------------------------------------
 forces on chloride comput - NWATER: 128
 ---------------------------------------
 Symbolic Z-matrix:
 Charge = -1 Multiplicity = 1 in supermolecule
 Charge = -1 Multiplicity = 1 in fragment      1.
 Charge =  0 Multiplicity = 1 in fragment      2.
 Br(Fragment=1)        20.       20.       20. 
 O(Fragment=2)         23.09     19.77     19.61 
 H(Fragment=2)         22.14     19.82     19.65 
 H(Fragment=2)         23.31     20.01     18.71 
 O(Fragment=2)         20.8      17.68     18.2 
 H(Fragment=2)         21.6      18.2      18.09 
 H(Fragment=2)         20.32     18.11     18.9 
 O(Fragment=2)         18.09     20.47     22.83 
 H(Fragment=2)         18.69     20.52     22.09 
 H(Fragment=2)         17.24     20.27     22.44 
 O(Fragment=2)         20.64     17.       21.45 
 H(Fragment=2)         19.88     17.08     22.02 
 H(Fragment=2)         20.83     17.9      21.17 
 O(Fragment=2)         20.1      23.07     18.29 
 H(Fragment=2)         19.98     22.17     18.58 
 H(Fragment=2)         19.97     23.6      19.08 
 O(Fragment=2)         16.49     20.54     20.23 
 H(Fragment=2)         17.3      20.87     19.85 
 H(Fragment=2)         15.96     21.32     20.4 
 O(Fragment=2)         22.34     22.47     21.54 
 H(Fragment=2)         23.13     22.53     21.01 
 H(Fragment=2)         21.96     21.62     21.32 
 O(Fragment=2)         19.58     20.81     16.15 
 H(Fragment=2)         19.96     20.55     16.99 
 H(Fragment=2)         19.95     21.67     15.97 
 O(Fragment=2)         18.36     18.11     17.09 
 H(Fragment=2)         18.37     19.07     17.07 
 H(Fragment=2)         19.08     17.88     17.67 
 O(Fragment=2)         21.97     19.81     24.57 
 H(Fragment=2)         21.16     19.64     24.08 
 H(Fragment=2)         21.88     19.27     25.36 
 O(Fragment=2)         24.26     17.21     20.8 
 H(Fragment=2)         23.82     16.36     20.84 
 H(Fragment=2)         23.69     17.75     20.25 
 O(Fragment=2)         15.01     18.5      19.33 
 H(Fragment=2)         15.12     18.59     18.39 
 H(Fragment=2)         15.63     19.13     19.71 
 O(Fragment=2)         20.57     14.87     18.37 
 H(Fragment=2)         19.66     14.92     18.66 
 H(Fragment=2)         20.91     15.76     18.51 
 O(Fragment=2)         24.27     19.2      22.87 
 H(Fragment=2)         23.37     19.44     23.12 
 H(Fragment=2)         24.15     18.53     22.19 
 O(Fragment=2)         17.05     24.55     21. 
 H(Fragment=2)         16.29     24.61     20.42 
 H(Fragment=2)         17.27     23.62     21.02 
 O(Fragment=2)         17.17     22.2      16.91 
 H(Fragment=2)         16.66     23.01     16.85 
 H(Fragment=2)         18.02     22.43     16.54 
 O(Fragment=2)         18.79     19.87     25.44 
 H(Fragment=2)         18.01     20.28     25.82 
 H(Fragment=2)         18.58     19.78     24.51 
 O(Fragment=2)         20.61     24.42     23. 
 H(Fragment=2)         20.2      23.87     23.67 
 H(Fragment=2)         21.27     23.86     22.6 
 O(Fragment=2)         20.83     23.56     15.79 
 H(Fragment=2)         21.35     24.34     15.59 
 H(Fragment=2)         20.79     23.54     16.74 
 O(Fragment=2)         17.32     15.57     18.33 
 H(Fragment=2)         16.52     15.29     17.9 
 H(Fragment=2)         17.62     16.32     17.82 
 O(Fragment=2)         16.56     16.28     21.85 
 H(Fragment=2)         17.02     16.24     21.02 
 H(Fragment=2)         17.09     16.85     22.4 
 O(Fragment=2)         15.01     18.9      22.33 
 H(Fragment=2)         15.12     17.95     22.42 
 H(Fragment=2)         15.35     19.09     21.45 
 O(Fragment=2)         21.03     25.28     20.32 
 H(Fragment=2)         20.94     25.17     21.27 
 H(Fragment=2)         21.72     24.67     20.07 
 O(Fragment=2)         21.03     17.59     15.09 
 H(Fragment=2)         21.74     17.2      14.59 
 H(Fragment=2)         21.13     17.22     15.97 
 O(Fragment=2)         22.65     19.78     15.57 
 H(Fragment=2)         21.88     19.25     15.34 
 H(Fragment=2)         23.27     19.15     15.94 
 O(Fragment=2)         22.77     22.57     24.49 
 H(Fragment=2)         22.23     21.82     24.24 
 H(Fragment=2)         22.86     23.08     23.69 
 O(Fragment=2)         18.98     16.66     23.86 
 H(Fragment=2)         18.87     15.71     23.95 
 H(Fragment=2)         18.15     17.03     24.17 
 O(Fragment=2)         21.68     16.35     24.12 
 H(Fragment=2)         20.77     16.59     23.91 
 H(Fragment=2)         21.91     15.69     23.47 
 O(Fragment=2)         14.81     20.95     17.36 
 H(Fragment=2)         15.7      21.31     17.28 
 H(Fragment=2)         14.87     20.09     16.96 
 O(Fragment=2)         23.68     23.76     19.64 
 H(Fragment=2)         24.32     23.12     19.33 
 H(Fragment=2)         24.17     24.58     19.72 
 O(Fragment=2)         25.57     22.       19.1 
 H(Fragment=2)         26.3      21.68     19.63 
 H(Fragment=2)         25.26     21.23     18.63 
 O(Fragment=2)         18.97     19.98     13.73 
 H(Fragment=2)         19.65     20.31     13.14 
 H(Fragment=2)         19.07     20.52     14.52 
 O(Fragment=2)         25.18     19.33     17.71 
 H(Fragment=2)         25.88     19.51     17.08 
 H(Fragment=2)         24.89     18.44     17.48 
 O(Fragment=2)         18.27     17.1      14.32 
 H(Fragment=2)         19.05     17.51     13.94 
 H(Fragment=2)         18.28     17.37     15.24 
 O(Fragment=2)         14.95     23.33     19.82 
 H(Fragment=2)         14.58     23.31     18.94 
 H(Fragment=2)         14.25     23.71     20.36 
 O(Fragment=2)         19.45     23.33     25.1 
 H(Fragment=2)         18.91     24.05     25.42 
 H(Fragment=2)         19.14     22.57     25.59 
 O(Fragment=2)         18.43     26.63     19.88 
 H(Fragment=2)         19.26     26.18     20.03 
 H(Fragment=2)         17.76     25.98     20.1 
 O(Fragment=2)         18.28     25.68     23.34 
 H(Fragment=2)         19.12     25.22     23.33 
 H(Fragment=2)         17.78     25.3      22.61 
 O(Fragment=2)         16.08     19.4      15.02 
 H(Fragment=2)         16.2      20.23     14.55 
 H(Fragment=2)         16.24     18.72     14.36 
 O(Fragment=2)         14.37     17.87     16.36 
 H(Fragment=2)         15.1      18.42     16.09 
 H(Fragment=2)         14.28     17.22     15.66 
 O(Fragment=2)         23.67     22.28     14.45 
 H(Fragment=2)         24.39     22.3      13.81 
 H(Fragment=2)         23.66     21.38     14.78 
 O(Fragment=2)         23.21     13.56     19.05 
 H(Fragment=2)         23.24     13.24     18.15 
 H(Fragment=2)         22.34     13.96     19.14 
 O(Fragment=2)         24.2      15.8      17.14 
 H(Fragment=2)         23.91     14.99     17.56 
 H(Fragment=2)         24.32     15.57     16.22 
 O(Fragment=2)         27.       20.46     21.54 
 H(Fragment=2)         26.39     19.87     21.97 
 H(Fragment=2)         26.64     21.33     21.69 
 O(Fragment=2)         23.93     16.22     25.33 
 H(Fragment=2)         23.11     16.65     25.09 
 H(Fragment=2)         24.43     16.17     24.52 
 O(Fragment=2)         14.22     14.94     21.38 
 H(Fragment=2)         13.87     14.96     22.27 
 H(Fragment=2)         15.       15.5      21.41 
 O(Fragment=2)         16.54     16.98     25.27 
 H(Fragment=2)         16.59     16.69     26.18 
 H(Fragment=2)         15.93     17.72     25.29 
 O(Fragment=2)         16.17     24.55     16.25 
 H(Fragment=2)         16.8      25.27     16.28 
 H(Fragment=2)         16.24     24.21     15.36 
 O(Fragment=2)         24.56     21.63     26.32 
 H(Fragment=2)         25.36     21.8      25.81 
 H(Fragment=2)         23.86     21.64     25.67 
 O(Fragment=2)         16.74     22.12     25.89 
 H(Fragment=2)         16.77     23.06     25.73 
 H(Fragment=2)         15.84     21.87     25.7 
 O(Fragment=2)         26.59     16.57     18.15 
 H(Fragment=2)         27.14     15.99     17.63 
 H(Fragment=2)         25.7      16.22     18.03 
 O(Fragment=2)         12.37     17.46     20.21 
 H(Fragment=2)         13.17     17.98     20.1 
 H(Fragment=2)         12.01     17.4      19.32 
 O(Fragment=2)         21.8      23.53     27.05 
 H(Fragment=2)         21.72     22.95     26.29 
 H(Fragment=2)         20.89     23.74     27.28 
 O(Fragment=2)         21.4      21.32     12.6 
 H(Fragment=2)         21.57     20.46     12.99 
 H(Fragment=2)         21.97     21.91     13.08 
 O(Fragment=2)         12.87     19.78     23.8 
 H(Fragment=2)         13.55     19.51     23.19 
 H(Fragment=2)         12.72     20.7      23.61 
 O(Fragment=2)         25.33     23.78     16.28 
 H(Fragment=2)         24.67     23.43     15.69 
 H(Fragment=2)         26.02     24.1      15.7 
 O(Fragment=2)         27.77     18.63     19.34 
 H(Fragment=2)         27.19     19.11     19.93 
 H(Fragment=2)         27.21     17.95     18.96 
 O(Fragment=2)         17.72     26.69     16.46 
 H(Fragment=2)         17.11     27.3      16.85 
 H(Fragment=2)         18.37     26.52     17.15 
 O(Fragment=2)         26.77     18.2      24.3 
 H(Fragment=2)         26.07     18.16     23.66 
 H(Fragment=2)         26.98     19.14     24.36 
 O(Fragment=2)         21.99     18.59     26.98 
 H(Fragment=2)         22.13     17.71     27.32 
 H(Fragment=2)         22.72     19.1      27.33 
 O(Fragment=2)         20.42     25.7      13.97 
 H(Fragment=2)         21.36     25.56     14.03 
 H(Fragment=2)         20.04     25.01     14.52 
 O(Fragment=2)         19.41     18.83     27.96 
 H(Fragment=2)         18.84     19.21     27.3 
 H(Fragment=2)         20.3      18.94     27.62 
 O(Fragment=2)         16.76     13.89     23.54 
 H(Fragment=2)         17.62     14.12     23.9 
 H(Fragment=2)         16.15     14.49     23.98 
 O(Fragment=2)         17.47     12.47     19.14 
 H(Fragment=2)         17.07     11.75     18.65 
 H(Fragment=2)         17.86     13.02     18.46 
 O(Fragment=2)         20.41     11.75     19.39 
 H(Fragment=2)         19.45     11.65     19.37 
 H(Fragment=2)         20.57     12.6      18.98 
 O(Fragment=2)         26.48     23.05     22.5 
 H(Fragment=2)         26.94     23.35     21.72 
 H(Fragment=2)         25.9      23.78     22.73 
 O(Fragment=2)         21.24     18.21     12.26 
 H(Fragment=2)         20.76     17.64     12.86 
 H(Fragment=2)         21.19     17.75     11.42 
 O(Fragment=2)         22.91     24.86     14.15 
 H(Fragment=2)         22.95     23.9      14.21 
 H(Fragment=2)         23.78     25.12     13.87 
 O(Fragment=2)         25.51     25.51     18.63 
 H(Fragment=2)         25.59     26.28     18.07 
 H(Fragment=2)         25.56     24.77     18.03 
 O(Fragment=2)         25.14     18.39     14.56 
 H(Fragment=2)         24.75     18.56     13.71 
 H(Fragment=2)         25.41     17.47     14.52 
 O(Fragment=2)         11.85     20.62     17.7 
 H(Fragment=2)         11.5      21.06     18.46 
 H(Fragment=2)         12.76     20.93     17.63 
 O(Fragment=2)         22.7      26.42     23.29 
 H(Fragment=2)         23.22     26.65     22.53 
 H(Fragment=2)         23.27     25.86     23.81 
 O(Fragment=2)         20.6      12.25     23.3 
 H(Fragment=2)         21.26     12.29     22.6 
 H(Fragment=2)         20.46     13.17     23.54 
 O(Fragment=2)         13.4      21.17     14.58 
 H(Fragment=2)         13.82     20.99     15.42 
 H(Fragment=2)         12.64     21.71     14.81 
 O(Fragment=2)         24.7      14.48     22.8 
 H(Fragment=2)         25.6      14.52     23.13 
 H(Fragment=2)         24.63     13.62     22.39 
 O(Fragment=2)         16.31     15.2      14.14 
 H(Fragment=2)         15.82     15.44     14.93 
 H(Fragment=2)         17.11     15.73     14.18 
 O(Fragment=2)         19.01     14.03     24.98 
 H(Fragment=2)         18.95     14.26     25.91 
 H(Fragment=2)         19.29     13.12     24.97 
 O(Fragment=2)         23.39     15.51     14.48 
 H(Fragment=2)         22.86     14.75     14.71 
 H(Fragment=2)         24.27     15.16     14.34 
 O(Fragment=2)         19.07     22.49     27.75 
 H(Fragment=2)         19.03     21.54     27.68 
 H(Fragment=2)         18.23     22.79     27.42 
 O(Fragment=2)         20.68     14.23     14.09 
 H(Fragment=2)         20.95     13.47     13.58 
 H(Fragment=2)         20.7      13.93     15. 
 O(Fragment=2)         22.86     12.17     21.89 
 H(Fragment=2)         22.69     12.6      21.05 
 H(Fragment=2)         23.36     11.39     21.67 
 O(Fragment=2)         15.15     14.36     17.21 
 H(Fragment=2)         14.53     14.4      16.48 
 H(Fragment=2)         14.83     13.64     17.76 
 O(Fragment=2)         20.72     27.32     16.54 
 H(Fragment=2)         21.51     27.12     16.04 
 H(Fragment=2)         21.03     27.47     17.44 
 O(Fragment=2)         27.02     21.86     24.86 
 H(Fragment=2)         27.39     22.74     24.94 
 H(Fragment=2)         26.7      21.81     23.96 
 O(Fragment=2)         17.72     18.85     11.55 
 H(Fragment=2)         17.97     19.43     12.27 
 H(Fragment=2)         16.89     18.46     11.84 
 O(Fragment=2)         18.96     28.79     21.37 
 H(Fragment=2)         19.89     28.89     21.55 
 H(Fragment=2)         18.86     27.87     21.11 
 O(Fragment=2)         20.19     27.17     24.7 
 H(Fragment=2)         19.41     26.93     24.2 
 H(Fragment=2)         20.92     26.81     24.2 
 O(Fragment=2)         16.48     12.03     21.48 
 H(Fragment=2)         16.87     12.05     20.6 
 H(Fragment=2)         16.9      12.75     21.95 
 O(Fragment=2)         21.68     28.59     19.16 
 H(Fragment=2)         21.12     29.33     19.42 
 H(Fragment=2)         21.61     27.98     19.88 
 O(Fragment=2)         13.56     25.6      18.07 
 H(Fragment=2)         14.35     25.36     17.58 
 H(Fragment=2)         13.45     26.53     17.91 
 O(Fragment=2)         28.01     22.51     16.52 
 H(Fragment=2)         28.56     21.8      16.85 
 H(Fragment=2)         27.19     22.42     16.99 
 O(Fragment=2)         13.9      15.49     23.96 
 H(Fragment=2)         13.87     16.44     24.09 
 H(Fragment=2)         13.84     15.13     24.84 
 O(Fragment=2)         17.38     12.8      16.29 
 H(Fragment=2)         16.72     13.12     16.9 
 H(Fragment=2)         16.89     12.6      15.49 
 O(Fragment=2)         19.98     11.89     16.01 
 H(Fragment=2)         19.09     12.18     15.85 
 H(Fragment=2)         20.28     12.43     16.74 
 O(Fragment=2)         11.79     22.58     20.04 
 H(Fragment=2)         11.09     23.       19.53 
 H(Fragment=2)         12.41     23.29     20.22 
 O(Fragment=2)         24.5      26.83     21.36 
 H(Fragment=2)         25.24     26.98     21.94 
 H(Fragment=2)         24.89     26.73     20.49 
 O(Fragment=2)         11.82     17.54     17.62 
 H(Fragment=2)         11.57     18.39     17.99 
 H(Fragment=2)         12.56     17.73     17.04 
 O(Fragment=2)         14.3      18.37     25.89 
 H(Fragment=2)         13.81     19.19     25.86 
 H(Fragment=2)         14.62     18.31     26.79 
 O(Fragment=2)         27.33     14.6      20.74 
 H(Fragment=2)         26.61     14.98     21.25 
 H(Fragment=2)         26.9      14.19     19.99 
 O(Fragment=2)         13.09     24.88     21.12 
 H(Fragment=2)         13.78     25.54     21.04 
 H(Fragment=2)         12.59     25.14     21.9 
 O(Fragment=2)         16.2      26.82     24.99 
 H(Fragment=2)         15.4      26.83     24.46 
 H(Fragment=2)         16.88     26.51     24.4 
 O(Fragment=2)         23.99     25.12     26.08 
 H(Fragment=2)         23.35     24.74     26.68 
 H(Fragment=2)         24.52     24.38     25.79 
 O(Fragment=2)         17.57     24.79     26.67 
 H(Fragment=2)         17.94     25.66     26.59 
 H(Fragment=2)         16.79     24.9      27.22 
 O(Fragment=2)         23.82     18.77     11.9 
 H(Fragment=2)         22.87     18.68     12. 
 H(Fragment=2)         24.03     18.21     11.15 
 O(Fragment=2)         22.46     15.67     27.64 
 H(Fragment=2)         23.07     15.55     28.36 
 H(Fragment=2)         23.       15.62     26.85 
 O(Fragment=2)         25.95     12.76     19.15 
 H(Fragment=2)         25.97     11.94     18.66 
 H(Fragment=2)         25.02     12.98     19.2 
 O(Fragment=2)         16.16     23.88     12.95 
 H(Fragment=2)         16.34     22.97     12.71 
 H(Fragment=2)         16.83     24.38     12.49 
 O(Fragment=2)         16.89     28.78     18.16 
 H(Fragment=2)         16.64     29.52     18.72 
 H(Fragment=2)         17.3      28.16     18.76 
 O(Fragment=2)         14.29     12.77     19.67 
 H(Fragment=2)         14.06     13.64     20. 
 H(Fragment=2)         15.13     12.57     20.1 
 O(Fragment=2)         15.36     21.12     12.61 
 H(Fragment=2)         14.65     20.87     13.19 
 H(Fragment=2)         15.15     20.69     11.78 
 O(Fragment=2)         23.39     12.71     16.63 
 H(Fragment=2)         24.16     12.84     16.08 
 H(Fragment=2)         23.01     11.89     16.32 
 O(Fragment=2)         23.72     13.15     25.65 
 H(Fragment=2)         23.61     13.86     25.03 
 H(Fragment=2)         24.57     13.31     26.06 
 O(Fragment=2)         19.       15.6      11.98 
 H(Fragment=2)         19.01     14.98     12.71 
 H(Fragment=2)         18.34     16.25     12.24 
 O(Fragment=2)         19.9      14.42     27.65 
 H(Fragment=2)         19.57     14.97     28.35 
 H(Fragment=2)         20.57     14.96     27.22 
 O(Fragment=2)         11.13     17.79     22.56 
 H(Fragment=2)         11.74     18.47     22.85 
 H(Fragment=2)         11.39     17.6      21.66 
 O(Fragment=2)         21.57     21.47     29.57 
 H(Fragment=2)         22.38     21.95     29.43 
 H(Fragment=2)         21.08     21.56     28.75 
 O(Fragment=2)         13.81     21.86     26.4 
 H(Fragment=2)         12.92     21.86     26.75 
 H(Fragment=2)         13.99     22.77     26.17 
 O(Fragment=2)         26.16     15.89     14.74 
 H(Fragment=2)         26.85     15.57     15.32 
 H(Fragment=2)         26.62     16.2      13.96 
 O(Fragment=2)         15.19     17.46     12.4 
 H(Fragment=2)         14.72     16.67     12.16 
 H(Fragment=2)         14.58     17.95     12.95 
 O(Fragment=2)         13.26     18.48     13.65 
 H(Fragment=2)         12.35     18.28     13.42 
 H(Fragment=2)         13.25     19.41     13.88 
 O(Fragment=2)         29.6      20.66     18.09 
 H(Fragment=2)         29.04     20.09     18.62 
 H(Fragment=2)         30.19     21.07     18.73 
 O(Fragment=2)         13.54     15.45     15.31 
 H(Fragment=2)         13.25     15.68     14.43 
 H(Fragment=2)         12.75     15.47     15.84 
 O(Fragment=2)         18.69     16.56     29.16 
 H(Fragment=2)         18.73     16.72     30.11 
 H(Fragment=2)         19.18     17.29     28.78 
 O(Fragment=2)         27.29     26.02     21.07 
 H(Fragment=2)         27.94     25.57     21.61 
 H(Fragment=2)         27.34     25.59     20.22 
 O(Fragment=2)         25.91     25.89     23.97 
 H(Fragment=2)         25.71     26.82     23.98 
 H(Fragment=2)         26.32     25.72     24.82 
 O(Fragment=2)         21.67     29.08     22.09 
 H(Fragment=2)         21.86     28.6      22.9 
 H(Fragment=2)         21.88     29.99     22.3 
 O(Fragment=2)         17.86     27.38     13.72 
 H(Fragment=2)         17.62     27.16     14.62 
 H(Fragment=2)         18.8      27.56     13.76 
 O(Fragment=2)         29.48     17.65     17.48 
 H(Fragment=2)         29.42     17.87     16.55 
 H(Fragment=2)         28.88     18.26     17.91 
 
 NAtoms=    385 NQM=      385 NQMF=       0 NMMI=      0 NMMIF=      0
                NMic=       0 NMicF=      0.
                    Isotopes and Nuclear Properties:
 (Nuclear quadrupole moments (NQMom) in fm**2, nuclear magnetic moments (NMagM)
  in nuclear magnetons)

  Atom         1           2           3           4           5           6           7           8           9          10
 IAtWgt=          79          16           1           1          16           1           1          16           1           1
 AtmWgt=  78.9183361  15.9949146   1.0078250   1.0078250  15.9949146   1.0078250   1.0078250  15.9949146   1.0078250   1.0078250
 NucSpn=           3           0           1           1           0           1           1           0           1           1
 AtZEff=   0.0000000   0.0000000   0.0000000   0.0000000   0.0000000   0.0000000   0.0000000   0.0000000   0.0000000   0.0000000
 NQMom=   31.3000000   0.0000000   0.0000000   0.0000000   0.0000000   0.0000000   0.0000000   0.0000000   0.0000000   0.0000000
 NMagM=    2.1063990   0.0000000   2.7928460   2.7928460   0.0000000   2.7928460   2.7928460   0.0000000   2.7928460   2.7928460
 AtZNuc=  35.0000000   8.0000000   1.0000000   1.0000000   8.0000000   1.0000000   1.0000000   8.0000000   1.0000000   1.0000000

  Atom        11          12          13          14          15          16          17          18          19          20
 IAtWgt=          16           1           1          16           1           1          16           1           1          16
 AtmWgt=  15.9949146   1.0078250   1.0078250  15.9949146   1.0078250   1.0078250  15.9949146   1.0078250   1.0078250  15.9949146
 NucSpn=           0           1           1           0           1           1           0           1           1           0
 AtZEff=   0.0000000   0.0000000   0.0000000   0.0000000   0.0000000   0.0000000   0.0000000   0.0000000   0.0000000   0.0000000
 NQMom=    0.0000000   0.0000000   0.0000000   0.0000000   0.0000000   0.0000000   0.0000000   0.0000000   0.0000000   0.0000000
 NMagM=    0.0000000   2.7928460   2.7928460   0.0000000   2.7928460   2.7928460   0.0000000   2.7928460   2.7928460   0.0000000
 AtZNuc=   8.0000000   1.0000000   1.0000000   8.0000000   1.0000000   1.0000000   8.0000000   1.0000000   1.0000000   8.0000000

  Atom        21          22          23          24          25          26          27          28          29          30
 IAtWgt=           1           1          16           1           1          16           1           1          16           1
 AtmWgt=   1.0078250   1.0078250  15.9949146   1.0078250   1.0078250  15.9949146   1.0078250   1.0078250  15.9949146   1.0078250
 NucSpn=           1           1           0           1           1           0           1           1           0           1
 AtZEff=   0.0000000   0.0000000   0.0000000   0.0000000   0.0000000   0.0000000   0.0000000   0.0000000   0.0000000   0.0000000
 NQMom=    0.0000000   0.0000000   0.0000000   0.0000000   0.0000000   0.0000000   0.0000000   0.0000000   0.0000000   0.0000000
 NMagM=    2.7928460   2.7928460   0.0000000   2.7928460   2.7928460   0.0000000   2.7928460   2.7928460   0.0000000   2.7928460
 AtZNuc=   1.0000000   1.0000000   8.0000000   1.0000000   1.0000000   8.0000000   1.0000000   1.0000000   8.0000000   1.0000000

  Atom        31          32          33          34          35          36          37          38          39          40
 IAtWgt=           1          16           1           1          16           1           1          16           1           1
 AtmWgt=   1.0078250  15.9949146   1.0078250   1.0078250  15.9949146   1.0078250   1.0078250  15.9949146   1.0078250   1.0078250
 NucSpn=           1           0           1           1           0           1           1           0           1           1
 AtZEff=   0.0000000   0.0000000   0.0000000   0.0000000   0.0000000   0.0000000   0.0000000   0.0000000   0.0000000   0.0000000
 NQMom=    0.0000000   0.0000000   0.0000000   0.0000000   0.0000000   0.0000000   0.0000000   0.0000000   0.0000000   0.0000000
 NMagM=    2.7928460   0.0000000   2.7928460   2.7928460   0.0000000   2.7928460   2.7928460   0.0000000   2.7928460   2.7928460
 AtZNuc=   1.0000000   8.0000000   1.0000000   1.0000000   8.0000000   1.0000000   1.0000000   8.0000000   1.0000000   1.0000000

  Atom        41          42          43          44          45          46          47          48          49          50
 IAtWgt=          16           1           1          16           1           1          16           1           1          16
 AtmWgt=  15.9949146   1.0078250   1.0078250  15.9949146   1.0078250   1.0078250  15.9949146   1.0078250   1.0078250  15.9949146
 NucSpn=           0           1           1           0           1           1           0           1           1           0
 AtZEff=   0.0000000   0.0000000   0.0000000   0.0000000   0.0000000   0.0000000   0.0000000   0.0000000   0.0000000   0.0000000
 NQMom=    0.0000000   0.0000000   0.0000000   0.0000000   0.0000000   0.0000000   0.0000000   0.0000000   0.0000000   0.0000000
 NMagM=    0.0000000   2.7928460   2.7928460   0.0000000   2.7928460   2.7928460   0.0000000   2.7928460   2.7928460   0.0000000
 AtZNuc=   8.0000000   1.0000000   1.0000000   8.0000000   1.0000000   1.0000000   8.0000000   1.0000000   1.0000000   8.0000000

  Atom        51          52          53          54          55          56          57          58          59          60
 IAtWgt=           1           1          16           1           1          16           1           1          16           1
 AtmWgt=   1.0078250   1.0078250  15.9949146   1.0078250   1.0078250  15.9949146   1.0078250   1.0078250  15.9949146   1.0078250
 NucSpn=           1           1           0           1           1           0           1           1           0           1
 AtZEff=   0.0000000   0.0000000   0.0000000   0.0000000   0.0000000   0.0000000   0.0000000   0.0000000   0.0000000   0.0000000
 NQMom=    0.0000000   0.0000000   0.0000000   0.0000000   0.0000000   0.0000000   0.0000000   0.0000000   0.0000000   0.0000000
 NMagM=    2.7928460   2.7928460   0.0000000   2.7928460   2.7928460   0.0000000   2.7928460   2.7928460   0.0000000   2.7928460
 AtZNuc=   1.0000000   1.0000000   8.0000000   1.0000000   1.0000000   8.0000000   1.0000000   1.0000000   8.0000000   1.0000000

  Atom        61          62          63          64          65          66          67          68          69          70
 IAtWgt=           1          16           1           1          16           1           1          16           1           1
 AtmWgt=   1.0078250  15.9949146   1.0078250   1.0078250  15.9949146   1.0078250   1.0078250  15.9949146   1.0078250   1.0078250
 NucSpn=           1           0           1           1           0           1           1           0           1           1
 AtZEff=   0.0000000   0.0000000   0.0000000   0.0000000   0.0000000   0.0000000   0.0000000   0.0000000   0.0000000   0.0000000
 NQMom=    0.0000000   0.0000000   0.0000000   0.0000000   0.0000000   0.0000000   0.0000000   0.0000000   0.0000000   0.0000000
 NMagM=    2.7928460   0.0000000   2.7928460   2.7928460   0.0000000   2.7928460   2.7928460   0.0000000   2.7928460   2.7928460
 AtZNuc=   1.0000000   8.0000000   1.0000000   1.0000000   8.0000000   1.0000000   1.0000000   8.0000000   1.0000000   1.0000000

  Atom        71          72          73          74          75          76          77          78          79          80
 IAtWgt=          16           1           1          16           1           1          16           1           1          16
 AtmWgt=  15.9949146   1.0078250   1.0078250  15.9949146   1.0078250   1.0078250  15.9949146   1.0078250   1.0078250  15.9949146
 NucSpn=           0           1           1           0           1           1           0           1           1           0
 AtZEff=   0.0000000   0.0000000   0.0000000   0.0000000   0.0000000   0.0000000   0.0000000   0.0000000   0.0000000   0.0000000
 NQMom=    0.0000000   0.0000000   0.0000000   0.0000000   0.0000000   0.0000000   0.0000000   0.0000000   0.0000000   0.0000000
 NMagM=    0.0000000   2.7928460   2.7928460   0.0000000   2.7928460   2.7928460   0.0000000   2.7928460   2.7928460   0.0000000
 AtZNuc=   8.0000000   1.0000000   1.0000000   8.0000000   1.0000000   1.0000000   8.0000000   1.0000000   1.0000000   8.0000000

  Atom        81          82          83          84          85          86          87          88          89          90
 IAtWgt=           1           1          16           1           1          16           1           1          16           1
 AtmWgt=   1.0078250   1.0078250  15.9949146   1.0078250   1.0078250  15.9949146   1.0078250   1.0078250  15.9949146   1.0078250
 NucSpn=           1           1           0           1           1           0           1           1           0           1
 AtZEff=   0.0000000   0.0000000   0.0000000   0.0000000   0.0000000   0.0000000   0.0000000   0.0000000   0.0000000   0.0000000
 NQMom=    0.0000000   0.0000000   0.0000000   0.0000000   0.0000000   0.0000000   0.0000000   0.0000000   0.0000000   0.0000000
 NMagM=    2.7928460   2.7928460   0.0000000   2.7928460   2.7928460   0.0000000   2.7928460   2.7928460   0.0000000   2.7928460
 AtZNuc=   1.0000000   1.0000000   8.0000000   1.0000000   1.0000000   8.0000000   1.0000000   1.0000000   8.0000000   1.0000000

  Atom        91          92          93          94          95          96          97          98          99         100
 IAtWgt=           1          16           1           1          16           1           1          16           1           1
 AtmWgt=   1.0078250  15.9949146   1.0078250   1.0078250  15.9949146   1.0078250   1.0078250  15.9949146   1.0078250   1.0078250
 NucSpn=           1           0           1           1           0           1           1           0           1           1
 AtZEff=   0.0000000   0.0000000   0.0000000   0.0000000   0.0000000   0.0000000   0.0000000   0.0000000   0.0000000   0.0000000
 NQMom=    0.0000000   0.0000000   0.0000000   0.0000000   0.0000000   0.0000000   0.0000000   0.0000000   0.0000000   0.0000000
 NMagM=    2.7928460   0.0000000   2.7928460   2.7928460   0.0000000   2.7928460   2.7928460   0.0000000   2.7928460   2.7928460
 AtZNuc=   1.0000000   8.0000000   1.0000000   1.0000000   8.0000000   1.0000000   1.0000000   8.0000000   1.0000000   1.0000000

  Atom       101         102         103         104         105         106         107         108         109         110
 IAtWgt=          16           1           1          16           1           1          16           1           1          16
 AtmWgt=  15.9949146   1.0078250   1.0078250  15.9949146   1.0078250   1.0078250  15.9949146   1.0078250   1.0078250  15.9949146
 NucSpn=           0           1           1           0           1           1           0           1           1           0
 AtZEff=   0.0000000   0.0000000   0.0000000   0.0000000   0.0000000   0.0000000   0.0000000   0.0000000   0.0000000   0.0000000
 NQMom=    0.0000000   0.0000000   0.0000000   0.0000000   0.0000000   0.0000000   0.0000000   0.0000000   0.0000000   0.0000000
 NMagM=    0.0000000   2.7928460   2.7928460   0.0000000   2.7928460   2.7928460   0.0000000   2.7928460   2.7928460   0.0000000
 AtZNuc=   8.0000000   1.0000000   1.0000000   8.0000000   1.0000000   1.0000000   8.0000000   1.0000000   1.0000000   8.0000000

  Atom       111         112         113         114         115         116         117         118         119         120
 IAtWgt=           1           1          16           1           1          16           1           1          16           1
 AtmWgt=   1.0078250   1.0078250  15.9949146   1.0078250   1.0078250  15.9949146   1.0078250   1.0078250  15.9949146   1.0078250
 NucSpn=           1           1           0           1           1           0           1           1           0           1
 AtZEff=   0.0000000   0.0000000   0.0000000   0.0000000   0.0000000   0.0000000   0.0000000   0.0000000   0.0000000   0.0000000
 NQMom=    0.0000000   0.0000000   0.0000000   0.0000000   0.0000000   0.0000000   0.0000000   0.0000000   0.0000000   0.0000000
 NMagM=    2.7928460   2.7928460   0.0000000   2.7928460   2.7928460   0.0000000   2.7928460   2.7928460   0.0000000   2.7928460
 AtZNuc=   1.0000000   1.0000000   8.0000000   1.0000000   1.0000000   8.0000000   1.0000000   1.0000000   8.0000000   1.0000000

  Atom       121         122         123         124         125         126         127         128         129         130
 IAtWgt=           1          16           1           1          16           1           1          16           1           1
 AtmWgt=   1.0078250  15.9949146   1.0078250   1.0078250  15.9949146   1.0078250   1.0078250  15.9949146   1.0078250   1.0078250
 NucSpn=           1           0           1           1           0           1           1           0           1           1
 AtZEff=   0.0000000   0.0000000   0.0000000   0.0000000   0.0000000   0.0000000   0.0000000   0.0000000   0.0000000   0.0000000
 NQMom=    0.0000000   0.0000000   0.0000000   0.0000000   0.0000000   0.0000000   0.0000000   0.0000000   0.0000000   0.0000000
 NMagM=    2.7928460   0.0000000   2.7928460   2.7928460   0.0000000   2.7928460   2.7928460   0.0000000   2.7928460   2.7928460
 AtZNuc=   1.0000000   8.0000000   1.0000000   1.0000000   8.0000000   1.0000000   1.0000000   8.0000000   1.0000000   1.0000000

  Atom       131         132         133         134         135         136         137         138         139         140
 IAtWgt=          16           1           1          16           1           1          16           1           1          16
 AtmWgt=  15.9949146   1.0078250   1.0078250  15.9949146   1.0078250   1.0078250  15.9949146   1.0078250   1.0078250  15.9949146
 NucSpn=           0           1           1           0           1           1           0           1           1           0
 AtZEff=   0.0000000   0.0000000   0.0000000   0.0000000   0.0000000   0.0000000   0.0000000   0.0000000   0.0000000   0.0000000
 NQMom=    0.0000000   0.0000000   0.0000000   0.0000000   0.0000000   0.0000000   0.0000000   0.0000000   0.0000000   0.0000000
 NMagM=    0.0000000   2.7928460   2.7928460   0.0000000   2.7928460   2.7928460   0.0000000   2.7928460   2.7928460   0.0000000
 AtZNuc=   8.0000000   1.0000000   1.0000000   8.0000000   1.0000000   1.0000000   8.0000000   1.0000000   1.0000000   8.0000000

  Atom       141         142         143         144         145         146         147         148         149         150
 IAtWgt=           1           1          16           1           1          16           1           1          16           1
 AtmWgt=   1.0078250   1.0078250  15.9949146   1.0078250   1.0078250  15.9949146   1.0078250   1.0078250  15.9949146   1.0078250
 NucSpn=           1           1           0           1           1           0           1           1           0           1
 AtZEff=   0.0000000   0.0000000   0.0000000   0.0000000   0.0000000   0.0000000   0.0000000   0.0000000   0.0000000   0.0000000
 NQMom=    0.0000000   0.0000000   0.0000000   0.0000000   0.0000000   0.0000000   0.0000000   0.0000000   0.0000000   0.0000000
 NMagM=    2.7928460   2.7928460   0.0000000   2.7928460   2.7928460   0.0000000   2.7928460   2.7928460   0.0000000   2.7928460
 AtZNuc=   1.0000000   1.0000000   8.0000000   1.0000000   1.0000000   8.0000000   1.0000000   1.0000000   8.0000000   1.0000000

  Atom       151         152         153         154         155         156         157         158         159         160
 IAtWgt=           1          16           1           1          16           1           1          16           1           1
 AtmWgt=   1.0078250  15.9949146   1.0078250   1.0078250  15.9949146   1.0078250   1.0078250  15.9949146   1.0078250   1.0078250
 NucSpn=           1           0           1           1           0           1           1           0           1           1
 AtZEff=   0.0000000   0.0000000   0.0000000   0.0000000   0.0000000   0.0000000   0.0000000   0.0000000   0.0000000   0.0000000
 NQMom=    0.0000000   0.0000000   0.0000000   0.0000000   0.0000000   0.0000000   0.0000000   0.0000000   0.0000000   0.0000000
 NMagM=    2.7928460   0.0000000   2.7928460   2.7928460   0.0000000   2.7928460   2.7928460   0.0000000   2.7928460   2.7928460
 AtZNuc=   1.0000000   8.0000000   1.0000000   1.0000000   8.0000000   1.0000000   1.0000000   8.0000000   1.0000000   1.0000000

  Atom       161         162         163         164         165         166         167         168         169         170
 IAtWgt=          16           1           1          16           1           1          16           1           1          16
 AtmWgt=  15.9949146   1.0078250   1.0078250  15.9949146   1.0078250   1.0078250  15.9949146   1.0078250   1.0078250  15.9949146
 NucSpn=           0           1           1           0           1           1           0           1           1           0
 AtZEff=   0.0000000   0.0000000   0.0000000   0.0000000   0.0000000   0.0000000   0.0000000   0.0000000   0.0000000   0.0000000
 NQMom=    0.0000000   0.0000000   0.0000000   0.0000000   0.0000000   0.0000000   0.0000000   0.0000000   0.0000000   0.0000000
 NMagM=    0.0000000   2.7928460   2.7928460   0.0000000   2.7928460   2.7928460   0.0000000   2.7928460   2.7928460   0.0000000
 AtZNuc=   8.0000000   1.0000000   1.0000000   8.0000000   1.0000000   1.0000000   8.0000000   1.0000000   1.0000000   8.0000000

  Atom       171         172         173         174         175         176         177         178         179         180
 IAtWgt=           1           1          16           1           1          16           1           1          16           1
 AtmWgt=   1.0078250   1.0078250  15.9949146   1.0078250   1.0078250  15.9949146   1.0078250   1.0078250  15.9949146   1.0078250
 NucSpn=           1           1           0           1           1           0           1           1           0           1
 AtZEff=   0.0000000   0.0000000   0.0000000   0.0000000   0.0000000   0.0000000   0.0000000   0.0000000   0.0000000   0.0000000
 NQMom=    0.0000000   0.0000000   0.0000000   0.0000000   0.0000000   0.0000000   0.0000000   0.0000000   0.0000000   0.0000000
 NMagM=    2.7928460   2.7928460   0.0000000   2.7928460   2.7928460   0.0000000   2.7928460   2.7928460   0.0000000   2.7928460
 AtZNuc=   1.0000000   1.0000000   8.0000000   1.0000000   1.0000000   8.0000000   1.0000000   1.0000000   8.0000000   1.0000000

  Atom       181         182         183         184         185         186         187         188         189         190
 IAtWgt=           1          16           1           1          16           1           1          16           1           1
 AtmWgt=   1.0078250  15.9949146   1.0078250   1.0078250  15.9949146   1.0078250   1.0078250  15.9949146   1.0078250   1.0078250
 NucSpn=           1           0           1           1           0           1           1           0           1           1
 AtZEff=   0.0000000   0.0000000   0.0000000   0.0000000   0.0000000   0.0000000   0.0000000   0.0000000   0.0000000   0.0000000
 NQMom=    0.0000000   0.0000000   0.0000000   0.0000000   0.0000000   0.0000000   0.0000000   0.0000000   0.0000000   0.0000000
 NMagM=    2.7928460   0.0000000   2.7928460   2.7928460   0.0000000   2.7928460   2.7928460   0.0000000   2.7928460   2.7928460
 AtZNuc=   1.0000000   8.0000000   1.0000000   1.0000000   8.0000000   1.0000000   1.0000000   8.0000000   1.0000000   1.0000000

  Atom       191         192         193         194         195         196         197         198         199         200
 IAtWgt=          16           1           1          16           1           1          16           1           1          16
 AtmWgt=  15.9949146   1.0078250   1.0078250  15.9949146   1.0078250   1.0078250  15.9949146   1.0078250   1.0078250  15.9949146
 NucSpn=           0           1           1           0           1           1           0           1           1           0
 AtZEff=   0.0000000   0.0000000   0.0000000   0.0000000   0.0000000   0.0000000   0.0000000   0.0000000   0.0000000   0.0000000
 NQMom=    0.0000000   0.0000000   0.0000000   0.0000000   0.0000000   0.0000000   0.0000000   0.0000000   0.0000000   0.0000000
 NMagM=    0.0000000   2.7928460   2.7928460   0.0000000   2.7928460   2.7928460   0.0000000   2.7928460   2.7928460   0.0000000
 AtZNuc=   8.0000000   1.0000000   1.0000000   8.0000000   1.0000000   1.0000000   8.0000000   1.0000000   1.0000000   8.0000000

  Atom       201         202         203         204         205         206         207         208         209         210
 IAtWgt=           1           1          16           1           1          16           1           1          16           1
 AtmWgt=   1.0078250   1.0078250  15.9949146   1.0078250   1.0078250  15.9949146   1.0078250   1.0078250  15.9949146   1.0078250
 NucSpn=           1           1           0           1           1           0           1           1           0           1
 AtZEff=   0.0000000   0.0000000   0.0000000   0.0000000   0.0000000   0.0000000   0.0000000   0.0000000   0.0000000   0.0000000
 NQMom=    0.0000000   0.0000000   0.0000000   0.0000000   0.0000000   0.0000000   0.0000000   0.0000000   0.0000000   0.0000000
 NMagM=    2.7928460   2.7928460   0.0000000   2.7928460   2.7928460   0.0000000   2.7928460   2.7928460   0.0000000   2.7928460
 AtZNuc=   1.0000000   1.0000000   8.0000000   1.0000000   1.0000000   8.0000000   1.0000000   1.0000000   8.0000000   1.0000000

  Atom       211         212         213         214         215         216         217         218         219         220
 IAtWgt=           1          16           1           1          16           1           1          16           1           1
 AtmWgt=   1.0078250  15.9949146   1.0078250   1.0078250  15.9949146   1.0078250   1.0078250  15.9949146   1.0078250   1.0078250
 NucSpn=           1           0           1           1           0           1           1           0           1           1
 AtZEff=   0.0000000   0.0000000   0.0000000   0.0000000   0.0000000   0.0000000   0.0000000   0.0000000   0.0000000   0.0000000
 NQMom=    0.0000000   0.0000000   0.0000000   0.0000000   0.0000000   0.0000000   0.0000000   0.0000000   0.0000000   0.0000000
 NMagM=    2.7928460   0.0000000   2.7928460   2.7928460   0.0000000   2.7928460   2.7928460   0.0000000   2.7928460   2.7928460
 AtZNuc=   1.0000000   8.0000000   1.0000000   1.0000000   8.0000000   1.0000000   1.0000000   8.0000000   1.0000000   1.0000000

  Atom       221         222         223         224         225         226         227         228         229         230
 IAtWgt=          16           1           1          16           1           1          16           1           1          16
 AtmWgt=  15.9949146   1.0078250   1.0078250  15.9949146   1.0078250   1.0078250  15.9949146   1.0078250   1.0078250  15.9949146
 NucSpn=           0           1           1           0           1           1           0           1           1           0
 AtZEff=   0.0000000   0.0000000   0.0000000   0.0000000   0.0000000   0.0000000   0.0000000   0.0000000   0.0000000   0.0000000
 NQMom=    0.0000000   0.0000000   0.0000000   0.0000000   0.0000000   0.0000000   0.0000000   0.0000000   0.0000000   0.0000000
 NMagM=    0.0000000   2.7928460   2.7928460   0.0000000   2.7928460   2.7928460   0.0000000   2.7928460   2.7928460   0.0000000
 AtZNuc=   8.0000000   1.0000000   1.0000000   8.0000000   1.0000000   1.0000000   8.0000000   1.0000000   1.0000000   8.0000000

  Atom       231         232         233         234         235         236         237         238         239         240
 IAtWgt=           1           1          16           1           1          16           1           1          16           1
 AtmWgt=   1.0078250   1.0078250  15.9949146   1.0078250   1.0078250  15.9949146   1.0078250   1.0078250  15.9949146   1.0078250
 NucSpn=           1           1           0           1           1           0           1           1           0           1
 AtZEff=   0.0000000   0.0000000   0.0000000   0.0000000   0.0000000   0.0000000   0.0000000   0.0000000   0.0000000   0.0000000
 NQMom=    0.0000000   0.0000000   0.0000000   0.0000000   0.0000000   0.0000000   0.0000000   0.0000000   0.0000000   0.0000000
 NMagM=    2.7928460   2.7928460   0.0000000   2.7928460   2.7928460   0.0000000   2.7928460   2.7928460   0.0000000   2.7928460
 AtZNuc=   1.0000000   1.0000000   8.0000000   1.0000000   1.0000000   8.0000000   1.0000000   1.0000000   8.0000000   1.0000000

  Atom       241         242         243         244         245         246         247         248         249         250
 IAtWgt=           1          16           1           1          16           1           1          16           1           1
 AtmWgt=   1.0078250  15.9949146   1.0078250   1.0078250  15.9949146   1.0078250   1.0078250  15.9949146   1.0078250   1.0078250
 NucSpn=           1           0           1           1           0           1           1           0           1           1
 AtZEff=   0.0000000   0.0000000   0.0000000   0.0000000   0.0000000   0.0000000   0.0000000   0.0000000   0.0000000   0.0000000
 NQMom=    0.0000000   0.0000000   0.0000000   0.0000000   0.0000000   0.0000000   0.0000000   0.0000000   0.0000000   0.0000000
 NMagM=    2.7928460   0.0000000   2.7928460   2.7928460   0.0000000   2.7928460   2.7928460   0.0000000   2.7928460   2.7928460
 AtZNuc=   1.0000000   8.0000000   1.0000000   1.0000000   8.0000000   1.0000000   1.0000000   8.0000000   1.0000000   1.0000000

  Atom       251         252         253         254         255         256         257         258         259         260
 IAtWgt=          16           1           1          16           1           1          16           1           1          16
 AtmWgt=  15.9949146   1.0078250   1.0078250  15.9949146   1.0078250   1.0078250  15.9949146   1.0078250   1.0078250  15.9949146
 NucSpn=           0           1           1           0           1           1           0           1           1           0
 AtZEff=   0.0000000   0.0000000   0.0000000   0.0000000   0.0000000   0.0000000   0.0000000   0.0000000   0.0000000   0.0000000
 NQMom=    0.0000000   0.0000000   0.0000000   0.0000000   0.0000000   0.0000000   0.0000000   0.0000000   0.0000000   0.0000000
 NMagM=    0.0000000   2.7928460   2.7928460   0.0000000   2.7928460   2.7928460   0.0000000   2.7928460   2.7928460   0.0000000
 AtZNuc=   8.0000000   1.0000000   1.0000000   8.0000000   1.0000000   1.0000000   8.0000000   1.0000000   1.0000000   8.0000000

  Atom       261         262         263         264         265         266         267         268         269         270
 IAtWgt=           1           1          16           1           1          16           1           1          16           1
 AtmWgt=   1.0078250   1.0078250  15.9949146   1.0078250   1.0078250  15.9949146   1.0078250   1.0078250  15.9949146   1.0078250
 NucSpn=           1           1           0           1           1           0           1           1           0           1
 AtZEff=   0.0000000   0.0000000   0.0000000   0.0000000   0.0000000   0.0000000   0.0000000   0.0000000   0.0000000   0.0000000
 NQMom=    0.0000000   0.0000000   0.0000000   0.0000000   0.0000000   0.0000000   0.0000000   0.0000000   0.0000000   0.0000000
 NMagM=    2.7928460   2.7928460   0.0000000   2.7928460   2.7928460   0.0000000   2.7928460   2.7928460   0.0000000   2.7928460
 AtZNuc=   1.0000000   1.0000000   8.0000000   1.0000000   1.0000000   8.0000000   1.0000000   1.0000000   8.0000000   1.0000000

  Atom       271         272         273         274         275         276         277         278         279         280
 IAtWgt=           1          16           1           1          16           1           1          16           1           1
 AtmWgt=   1.0078250  15.9949146   1.0078250   1.0078250  15.9949146   1.0078250   1.0078250  15.9949146   1.0078250   1.0078250
 NucSpn=           1           0           1           1           0           1           1           0           1           1
 AtZEff=   0.0000000   0.0000000   0.0000000   0.0000000   0.0000000   0.0000000   0.0000000   0.0000000   0.0000000   0.0000000
 NQMom=    0.0000000   0.0000000   0.0000000   0.0000000   0.0000000   0.0000000   0.0000000   0.0000000   0.0000000   0.0000000
 NMagM=    2.7928460   0.0000000   2.7928460   2.7928460   0.0000000   2.7928460   2.7928460   0.0000000   2.7928460   2.7928460
 AtZNuc=   1.0000000   8.0000000   1.0000000   1.0000000   8.0000000   1.0000000   1.0000000   8.0000000   1.0000000   1.0000000

  Atom       281         282         283         284         285         286         287         288         289         290
 IAtWgt=          16           1           1          16           1           1          16           1           1          16
 AtmWgt=  15.9949146   1.0078250   1.0078250  15.9949146   1.0078250   1.0078250  15.9949146   1.0078250   1.0078250  15.9949146
 NucSpn=           0           1           1           0           1           1           0           1           1           0
 AtZEff=   0.0000000   0.0000000   0.0000000   0.0000000   0.0000000   0.0000000   0.0000000   0.0000000   0.0000000   0.0000000
 NQMom=    0.0000000   0.0000000   0.0000000   0.0000000   0.0000000   0.0000000   0.0000000   0.0000000   0.0000000   0.0000000
 NMagM=    0.0000000   2.7928460   2.7928460   0.0000000   2.7928460   2.7928460   0.0000000   2.7928460   2.7928460   0.0000000
 AtZNuc=   8.0000000   1.0000000   1.0000000   8.0000000   1.0000000   1.0000000   8.0000000   1.0000000   1.0000000   8.0000000

  Atom       291         292         293         294         295         296         297         298         299         300
 IAtWgt=           1           1          16           1           1          16           1           1          16           1
 AtmWgt=   1.0078250   1.0078250  15.9949146   1.0078250   1.0078250  15.9949146   1.0078250   1.0078250  15.9949146   1.0078250
 NucSpn=           1           1           0           1           1           0           1           1           0           1
 AtZEff=   0.0000000   0.0000000   0.0000000   0.0000000   0.0000000   0.0000000   0.0000000   0.0000000   0.0000000   0.0000000
 NQMom=    0.0000000   0.0000000   0.0000000   0.0000000   0.0000000   0.0000000   0.0000000   0.0000000   0.0000000   0.0000000
 NMagM=    2.7928460   2.7928460   0.0000000   2.7928460   2.7928460   0.0000000   2.7928460   2.7928460   0.0000000   2.7928460
 AtZNuc=   1.0000000   1.0000000   8.0000000   1.0000000   1.0000000   8.0000000   1.0000000   1.0000000   8.0000000   1.0000000

  Atom       301         302         303         304         305         306         307         308         309         310
 IAtWgt=           1          16           1           1          16           1           1          16           1           1
 AtmWgt=   1.0078250  15.9949146   1.0078250   1.0078250  15.9949146   1.0078250   1.0078250  15.9949146   1.0078250   1.0078250
 NucSpn=           1           0           1           1           0           1           1           0           1           1
 AtZEff=   0.0000000   0.0000000   0.0000000   0.0000000   0.0000000   0.0000000   0.0000000   0.0000000   0.0000000   0.0000000
 NQMom=    0.0000000   0.0000000   0.0000000   0.0000000   0.0000000   0.0000000   0.0000000   0.0000000   0.0000000   0.0000000
 NMagM=    2.7928460   0.0000000   2.7928460   2.7928460   0.0000000   2.7928460   2.7928460   0.0000000   2.7928460   2.7928460
 AtZNuc=   1.0000000   8.0000000   1.0000000   1.0000000   8.0000000   1.0000000   1.0000000   8.0000000   1.0000000   1.0000000

  Atom       311         312         313         314         315         316         317         318         319         320
 IAtWgt=          16           1           1          16           1           1          16           1           1          16
 AtmWgt=  15.9949146   1.0078250   1.0078250  15.9949146   1.0078250   1.0078250  15.9949146   1.0078250   1.0078250  15.9949146
 NucSpn=           0           1           1           0           1           1           0           1           1           0
 AtZEff=   0.0000000   0.0000000   0.0000000   0.0000000   0.0000000   0.0000000   0.0000000   0.0000000   0.0000000   0.0000000
 NQMom=    0.0000000   0.0000000   0.0000000   0.0000000   0.0000000   0.0000000   0.0000000   0.0000000   0.0000000   0.0000000
 NMagM=    0.0000000   2.7928460   2.7928460   0.0000000   2.7928460   2.7928460   0.0000000   2.7928460   2.7928460   0.0000000
 AtZNuc=   8.0000000   1.0000000   1.0000000   8.0000000   1.0000000   1.0000000   8.0000000   1.0000000   1.0000000   8.0000000

  Atom       321         322         323         324         325         326         327         328         329         330
 IAtWgt=           1           1          16           1           1          16           1           1          16           1
 AtmWgt=   1.0078250   1.0078250  15.9949146   1.0078250   1.0078250  15.9949146   1.0078250   1.0078250  15.9949146   1.0078250
 NucSpn=           1           1           0           1           1           0           1           1           0           1
 AtZEff=   0.0000000   0.0000000   0.0000000   0.0000000   0.0000000   0.0000000   0.0000000   0.0000000   0.0000000   0.0000000
 NQMom=    0.0000000   0.0000000   0.0000000   0.0000000   0.0000000   0.0000000   0.0000000   0.0000000   0.0000000   0.0000000
 NMagM=    2.7928460   2.7928460   0.0000000   2.7928460   2.7928460   0.0000000   2.7928460   2.7928460   0.0000000   2.7928460
 AtZNuc=   1.0000000   1.0000000   8.0000000   1.0000000   1.0000000   8.0000000   1.0000000   1.0000000   8.0000000   1.0000000

  Atom       331         332         333         334         335         336         337         338         339         340
 IAtWgt=           1          16           1           1          16           1           1          16           1           1
 AtmWgt=   1.0078250  15.9949146   1.0078250   1.0078250  15.9949146   1.0078250   1.0078250  15.9949146   1.0078250   1.0078250
 NucSpn=           1           0           1           1           0           1           1           0           1           1
 AtZEff=   0.0000000   0.0000000   0.0000000   0.0000000   0.0000000   0.0000000   0.0000000   0.0000000   0.0000000   0.0000000
 NQMom=    0.0000000   0.0000000   0.0000000   0.0000000   0.0000000   0.0000000   0.0000000   0.0000000   0.0000000   0.0000000
 NMagM=    2.7928460   0.0000000   2.7928460   2.7928460   0.0000000   2.7928460   2.7928460   0.0000000   2.7928460   2.7928460
 AtZNuc=   1.0000000   8.0000000   1.0000000   1.0000000   8.0000000   1.0000000   1.0000000   8.0000000   1.0000000   1.0000000

  Atom       341         342         343         344         345         346         347         348         349         350
 IAtWgt=          16           1           1          16           1           1          16           1           1          16
 AtmWgt=  15.9949146   1.0078250   1.0078250  15.9949146   1.0078250   1.0078250  15.9949146   1.0078250   1.0078250  15.9949146
 NucSpn=           0           1           1           0           1           1           0           1           1           0
 AtZEff=   0.0000000   0.0000000   0.0000000   0.0000000   0.0000000   0.0000000   0.0000000   0.0000000   0.0000000   0.0000000
 NQMom=    0.0000000   0.0000000   0.0000000   0.0000000   0.0000000   0.0000000   0.0000000   0.0000000   0.0000000   0.0000000
 NMagM=    0.0000000   2.7928460   2.7928460   0.0000000   2.7928460   2.7928460   0.0000000   2.7928460   2.7928460   0.0000000
 AtZNuc=   8.0000000   1.0000000   1.0000000   8.0000000   1.0000000   1.0000000   8.0000000   1.0000000   1.0000000   8.0000000

  Atom       351         352         353         354         355         356         357         358         359         360
 IAtWgt=           1           1          16           1           1          16           1           1          16           1
 AtmWgt=   1.0078250   1.0078250  15.9949146   1.0078250   1.0078250  15.9949146   1.0078250   1.0078250  15.9949146   1.0078250
 NucSpn=           1           1           0           1           1           0           1           1           0           1
 AtZEff=   0.0000000   0.0000000   0.0000000   0.0000000   0.0000000   0.0000000   0.0000000   0.0000000   0.0000000   0.0000000
 NQMom=    0.0000000   0.0000000   0.0000000   0.0000000   0.0000000   0.0000000   0.0000000   0.0000000   0.0000000   0.0000000
 NMagM=    2.7928460   2.7928460   0.0000000   2.7928460   2.7928460   0.0000000   2.7928460   2.7928460   0.0000000   2.7928460
 AtZNuc=   1.0000000   1.0000000   8.0000000   1.0000000   1.0000000   8.0000000   1.0000000   1.0000000   8.0000000   1.0000000

  Atom       361         362         363         364         365         366         367         368         369         370
 IAtWgt=           1          16           1           1          16           1           1          16           1           1
 AtmWgt=   1.0078250  15.9949146   1.0078250   1.0078250  15.9949146   1.0078250   1.0078250  15.9949146   1.0078250   1.0078250
 NucSpn=           1           0           1           1           0           1           1           0           1           1
 AtZEff=   0.0000000   0.0000000   0.0000000   0.0000000   0.0000000   0.0000000   0.0000000   0.0000000   0.0000000   0.0000000
 NQMom=    0.0000000   0.0000000   0.0000000   0.0000000   0.0000000   0.0000000   0.0000000   0.0000000   0.0000000   0.0000000
 NMagM=    2.7928460   0.0000000   2.7928460   2.7928460   0.0000000   2.7928460   2.7928460   0.0000000   2.7928460   2.7928460
 AtZNuc=   1.0000000   8.0000000   1.0000000   1.0000000   8.0000000   1.0000000   1.0000000   8.0000000   1.0000000   1.0000000

  Atom       371         372         373         374         375         376         377         378         379         380
 IAtWgt=          16           1           1          16           1           1          16           1           1          16
 AtmWgt=  15.9949146   1.0078250   1.0078250  15.9949146   1.0078250   1.0078250  15.9949146   1.0078250   1.0078250  15.9949146
 NucSpn=           0           1           1           0           1           1           0           1           1           0
 AtZEff=   0.0000000   0.0000000   0.0000000   0.0000000   0.0000000   0.0000000   0.0000000   0.0000000   0.0000000   0.0000000
 NQMom=    0.0000000   0.0000000   0.0000000   0.0000000   0.0000000   0.0000000   0.0000000   0.0000000   0.0000000   0.0000000
 NMagM=    0.0000000   2.7928460   2.7928460   0.0000000   2.7928460   2.7928460   0.0000000   2.7928460   2.7928460   0.0000000
 AtZNuc=   8.0000000   1.0000000   1.0000000   8.0000000   1.0000000   1.0000000   8.0000000   1.0000000   1.0000000   8.0000000

  Atom       381         382         383         384         385
 IAtWgt=           1           1          16           1           1
 AtmWgt=   1.0078250   1.0078250  15.9949146   1.0078250   1.0078250
 NucSpn=           1           1           0           1           1
 AtZEff=   0.0000000   0.0000000   0.0000000   0.0000000   0.0000000
 NQMom=    0.0000000   0.0000000   0.0000000   0.0000000   0.0000000
 NMagM=    2.7928460   2.7928460   0.0000000   2.7928460   2.7928460
 AtZNuc=   1.0000000   1.0000000   8.0000000   1.0000000   1.0000000
 Leave Link  101 at Thu May 17 19:27:03 2018, MaxMem= 14763950080 cpu:        33.3
 (Enter /cm/shared/gaussian/g09.e01/intel64-sandybridge/g09/l103.exe)

 GradGradGradGradGradGradGradGradGradGradGradGradGradGradGradGradGradGrad
 Berny optimization.
 Initialization pass.
 Trust Radius=3.00D-01 FncErr=1.00D-07 GrdErr=1.00D-07
 Number of steps in this run=      2 maximum allowed number of steps=      2.
 GradGradGradGradGradGradGradGradGradGradGradGradGradGradGradGradGradGrad

 Leave Link  103 at Thu May 17 19:27:03 2018, MaxMem= 14763950080 cpu:         3.7
 (Enter /cm/shared/gaussian/g09.e01/intel64-sandybridge/g09/l202.exe)
 Symmetry turned off by external request.
 Stoichiometry    BrH256O128(1-)
 Framework group  C1[X(BrH256O128)]
 Deg. of freedom  1149
 Full point group                 C1      NOp   1
                          Input orientation:                          
 ---------------------------------------------------------------------
 Center     Atomic      Atomic             Coordinates (Angstroms)
 Number     Number       Type             X           Y           Z
 ---------------------------------------------------------------------
      1         35           0       20.000000   20.000000   20.000000
      2          8           0       23.090000   19.770000   19.610000
      3          1           0       22.140000   19.820000   19.650000
      4          1           0       23.310000   20.010000   18.710000
      5          8           0       20.800000   17.680000   18.200000
      6          1           0       21.600000   18.200000   18.090000
      7          1           0       20.320000   18.110000   18.900000
      8          8           0       18.090000   20.470000   22.830000
      9          1           0       18.690000   20.520000   22.090000
     10          1           0       17.240000   20.270000   22.440000
     11          8           0       20.640000   17.000000   21.450000
     12          1           0       19.880000   17.080000   22.020000
     13          1           0       20.830000   17.900000   21.170000
     14          8           0       20.100000   23.070000   18.290000
     15          1           0       19.980000   22.170000   18.580000
     16          1           0       19.970000   23.600000   19.080000
     17          8           0       16.490000   20.540000   20.230000
     18          1           0       17.300000   20.870000   19.850000
     19          1           0       15.960000   21.320000   20.400000
     20          8           0       22.340000   22.470000   21.540000
     21          1           0       23.130000   22.530000   21.010000
     22          1           0       21.960000   21.620000   21.320000
     23          8           0       19.580000   20.810000   16.150000
     24          1           0       19.960000   20.550000   16.990000
     25          1           0       19.950000   21.670000   15.970000
     26          8           0       18.360000   18.110000   17.090000
     27          1           0       18.370000   19.070000   17.070000
     28          1           0       19.080000   17.880000   17.670000
     29          8           0       21.970000   19.810000   24.570000
     30          1           0       21.160000   19.640000   24.080000
     31          1           0       21.880000   19.270000   25.360000
     32          8           0       24.260000   17.210000   20.800000
     33          1           0       23.820000   16.360000   20.840000
     34          1           0       23.690000   17.750000   20.250000
     35          8           0       15.010000   18.500000   19.330000
     36          1           0       15.120000   18.590000   18.390000
     37          1           0       15.630000   19.130000   19.710000
     38          8           0       20.570000   14.870000   18.370000
     39          1           0       19.660000   14.920000   18.660000
     40          1           0       20.910000   15.760000   18.510000
     41          8           0       24.270000   19.200000   22.870000
     42          1           0       23.370000   19.440000   23.120000
     43          1           0       24.150000   18.530000   22.190000
     44          8           0       17.050000   24.550000   21.000000
     45          1           0       16.290000   24.610000   20.420000
     46          1           0       17.270000   23.620000   21.020000
     47          8           0       17.170000   22.200000   16.910000
     48          1           0       16.660000   23.010000   16.850000
     49          1           0       18.020000   22.430000   16.540000
     50          8           0       18.790000   19.870000   25.440000
     51          1           0       18.010000   20.280000   25.820000
     52          1           0       18.580000   19.780000   24.510000
     53          8           0       20.610000   24.420000   23.000000
     54          1           0       20.200000   23.870000   23.670000
     55          1           0       21.270000   23.860000   22.600000
     56          8           0       20.830000   23.560000   15.790000
     57          1           0       21.350000   24.340000   15.590000
     58          1           0       20.790000   23.540000   16.740000
     59          8           0       17.320000   15.570000   18.330000
     60          1           0       16.520000   15.290000   17.900000
     61          1           0       17.620000   16.320000   17.820000
     62          8           0       16.560000   16.280000   21.850000
     63          1           0       17.020000   16.240000   21.020000
     64          1           0       17.090000   16.850000   22.400000
     65          8           0       15.010000   18.900000   22.330000
     66          1           0       15.120000   17.950000   22.420000
     67          1           0       15.350000   19.090000   21.450000
     68          8           0       21.030000   25.280000   20.320000
     69          1           0       20.940000   25.170000   21.270000
     70          1           0       21.720000   24.670000   20.070000
     71          8           0       21.030000   17.590000   15.090000
     72          1           0       21.740000   17.200000   14.590000
     73          1           0       21.130000   17.220000   15.970000
     74          8           0       22.650000   19.780000   15.570000
     75          1           0       21.880000   19.250000   15.340000
     76          1           0       23.270000   19.150000   15.940000
     77          8           0       22.770000   22.570000   24.490000
     78          1           0       22.230000   21.820000   24.240000
     79          1           0       22.860000   23.080000   23.690000
     80          8           0       18.980000   16.660000   23.860000
     81          1           0       18.870000   15.710000   23.950000
     82          1           0       18.150000   17.030000   24.170000
     83          8           0       21.680000   16.350000   24.120000
     84          1           0       20.770000   16.590000   23.910000
     85          1           0       21.910000   15.690000   23.470000
     86          8           0       14.810000   20.950000   17.360000
     87          1           0       15.700000   21.310000   17.280000
     88          1           0       14.870000   20.090000   16.960000
     89          8           0       23.680000   23.760000   19.640000
     90          1           0       24.320000   23.120000   19.330000
     91          1           0       24.170000   24.580000   19.720000
     92          8           0       25.570000   22.000000   19.100000
     93          1           0       26.300000   21.680000   19.630000
     94          1           0       25.260000   21.230000   18.630000
     95          8           0       18.970000   19.980000   13.730000
     96          1           0       19.650000   20.310000   13.140000
     97          1           0       19.070000   20.520000   14.520000
     98          8           0       25.180000   19.330000   17.710000
     99          1           0       25.880000   19.510000   17.080000
    100          1           0       24.890000   18.440000   17.480000
    101          8           0       18.270000   17.100000   14.320000
    102          1           0       19.050000   17.510000   13.940000
    103          1           0       18.280000   17.370000   15.240000
    104          8           0       14.950000   23.330000   19.820000
    105          1           0       14.580000   23.310000   18.940000
    106          1           0       14.250000   23.710000   20.360000
    107          8           0       19.450000   23.330000   25.100000
    108          1           0       18.910000   24.050000   25.420000
    109          1           0       19.140000   22.570000   25.590000
    110          8           0       18.430000   26.630000   19.880000
    111          1           0       19.260000   26.180000   20.030000
    112          1           0       17.760000   25.980000   20.100000
    113          8           0       18.280000   25.680000   23.340000
    114          1           0       19.120000   25.220000   23.330000
    115          1           0       17.780000   25.300000   22.610000
    116          8           0       16.080000   19.400000   15.020000
    117          1           0       16.200000   20.230000   14.550000
    118          1           0       16.240000   18.720000   14.360000
    119          8           0       14.370000   17.870000   16.360000
    120          1           0       15.100000   18.420000   16.090000
    121          1           0       14.280000   17.220000   15.660000
    122          8           0       23.670000   22.280000   14.450000
    123          1           0       24.390000   22.300000   13.810000
    124          1           0       23.660000   21.380000   14.780000
    125          8           0       23.210000   13.560000   19.050000
    126          1           0       23.240000   13.240000   18.150000
    127          1           0       22.340000   13.960000   19.140000
    128          8           0       24.200000   15.800000   17.140000
    129          1           0       23.910000   14.990000   17.560000
    130          1           0       24.320000   15.570000   16.220000
    131          8           0       27.000000   20.460000   21.540000
    132          1           0       26.390000   19.870000   21.970000
    133          1           0       26.640000   21.330000   21.690000
    134          8           0       23.930000   16.220000   25.330000
    135          1           0       23.110000   16.650000   25.090000
    136          1           0       24.430000   16.170000   24.520000
    137          8           0       14.220000   14.940000   21.380000
    138          1           0       13.870000   14.960000   22.270000
    139          1           0       15.000000   15.500000   21.410000
    140          8           0       16.540000   16.980000   25.270000
    141          1           0       16.590000   16.690000   26.180000
    142          1           0       15.930000   17.720000   25.290000
    143          8           0       16.170000   24.550000   16.250000
    144          1           0       16.800000   25.270000   16.280000
    145          1           0       16.240000   24.210000   15.360000
    146          8           0       24.560000   21.630000   26.320000
    147          1           0       25.360000   21.800000   25.810000
    148          1           0       23.860000   21.640000   25.670000
    149          8           0       16.740000   22.120000   25.890000
    150          1           0       16.770000   23.060000   25.730000
    151          1           0       15.840000   21.870000   25.700000
    152          8           0       26.590000   16.570000   18.150000
    153          1           0       27.140000   15.990000   17.630000
    154          1           0       25.700000   16.220000   18.030000
    155          8           0       12.370000   17.460000   20.210000
    156          1           0       13.170000   17.980000   20.100000
    157          1           0       12.010000   17.400000   19.320000
    158          8           0       21.800000   23.530000   27.050000
    159          1           0       21.720000   22.950000   26.290000
    160          1           0       20.890000   23.740000   27.280000
    161          8           0       21.400000   21.320000   12.600000
    162          1           0       21.570000   20.460000   12.990000
    163          1           0       21.970000   21.910000   13.080000
    164          8           0       12.870000   19.780000   23.800000
    165          1           0       13.550000   19.510000   23.190000
    166          1           0       12.720000   20.700000   23.610000
    167          8           0       25.330000   23.780000   16.280000
    168          1           0       24.670000   23.430000   15.690000
    169          1           0       26.020000   24.100000   15.700000
    170          8           0       27.770000   18.630000   19.340000
    171          1           0       27.190000   19.110000   19.930000
    172          1           0       27.210000   17.950000   18.960000
    173          8           0       17.720000   26.690000   16.460000
    174          1           0       17.110000   27.300000   16.850000
    175          1           0       18.370000   26.520000   17.150000
    176          8           0       26.770000   18.200000   24.300000
    177          1           0       26.070000   18.160000   23.660000
    178          1           0       26.980000   19.140000   24.360000
    179          8           0       21.990000   18.590000   26.980000
    180          1           0       22.130000   17.710000   27.320000
    181          1           0       22.720000   19.100000   27.330000
    182          8           0       20.420000   25.700000   13.970000
    183          1           0       21.360000   25.560000   14.030000
    184          1           0       20.040000   25.010000   14.520000
    185          8           0       19.410000   18.830000   27.960000
    186          1           0       18.840000   19.210000   27.300000
    187          1           0       20.300000   18.940000   27.620000
    188          8           0       16.760000   13.890000   23.540000
    189          1           0       17.620000   14.120000   23.900000
    190          1           0       16.150000   14.490000   23.980000
    191          8           0       17.470000   12.470000   19.140000
    192          1           0       17.070000   11.750000   18.650000
    193          1           0       17.860000   13.020000   18.460000
    194          8           0       20.410000   11.750000   19.390000
    195          1           0       19.450000   11.650000   19.370000
    196          1           0       20.570000   12.600000   18.980000
    197          8           0       26.480000   23.050000   22.500000
    198          1           0       26.940000   23.350000   21.720000
    199          1           0       25.900000   23.780000   22.730000
    200          8           0       21.240000   18.210000   12.260000
    201          1           0       20.760000   17.640000   12.860000
    202          1           0       21.190000   17.750000   11.420000
    203          8           0       22.910000   24.860000   14.150000
    204          1           0       22.950000   23.900000   14.210000
    205          1           0       23.780000   25.120000   13.870000
    206          8           0       25.510000   25.510000   18.630000
    207          1           0       25.590000   26.280000   18.070000
[...]
   Z335      48.47148   0.00983   0.00000   0.00499   0.00451  48.47599
   X336      44.61643   0.00163   0.00000   0.00222   0.00326  44.61969
   Y336      26.19160   0.01655   0.00000   0.01025   0.01058  26.20219
   Z336      47.29985  -0.01042   0.00000  -0.00354  -0.00398  47.29586
   X337      46.43057   0.00496   0.00000   0.00134   0.00249  46.43306
   Y337      25.15225   0.00593   0.00000   0.00653   0.00697  25.15923
   Z337      49.24626   0.00013   0.00000  -0.00081  -0.00128  49.24498
   X338      35.90480   0.00684   0.00000   0.00532   0.00600  35.91080
   Y338      29.47973   0.00373   0.00000   0.00336   0.00364  29.48337
   Z338      22.63892  -0.01094   0.00000  -0.00673  -0.00705  22.63187
   X339      35.92369   0.00156   0.00000   0.00299   0.00379  35.92748
   Y339      28.30810  -0.00143   0.00000   0.00395   0.00419  28.31229
   Z339      24.01842   0.01003   0.00000   0.00875   0.00839  24.02681
   X340      34.65758  -0.00427   0.00000  -0.00319  -0.00262  34.65496
   Y340      30.70805   0.00392   0.00000   0.00299   0.00314  30.71119
   Z340      23.13025   0.00022   0.00000  -0.00226  -0.00254  23.12771
   X341      37.60555  -0.00541   0.00000  -0.01496  -0.01401  37.59154
   Y341      27.24985  -0.02021   0.00000  -0.00836  -0.00884  27.24101
   Z341      52.25093  -0.02302   0.00000  -0.01988  -0.02027  52.23065
   X342      36.98194  -0.01053   0.00000  -0.01004  -0.00918  36.97276
   Y342      28.28920   0.01875   0.00000   0.01365   0.01308  28.30228
   Z342      53.57374   0.01584   0.00000   0.00615   0.00579  53.57953
   X343      38.87167   0.01028   0.00000   0.01222   0.01308  38.88475
   Y343      28.27030   0.00189   0.00000  -0.00303  -0.00336  28.26695
   Z343      51.43835   0.00439   0.00000   0.00999   0.00963  51.44798
   X344      21.03265  -0.01670   0.00000  -0.01456  -0.01422  21.01843
   Y344      33.61823  -0.00338   0.00000  -0.00003  -0.00176  33.61647
   Z344      42.63222   0.02129   0.00000   0.01437   0.01421  42.64643
   X345      22.18538   0.00253   0.00000  -0.00235  -0.00213  22.18326
   Y345      34.90324   0.00600   0.00000   0.00560   0.00397  34.90721
   Z345      43.18024   0.00239   0.00000   0.00415   0.00402  43.18426
   X346      21.52398   0.01147   0.00000   0.01109   0.01146  21.53544
   Y346      33.25918  -0.00254   0.00000  -0.00030  -0.00192  33.25726
   Z346      40.93147  -0.01636   0.00000  -0.00514  -0.00531  40.92615
   X347      40.76139  -0.00945   0.00000  -0.00313  -0.00341  40.75798
   Y347      40.57242  -0.01482   0.00000  -0.01342  -0.01371  40.55871
   Z347      55.87920   0.01161   0.00000   0.00784   0.00785  55.88705
   X348      42.29207   0.00844   0.00000   0.00173   0.00136  42.29343
   Y348      41.47949   0.00888   0.00000   0.00628   0.00614  41.48563
   Z348      55.61464  -0.00978   0.00000  -0.01122  -0.01118  55.60346
   X349      39.83543   0.00248   0.00000   0.00481   0.00451  39.83994
   Y349      40.74250   0.00768   0.00000   0.01112   0.01079  40.75328
   Z349      54.32963  -0.00452   0.00000  -0.00140  -0.00138  54.32825
   X350      26.09712   0.00991   0.00000   0.00779   0.00743  26.10455
   Y350      41.30941  -0.01049   0.00000  -0.00460  -0.00607  41.30334
   Z350      49.88877  -0.00316   0.00000  -0.00360  -0.00354  49.88523
   X351      24.41526  -0.00743   0.00000  -0.00268  -0.00303  24.41223
   Y351      41.30941   0.00106   0.00000   0.00098  -0.00067  41.30875
   Z351      50.55017   0.00191   0.00000  -0.00034  -0.00027  50.54990
   X352      26.43727  -0.00305   0.00000  -0.00502  -0.00554  26.43172
   Y352      43.02906   0.00992   0.00000   0.00909   0.00766  43.03673
   Z352      49.45413   0.00022   0.00000   0.00193   0.00205  49.45618
   X353      49.43524  -0.00910   0.00000  -0.00443  -0.00378  49.43146
   Y353      30.02775  -0.01211   0.00000  -0.02319  -0.02181  30.00594
   Z353      27.85456  -0.00302   0.00000  -0.00827  -0.00860  27.84597
   X354      50.73915   0.00781   0.00000   0.00635   0.00705  50.74620
   Y354      29.42304   0.00042   0.00000   0.00259   0.00406  29.42709
   Z354      28.95060   0.00704   0.00000   0.00783   0.00748  28.95809
   X355      50.30451   0.00829   0.00000   0.00837   0.00895  50.31346
   Y355      30.61356   0.00080   0.00000  -0.00273  -0.00123  30.61234
   Z355      26.38058  -0.00815   0.00000  -0.00582  -0.00613  26.37444
   X356      28.70494   0.03123   0.00000   0.02579   0.02615  28.73109
   Y356      32.99462   0.00578   0.00000   0.00633   0.00592  33.00054
   Z356      23.43260  -0.01272   0.00000  -0.01197  -0.01217  23.42044
   X357      27.81677  -0.00146   0.00000   0.00874   0.00924  27.82601
   Y357      31.50173  -0.01236   0.00000  -0.00808  -0.00856  31.49317
   Z357      22.97907  -0.00105   0.00000   0.00073   0.00048  22.97955
   X358      27.55221  -0.01467   0.00000  -0.00916  -0.00888  27.54333
   Y358      33.92058   0.00458   0.00000  -0.00032  -0.00087  33.91971
   Z358      24.47195   0.00391   0.00000  -0.00547  -0.00564  24.46631
   X359      25.05777  -0.00951   0.00000  -0.01440  -0.01422  25.04355
   Y359      34.92214  -0.01055   0.00000  -0.00022  -0.00105  34.92109
   Z359      25.79476   0.00215   0.00000   0.00877   0.00864  25.80340
   X360      23.33812  -0.00432   0.00000  -0.00970  -0.00948  23.32864
   Y360      34.54419   0.00025   0.00000   0.00162   0.00065  34.54484
   Z360      25.36012  -0.00212   0.00000  -0.00387  -0.00401  25.35611
   X361      25.03887  -0.00273   0.00000  -0.00563  -0.00560  25.03327
   Y361      36.67958   0.01894   0.00000   0.01646   0.01562  36.69520
   Z361      26.22940   0.01264   0.00000   0.01781   0.01773  26.24713
   X362      55.93589   0.00288   0.00000  -0.00380  -0.00399  55.93191
   Y362      39.04174   0.01070   0.00000   0.00570   0.00749  39.04924
   Z362      34.18515  -0.01102   0.00000  -0.00598  -0.00605  34.17910
   X363      54.87765  -0.01001   0.00000  -0.00717  -0.00725  54.87040
   Y363      37.96460  -0.01193   0.00000  -0.01124  -0.00958  37.95501
   Z363      35.18670   0.00979   0.00000   0.00639   0.00630  35.19300
   X364      57.05083   0.00113   0.00000   0.00084   0.00059  57.05142
   Y364      39.81653  -0.00034   0.00000  -0.00247  -0.00061  39.81592
   Z364      35.39457   0.00086   0.00000  -0.00085  -0.00089  35.39368
   X365      25.58689   0.01204   0.00000   0.00184   0.00256  25.58945
   Y365      29.19627  -0.00305   0.00000  -0.00137  -0.00224  29.19403
   Z365      28.93171  -0.00323   0.00000  -0.00247  -0.00278  28.92893
   X366      25.03887  -0.00169   0.00000  -0.00096  -0.00028  25.03859
   Y366      29.63091  -0.00048   0.00000  -0.00234  -0.00322  29.62769
   Z366      27.26875  -0.01103   0.00000  -0.01120  -0.01149  27.25725
   X367      24.09401  -0.01502   0.00000  -0.01132  -0.01059  24.08341
   Y367      29.23406   0.00400   0.00000   0.00736   0.00631  29.24038
   Z367      29.93326   0.01232   0.00000   0.01120   0.01090  29.94416
   X368      35.31898  -0.00865   0.00000  -0.00131  -0.00073  35.31825
   Y368      31.29386  -0.02430   0.00000  -0.01909  -0.01987  31.27400
   Z368      55.10441   0.01064   0.00000   0.00685   0.00658  55.11100
   X369      35.39457   0.00071   0.00000   0.00035   0.00091  35.39548
   Y369      31.59622   0.00035   0.00000   0.00054  -0.00028  31.59594
   Z369      56.89965  -0.00084   0.00000   0.00109   0.00084  56.90049
   X370      36.24495   0.00375   0.00000  -0.00815  -0.00769  36.23725
   Y370      32.67336   0.02004   0.00000   0.01407   0.01340  32.68677
   Z370      54.38632  -0.01113   0.00000  -0.00950  -0.00972  54.37660
   X371      51.57063  -0.00413   0.00000  -0.00134  -0.00246  51.56817
   Y371      49.17067   0.00614   0.00000  -0.00025   0.00096  49.17164
   Z371      39.81653   0.00904   0.00000   0.00487   0.00512  39.82165
   X372      52.79895   0.00488   0.00000   0.00569   0.00466  52.80361
   Y372      48.32030  -0.00166   0.00000  -0.00144  -0.00015  48.32015
   Z372      40.83698   0.00483   0.00000   0.00501   0.00524  40.84222
   X373      51.66511  -0.00308   0.00000  -0.00529  -0.00633  51.65878
   Y373      48.35809  -0.00478   0.00000  -0.00246  -0.00119  48.35690
   Z373      38.21026  -0.01445   0.00000  -0.01163  -0.01140  38.19886
   X374      48.96280   0.00632   0.00000   0.01297   0.01189  48.97469
   Y374      48.92501  -0.01797   0.00000  -0.01237  -0.01157  48.91344
   Z374      45.29674  -0.01378   0.00000  -0.01437  -0.01412  45.28262
   X375      48.58486  -0.00568   0.00000  -0.00639  -0.00764  48.57722
   Y375      50.68245   0.01253   0.00000   0.00264   0.00340  50.68585
   Z375      45.31563   0.00672   0.00000   0.00860   0.00891  45.32454
   X376      49.73759  -0.00244   0.00000  -0.00649  -0.00754  49.73005
   Y376      48.60376   0.00220   0.00000   0.00175   0.00257  48.60633
   Z376      46.90300   0.00783   0.00000   0.00634   0.00658  46.90959
   X377      40.95037   0.00000   0.00000   0.00670   0.00505  40.95542
   Y377      54.95324  -0.00178   0.00000  -0.00234  -0.00217  54.95106
   Z377      41.74405  -0.00946   0.00000  -0.00614  -0.00569  41.73836
   X378      41.30941  -0.00109   0.00000  -0.00325  -0.00481  41.30461
   Y378      54.04617  -0.00898   0.00000  -0.01010  -0.00996  54.03621
   Z378      43.27473   0.00888   0.00000   0.00564   0.00606  43.28079
   X379      41.34721   0.00143   0.00000   0.00206   0.00025  41.34746
   Y379      56.67289   0.00649   0.00000   0.00453   0.00472  56.67761
   Z379      42.14089   0.00204   0.00000   0.00171   0.00222  42.14311
   X380      33.75051  -0.01310   0.00000  -0.00925  -0.01063  33.73987
   Y380      51.74070   0.00385   0.00000   0.00577   0.00575  51.74645
   Z380      25.92704  -0.01809   0.00000  -0.01479  -0.01442  25.91262
   X381      33.29697   0.00761   0.00000   0.01342   0.01209  33.30906
   Y381      51.32496  -0.00212   0.00000  -0.00128  -0.00140  51.32356
   Z381      27.62780   0.00940   0.00000   0.00320   0.00356  27.63136
   X382      35.52685   0.00808   0.00000   0.00444   0.00303  35.52988
   Y382      52.08085  -0.00572   0.00000  -0.01140  -0.01125  52.06960
   Z382      26.00263   0.00571   0.00000   0.00526   0.00564  26.00827
   X383      55.70913   0.00725   0.00000   0.00037   0.00072  55.70985
   Y383      33.35367  -0.01668   0.00000  -0.01971  -0.01791  33.33576
   Z383      33.03241  -0.00658   0.00000  -0.00781  -0.00805  33.02436
   X384      55.59574   0.00001   0.00000   0.00069   0.00100  55.59674
   Y384      33.76941   0.00572   0.00000   0.00738   0.00923  33.77864
   Z384      31.27497  -0.00507   0.00000  -0.00534  -0.00557  31.26940
   X385      54.57529  -0.00482   0.00000   0.00222   0.00246  54.57775
   Y385      34.50640   0.00539   0.00000  -0.00273  -0.00106  34.50534
   Z385      33.84500   0.00891   0.00000   0.00904   0.00884  33.85384
         Item               Value     Threshold  Converged?
 Maximum Force            0.035167     0.000450     NO 
 RMS     Force            0.010128     0.000300     NO 
 Maximum Displacement     0.041628     0.001800     NO 
 RMS     Displacement     0.008803     0.001200     NO 
 Predicted change in Energy=-7.136377D-02
 GradGradGradGradGradGradGradGradGradGradGradGradGradGradGradGradGradGrad

 Leave Link  103 at Thu May 17 21:58:22 2018, MaxMem= 14763950080 cpu:      3974.9
 (Enter /cm/shared/gaussian/g09.e01/intel64-sandybridge/g09/l9999.exe)
 1\1\GINC-POPLE03\Force\RPBE1PBE\CC-pVDZ\Br1H256O128(1-)\M.PELUSO\17-Ma
 y-2018\0\\#p PBE1PBE/cc-pvDZ force Counterpoise=2 noSymm\\forces on ch
 loride comput - NWATER: 128\\-1,1\Br,20.,20.,20.\O,23.09,19.77,19.61\H
 ,22.14,19.82,19.65\H,23.31,20.01,18.71\O,20.8,17.68,18.2\H,21.6,18.2,1
 8.09\H,20.32,18.11,18.9\O,18.09,20.47,22.83\H,18.69,20.52,22.09\H,17.2
 4,20.27,22.44\O,20.64,17.,21.45\H,19.88,17.08,22.02\H,20.83,17.9,21.17
 \O,20.1,23.07,18.29\H,19.98,22.17,18.58\H,19.97,23.6,19.08\O,16.49,20.
 54,20.23\H,17.3,20.87,19.85\H,15.96,21.32,20.4\O,22.34,22.47,21.54\H,2
 3.13,22.53,21.01\H,21.96,21.62,21.32\O,19.58,20.81,16.15\H,19.96,20.55
 ,16.99\H,19.95,21.67,15.97\O,18.36,18.11,17.09\H,18.37,19.07,17.07\H,1
 9.08,17.88,17.67\O,21.97,19.81,24.57\H,21.16,19.64,24.08\H,21.88,19.27
 ,25.36\O,24.26,17.21,20.8\H,23.82,16.36,20.84\H,23.69,17.75,20.25\O,15
 .01,18.5,19.33\H,15.12,18.59,18.39\H,15.63,19.13,19.71\O,20.57,14.87,1
 8.37\H,19.66,14.92,18.66\H,20.91,15.76,18.51\O,24.27,19.2,22.87\H,23.3
 7,19.44,23.12\H,24.15,18.53,22.19\O,17.05,24.55,21.\H,16.29,24.61,20.4
 2\H,17.27,23.62,21.02\O,17.17,22.2,16.91\H,16.66,23.01,16.85\H,18.02,2
 2.43,16.54\O,18.79,19.87,25.44\H,18.01,20.28,25.82\H,18.58,19.78,24.51
 \O,20.61,24.42,23.\H,20.2,23.87,23.67\H,21.27,23.86,22.6\O,20.83,23.56
 ,15.79\H,21.35,24.34,15.59\H,20.79,23.54,16.74\O,17.32,15.57,18.33\H,1
 6.52,15.29,17.9\H,17.62,16.32,17.82\O,16.56,16.28,21.85\H,17.02,16.24,
 21.02\H,17.09,16.85,22.4\O,15.01,18.9,22.33\H,15.12,17.95,22.42\H,15.3
 5,19.09,21.45\O,21.03,25.28,20.32\H,20.94,25.17,21.27\H,21.72,24.67,20
 .07\O,21.03,17.59,15.09\H,21.74,17.2,14.59\H,21.13,17.22,15.97\O,22.65
 ,19.78,15.57\H,21.88,19.25,15.34\H,23.27,19.15,15.94\O,22.77,22.57,24.
 49\H,22.23,21.82,24.24\H,22.86,23.08,23.69\O,18.98,16.66,23.86\H,18.87
 ,15.71,23.95\H,18.15,17.03,24.17\O,21.68,16.35,24.12\H,20.77,16.59,23.
 91\H,21.91,15.69,23.47\O,14.81,20.95,17.36\H,15.7,21.31,17.28\H,14.87,
 20.09,16.96\O,23.68,23.76,19.64\H,24.32,23.12,19.33\H,24.17,24.58,19.7
 2\O,25.57,22.,19.1\H,26.3,21.68,19.63\H,25.26,21.23,18.63\O,18.97,19.9
 8,13.73\H,19.65,20.31,13.14\H,19.07,20.52,14.52\O,25.18,19.33,17.71\H,
 25.88,19.51,17.08\H,24.89,18.44,17.48\O,18.27,17.1,14.32\H,19.05,17.51
 ,13.94\H,18.28,17.37,15.24\O,14.95,23.33,19.82\H,14.58,23.31,18.94\H,1
 4.25,23.71,20.36\O,19.45,23.33,25.1\H,18.91,24.05,25.42\H,19.14,22.57,
 25.59\O,18.43,26.63,19.88\H,19.26,26.18,20.03\H,17.76,25.98,20.1\O,18.
 28,25.68,23.34\H,19.12,25.22,23.33\H,17.78,25.3,22.61\O,16.08,19.4,15.
 02\H,16.2,20.23,14.55\H,16.24,18.72,14.36\O,14.37,17.87,16.36\H,15.1,1
 8.42,16.09\H,14.28,17.22,15.66\O,23.67,22.28,14.45\H,24.39,22.3,13.81\
 H,23.66,21.38,14.78\O,23.21,13.56,19.05\H,23.24,13.24,18.15\H,22.34,13
 .96,19.14\O,24.2,15.8,17.14\H,23.91,14.99,17.56\H,24.32,15.57,16.22\O,
 27.,20.46,21.54\H,26.39,19.87,21.97\H,26.64,21.33,21.69\O,23.93,16.22,
 25.33\H,23.11,16.65,25.09\H,24.43,16.17,24.52\O,14.22,14.94,21.38\H,13
 .87,14.96,22.27\H,15.,15.5,21.41\O,16.54,16.98,25.27\H,16.59,16.69,26.
 18\H,15.93,17.72,25.29\O,16.17,24.55,16.25\H,16.8,25.27,16.28\H,16.24,
 24.21,15.36\O,24.56,21.63,26.32\H,25.36,21.8,25.81\H,23.86,21.64,25.67
 \O,16.74,22.12,25.89\H,16.77,23.06,25.73\H,15.84,21.87,25.7\O,26.59,16
 .57,18.15\H,27.14,15.99,17.63\H,25.7,16.22,18.03\O,12.37,17.46,20.21\H
 ,13.17,17.98,20.1\H,12.01,17.4,19.32\O,21.8,23.53,27.05\H,21.72,22.95,
 26.29\H,20.89,23.74,27.28\O,21.4,21.32,12.6\H,21.57,20.46,12.99\H,21.9
 7,21.91,13.08\O,12.87,19.78,23.8\H,13.55,19.51,23.19\H,12.72,20.7,23.6
 1\O,25.33,23.78,16.28\H,24.67,23.43,15.69\H,26.02,24.1,15.7\O,27.77,18
 .63,19.34\H,27.19,19.11,19.93\H,27.21,17.95,18.96\O,17.72,26.69,16.46\
 H,17.11,27.3,16.85\H,18.37,26.52,17.15\O,26.77,18.2,24.3\H,26.07,18.16
 ,23.66\H,26.98,19.14,24.36\O,21.99,18.59,26.98\H,22.13,17.71,27.32\H,2
 2.72,19.1,27.33\O,20.42,25.7,13.97\H,21.36,25.56,14.03\H,20.04,25.01,1
 4.52\O,19.41,18.83,27.96\H,18.84,19.21,27.3\H,20.3,18.94,27.62\O,16.76
 ,13.89,23.54\H,17.62,14.12,23.9\H,16.15,14.49,23.98\O,17.47,12.47,19.1
 4\H,17.07,11.75,18.65\H,17.86,13.02,18.46\O,20.41,11.75,19.39\H,19.45,
 11.65,19.37\H,20.57,12.6,18.98\O,26.48,23.05,22.5\H,26.94,23.35,21.72\
 H,25.9,23.78,22.73\O,21.24,18.21,12.26\H,20.76,17.64,12.86\H,21.19,17.
 75,11.42\O,22.91,24.86,14.15\H,22.95,23.9,14.21\H,23.78,25.12,13.87\O,
 25.51,25.51,18.63\H,25.59,26.28,18.07\H,25.56,24.77,18.03\O,25.14,18.3
 9,14.56\H,24.75,18.56,13.71\H,25.41,17.47,14.52\O,11.85,20.62,17.7\H,1
 1.5,21.06,18.46\H,12.76,20.93,17.63\O,22.7,26.42,23.29\H,23.22,26.65,2
 2.53\H,23.27,25.86,23.81\O,20.6,12.25,23.3\H,21.26,12.29,22.6\H,20.46,
 13.17,23.54\O,13.4,21.17,14.58\H,13.82,20.99,15.42\H,12.64,21.71,14.81
 \O,24.7,14.48,22.8\H,25.6,14.52,23.13\H,24.63,13.62,22.39\O,16.31,15.2
 ,14.14\H,15.82,15.44,14.93\H,17.11,15.73,14.18\O,19.01,14.03,24.98\H,1
 8.95,14.26,25.91\H,19.29,13.12,24.97\O,23.39,15.51,14.48\H,22.86,14.75
 ,14.71\H,24.27,15.16,14.34\O,19.07,22.49,27.75\H,19.03,21.54,27.68\H,1
 8.23,22.79,27.42\O,20.68,14.23,14.09\H,20.95,13.47,13.58\H,20.7,13.93,
 15.\O,22.86,12.17,21.89\H,22.69,12.6,21.05\H,23.36,11.39,21.67\O,15.15
 ,14.36,17.21\H,14.53,14.4,16.48\H,14.83,13.64,17.76\O,20.72,27.32,16.5
 4\H,21.51,27.12,16.04\H,21.03,27.47,17.44\O,27.02,21.86,24.86\H,27.39,
 22.74,24.94\H,26.7,21.81,23.96\O,17.72,18.85,11.55\H,17.97,19.43,12.27
 \H,16.89,18.46,11.84\O,18.96,28.79,21.37\H,19.89,28.89,21.55\H,18.86,2
 7.87,21.11\O,20.19,27.17,24.7\H,19.41,26.93,24.2\H,20.92,26.81,24.2\O,
 16.48,12.03,21.48\H,16.87,12.05,20.6\H,16.9,12.75,21.95\O,21.68,28.59,
 19.16\H,21.12,29.33,19.42\H,21.61,27.98,19.88\O,13.56,25.6,18.07\H,14.
 35,25.36,17.58\H,13.45,26.53,17.91\O,28.01,22.51,16.52\H,28.56,21.8,16
 .85\H,27.19,22.42,16.99\O,13.9,15.49,23.96\H,13.87,16.44,24.09\H,13.84
 ,15.13,24.84\O,17.38,12.8,16.29\H,16.72,13.12,16.9\H,16.89,12.6,15.49\
 O,19.98,11.89,16.01\H,19.09,12.18,15.85\H,20.28,12.43,16.74\O,11.79,22
 .58,20.04\H,11.09,23.,19.53\H,12.41,23.29,20.22\O,24.5,26.83,21.36\H,2
 5.24,26.98,21.94\H,24.89,26.73,20.49\O,11.82,17.54,17.62\H,11.57,18.39
 ,17.99\H,12.56,17.73,17.04\O,14.3,18.37,25.89\H,13.81,19.19,25.86\H,14
 .62,18.31,26.79\O,27.33,14.6,20.74\H,26.61,14.98,21.25\H,26.9,14.19,19
 .99\O,13.09,24.88,21.12\H,13.78,25.54,21.04\H,12.59,25.14,21.9\O,16.2,
 26.82,24.99\H,15.4,26.83,24.46\H,16.88,26.51,24.4\O,23.99,25.12,26.08\
 H,23.35,24.74,26.68\H,24.52,24.38,25.79\O,17.57,24.79,26.67\H,17.94,25
 .66,26.59\H,16.79,24.9,27.22\O,23.82,18.77,11.9\H,22.87,18.68,12.\H,24
 .03,18.21,11.15\O,22.46,15.67,27.64\H,23.07,15.55,28.36\H,23.,15.62,26
 .85\O,25.95,12.76,19.15\H,25.97,11.94,18.66\H,25.02,12.98,19.2\O,16.16
 ,23.88,12.95\H,16.34,22.97,12.71\H,16.83,24.38,12.49\O,16.89,28.78,18.
 16\H,16.64,29.52,18.72\H,17.3,28.16,18.76\O,14.29,12.77,19.67\H,14.06,
 13.64,20.\H,15.13,12.57,20.1\O,15.36,21.12,12.61\H,14.65,20.87,13.19\H
 ,15.15,20.69,11.78\O,23.39,12.71,16.63\H,24.16,12.84,16.08\H,23.01,11.
 89,16.32\O,23.72,13.15,25.65\H,23.61,13.86,25.03\H,24.57,13.31,26.06\O
 ,19.,15.6,11.98\H,19.01,14.98,12.71\H,18.34,16.25,12.24\O,19.9,14.42,2
 7.65\H,19.57,14.97,28.35\H,20.57,14.96,27.22\O,11.13,17.79,22.56\H,11.
 74,18.47,22.85\H,11.39,17.6,21.66\O,21.57,21.47,29.57\H,22.38,21.95,29
 .43\H,21.08,21.56,28.75\O,13.81,21.86,26.4\H,12.92,21.86,26.75\H,13.99
 ,22.77,26.17\O,26.16,15.89,14.74\H,26.85,15.57,15.32\H,26.62,16.2,13.9
 6\O,15.19,17.46,12.4\H,14.72,16.67,12.16\H,14.58,17.95,12.95\O,13.26,1
 8.48,13.65\H,12.35,18.28,13.42\H,13.25,19.41,13.88\O,29.6,20.66,18.09\
 H,29.04,20.09,18.62\H,30.19,21.07,18.73\O,13.54,15.45,15.31\H,13.25,15
 .68,14.43\H,12.75,15.47,15.84\O,18.69,16.56,29.16\H,18.73,16.72,30.11\
 H,19.18,17.29,28.78\O,27.29,26.02,21.07\H,27.94,25.57,21.61\H,27.34,25
 .59,20.22\O,25.91,25.89,23.97\H,25.71,26.82,23.98\H,26.32,25.72,24.82\
 O,21.67,29.08,22.09\H,21.86,28.6,22.9\H,21.88,29.99,22.3\O,17.86,27.38
 ,13.72\H,17.62,27.16,14.62\H,18.8,27.56,13.76\O,29.48,17.65,17.48\H,29
 .42,17.87,16.55\H,28.88,18.26,17.91\\Version=ES64L-G09RevE.01\HF=-9773
 .2699737\RMSD=1.667e-09\RMSF=1.013e-02\Dipole=2.277576,3.3988684,-6.43
 99933\Quadrupole=235.6472401,248.1332061,-483.7804461,-1286.4974921,-1
 675.2248026,-1384.1161395\PG=C01 [X(Br1H256O128)]\\@


 A HARD FALL SHOULD MEAN A HIGH BOUNCE 
 IF ONE IS MADE OF THE RIGHT MATERIAL.

                -- THE CHEMIST ANALYST, MARCH 1950
 Job cpu time:       6 days 14 hours 15 minutes 33.8 seconds.
 File lengths (MBytes):  RWF=   7285 Int=      0 D2E=      0 Chk=   2411 Scr=      1
 Normal termination of Gaussian 09 at Thu May 17 21:58:52 2018.
