 Entering Gaussian System, Link 0=/cm/shared/gaussian/g09.e01/intel64-sandybridge/g09/g09
 Initial command:
 /cm/shared/gaussian/g09.e01/intel64-sandybridge/g09/l1.exe "/local/scratch/m.peluso/128_wat/order/Gau-39365.inp" -scrdir="/local/scratch/m.peluso/128_wat/order/"
 Entering Link 1 = /cm/shared/gaussian/g09.e01/intel64-sandybridge/g09/l1.exe PID=     39366.
  
 Copyright (c) 1988,1990,1992,1993,1995,1998,2003,2009,2015,
            Gaussian, Inc.  All Rights Reserved.
  
 This is part of the Gaussian(R) 09 program.  It is based on
 the Gaussian(R) 03 system (copyright 2003, Gaussian, Inc.),
 the Gaussian(R) 98 system (copyright 1998, Gaussian, Inc.),
 the Gaussian(R) 94 system (copyright 1995, Gaussian, Inc.),
 the Gaussian 92(TM) system (copyright 1992, Gaussian, Inc.),
 the Gaussian 90(TM) system (copyright 1990, Gaussian, Inc.),
 the Gaussian 88(TM) system (copyright 1988, Gaussian, Inc.),
 the Gaussian 86(TM) system (copyright 1986, Carnegie Mellon
 University), and the Gaussian 82(TM) system (copyright 1983,
 Carnegie Mellon University). Gaussian is a federally registered
 trademark of Gaussian, Inc.
  
 This software contains proprietary and confidential information,
 including trade secrets, belonging to Gaussian, Inc.
  
 This software is provided under written license and may be
 used, copied, transmitted, or stored only in accord with that
 written license.
  
 The following legend is applicable only to US Government
 contracts under FAR:
  
                    RESTRICTED RIGHTS LEGEND
  
 Use, reproduction and disclosure by the US Government is
 subject to restrictions as set forth in subparagraphs (a)
 and (c) of the Commercial Computer Software - Restricted
 Rights clause in FAR 52.227-19.
  
 Gaussian, Inc.
 340 Quinnipiac St., Bldg. 40, Wallingford CT 06492
  
  
 ---------------------------------------------------------------
 Warning -- This program may not be used in any manner that
 competes with the business of Gaussian, Inc. or will provide
 assistance to any competitor of Gaussian, Inc.  The licensee
 of this program is prohibited from giving any competitor of
 Gaussian, Inc. access to this program.  By using this program,
 the user acknowledges that Gaussian, Inc. is engaged in the
 business of creating and licensing software in the field of
 computational chemistry and represents and warrants to the
 licensee that it is not a competitor of Gaussian, Inc. and that
 it will not use this program in any manner prohibited above.
 ---------------------------------------------------------------
  

 Cite this work as:
 Gaussian 09, Revision E.01,
 M. J. Frisch, G. W. Trucks, H. B. Schlegel, G. E. Scuseria, 
 M. A. Robb, J. R. Cheeseman, G. Scalmani, V. Barone, B. Mennucci, 
 G. A. Petersson, H. Nakatsuji, M. Caricato, X. Li, H. P. Hratchian, 
 A. F. Izmaylov, J. Bloino, G. Zheng, J. L. Sonnenberg, M. Hada, 
 M. Ehara, K. Toyota, R. Fukuda, J. Hasegawa, M. Ishida, T. Nakajima, 
 Y. Honda, O. Kitao, H. Nakai, T. Vreven, J. A. Montgomery, Jr., 
 J. E. Peralta, F. Ogliaro, M. Bearpark, J. J. Heyd, E. Brothers, 
 K. N. Kudin, V. N. Staroverov, T. Keith, R. Kobayashi, J. Normand, 
 K. Raghavachari, A. Rendell, J. C. Burant, S. S. Iyengar, J. Tomasi, 
 M. Cossi, N. Rega, J. M. Millam, M. Klene, J. E. Knox, J. B. Cross, 
 V. Bakken, C. Adamo, J. Jaramillo, R. Gomperts, R. E. Stratmann, 
 O. Yazyev, A. J. Austin, R. Cammi, C. Pomelli, J. W. Ochterski, 
 R. L. Martin, K. Morokuma, V. G. Zakrzewski, G. A. Voth, 
 P. Salvador, J. J. Dannenberg, S. Dapprich, A. D. Daniels, 
 O. Farkas, J. B. Foresman, J. V. Ortiz, J. Cioslowski, 
 and D. J. Fox, Gaussian, Inc., Wallingford CT, 2013.
 
 ******************************************
 Gaussian 09:  ES64L-G09RevE.01 30-Nov-2015
                15-May-2018 
 ******************************************
 %Mem=110GB
 %NProcShared=64
 Will use up to   64 processors via shared memory.
 %chk=snap60.chk
 ----------------------------------------------
 #p PBE1PBE/cc-pvDZ force Counterpoise=2 noSymm
 ----------------------------------------------
 1/10=7,30=1,38=1,62=2/1,3;
 2/12=2,15=1,17=6,18=5,40=1/2;
 1/10=7,30=1,38=1,53=2,62=2,63=101/22;
 3/5=16,11=2,16=1,25=1,30=1,71=1,74=-13/1,2,3;
 4//1;
 5/5=2,38=5/2;
 6/7=2,8=2,9=2,10=2,28=1/1;
 7/7=1,29=1,30=1,33=-1/1,2,3,16;
 1/10=7,30=1,53=2,62=2,63=101/22;
 3/5=7,6=11,11=2,16=1,25=1,30=1,71=1,74=-13,82=7/1,2,3;
 4//1;
 5/5=2,38=5/2;
 6/7=2,8=2,9=2,10=2,28=1/1;
 7/7=1,29=1,30=1,33=-1/1,2,3,16;
 1/10=7,30=1,53=2,62=2,63=101/22(-5);
 7/9=1,29=1,44=-1/16;
 1/10=7,30=1,62=2/3;
 99//99;
 Leave Link    1 at Tue May 15 16:17:28 2018, MaxMem= 14763950080 cpu:         8.0
 (Enter /cm/shared/gaussian/g09.e01/intel64-sandybridge/g09/l101.exe)
 ---------------------------------------
 forces on chloride comput - NWATER: 128
 ---------------------------------------
 Symbolic Z-matrix:
 Charge = -1 Multiplicity = 1 in supermolecule
 Charge = -1 Multiplicity = 1 in fragment      1.
 Charge =  0 Multiplicity = 1 in fragment      2.
 Br(Fragment=1)        20.       20.       20. 
 O(Fragment=2)         21.32     22.78     19.35 
 H(Fragment=2)         20.99     21.95     19.69 
 H(Fragment=2)         22.24     22.8      19.63 
 O(Fragment=2)         22.74     18.49     20.56 
 H(Fragment=2)         23.45     18.96     20.12 
 H(Fragment=2)         21.95     18.98     20.32 
 O(Fragment=2)         19.94     20.73     16.85 
 H(Fragment=2)         19.04     21.03     16.8 
 H(Fragment=2)         20.       20.29     17.7 
 O(Fragment=2)         18.43     17.05     20.6 
 H(Fragment=2)         19.05     16.49     20.13 
 H(Fragment=2)         18.84     17.91     20.62 
 O(Fragment=2)         16.76     20.86     20.78 
 H(Fragment=2)         16.54     21.63     20.25 
 H(Fragment=2)         17.52     20.47     20.33 
 O(Fragment=2)         21.63     17.03     17.44 
 H(Fragment=2)         22.52     17.12     17.78 
 H(Fragment=2)         21.27     17.92     17.47 
 O(Fragment=2)         20.7      22.06     23.72 
 H(Fragment=2)         21.56     22.48     23.81 
 H(Fragment=2)         20.88     21.25     23.24 
 O(Fragment=2)         23.68     20.08     18.57 
 H(Fragment=2)         24.01     20.02     17.68 
 H(Fragment=2)         23.26     20.94     18.61 
 O(Fragment=2)         21.35     16.45     22.24 
 H(Fragment=2)         21.49     15.68     21.69 
 H(Fragment=2)         21.76     17.17     21.75 
 O(Fragment=2)         18.31     22.95     22.45 
 H(Fragment=2)         17.64     22.36     22.8 
 H(Fragment=2)         19.14     22.56     22.72 
 O(Fragment=2)         17.16     17.33     17.91 
 H(Fragment=2)         17.3      18.28     17.86 
 H(Fragment=2)         16.22     17.22     17.76 
 O(Fragment=2)         16.15     18.18     21.53 
 H(Fragment=2)         16.43     19.09     21.42 
 H(Fragment=2)         16.89     17.66     21.21 
 O(Fragment=2)         19.24     24.47     19.84 
 H(Fragment=2)         19.96     23.99     19.44 
 H(Fragment=2)         18.79     23.81     20.38 
 O(Fragment=2)         22.31     22.14     16.49 
 H(Fragment=2)         22.32     22.72     17.26 
 H(Fragment=2)         21.55     21.57     16.63 
 O(Fragment=2)         16.99     20.44     17.22 
 H(Fragment=2)         16.97     20.67     16.3 
 H(Fragment=2)         16.4      21.06     17.65 
 O(Fragment=2)         19.31     17.47     23.91 
 H(Fragment=2)         19.43     18.41     23.82 
 H(Fragment=2)         20.05     17.08     23.45 
 O(Fragment=2)         18.49     20.65     24.44 
 H(Fragment=2)         19.22     21.11     24.04 
 H(Fragment=2)         18.48     20.94     25.35 
 O(Fragment=2)         15.91     20.34     23.27 
 H(Fragment=2)         16.18     20.62     22.4 
 H(Fragment=2)         16.72     20.07     23.7 
 O(Fragment=2)         19.28     15.58     18.28 
 H(Fragment=2)         19.84     16.05     17.67 
 H(Fragment=2)         18.45     16.05     18.26 
 O(Fragment=2)         24.1      22.66     19.74 
 H(Fragment=2)         24.47     22.9      20.59 
 H(Fragment=2)         24.85     22.68     19.14 
 O(Fragment=2)         20.21     20.73     14.14 
 H(Fragment=2)         20.3      20.64     15.09 
 H(Fragment=2)         19.27     20.74     13.98 
 O(Fragment=2)         15.59     22.46     18.78 
 H(Fragment=2)         15.47     23.39     18.57 
 H(Fragment=2)         14.81     22.03     18.44 
 O(Fragment=2)         22.42     17.83     14.79 
 H(Fragment=2)         23.08     18.36     15.23 
 H(Fragment=2)         21.75     17.68     15.45 
 O(Fragment=2)         17.81     14.04     20. 
 H(Fragment=2)         18.14     14.69     19.38 
 H(Fragment=2)         18.43     14.06     20.72 
 O(Fragment=2)         18.02     25.96     17.97 
 H(Fragment=2)         18.09     25.19     18.54 
 H(Fragment=2)         18.69     25.82     17.3 
 O(Fragment=2)         18.73     18.17     14.53 
 H(Fragment=2)         18.9      17.23     14.51 
 H(Fragment=2)         17.87     18.25     14.94 
 O(Fragment=2)         25.25     19.41     22.71 
 H(Fragment=2)         25.42     19.19     21.8 
 H(Fragment=2)         25.       18.58     23.12 
 O(Fragment=2)         24.52     16.29     17.67 
 H(Fragment=2)         24.62     17.22     17.88 
 H(Fragment=2)         24.81     15.84     18.46 
 O(Fragment=2)         15.72     24.52     21.35 
 H(Fragment=2)         16.56     24.4      21.78 
 H(Fragment=2)         15.77     25.39     20.96 
 O(Fragment=2)         18.52     25.68     23.56 
 H(Fragment=2)         18.84     24.95     23.03 
 H(Fragment=2)         19.31     26.14     23.84 
 O(Fragment=2)         21.11     26.48     20.19 
 H(Fragment=2)         21.47     26.61     19.31 
 H(Fragment=2)         20.36     25.91     20.06 
 O(Fragment=2)         24.27     19.52     15.81 
 H(Fragment=2)         24.57     20.43     15.79 
 H(Fragment=2)         25.02     19.03     16.14 
 O(Fragment=2)         15.17     15.66     21.67 
 H(Fragment=2)         16.07     15.36     21.82 
 H(Fragment=2)         15.25     16.61     21.6 
 O(Fragment=2)         13.99     18.18     23.11 
 H(Fragment=2)         14.8      18.21     22.6 
 H(Fragment=2)         13.88     19.07     23.45 
 O(Fragment=2)         16.58     17.28     24.83 
 H(Fragment=2)         17.54     17.32     24.88 
 H(Fragment=2)         16.32     18.17     24.6 
 O(Fragment=2)         16.13     18.39     15.06 
 H(Fragment=2)         15.95     17.46     15.16 
 H(Fragment=2)         15.7      18.8      15.82 
 O(Fragment=2)         14.22     18.34     17.88 
 H(Fragment=2)         14.06     19.12     17.35 
 H(Fragment=2)         14.14     18.64     18.78 
 O(Fragment=2)         17.12     21.84     14.86 
 H(Fragment=2)         16.27     22.26     14.71 
 H(Fragment=2)         17.76     22.54     14.72 
 O(Fragment=2)         22.93     21.42     13.82 
 H(Fragment=2)         22.2      20.81     13.81 
 H(Fragment=2)         22.98     21.72     14.73 
 O(Fragment=2)         20.71     17.7      26.55 
 H(Fragment=2)         20.4      17.37     25.71 
 H(Fragment=2)         20.1      17.31     27.19 
 O(Fragment=2)         20.43     23.67     26.24 
 H(Fragment=2)         20.11     22.98     26.82 
 H(Fragment=2)         20.39     23.29     25.36 
 O(Fragment=2)         21.4      26.22     22.8 
 H(Fragment=2)         21.72     27.09     22.58 
 H(Fragment=2)         20.99     25.9      22. 
 O(Fragment=2)         22.84     14.14     17.77 
 H(Fragment=2)         22.04     14.55     17.45 
 H(Fragment=2)         23.52     14.8      17.63 
 O(Fragment=2)         13.83     22.31     21.72 
 H(Fragment=2)         14.47     23.       21.54 
 H(Fragment=2)         13.98     22.1      22.65 
 O(Fragment=2)         22.15     13.89     21.08 
 H(Fragment=2)         22.11     12.97     21.35 
 H(Fragment=2)         22.11     13.86     20.12 
 O(Fragment=2)         13.08     20.2      20.22 
 H(Fragment=2)         12.38     19.89     20.79 
 H(Fragment=2)         13.6      20.79     20.78 
 O(Fragment=2)         25.02     23.91     21.99 
 H(Fragment=2)         25.54     23.22     22.39 
 H(Fragment=2)         24.33     24.09     22.63 
 O(Fragment=2)         21.09     24.88     14.83 
 H(Fragment=2)         21.63     24.54     15.54 
 H(Fragment=2)         21.49     25.72     14.61 
 O(Fragment=2)         24.86     16.88     23.46 
 H(Fragment=2)         25.72     16.47     23.59 
 H(Fragment=2)         24.3      16.16     23.17 
 O(Fragment=2)         23.01     25.4      17.7 
 H(Fragment=2)         23.83     24.9      17.73 
 H(Fragment=2)         23.27     26.31     17.84 
 O(Fragment=2)         23.02     23.88     24.47 
 H(Fragment=2)         22.6      24.74     24.46 
 H(Fragment=2)         22.77     23.5      25.31 
 O(Fragment=2)         19.52     14.59     24.71 
 H(Fragment=2)         19.26     15.5      24.88 
 H(Fragment=2)         19.19     14.1      25.46 
 O(Fragment=2)         17.4      14.58     23.06 
 H(Fragment=2)         18.25     14.57     23.51 
 H(Fragment=2)         16.88     15.22     23.54 
 O(Fragment=2)         26.9      18.1      20.23 
 H(Fragment=2)         27.58     17.56     19.82 
 H(Fragment=2)         26.21     17.49     20.46 
 O(Fragment=2)         15.13     21.26     25.72 
 H(Fragment=2)         15.97     21.61     26.03 
 H(Fragment=2)         15.33     20.89     24.85 
 O(Fragment=2)         20.68     14.2      16.08 
 H(Fragment=2)         20.45     14.72     15.31 
 H(Fragment=2)         19.86     14.12     16.57 
 O(Fragment=2)         20.03     20.62     26.96 
 H(Fragment=2)         19.81     20.78     27.88 
 H(Fragment=2)         19.93     19.67     26.85 
 O(Fragment=2)         25.54     15.39     19.99 
 H(Fragment=2)         26.44     15.16     20.23 
 H(Fragment=2)         25.06     15.34     20.82 
 O(Fragment=2)         17.59     24.36     25.56 
 H(Fragment=2)         17.53     25.13     26.13 
 H(Fragment=2)         17.81     24.71     24.7 
 O(Fragment=2)         13.23     21.46     17.77 
 H(Fragment=2)         12.57     22.14     17.92 
 H(Fragment=2)         13.15     20.88     18.53 
 O(Fragment=2)         25.62     24.05     17.86 
 H(Fragment=2)         25.89     24.84     17.38 
 H(Fragment=2)         25.68     23.35     17.21 
 O(Fragment=2)         26.67     22.03     23.18 
 H(Fragment=2)         27.4      22.17     22.58 
 H(Fragment=2)         26.43     21.11     23.07 
 O(Fragment=2)         15.76     25.19     17. 
 H(Fragment=2)         14.97     25.73     17.03 
 H(Fragment=2)         16.43     25.72     17.44 
 O(Fragment=2)         25.81     21.65     16.03 
 H(Fragment=2)         26.66     21.77     16.45 
 H(Fragment=2)         25.85     22.19     15.24 
 O(Fragment=2)         25.05     25.88     20.18 
 H(Fragment=2)         24.87     25.45     21.01 
 H(Fragment=2)         25.03     25.17     19.53 
 O(Fragment=2)         25.6      20.51     25.62 
 H(Fragment=2)         24.89     21.14     25.7 
 H(Fragment=2)         25.44     20.06     24.79 
 O(Fragment=2)         21.57     18.16     12.26 
 H(Fragment=2)         21.74     18.05     13.2 
 H(Fragment=2)         21.99     18.98     12.03 
 O(Fragment=2)         24.55     14.27     22.53 
 H(Fragment=2)         23.74     14.04     22.08 
 H(Fragment=2)         24.67     13.58     23.18 
 O(Fragment=2)         18.86     15.4      14.37 
 H(Fragment=2)         17.99     15.18     14.68 
 H(Fragment=2)         18.89     15.06     13.47 
 O(Fragment=2)         17.33     21.97     26.66 
 H(Fragment=2)         17.34     22.87     26.32 
 H(Fragment=2)         17.65     22.06     27.56 
 O(Fragment=2)         18.72     24.2      13.35 
 H(Fragment=2)         19.04     24.66     12.58 
 H(Fragment=2)         19.35     24.41     14.04 
 O(Fragment=2)         13.69     20.2      15.58 
 H(Fragment=2)         14.37     20.53     15. 
 H(Fragment=2)         13.59     20.87     16.25 
 O(Fragment=2)         18.93     19.06     11.91 
 H(Fragment=2)         19.73     19.47     11.59 
 H(Fragment=2)         19.22     18.49     12.62 
 O(Fragment=2)         16.06     13.14     18.19 
 H(Fragment=2)         16.53     13.33     19. 
 H(Fragment=2)         16.71     12.7      17.63 
 O(Fragment=2)         13.86     14.47     19.53 
 H(Fragment=2)         14.31     14.93     20.23 
 H(Fragment=2)         14.55     13.95     19.1 
 O(Fragment=2)         15.51     15.7      15.46 
 H(Fragment=2)         14.56     15.68     15.46 
 H(Fragment=2)         15.77     14.79     15.61 
 O(Fragment=2)         25.47     17.24     25.99 
 H(Fragment=2)         24.82     17.69     26.54 
 H(Fragment=2)         25.19     17.41     25.09 
 O(Fragment=2)         20.99     21.25     11.67 
 H(Fragment=2)         21.66     21.8      12.07 
 H(Fragment=2)         20.33     21.14     12.35 
 O(Fragment=2)         24.03     16.1      13.39 
 H(Fragment=2)         23.49     16.68     13.93 
 H(Fragment=2)         24.03     16.52     12.53 
 O(Fragment=2)         13.1      24.59     19.26 
 H(Fragment=2)         13.79     24.66     19.92 
 H(Fragment=2)         13.03     25.48     18.9 
 O(Fragment=2)         26.89     19.06     16.47 
 H(Fragment=2)         27.34     19.82     16.85 
 H(Fragment=2)         27.32     18.93     15.63 
 O(Fragment=2)         16.41     18.6      12.3 
 H(Fragment=2)         16.32     18.73     13.24 
 H(Fragment=2)         17.31     18.87     12.1 
 O(Fragment=2)         22.89     18.24     27.86 
 H(Fragment=2)         22.43     18.56     28.64 
 H(Fragment=2)         22.2      18.       27.25 
 O(Fragment=2)         20.37     26.56     25.34 
 H(Fragment=2)         20.41     25.74     25.82 
 H(Fragment=2)         20.88     26.4      24.54 
 O(Fragment=2)         18.4      11.93     22.81 
 H(Fragment=2)         17.63     11.46     22.51 
 H(Fragment=2)         18.11     12.84     22.89 
 O(Fragment=2)         15.21     24.48     14.49 
 H(Fragment=2)         15.42     24.62     15.42 
 H(Fragment=2)         14.55     25.15     14.29 
 O(Fragment=2)         15.2      14.96     25.43 
 H(Fragment=2)         14.27     15.17     25.32 
 H(Fragment=2)         15.65     15.78     25.21 
 O(Fragment=2)         24.47     19.27     12.53 
 H(Fragment=2)         24.22     19.96     13.15 
 H(Fragment=2)         24.5      19.7      11.68 
 O(Fragment=2)         23.43     22.45     26.88 
 H(Fragment=2)         23.1      22.04     27.68 
 H(Fragment=2)         24.11     23.05     27.18 
 O(Fragment=2)         18.68     28.59     18.46 
 H(Fragment=2)         18.81     29.08     17.65 
 H(Fragment=2)         18.37     27.73     18.18 
 O(Fragment=2)         22.41     13.27     24.64 
 H(Fragment=2)         21.55     12.89     24.48 
 H(Fragment=2)         22.22     14.09     25.09 
 O(Fragment=2)         11.49     22.79     20.19 
 H(Fragment=2)         11.87     23.58     19.8 
 H(Fragment=2)         12.24     22.3      20.53 
 O(Fragment=2)         17.64     28.28     22.93 
 H(Fragment=2)         18.29     28.66     22.34 
 H(Fragment=2)         17.86     27.35     22.97 
 O(Fragment=2)         24.25     26.59     24.4 
 H(Fragment=2)         24.87     27.23     24.05 
 H(Fragment=2)         23.67     26.39     23.66 
 O(Fragment=2)         15.47     26.85     20.51 
 H(Fragment=2)         14.89     27.45     20.97 
 H(Fragment=2)         16.29     27.34     20.4 
 O(Fragment=2)         28.51     18.45     22.68 
 H(Fragment=2)         27.88     18.95     22.16 
 H(Fragment=2)         28.56     18.91     23.52 
 O(Fragment=2)         22.07     15.19     26.9 
 H(Fragment=2)         21.88     16.12     27.02 
 H(Fragment=2)         22.45     14.91     27.73 
 O(Fragment=2)         26.57     16.16     15.21 
 H(Fragment=2)         25.91     15.99     15.88 
 H(Fragment=2)         26.07     16.47     14.46 
 O(Fragment=2)         12.41     15.93     17.56 
 H(Fragment=2)         12.83     16.76     17.36 
 H(Fragment=2)         12.74     15.7      18.43 
 O(Fragment=2)         25.99     23.52     25.72 
 H(Fragment=2)         25.99     22.98     24.93 
 H(Fragment=2)         26.54     23.05     26.34 
 O(Fragment=2)         11.33     18.76     22.04 
 H(Fragment=2)         12.15     18.52     22.47 
 H(Fragment=2)         11.06     17.97     21.57 
 O(Fragment=2)         13.04     16.5      24.89 
 H(Fragment=2)         12.12     16.72     25. 
 H(Fragment=2)         13.37     17.11     24.23 
 O(Fragment=2)         22.52     12.       15.93 
 H(Fragment=2)         22.87     11.54     16.7 
 H(Fragment=2)         22.04     12.74     16.3 
 O(Fragment=2)         17.37     21.64     11.64 
 H(Fragment=2)         18.04     20.98     11.45 
 H(Fragment=2)         16.8      21.23     12.28 
 O(Fragment=2)         23.95     11.65     18.59 
 H(Fragment=2)         23.7      12.56     18.41 
 H(Fragment=2)         24.22     11.65     19.51 
 O(Fragment=2)         19.4      27.32     15.76 
 H(Fragment=2)         19.41     27.45     14.81 
 H(Fragment=2)         19.       28.12     16.11 
 O(Fragment=2)         12.42     15.37     22.29 
 H(Fragment=2)         13.27     15.11     21.93 
 H(Fragment=2)         12.61     15.57     23.21 
 O(Fragment=2)         28.04     22.73     20.92 
 H(Fragment=2)         27.82     23.54     20.47 
 H(Fragment=2)         28.99     22.77     21.06 
 O(Fragment=2)         14.51     22.03     13.74 
 H(Fragment=2)         13.72     22.       13.2 
 H(Fragment=2)         14.68     22.96     13.87 
 O(Fragment=2)         18.54     15.84     27.38 
 H(Fragment=2)         18.53     14.9      27.52 
 H(Fragment=2)         17.82     16.17     27.91 
 O(Fragment=2)         25.24     24.56     14.93 
 H(Fragment=2)         25.62     25.29     15.41 
 H(Fragment=2)         25.96     24.23     14.4 
 O(Fragment=2)         22.95     27.94     18.32 
 H(Fragment=2)         23.64     28.       18.98 
 H(Fragment=2)         22.25     28.5      18.66 
 O(Fragment=2)         14.8      23.93     26.56 
 H(Fragment=2)         14.86     23.02     26.26 
 H(Fragment=2)         15.34     23.95     27.36 
 O(Fragment=2)         24.       23.31     11.91 
 H(Fragment=2)         23.73     22.79     12.67 
 H(Fragment=2)         24.23     22.66     11.24 
 O(Fragment=2)         21.94     24.97     27.97 
 H(Fragment=2)         21.36     24.37     27.49 
 H(Fragment=2)         22.76     24.94     27.48 
 O(Fragment=2)         17.81     10.63     19.02 
 H(Fragment=2)         17.33     10.25     18.28 
 H(Fragment=2)         18.05     11.51     18.73 
 O(Fragment=2)         21.27     11.54     22.67 
 H(Fragment=2)         21.55     10.72     23.08 
 H(Fragment=2)         20.34     11.63     22.9 
 O(Fragment=2)         12.62     18.23     14. 
 H(Fragment=2)         13.27     18.91     14.19 
 H(Fragment=2)         11.93     18.37     14.64 
 O(Fragment=2)         12.58     19.86     25.66 
 H(Fragment=2)         12.11     20.41     25.04 
 H(Fragment=2)         13.32     20.4      25.96 
 O(Fragment=2)         27.93     25.39     19.76 
 H(Fragment=2)         27.01     25.59     19.96 
 H(Fragment=2)         28.32     26.24     19.55 
 O(Fragment=2)         24.75     13.53     15.54 
 H(Fragment=2)         24.59     13.91     14.68 
 H(Fragment=2)         23.93     13.1      15.77 
 O(Fragment=2)         12.18     21.91     24.06 
 H(Fragment=2)         11.95     22.71     24.54 
 H(Fragment=2)         11.57     21.89     23.32 
 O(Fragment=2)         10.3      19.41     18.13 
 H(Fragment=2)         9.64      20.1      18.19 
 H(Fragment=2)         11.14     19.87     18.13 
 O(Fragment=2)         28.47     21.35     17.08 
 H(Fragment=2)         28.62     22.26     17.34 
 H(Fragment=2)         29.31     21.06     16.74 
 O(Fragment=2)         27.41     16.33     23.9 
 H(Fragment=2)         27.86     16.41     24.75 
 H(Fragment=2)         27.92     16.9      23.31 
 O(Fragment=2)         14.13     20.68     28.15 
 H(Fragment=2)         14.16     19.79     28.5 
 H(Fragment=2)         14.87     20.72     27.55 
 O(Fragment=2)         25.7      27.55     22.14 
 H(Fragment=2)         25.79     28.5      22.08 
 H(Fragment=2)         25.49     27.27     21.24 
 O(Fragment=2)         22.11     28.5      15.85 
 H(Fragment=2)         21.17     28.42     16.02 
 H(Fragment=2)         22.53     28.23     16.66 
 
 NAtoms=    385 NQM=      385 NQMF=       0 NMMI=      0 NMMIF=      0
                NMic=       0 NMicF=      0.
                    Isotopes and Nuclear Properties:
 (Nuclear quadrupole moments (NQMom) in fm**2, nuclear magnetic moments (NMagM)
  in nuclear magnetons)

  Atom         1           2           3           4           5           6           7           8           9          10
 IAtWgt=          79          16           1           1          16           1           1          16           1           1
 AtmWgt=  78.9183361  15.9949146   1.0078250   1.0078250  15.9949146   1.0078250   1.0078250  15.9949146   1.0078250   1.0078250
 NucSpn=           3           0           1           1           0           1           1           0           1           1
 AtZEff=   0.0000000   0.0000000   0.0000000   0.0000000   0.0000000   0.0000000   0.0000000   0.0000000   0.0000000   0.0000000
 NQMom=   31.3000000   0.0000000   0.0000000   0.0000000   0.0000000   0.0000000   0.0000000   0.0000000   0.0000000   0.0000000
 NMagM=    2.1063990   0.0000000   2.7928460   2.7928460   0.0000000   2.7928460   2.7928460   0.0000000   2.7928460   2.7928460
 AtZNuc=  35.0000000   8.0000000   1.0000000   1.0000000   8.0000000   1.0000000   1.0000000   8.0000000   1.0000000   1.0000000

  Atom        11          12          13          14          15          16          17          18          19          20
 IAtWgt=          16           1           1          16           1           1          16           1           1          16
 AtmWgt=  15.9949146   1.0078250   1.0078250  15.9949146   1.0078250   1.0078250  15.9949146   1.0078250   1.0078250  15.9949146
 NucSpn=           0           1           1           0           1           1           0           1           1           0
 AtZEff=   0.0000000   0.0000000   0.0000000   0.0000000   0.0000000   0.0000000   0.0000000   0.0000000   0.0000000   0.0000000
 NQMom=    0.0000000   0.0000000   0.0000000   0.0000000   0.0000000   0.0000000   0.0000000   0.0000000   0.0000000   0.0000000
 NMagM=    0.0000000   2.7928460   2.7928460   0.0000000   2.7928460   2.7928460   0.0000000   2.7928460   2.7928460   0.0000000
 AtZNuc=   8.0000000   1.0000000   1.0000000   8.0000000   1.0000000   1.0000000   8.0000000   1.0000000   1.0000000   8.0000000

  Atom        21          22          23          24          25          26          27          28          29          30
 IAtWgt=           1           1          16           1           1          16           1           1          16           1
 AtmWgt=   1.0078250   1.0078250  15.9949146   1.0078250   1.0078250  15.9949146   1.0078250   1.0078250  15.9949146   1.0078250
 NucSpn=           1           1           0           1           1           0           1           1           0           1
 AtZEff=   0.0000000   0.0000000   0.0000000   0.0000000   0.0000000   0.0000000   0.0000000   0.0000000   0.0000000   0.0000000
 NQMom=    0.0000000   0.0000000   0.0000000   0.0000000   0.0000000   0.0000000   0.0000000   0.0000000   0.0000000   0.0000000
 NMagM=    2.7928460   2.7928460   0.0000000   2.7928460   2.7928460   0.0000000   2.7928460   2.7928460   0.0000000   2.7928460
 AtZNuc=   1.0000000   1.0000000   8.0000000   1.0000000   1.0000000   8.0000000   1.0000000   1.0000000   8.0000000   1.0000000

  Atom        31          32          33          34          35          36          37          38          39          40
 IAtWgt=           1          16           1           1          16           1           1          16           1           1
 AtmWgt=   1.0078250  15.9949146   1.0078250   1.0078250  15.9949146   1.0078250   1.0078250  15.9949146   1.0078250   1.0078250
 NucSpn=           1           0           1           1           0           1           1           0           1           1
 AtZEff=   0.0000000   0.0000000   0.0000000   0.0000000   0.0000000   0.0000000   0.0000000   0.0000000   0.0000000   0.0000000
 NQMom=    0.0000000   0.0000000   0.0000000   0.0000000   0.0000000   0.0000000   0.0000000   0.0000000   0.0000000   0.0000000
 NMagM=    2.7928460   0.0000000   2.7928460   2.7928460   0.0000000   2.7928460   2.7928460   0.0000000   2.7928460   2.7928460
 AtZNuc=   1.0000000   8.0000000   1.0000000   1.0000000   8.0000000   1.0000000   1.0000000   8.0000000   1.0000000   1.0000000

  Atom        41          42          43          44          45          46          47          48          49          50
 IAtWgt=          16           1           1          16           1           1          16           1           1          16
 AtmWgt=  15.9949146   1.0078250   1.0078250  15.9949146   1.0078250   1.0078250  15.9949146   1.0078250   1.0078250  15.9949146
 NucSpn=           0           1           1           0           1           1           0           1           1           0
 AtZEff=   0.0000000   0.0000000   0.0000000   0.0000000   0.0000000   0.0000000   0.0000000   0.0000000   0.0000000   0.0000000
 NQMom=    0.0000000   0.0000000   0.0000000   0.0000000   0.0000000   0.0000000   0.0000000   0.0000000   0.0000000   0.0000000
 NMagM=    0.0000000   2.7928460   2.7928460   0.0000000   2.7928460   2.7928460   0.0000000   2.7928460   2.7928460   0.0000000
 AtZNuc=   8.0000000   1.0000000   1.0000000   8.0000000   1.0000000   1.0000000   8.0000000   1.0000000   1.0000000   8.0000000

  Atom        51          52          53          54          55          56          57          58          59          60
 IAtWgt=           1           1          16           1           1          16           1           1          16           1
 AtmWgt=   1.0078250   1.0078250  15.9949146   1.0078250   1.0078250  15.9949146   1.0078250   1.0078250  15.9949146   1.0078250
 NucSpn=           1           1           0           1           1           0           1           1           0           1
 AtZEff=   0.0000000   0.0000000   0.0000000   0.0000000   0.0000000   0.0000000   0.0000000   0.0000000   0.0000000   0.0000000
 NQMom=    0.0000000   0.0000000   0.0000000   0.0000000   0.0000000   0.0000000   0.0000000   0.0000000   0.0000000   0.0000000
 NMagM=    2.7928460   2.7928460   0.0000000   2.7928460   2.7928460   0.0000000   2.7928460   2.7928460   0.0000000   2.7928460
 AtZNuc=   1.0000000   1.0000000   8.0000000   1.0000000   1.0000000   8.0000000   1.0000000   1.0000000   8.0000000   1.0000000

  Atom        61          62          63          64          65          66          67          68          69          70
 IAtWgt=           1          16           1           1          16           1           1          16           1           1
 AtmWgt=   1.0078250  15.9949146   1.0078250   1.0078250  15.9949146   1.0078250   1.0078250  15.9949146   1.0078250   1.0078250
 NucSpn=           1           0           1           1           0           1           1           0           1           1
 AtZEff=   0.0000000   0.0000000   0.0000000   0.0000000   0.0000000   0.0000000   0.0000000   0.0000000   0.0000000   0.0000000
 NQMom=    0.0000000   0.0000000   0.0000000   0.0000000   0.0000000   0.0000000   0.0000000   0.0000000   0.0000000   0.0000000
 NMagM=    2.7928460   0.0000000   2.7928460   2.7928460   0.0000000   2.7928460   2.7928460   0.0000000   2.7928460   2.7928460
 AtZNuc=   1.0000000   8.0000000   1.0000000   1.0000000   8.0000000   1.0000000   1.0000000   8.0000000   1.0000000   1.0000000

  Atom        71          72          73          74          75          76          77          78          79          80
 IAtWgt=          16           1           1          16           1           1          16           1           1          16
 AtmWgt=  15.9949146   1.0078250   1.0078250  15.9949146   1.0078250   1.0078250  15.9949146   1.0078250   1.0078250  15.9949146
 NucSpn=           0           1           1           0           1           1           0           1           1           0
 AtZEff=   0.0000000   0.0000000   0.0000000   0.0000000   0.0000000   0.0000000   0.0000000   0.0000000   0.0000000   0.0000000
 NQMom=    0.0000000   0.0000000   0.0000000   0.0000000   0.0000000   0.0000000   0.0000000   0.0000000   0.0000000   0.0000000
 NMagM=    0.0000000   2.7928460   2.7928460   0.0000000   2.7928460   2.7928460   0.0000000   2.7928460   2.7928460   0.0000000
 AtZNuc=   8.0000000   1.0000000   1.0000000   8.0000000   1.0000000   1.0000000   8.0000000   1.0000000   1.0000000   8.0000000

  Atom        81          82          83          84          85          86          87          88          89          90
 IAtWgt=           1           1          16           1           1          16           1           1          16           1
 AtmWgt=   1.0078250   1.0078250  15.9949146   1.0078250   1.0078250  15.9949146   1.0078250   1.0078250  15.9949146   1.0078250
 NucSpn=           1           1           0           1           1           0           1           1           0           1
 AtZEff=   0.0000000   0.0000000   0.0000000   0.0000000   0.0000000   0.0000000   0.0000000   0.0000000   0.0000000   0.0000000
 NQMom=    0.0000000   0.0000000   0.0000000   0.0000000   0.0000000   0.0000000   0.0000000   0.0000000   0.0000000   0.0000000
 NMagM=    2.7928460   2.7928460   0.0000000   2.7928460   2.7928460   0.0000000   2.7928460   2.7928460   0.0000000   2.7928460
 AtZNuc=   1.0000000   1.0000000   8.0000000   1.0000000   1.0000000   8.0000000   1.0000000   1.0000000   8.0000000   1.0000000

  Atom        91          92          93          94          95          96          97          98          99         100
 IAtWgt=           1          16           1           1          16           1           1          16           1           1
 AtmWgt=   1.0078250  15.9949146   1.0078250   1.0078250  15.9949146   1.0078250   1.0078250  15.9949146   1.0078250   1.0078250
 NucSpn=           1           0           1           1           0           1           1           0           1           1
 AtZEff=   0.0000000   0.0000000   0.0000000   0.0000000   0.0000000   0.0000000   0.0000000   0.0000000   0.0000000   0.0000000
 NQMom=    0.0000000   0.0000000   0.0000000   0.0000000   0.0000000   0.0000000   0.0000000   0.0000000   0.0000000   0.0000000
 NMagM=    2.7928460   0.0000000   2.7928460   2.7928460   0.0000000   2.7928460   2.7928460   0.0000000   2.7928460   2.7928460
 AtZNuc=   1.0000000   8.0000000   1.0000000   1.0000000   8.0000000   1.0000000   1.0000000   8.0000000   1.0000000   1.0000000

  Atom       101         102         103         104         105         106         107         108         109         110
 IAtWgt=          16           1           1          16           1           1          16           1           1          16
 AtmWgt=  15.9949146   1.0078250   1.0078250  15.9949146   1.0078250   1.0078250  15.9949146   1.0078250   1.0078250  15.9949146
 NucSpn=           0           1           1           0           1           1           0           1           1           0
 AtZEff=   0.0000000   0.0000000   0.0000000   0.0000000   0.0000000   0.0000000   0.0000000   0.0000000   0.0000000   0.0000000
 NQMom=    0.0000000   0.0000000   0.0000000   0.0000000   0.0000000   0.0000000   0.0000000   0.0000000   0.0000000   0.0000000
 NMagM=    0.0000000   2.7928460   2.7928460   0.0000000   2.7928460   2.7928460   0.0000000   2.7928460   2.7928460   0.0000000
 AtZNuc=   8.0000000   1.0000000   1.0000000   8.0000000   1.0000000   1.0000000   8.0000000   1.0000000   1.0000000   8.0000000

  Atom       111         112         113         114         115         116         117         118         119         120
 IAtWgt=           1           1          16           1           1          16           1           1          16           1
 AtmWgt=   1.0078250   1.0078250  15.9949146   1.0078250   1.0078250  15.9949146   1.0078250   1.0078250  15.9949146   1.0078250
 NucSpn=           1           1           0           1           1           0           1           1           0           1
 AtZEff=   0.0000000   0.0000000   0.0000000   0.0000000   0.0000000   0.0000000   0.0000000   0.0000000   0.0000000   0.0000000
 NQMom=    0.0000000   0.0000000   0.0000000   0.0000000   0.0000000   0.0000000   0.0000000   0.0000000   0.0000000   0.0000000
 NMagM=    2.7928460   2.7928460   0.0000000   2.7928460   2.7928460   0.0000000   2.7928460   2.7928460   0.0000000   2.7928460
 AtZNuc=   1.0000000   1.0000000   8.0000000   1.0000000   1.0000000   8.0000000   1.0000000   1.0000000   8.0000000   1.0000000

  Atom       121         122         123         124         125         126         127         128         129         130
 IAtWgt=           1          16           1           1          16           1           1          16           1           1
 AtmWgt=   1.0078250  15.9949146   1.0078250   1.0078250  15.9949146   1.0078250   1.0078250  15.9949146   1.0078250   1.0078250
 NucSpn=           1           0           1           1           0           1           1           0           1           1
 AtZEff=   0.0000000   0.0000000   0.0000000   0.0000000   0.0000000   0.0000000   0.0000000   0.0000000   0.0000000   0.0000000
 NQMom=    0.0000000   0.0000000   0.0000000   0.0000000   0.0000000   0.0000000   0.0000000   0.0000000   0.0000000   0.0000000
 NMagM=    2.7928460   0.0000000   2.7928460   2.7928460   0.0000000   2.7928460   2.7928460   0.0000000   2.7928460   2.7928460
 AtZNuc=   1.0000000   8.0000000   1.0000000   1.0000000   8.0000000   1.0000000   1.0000000   8.0000000   1.0000000   1.0000000

  Atom       131         132         133         134         135         136         137         138         139         140
 IAtWgt=          16           1           1          16           1           1          16           1           1          16
 AtmWgt=  15.9949146   1.0078250   1.0078250  15.9949146   1.0078250   1.0078250  15.9949146   1.0078250   1.0078250  15.9949146
 NucSpn=           0           1           1           0           1           1           0           1           1           0
 AtZEff=   0.0000000   0.0000000   0.0000000   0.0000000   0.0000000   0.0000000   0.0000000   0.0000000   0.0000000   0.0000000
 NQMom=    0.0000000   0.0000000   0.0000000   0.0000000   0.0000000   0.0000000   0.0000000   0.0000000   0.0000000   0.0000000
 NMagM=    0.0000000   2.7928460   2.7928460   0.0000000   2.7928460   2.7928460   0.0000000   2.7928460   2.7928460   0.0000000
 AtZNuc=   8.0000000   1.0000000   1.0000000   8.0000000   1.0000000   1.0000000   8.0000000   1.0000000   1.0000000   8.0000000

  Atom       141         142         143         144         145         146         147         148         149         150
 IAtWgt=           1           1          16           1           1          16           1           1          16           1
 AtmWgt=   1.0078250   1.0078250  15.9949146   1.0078250   1.0078250  15.9949146   1.0078250   1.0078250  15.9949146   1.0078250
 NucSpn=           1           1           0           1           1           0           1           1           0           1
 AtZEff=   0.0000000   0.0000000   0.0000000   0.0000000   0.0000000   0.0000000   0.0000000   0.0000000   0.0000000   0.0000000
 NQMom=    0.0000000   0.0000000   0.0000000   0.0000000   0.0000000   0.0000000   0.0000000   0.0000000   0.0000000   0.0000000
 NMagM=    2.7928460   2.7928460   0.0000000   2.7928460   2.7928460   0.0000000   2.7928460   2.7928460   0.0000000   2.7928460
 AtZNuc=   1.0000000   1.0000000   8.0000000   1.0000000   1.0000000   8.0000000   1.0000000   1.0000000   8.0000000   1.0000000

  Atom       151         152         153         154         155         156         157         158         159         160
 IAtWgt=           1          16           1           1          16           1           1          16           1           1
 AtmWgt=   1.0078250  15.9949146   1.0078250   1.0078250  15.9949146   1.0078250   1.0078250  15.9949146   1.0078250   1.0078250
 NucSpn=           1           0           1           1           0           1           1           0           1           1
 AtZEff=   0.0000000   0.0000000   0.0000000   0.0000000   0.0000000   0.0000000   0.0000000   0.0000000   0.0000000   0.0000000
 NQMom=    0.0000000   0.0000000   0.0000000   0.0000000   0.0000000   0.0000000   0.0000000   0.0000000   0.0000000   0.0000000
 NMagM=    2.7928460   0.0000000   2.7928460   2.7928460   0.0000000   2.7928460   2.7928460   0.0000000   2.7928460   2.7928460
 AtZNuc=   1.0000000   8.0000000   1.0000000   1.0000000   8.0000000   1.0000000   1.0000000   8.0000000   1.0000000   1.0000000

  Atom       161         162         163         164         165         166         167         168         169         170
 IAtWgt=          16           1           1          16           1           1          16           1           1          16
 AtmWgt=  15.9949146   1.0078250   1.0078250  15.9949146   1.0078250   1.0078250  15.9949146   1.0078250   1.0078250  15.9949146
 NucSpn=           0           1           1           0           1           1           0           1           1           0
 AtZEff=   0.0000000   0.0000000   0.0000000   0.0000000   0.0000000   0.0000000   0.0000000   0.0000000   0.0000000   0.0000000
 NQMom=    0.0000000   0.0000000   0.0000000   0.0000000   0.0000000   0.0000000   0.0000000   0.0000000   0.0000000   0.0000000
 NMagM=    0.0000000   2.7928460   2.7928460   0.0000000   2.7928460   2.7928460   0.0000000   2.7928460   2.7928460   0.0000000
 AtZNuc=   8.0000000   1.0000000   1.0000000   8.0000000   1.0000000   1.0000000   8.0000000   1.0000000   1.0000000   8.0000000

  Atom       171         172         173         174         175         176         177         178         179         180
 IAtWgt=           1           1          16           1           1          16           1           1          16           1
 AtmWgt=   1.0078250   1.0078250  15.9949146   1.0078250   1.0078250  15.9949146   1.0078250   1.0078250  15.9949146   1.0078250
 NucSpn=           1           1           0           1           1           0           1           1           0           1
 AtZEff=   0.0000000   0.0000000   0.0000000   0.0000000   0.0000000   0.0000000   0.0000000   0.0000000   0.0000000   0.0000000
 NQMom=    0.0000000   0.0000000   0.0000000   0.0000000   0.0000000   0.0000000   0.0000000   0.0000000   0.0000000   0.0000000
 NMagM=    2.7928460   2.7928460   0.0000000   2.7928460   2.7928460   0.0000000   2.7928460   2.7928460   0.0000000   2.7928460
 AtZNuc=   1.0000000   1.0000000   8.0000000   1.0000000   1.0000000   8.0000000   1.0000000   1.0000000   8.0000000   1.0000000

  Atom       181         182         183         184         185         186         187         188         189         190
 IAtWgt=           1          16           1           1          16           1           1          16           1           1
 AtmWgt=   1.0078250  15.9949146   1.0078250   1.0078250  15.9949146   1.0078250   1.0078250  15.9949146   1.0078250   1.0078250
 NucSpn=           1           0           1           1           0           1           1           0           1           1
 AtZEff=   0.0000000   0.0000000   0.0000000   0.0000000   0.0000000   0.0000000   0.0000000   0.0000000   0.0000000   0.0000000
 NQMom=    0.0000000   0.0000000   0.0000000   0.0000000   0.0000000   0.0000000   0.0000000   0.0000000   0.0000000   0.0000000
 NMagM=    2.7928460   0.0000000   2.7928460   2.7928460   0.0000000   2.7928460   2.7928460   0.0000000   2.7928460   2.7928460
 AtZNuc=   1.0000000   8.0000000   1.0000000   1.0000000   8.0000000   1.0000000   1.0000000   8.0000000   1.0000000   1.0000000

  Atom       191         192         193         194         195         196         197         198         199         200
 IAtWgt=          16           1           1          16           1           1          16           1           1          16
 AtmWgt=  15.9949146   1.0078250   1.0078250  15.9949146   1.0078250   1.0078250  15.9949146   1.0078250   1.0078250  15.9949146
 NucSpn=           0           1           1           0           1           1           0           1           1           0
 AtZEff=   0.0000000   0.0000000   0.0000000   0.0000000   0.0000000   0.0000000   0.0000000   0.0000000   0.0000000   0.0000000
 NQMom=    0.0000000   0.0000000   0.0000000   0.0000000   0.0000000   0.0000000   0.0000000   0.0000000   0.0000000   0.0000000
 NMagM=    0.0000000   2.7928460   2.7928460   0.0000000   2.7928460   2.7928460   0.0000000   2.7928460   2.7928460   0.0000000
 AtZNuc=   8.0000000   1.0000000   1.0000000   8.0000000   1.0000000   1.0000000   8.0000000   1.0000000   1.0000000   8.0000000

  Atom       201         202         203         204         205         206         207         208         209         210
 IAtWgt=           1           1          16           1           1          16           1           1          16           1
 AtmWgt=   1.0078250   1.0078250  15.9949146   1.0078250   1.0078250  15.9949146   1.0078250   1.0078250  15.9949146   1.0078250
 NucSpn=           1           1           0           1           1           0           1           1           0           1
 AtZEff=   0.0000000   0.0000000   0.0000000   0.0000000   0.0000000   0.0000000   0.0000000   0.0000000   0.0000000   0.0000000
 NQMom=    0.0000000   0.0000000   0.0000000   0.0000000   0.0000000   0.0000000   0.0000000   0.0000000   0.0000000   0.0000000
 NMagM=    2.7928460   2.7928460   0.0000000   2.7928460   2.7928460   0.0000000   2.7928460   2.7928460   0.0000000   2.7928460
 AtZNuc=   1.0000000   1.0000000   8.0000000   1.0000000   1.0000000   8.0000000   1.0000000   1.0000000   8.0000000   1.0000000

  Atom       211         212         213         214         215         216         217         218         219         220
 IAtWgt=           1          16           1           1          16           1           1          16           1           1
 AtmWgt=   1.0078250  15.9949146   1.0078250   1.0078250  15.9949146   1.0078250   1.0078250  15.9949146   1.0078250   1.0078250
 NucSpn=           1           0           1           1           0           1           1           0           1           1
 AtZEff=   0.0000000   0.0000000   0.0000000   0.0000000   0.0000000   0.0000000   0.0000000   0.0000000   0.0000000   0.0000000
 NQMom=    0.0000000   0.0000000   0.0000000   0.0000000   0.0000000   0.0000000   0.0000000   0.0000000   0.0000000   0.0000000
 NMagM=    2.7928460   0.0000000   2.7928460   2.7928460   0.0000000   2.7928460   2.7928460   0.0000000   2.7928460   2.7928460
 AtZNuc=   1.0000000   8.0000000   1.0000000   1.0000000   8.0000000   1.0000000   1.0000000   8.0000000   1.0000000   1.0000000

  Atom       221         222         223         224         225         226         227         228         229         230
 IAtWgt=          16           1           1          16           1           1          16           1           1          16
 AtmWgt=  15.9949146   1.0078250   1.0078250  15.9949146   1.0078250   1.0078250  15.9949146   1.0078250   1.0078250  15.9949146
 NucSpn=           0           1           1           0           1           1           0           1           1           0
 AtZEff=   0.0000000   0.0000000   0.0000000   0.0000000   0.0000000   0.0000000   0.0000000   0.0000000   0.0000000   0.0000000
 NQMom=    0.0000000   0.0000000   0.0000000   0.0000000   0.0000000   0.0000000   0.0000000   0.0000000   0.0000000   0.0000000
 NMagM=    0.0000000   2.7928460   2.7928460   0.0000000   2.7928460   2.7928460   0.0000000   2.7928460   2.7928460   0.0000000
 AtZNuc=   8.0000000   1.0000000   1.0000000   8.0000000   1.0000000   1.0000000   8.0000000   1.0000000   1.0000000   8.0000000

  Atom       231         232         233         234         235         236         237         238         239         240
 IAtWgt=           1           1          16           1           1          16           1           1          16           1
 AtmWgt=   1.0078250   1.0078250  15.9949146   1.0078250   1.0078250  15.9949146   1.0078250   1.0078250  15.9949146   1.0078250
 NucSpn=           1           1           0           1           1           0           1           1           0           1
 AtZEff=   0.0000000   0.0000000   0.0000000   0.0000000   0.0000000   0.0000000   0.0000000   0.0000000   0.0000000   0.0000000
 NQMom=    0.0000000   0.0000000   0.0000000   0.0000000   0.0000000   0.0000000   0.0000000   0.0000000   0.0000000   0.0000000
 NMagM=    2.7928460   2.7928460   0.0000000   2.7928460   2.7928460   0.0000000   2.7928460   2.7928460   0.0000000   2.7928460
 AtZNuc=   1.0000000   1.0000000   8.0000000   1.0000000   1.0000000   8.0000000   1.0000000   1.0000000   8.0000000   1.0000000

  Atom       241         242         243         244         245         246         247         248         249         250
 IAtWgt=           1          16           1           1          16           1           1          16           1           1
 AtmWgt=   1.0078250  15.9949146   1.0078250   1.0078250  15.9949146   1.0078250   1.0078250  15.9949146   1.0078250   1.0078250
 NucSpn=           1           0           1           1           0           1           1           0           1           1
 AtZEff=   0.0000000   0.0000000   0.0000000   0.0000000   0.0000000   0.0000000   0.0000000   0.0000000   0.0000000   0.0000000
 NQMom=    0.0000000   0.0000000   0.0000000   0.0000000   0.0000000   0.0000000   0.0000000   0.0000000   0.0000000   0.0000000
 NMagM=    2.7928460   0.0000000   2.7928460   2.7928460   0.0000000   2.7928460   2.7928460   0.0000000   2.7928460   2.7928460
 AtZNuc=   1.0000000   8.0000000   1.0000000   1.0000000   8.0000000   1.0000000   1.0000000   8.0000000   1.0000000   1.0000000

  Atom       251         252         253         254         255         256         257         258         259         260
 IAtWgt=          16           1           1          16           1           1          16           1           1          16
 AtmWgt=  15.9949146   1.0078250   1.0078250  15.9949146   1.0078250   1.0078250  15.9949146   1.0078250   1.0078250  15.9949146
 NucSpn=           0           1           1           0           1           1           0           1           1           0
 AtZEff=   0.0000000   0.0000000   0.0000000   0.0000000   0.0000000   0.0000000   0.0000000   0.0000000   0.0000000   0.0000000
 NQMom=    0.0000000   0.0000000   0.0000000   0.0000000   0.0000000   0.0000000   0.0000000   0.0000000   0.0000000   0.0000000
 NMagM=    0.0000000   2.7928460   2.7928460   0.0000000   2.7928460   2.7928460   0.0000000   2.7928460   2.7928460   0.0000000
 AtZNuc=   8.0000000   1.0000000   1.0000000   8.0000000   1.0000000   1.0000000   8.0000000   1.0000000   1.0000000   8.0000000

  Atom       261         262         263         264         265         266         267         268         269         270
 IAtWgt=           1           1          16           1           1          16           1           1          16           1
 AtmWgt=   1.0078250   1.0078250  15.9949146   1.0078250   1.0078250  15.9949146   1.0078250   1.0078250  15.9949146   1.0078250
 NucSpn=           1           1           0           1           1           0           1           1           0           1
 AtZEff=   0.0000000   0.0000000   0.0000000   0.0000000   0.0000000   0.0000000   0.0000000   0.0000000   0.0000000   0.0000000
 NQMom=    0.0000000   0.0000000   0.0000000   0.0000000   0.0000000   0.0000000   0.0000000   0.0000000   0.0000000   0.0000000
 NMagM=    2.7928460   2.7928460   0.0000000   2.7928460   2.7928460   0.0000000   2.7928460   2.7928460   0.0000000   2.7928460
 AtZNuc=   1.0000000   1.0000000   8.0000000   1.0000000   1.0000000   8.0000000   1.0000000   1.0000000   8.0000000   1.0000000

  Atom       271         272         273         274         275         276         277         278         279         280
 IAtWgt=           1          16           1           1          16           1           1          16           1           1
 AtmWgt=   1.0078250  15.9949146   1.0078250   1.0078250  15.9949146   1.0078250   1.0078250  15.9949146   1.0078250   1.0078250
 NucSpn=           1           0           1           1           0           1           1           0           1           1
 AtZEff=   0.0000000   0.0000000   0.0000000   0.0000000   0.0000000   0.0000000   0.0000000   0.0000000   0.0000000   0.0000000
 NQMom=    0.0000000   0.0000000   0.0000000   0.0000000   0.0000000   0.0000000   0.0000000   0.0000000   0.0000000   0.0000000
 NMagM=    2.7928460   0.0000000   2.7928460   2.7928460   0.0000000   2.7928460   2.7928460   0.0000000   2.7928460   2.7928460
 AtZNuc=   1.0000000   8.0000000   1.0000000   1.0000000   8.0000000   1.0000000   1.0000000   8.0000000   1.0000000   1.0000000

  Atom       281         282         283         284         285         286         287         288         289         290
 IAtWgt=          16           1           1          16           1           1          16           1           1          16
 AtmWgt=  15.9949146   1.0078250   1.0078250  15.9949146   1.0078250   1.0078250  15.9949146   1.0078250   1.0078250  15.9949146
 NucSpn=           0           1           1           0           1           1           0           1           1           0
 AtZEff=   0.0000000   0.0000000   0.0000000   0.0000000   0.0000000   0.0000000   0.0000000   0.0000000   0.0000000   0.0000000
 NQMom=    0.0000000   0.0000000   0.0000000   0.0000000   0.0000000   0.0000000   0.0000000   0.0000000   0.0000000   0.0000000
 NMagM=    0.0000000   2.7928460   2.7928460   0.0000000   2.7928460   2.7928460   0.0000000   2.7928460   2.7928460   0.0000000
 AtZNuc=   8.0000000   1.0000000   1.0000000   8.0000000   1.0000000   1.0000000   8.0000000   1.0000000   1.0000000   8.0000000

  Atom       291         292         293         294         295         296         297         298         299         300
 IAtWgt=           1           1          16           1           1          16           1           1          16           1
 AtmWgt=   1.0078250   1.0078250  15.9949146   1.0078250   1.0078250  15.9949146   1.0078250   1.0078250  15.9949146   1.0078250
 NucSpn=           1           1           0           1           1           0           1           1           0           1
 AtZEff=   0.0000000   0.0000000   0.0000000   0.0000000   0.0000000   0.0000000   0.0000000   0.0000000   0.0000000   0.0000000
 NQMom=    0.0000000   0.0000000   0.0000000   0.0000000   0.0000000   0.0000000   0.0000000   0.0000000   0.0000000   0.0000000
 NMagM=    2.7928460   2.7928460   0.0000000   2.7928460   2.7928460   0.0000000   2.7928460   2.7928460   0.0000000   2.7928460
 AtZNuc=   1.0000000   1.0000000   8.0000000   1.0000000   1.0000000   8.0000000   1.0000000   1.0000000   8.0000000   1.0000000

  Atom       301         302         303         304         305         306         307         308         309         310
 IAtWgt=           1          16           1           1          16           1           1          16           1           1
 AtmWgt=   1.0078250  15.9949146   1.0078250   1.0078250  15.9949146   1.0078250   1.0078250  15.9949146   1.0078250   1.0078250
 NucSpn=           1           0           1           1           0           1           1           0           1           1
 AtZEff=   0.0000000   0.0000000   0.0000000   0.0000000   0.0000000   0.0000000   0.0000000   0.0000000   0.0000000   0.0000000
 NQMom=    0.0000000   0.0000000   0.0000000   0.0000000   0.0000000   0.0000000   0.0000000   0.0000000   0.0000000   0.0000000
 NMagM=    2.7928460   0.0000000   2.7928460   2.7928460   0.0000000   2.7928460   2.7928460   0.0000000   2.7928460   2.7928460
 AtZNuc=   1.0000000   8.0000000   1.0000000   1.0000000   8.0000000   1.0000000   1.0000000   8.0000000   1.0000000   1.0000000

  Atom       311         312         313         314         315         316         317         318         319         320
 IAtWgt=          16           1           1          16           1           1          16           1           1          16
 AtmWgt=  15.9949146   1.0078250   1.0078250  15.9949146   1.0078250   1.0078250  15.9949146   1.0078250   1.0078250  15.9949146
 NucSpn=           0           1           1           0           1           1           0           1           1           0
 AtZEff=   0.0000000   0.0000000   0.0000000   0.0000000   0.0000000   0.0000000   0.0000000   0.0000000   0.0000000   0.0000000
 NQMom=    0.0000000   0.0000000   0.0000000   0.0000000   0.0000000   0.0000000   0.0000000   0.0000000   0.0000000   0.0000000
 NMagM=    0.0000000   2.7928460   2.7928460   0.0000000   2.7928460   2.7928460   0.0000000   2.7928460   2.7928460   0.0000000
 AtZNuc=   8.0000000   1.0000000   1.0000000   8.0000000   1.0000000   1.0000000   8.0000000   1.0000000   1.0000000   8.0000000

  Atom       321         322         323         324         325         326         327         328         329         330
 IAtWgt=           1           1          16           1           1          16           1           1          16           1
 AtmWgt=   1.0078250   1.0078250  15.9949146   1.0078250   1.0078250  15.9949146   1.0078250   1.0078250  15.9949146   1.0078250
 NucSpn=           1           1           0           1           1           0           1           1           0           1
 AtZEff=   0.0000000   0.0000000   0.0000000   0.0000000   0.0000000   0.0000000   0.0000000   0.0000000   0.0000000   0.0000000
 NQMom=    0.0000000   0.0000000   0.0000000   0.0000000   0.0000000   0.0000000   0.0000000   0.0000000   0.0000000   0.0000000
 NMagM=    2.7928460   2.7928460   0.0000000   2.7928460   2.7928460   0.0000000   2.7928460   2.7928460   0.0000000   2.7928460
 AtZNuc=   1.0000000   1.0000000   8.0000000   1.0000000   1.0000000   8.0000000   1.0000000   1.0000000   8.0000000   1.0000000

  Atom       331         332         333         334         335         336         337         338         339         340
 IAtWgt=           1          16           1           1          16           1           1          16           1           1
 AtmWgt=   1.0078250  15.9949146   1.0078250   1.0078250  15.9949146   1.0078250   1.0078250  15.9949146   1.0078250   1.0078250
 NucSpn=           1           0           1           1           0           1           1           0           1           1
 AtZEff=   0.0000000   0.0000000   0.0000000   0.0000000   0.0000000   0.0000000   0.0000000   0.0000000   0.0000000   0.0000000
 NQMom=    0.0000000   0.0000000   0.0000000   0.0000000   0.0000000   0.0000000   0.0000000   0.0000000   0.0000000   0.0000000
 NMagM=    2.7928460   0.0000000   2.7928460   2.7928460   0.0000000   2.7928460   2.7928460   0.0000000   2.7928460   2.7928460
 AtZNuc=   1.0000000   8.0000000   1.0000000   1.0000000   8.0000000   1.0000000   1.0000000   8.0000000   1.0000000   1.0000000

  Atom       341         342         343         344         345         346         347         348         349         350
 IAtWgt=          16           1           1          16           1           1          16           1           1          16
 AtmWgt=  15.9949146   1.0078250   1.0078250  15.9949146   1.0078250   1.0078250  15.9949146   1.0078250   1.0078250  15.9949146
 NucSpn=           0           1           1           0           1           1           0           1           1           0
 AtZEff=   0.0000000   0.0000000   0.0000000   0.0000000   0.0000000   0.0000000   0.0000000   0.0000000   0.0000000   0.0000000
 NQMom=    0.0000000   0.0000000   0.0000000   0.0000000   0.0000000   0.0000000   0.0000000   0.0000000   0.0000000   0.0000000
 NMagM=    0.0000000   2.7928460   2.7928460   0.0000000   2.7928460   2.7928460   0.0000000   2.7928460   2.7928460   0.0000000
 AtZNuc=   8.0000000   1.0000000   1.0000000   8.0000000   1.0000000   1.0000000   8.0000000   1.0000000   1.0000000   8.0000000

  Atom       351         352         353         354         355         356         357         358         359         360
 IAtWgt=           1           1          16           1           1          16           1           1          16           1
 AtmWgt=   1.0078250   1.0078250  15.9949146   1.0078250   1.0078250  15.9949146   1.0078250   1.0078250  15.9949146   1.0078250
 NucSpn=           1           1           0           1           1           0           1           1           0           1
 AtZEff=   0.0000000   0.0000000   0.0000000   0.0000000   0.0000000   0.0000000   0.0000000   0.0000000   0.0000000   0.0000000
 NQMom=    0.0000000   0.0000000   0.0000000   0.0000000   0.0000000   0.0000000   0.0000000   0.0000000   0.0000000   0.0000000
 NMagM=    2.7928460   2.7928460   0.0000000   2.7928460   2.7928460   0.0000000   2.7928460   2.7928460   0.0000000   2.7928460
 AtZNuc=   1.0000000   1.0000000   8.0000000   1.0000000   1.0000000   8.0000000   1.0000000   1.0000000   8.0000000   1.0000000

  Atom       361         362         363         364         365         366         367         368         369         370
 IAtWgt=           1          16           1           1          16           1           1          16           1           1
 AtmWgt=   1.0078250  15.9949146   1.0078250   1.0078250  15.9949146   1.0078250   1.0078250  15.9949146   1.0078250   1.0078250
 NucSpn=           1           0           1           1           0           1           1           0           1           1
 AtZEff=   0.0000000   0.0000000   0.0000000   0.0000000   0.0000000   0.0000000   0.0000000   0.0000000   0.0000000   0.0000000
 NQMom=    0.0000000   0.0000000   0.0000000   0.0000000   0.0000000   0.0000000   0.0000000   0.0000000   0.0000000   0.0000000
 NMagM=    2.7928460   0.0000000   2.7928460   2.7928460   0.0000000   2.7928460   2.7928460   0.0000000   2.7928460   2.7928460
 AtZNuc=   1.0000000   8.0000000   1.0000000   1.0000000   8.0000000   1.0000000   1.0000000   8.0000000   1.0000000   1.0000000

  Atom       371         372         373         374         375         376         377         378         379         380
 IAtWgt=          16           1           1          16           1           1          16           1           1          16
 AtmWgt=  15.9949146   1.0078250   1.0078250  15.9949146   1.0078250   1.0078250  15.9949146   1.0078250   1.0078250  15.9949146
 NucSpn=           0           1           1           0           1           1           0           1           1           0
 AtZEff=   0.0000000   0.0000000   0.0000000   0.0000000   0.0000000   0.0000000   0.0000000   0.0000000   0.0000000   0.0000000
 NQMom=    0.0000000   0.0000000   0.0000000   0.0000000   0.0000000   0.0000000   0.0000000   0.0000000   0.0000000   0.0000000
 NMagM=    0.0000000   2.7928460   2.7928460   0.0000000   2.7928460   2.7928460   0.0000000   2.7928460   2.7928460   0.0000000
 AtZNuc=   8.0000000   1.0000000   1.0000000   8.0000000   1.0000000   1.0000000   8.0000000   1.0000000   1.0000000   8.0000000

  Atom       381         382         383         384         385
 IAtWgt=           1           1          16           1           1
 AtmWgt=   1.0078250   1.0078250  15.9949146   1.0078250   1.0078250
 NucSpn=           1           1           0           1           1
 AtZEff=   0.0000000   0.0000000   0.0000000   0.0000000   0.0000000
 NQMom=    0.0000000   0.0000000   0.0000000   0.0000000   0.0000000
 NMagM=    2.7928460   2.7928460   0.0000000   2.7928460   2.7928460
 AtZNuc=   1.0000000   1.0000000   8.0000000   1.0000000   1.0000000
 Leave Link  101 at Tue May 15 16:17:29 2018, MaxMem= 14763950080 cpu:        34.9
 (Enter /cm/shared/gaussian/g09.e01/intel64-sandybridge/g09/l103.exe)

 GradGradGradGradGradGradGradGradGradGradGradGradGradGradGradGradGradGrad
 Berny optimization.
 Initialization pass.
 Trust Radius=3.00D-01 FncErr=1.00D-07 GrdErr=1.00D-07
 Number of steps in this run=      2 maximum allowed number of steps=      2.
 GradGradGradGradGradGradGradGradGradGradGradGradGradGradGradGradGradGrad

 Leave Link  103 at Tue May 15 16:17:29 2018, MaxMem= 14763950080 cpu:         3.8
 (Enter /cm/shared/gaussian/g09.e01/intel64-sandybridge/g09/l202.exe)
 Symmetry turned off by external request.
 Stoichiometry    BrH256O128(1-)
 Framework group  C1[X(BrH256O128)]
 Deg. of freedom  1149
 Full point group                 C1      NOp   1
                          Input orientation:                          
 ---------------------------------------------------------------------
 Center     Atomic      Atomic             Coordinates (Angstroms)
 Number     Number       Type             X           Y           Z
 ---------------------------------------------------------------------
      1         35           0       20.000000   20.000000   20.000000
      2          8           0       21.320000   22.780000   19.350000
      3          1           0       20.990000   21.950000   19.690000
      4          1           0       22.240000   22.800000   19.630000
      5          8           0       22.740000   18.490000   20.560000
      6          1           0       23.450000   18.960000   20.120000
      7          1           0       21.950000   18.980000   20.320000
      8          8           0       19.940000   20.730000   16.850000
      9          1           0       19.040000   21.030000   16.800000
     10          1           0       20.000000   20.290000   17.700000
     11          8           0       18.430000   17.050000   20.600000
     12          1           0       19.050000   16.490000   20.130000
     13          1           0       18.840000   17.910000   20.620000
     14          8           0       16.760000   20.860000   20.780000
     15          1           0       16.540000   21.630000   20.250000
     16          1           0       17.520000   20.470000   20.330000
     17          8           0       21.630000   17.030000   17.440000
     18          1           0       22.520000   17.120000   17.780000
     19          1           0       21.270000   17.920000   17.470000
     20          8           0       20.700000   22.060000   23.720000
     21          1           0       21.560000   22.480000   23.810000
     22          1           0       20.880000   21.250000   23.240000
     23          8           0       23.680000   20.080000   18.570000
     24          1           0       24.010000   20.020000   17.680000
     25          1           0       23.260000   20.940000   18.610000
     26          8           0       21.350000   16.450000   22.240000
     27          1           0       21.490000   15.680000   21.690000
     28          1           0       21.760000   17.170000   21.750000
     29          8           0       18.310000   22.950000   22.450000
     30          1           0       17.640000   22.360000   22.800000
     31          1           0       19.140000   22.560000   22.720000
     32          8           0       17.160000   17.330000   17.910000
     33          1           0       17.300000   18.280000   17.860000
     34          1           0       16.220000   17.220000   17.760000
     35          8           0       16.150000   18.180000   21.530000
     36          1           0       16.430000   19.090000   21.420000
     37          1           0       16.890000   17.660000   21.210000
     38          8           0       19.240000   24.470000   19.840000
     39          1           0       19.960000   23.990000   19.440000
     40          1           0       18.790000   23.810000   20.380000
     41          8           0       22.310000   22.140000   16.490000
     42          1           0       22.320000   22.720000   17.260000
     43          1           0       21.550000   21.570000   16.630000
     44          8           0       16.990000   20.440000   17.220000
     45          1           0       16.970000   20.670000   16.300000
     46          1           0       16.400000   21.060000   17.650000
     47          8           0       19.310000   17.470000   23.910000
     48          1           0       19.430000   18.410000   23.820000
     49          1           0       20.050000   17.080000   23.450000
     50          8           0       18.490000   20.650000   24.440000
     51          1           0       19.220000   21.110000   24.040000
     52          1           0       18.480000   20.940000   25.350000
     53          8           0       15.910000   20.340000   23.270000
     54          1           0       16.180000   20.620000   22.400000
     55          1           0       16.720000   20.070000   23.700000
     56          8           0       19.280000   15.580000   18.280000
     57          1           0       19.840000   16.050000   17.670000
     58          1           0       18.450000   16.050000   18.260000
     59          8           0       24.100000   22.660000   19.740000
     60          1           0       24.470000   22.900000   20.590000
     61          1           0       24.850000   22.680000   19.140000
     62          8           0       20.210000   20.730000   14.140000
     63          1           0       20.300000   20.640000   15.090000
     64          1           0       19.270000   20.740000   13.980000
     65          8           0       15.590000   22.460000   18.780000
     66          1           0       15.470000   23.390000   18.570000
     67          1           0       14.810000   22.030000   18.440000
     68          8           0       22.420000   17.830000   14.790000
     69          1           0       23.080000   18.360000   15.230000
     70          1           0       21.750000   17.680000   15.450000
     71          8           0       17.810000   14.040000   20.000000
     72          1           0       18.140000   14.690000   19.380000
     73          1           0       18.430000   14.060000   20.720000
     74          8           0       18.020000   25.960000   17.970000
     75          1           0       18.090000   25.190000   18.540000
     76          1           0       18.690000   25.820000   17.300000
     77          8           0       18.730000   18.170000   14.530000
     78          1           0       18.900000   17.230000   14.510000
     79          1           0       17.870000   18.250000   14.940000
     80          8           0       25.250000   19.410000   22.710000
     81          1           0       25.420000   19.190000   21.800000
     82          1           0       25.000000   18.580000   23.120000
     83          8           0       24.520000   16.290000   17.670000
     84          1           0       24.620000   17.220000   17.880000
     85          1           0       24.810000   15.840000   18.460000
     86          8           0       15.720000   24.520000   21.350000
     87          1           0       16.560000   24.400000   21.780000
     88          1           0       15.770000   25.390000   20.960000
     89          8           0       18.520000   25.680000   23.560000
     90          1           0       18.840000   24.950000   23.030000
     91          1           0       19.310000   26.140000   23.840000
     92          8           0       21.110000   26.480000   20.190000
     93          1           0       21.470000   26.610000   19.310000
     94          1           0       20.360000   25.910000   20.060000
     95          8           0       24.270000   19.520000   15.810000
     96          1           0       24.570000   20.430000   15.790000
     97          1           0       25.020000   19.030000   16.140000
     98          8           0       15.170000   15.660000   21.670000
     99          1           0       16.070000   15.360000   21.820000
    100          1           0       15.250000   16.610000   21.600000
    101          8           0       13.990000   18.180000   23.110000
    102          1           0       14.800000   18.210000   22.600000
    103          1           0       13.880000   19.070000   23.450000
    104          8           0       16.580000   17.280000   24.830000
    105          1           0       17.540000   17.320000   24.880000
    106          1           0       16.320000   18.170000   24.600000
    107          8           0       16.130000   18.390000   15.060000
    108          1           0       15.950000   17.460000   15.160000
    109          1           0       15.700000   18.800000   15.820000
    110          8           0       14.220000   18.340000   17.880000
    111          1           0       14.060000   19.120000   17.350000
    112          1           0       14.140000   18.640000   18.780000
    113          8           0       17.120000   21.840000   14.860000
    114          1           0       16.270000   22.260000   14.710000
    115          1           0       17.760000   22.540000   14.720000
    116          8           0       22.930000   21.420000   13.820000
    117          1           0       22.200000   20.810000   13.810000
    118          1           0       22.980000   21.720000   14.730000
    119          8           0       20.710000   17.700000   26.550000
    120          1           0       20.400000   17.370000   25.710000
    121          1           0       20.100000   17.310000   27.190000
    122          8           0       20.430000   23.670000   26.240000
    123          1           0       20.110000   22.980000   26.820000
    124          1           0       20.390000   23.290000   25.360000
    125          8           0       21.400000   26.220000   22.800000
    126          1           0       21.720000   27.090000   22.580000
    127          1           0       20.990000   25.900000   22.000000
    128          8           0       22.840000   14.140000   17.770000
    129          1           0       22.040000   14.550000   17.450000
    130          1           0       23.520000   14.800000   17.630000
    131          8           0       13.830000   22.310000   21.720000
    132          1           0       14.470000   23.000000   21.540000
    133          1           0       13.980000   22.100000   22.650000
    134          8           0       22.150000   13.890000   21.080000
    135          1           0       22.110000   12.970000   21.350000
    136          1           0       22.110000   13.860000   20.120000
    137          8           0       13.080000   20.200000   20.220000
    138          1           0       12.380000   19.890000   20.790000
    139          1           0       13.600000   20.790000   20.780000
    140          8           0       25.020000   23.910000   21.990000
    141          1           0       25.540000   23.220000   22.390000
    142          1           0       24.330000   24.090000   22.630000
    143          8           0       21.090000   24.880000   14.830000
    144          1           0       21.630000   24.540000   15.540000
    145          1           0       21.490000   25.720000   14.610000
    146          8           0       24.860000   16.880000   23.460000
    147          1           0       25.720000   16.470000   23.590000
    148          1           0       24.300000   16.160000   23.170000
    149          8           0       23.010000   25.400000   17.700000
    150          1           0       23.830000   24.900000   17.730000
    151          1           0       23.270000   26.310000   17.840000
    152          8           0       23.020000   23.880000   24.470000
    153          1           0       22.600000   24.740000   24.460000
    154          1           0       22.770000   23.500000   25.310000
    155          8           0       19.520000   14.590000   24.710000
    156          1           0       19.260000   15.500000   24.880000
    157          1           0       19.190000   14.100000   25.460000
    158          8           0       17.400000   14.580000   23.060000
    159          1           0       18.250000   14.570000   23.510000
    160          1           0       16.880000   15.220000   23.540000
    161          8           0       26.900000   18.100000   20.230000
    162          1           0       27.580000   17.560000   19.820000
    163          1           0       26.210000   17.490000   20.460000
    164          8           0       15.130000   21.260000   25.720000
    165          1           0       15.970000   21.610000   26.030000
    166          1           0       15.330000   20.890000   24.850000
    167          8           0       20.680000   14.200000   16.080000
    168          1           0       20.450000   14.720000   15.310000
    169          1           0       19.860000   14.120000   16.570000
    170          8           0       20.030000   20.620000   26.960000
    171          1           0       19.810000   20.780000   27.880000
    172          1           0       19.930000   19.670000   26.850000
    173          8           0       25.540000   15.390000   19.990000
    174          1           0       26.440000   15.160000   20.230000
    175          1           0       25.060000   15.340000   20.820000
    176          8           0       17.590000   24.360000   25.560000
    177          1           0       17.530000   25.130000   26.130000
    178          1           0       17.810000   24.710000   24.700000
    179          8           0       13.230000   21.460000   17.770000
    180          1           0       12.570000   22.140000   17.920000
    181          1           0       13.150000   20.880000   18.530000
    182          8           0       25.620000   24.050000   17.860000
    183          1           0       25.890000   24.840000   17.380000
    184          1           0       25.680000   23.350000   17.210000
    185          8           0       26.670000   22.030000   23.180000
    186          1           0       27.400000   22.170000   22.580000
    187          1           0       26.430000   21.110000   23.070000
    188          8           0       15.760000   25.190000   17.000000
    189          1           0       14.970000   25.730000   17.030000
    190          1           0       16.430000   25.720000   17.440000
    191          8           0       25.810000   21.650000   16.030000
    192          1           0       26.660000   21.770000   16.450000
    193          1           0       25.850000   22.190000   15.240000
    194          8           0       25.050000   25.880000   20.180000
    195          1           0       24.870000   25.450000   21.010000
    196          1           0       25.030000   25.170000   19.530000
    197          8           0       25.600000   20.510000   25.620000
    198          1           0       24.890000   21.140000   25.700000
    199          1           0       25.440000   20.060000   24.790000
    200          8           0       21.570000   18.160000   12.260000
    201          1           0       21.740000   18.050000   13.200000
    202          1           0       21.990000   18.980000   12.030000
    203          8           0       24.550000   14.270000   22.530000
    204          1           0       23.740000   14.040000   22.080000
    205          1           0       24.670000   13.580000   23.180000
    206          8           0       18.860000   15.400000   14.370000
    207          1           0       17.990000   15.180000   14.680000
[...]
   X336      44.67313   0.00822   0.00000   0.00947   0.00847  44.68160
   Y336      52.91233  -0.00115   0.00000  -0.00164  -0.00106  52.91127
   Z336      35.86700   0.00946   0.00000   0.01291   0.01298  35.87998
   X337      42.04641  -0.00881   0.00000  -0.00958  -0.01063  42.03578
   Y337      53.85719   0.00437   0.00000   0.00453   0.00489  53.86209
   Z337      35.26229   0.00361   0.00000   0.00563   0.00557  35.26786
   X338      27.96795   0.00039   0.00000   0.00117   0.00019  27.96814
   Y338      45.22115   0.01589   0.00000   0.01223   0.01183  45.23298
   Z338      50.19113   0.00666   0.00000   0.00384   0.00340  50.19453
   X339      28.08133  -0.00478   0.00000  -0.00880  -0.00961  28.07172
   Y339      43.50150  -0.01067   0.00000  -0.00309  -0.00350  43.49799
   Z339      49.62421  -0.00521   0.00000  -0.00413  -0.00452  49.61969
   X340      28.98840  -0.00379   0.00000  -0.00334  -0.00438  28.98402
   Y340      45.25894  -0.00281   0.00000  -0.00396  -0.00425  45.25469
   Z340      51.70291  -0.00160   0.00000   0.00134   0.00095  51.70385
   X341      45.35343   0.00779   0.00000   0.00934   0.00959  45.36301
   Y341      44.04952   0.01205   0.00000   0.00742   0.00776  44.05727
   Z341      22.50664  -0.00537   0.00000  -0.00035  -0.00005  22.50659
   X342      44.84320  -0.00798   0.00000  -0.01000  -0.00974  44.83347
   Y342      43.06686  -0.01013   0.00000  -0.00825  -0.00793  43.05893
   Z342      23.94283   0.00659   0.00000   0.00082   0.00112  23.94395
   X343      45.78806  -0.00182   0.00000  -0.00362  -0.00323  45.78484
   Y343      42.82119  -0.00398   0.00000  -0.00363  -0.00330  42.81790
   Z343      21.24052   0.00041   0.00000   0.00141   0.00175  21.24227
   X344      41.46059  -0.00161   0.00000   0.00487   0.00363  41.46422
   Y344      47.18646   0.00580   0.00000   0.00215   0.00287  47.18933
   Z344      52.85564   0.01762   0.00000   0.01813   0.01820  52.87384
   X345      40.36455   0.00530   0.00000   0.01088   0.00977  40.37432
   Y345      46.05263   0.00153   0.00000   0.00632   0.00693  46.05956
   Z345      51.94857  -0.00685   0.00000  -0.00677  -0.00672  51.94185
   X346      43.01017   0.00496   0.00000   0.00234   0.00114  43.01131
   Y346      47.12977   0.00007   0.00000   0.00182   0.00264  47.13241
   Z346      51.92967  -0.00695   0.00000  -0.00511  -0.00498  51.92470
   X347      33.65602   0.00143   0.00000  -0.00023   0.00136  33.65738
   Y347      20.08779  -0.00742   0.00000  -0.00512  -0.00540  20.08239
   Z347      35.94259   0.00662   0.00000   0.00436   0.00473  35.94732
   X348      32.74895  -0.00245   0.00000  -0.00363  -0.00193  32.74702
   Y348      19.36969   0.00140   0.00000   0.00324   0.00285  19.37255
   Z348      34.54419  -0.00301   0.00000  -0.00233  -0.00197  34.54222
   X349      34.10956   0.00164   0.00000   0.00010   0.00158  34.11113
   Y349      21.75075   0.00673   0.00000   0.00396   0.00370  21.75445
   Z349      35.39457   0.00002   0.00000   0.00305   0.00340  35.39797
   X350      40.19447   0.01176   0.00000   0.00427   0.00544  40.19992
   Y350      21.80744   0.00528   0.00000   0.00455   0.00494  21.81238
   Z350      42.84009  -0.00521   0.00000  -0.00347  -0.00287  42.83722
   X351      40.72360   0.00049   0.00000  -0.00090   0.00036  40.72396
   Y351      20.25786  -0.00351   0.00000  -0.00169  -0.00124  20.25663
   Z351      43.61488   0.00196   0.00000   0.00046   0.00111  43.61599
   X352      38.43703  -0.01698   0.00000  -0.01495  -0.01381  38.42322
   Y352      21.97751  -0.00051   0.00000  -0.00187  -0.00161  21.97591
   Z352      43.27473  -0.00433   0.00000  -0.01146  -0.01094  43.26379
   X353      23.84834   0.00465   0.00000  -0.00088  -0.00004  23.84830
   Y353      34.44971  -0.01443   0.00000  -0.01104  -0.01231  34.43740
   Z353      26.45617  -0.01864   0.00000  -0.01470  -0.01505  26.44111
   X354      25.07667  -0.00241   0.00000  -0.00679  -0.00607  25.07060
   Y354      35.73472   0.00191   0.00000  -0.00190  -0.00307  35.73165
   Z354      26.81521   0.00692   0.00000   0.00782   0.00749  26.82270
   X355      22.54443  -0.00490   0.00000   0.00075   0.00152  22.54595
   Y355      34.71427   0.00544   0.00000   0.00481   0.00346  34.71773
   Z355      27.66559   0.01157   0.00000   0.00776   0.00735  27.67294
   X356      23.77275   0.00397   0.00000   0.00473   0.00444  23.77719
   Y356      37.52996  -0.02619   0.00000  -0.02361  -0.02438  37.50558
   Z356      48.49037   0.00662   0.00000   0.00089   0.00046  48.49083
   X357      22.88458  -0.00163   0.00000   0.00399   0.00365  22.88824
   Y357      38.56931   0.01237   0.00000   0.00853   0.00766  38.57697
   Z357      47.31874  -0.00598   0.00000   0.00136   0.00087  47.31962
   X358      25.17115  -0.00044   0.00000  -0.00462  -0.00502  25.16613
   Y358      38.55041   0.00353   0.00000   0.00007  -0.00058  38.54983
   Z358      49.05729   0.00272   0.00000   0.00475   0.00435  49.06164
   X359      52.78005   0.00546   0.00000  -0.00025  -0.00091  52.77914
   Y359      47.98015  -0.01077   0.00000  -0.01027  -0.00901  47.97114
   Z359      37.34099  -0.00578   0.00000  -0.00931  -0.00880  37.33218
   X360      51.04150  -0.01209   0.00000  -0.00777  -0.00849  51.03302
   Y360      48.35809   0.00607   0.00000   0.00567   0.00680  48.36489
   Z360      37.71893   0.00599   0.00000   0.00735   0.00778  37.72671
   X361      53.51704   0.00243   0.00000   0.00301   0.00223  53.51928
   Y361      49.58641   0.00367   0.00000  -0.00086   0.00045  49.58686
   Z361      36.94415   0.00161   0.00000   0.00363   0.00413  36.94827
   X362      46.77072   0.02594   0.00000   0.01522   0.01664  46.78737
   Y362      25.56799   0.00991   0.00000   0.00958   0.01018  25.57818
   Z362      29.36634   0.00831   0.00000   0.00519   0.00597  29.37232
   X363      46.46837  -0.00333   0.00000  -0.00223  -0.00079  46.46757
   Y363      26.28609   0.00780   0.00000   0.00865   0.00919  26.29528
   Z363      27.74118  -0.01025   0.00000  -0.00646  -0.00571  27.73546
   X364      45.22115  -0.01601   0.00000  -0.00623  -0.00476  45.21638
   Y364      24.75541  -0.01248   0.00000  -0.01113  -0.01064  24.74477
   Z364      29.80098  -0.00073   0.00000  -0.00545  -0.00471  29.79627
   X365      23.01686   0.00466   0.00000   0.00367   0.00319  23.02006
   Y365      41.40390   0.00028   0.00000   0.00518   0.00427  41.40817
   Z365      45.46681  -0.00284   0.00000  -0.00673  -0.00728  45.45953
   X366      22.58223  -0.00026   0.00000   0.00078   0.00015  22.58238
   Y366      42.91568   0.00413   0.00000   0.00403   0.00312  42.91880
   Z366      46.37388   0.00288   0.00000   0.00293   0.00233  46.37621
   X367      21.86413  -0.00528   0.00000  -0.00449  -0.00491  21.85922
   Y367      41.36611   0.00175   0.00000   0.00393   0.00290  41.36901
   Z367      44.06841  -0.00883   0.00000  -0.00923  -0.00983  44.05859
   X368      19.46418  -0.00118   0.00000  -0.00158  -0.00123  19.46295
   Y368      36.67958  -0.01207   0.00000  -0.00637  -0.00781  36.67177
   Z368      34.26073  -0.00159   0.00000  -0.00100  -0.00159  34.25915
   X369      18.21696  -0.00159   0.00000   0.00140   0.00164  18.21860
   Y369      37.98350   0.00790   0.00000   0.00753   0.00599  37.98949
   Z369      34.37412   0.00214   0.00000   0.00351   0.00284  34.37696
   X370      21.05155   0.00405   0.00000   0.00134   0.00162  21.05317
   Y370      37.54886   0.00439   0.00000   0.00352   0.00220  37.55106
   Z370      34.26073   0.00022   0.00000   0.00062   0.00008  34.26081
   X371      53.80050  -0.01438   0.00000  -0.00846  -0.00832  53.79218
   Y371      40.34565   0.00461   0.00000   0.00541   0.00663  40.35228
   Z371      32.27652   0.00194   0.00000  -0.00266  -0.00194  32.27459
   X372      54.08396   0.00329   0.00000   0.00448   0.00446  54.08842
   Y372      42.06530   0.00600   0.00000   0.00468   0.00594  42.07124
   Z372      32.76785   0.00790   0.00000   0.01164   0.01233  32.78018
   X373      55.38787   0.01279   0.00000   0.00644   0.00665  55.39453
   Y373      39.79763  -0.00542   0.00000  -0.00512  -0.00379  39.79385
   Z373      31.63402  -0.00654   0.00000  -0.00554  -0.00474  31.62927
   X374      51.79739   0.00150   0.00000   0.00724   0.00761  51.80500
   Y374      30.85923  -0.01428   0.00000  -0.01983  -0.01847  30.84076
   Z374      45.16445   0.00341   0.00000  -0.00375  -0.00289  45.16156
   X375      52.64777  -0.00736   0.00000  -0.01198  -0.01169  52.63608
   Y375      31.01041   0.00018   0.00000  -0.00044   0.00103  31.01143
   Z375      46.77072   0.00169   0.00000   0.00323   0.00412  46.77484
   X376      52.76115   0.00323   0.00000  -0.00076  -0.00044  52.76072
   Y376      31.93637   0.00971   0.00000   0.00872   0.01013  31.94650
   Z376      44.04952  -0.00611   0.00000  -0.00369  -0.00282  44.04670
   X377      26.70183  -0.00699   0.00000   0.00336   0.00275  26.70458
   Y377      39.07954   0.00896   0.00000   0.00972   0.00929  39.08883
   Z377      53.19579   0.01821   0.00000   0.02274   0.02239  53.21818
   X378      26.75852  -0.00183   0.00000  -0.00381  -0.00431  26.75421
   Y378      37.39768  -0.00780   0.00000  -0.00706  -0.00747  37.39021
   Z378      53.85719  -0.00028   0.00000  -0.00190  -0.00221  53.85499
   X379      28.10023   0.00525   0.00000  -0.00387  -0.00444  28.09579
   Y379      39.15513  -0.00162   0.00000  -0.00221  -0.00256  39.15257
   Z379      52.06195  -0.01471   0.00000  -0.01440  -0.01469  52.04726
   X380      48.56596   0.00043   0.00000   0.00210   0.00092  48.56689
   Y380      52.06195   0.00082   0.00000   0.00332   0.00435  52.06630
   Z380      41.83854   0.00564   0.00000   0.00381   0.00405  41.84259
   X381      48.73604   0.00156   0.00000   0.00292   0.00161  48.73765
   Y381      53.85719   0.00867   0.00000   0.00861   0.00965  53.86685
   Z381      41.72515  -0.00084   0.00000  -0.00122  -0.00101  41.72414
   X382      48.16912   0.00084   0.00000   0.00323   0.00217  48.17129
   Y382      51.53283  -0.00254   0.00000  -0.00329  -0.00234  51.53050
   Z382      40.13778  -0.00328   0.00000  -0.00068  -0.00044  40.13734
   X383      41.78184  -0.00078   0.00000  -0.00005  -0.00088  41.78096
   Y383      53.85719   0.01108   0.00000   0.01158   0.01180  53.86899
   Z383      29.95216  -0.02138   0.00000  -0.01649  -0.01657  29.93559
   X384      40.00550  -0.00535   0.00000  -0.00233  -0.00316  40.00234
   Y384      53.70602  -0.00834   0.00000  -0.01287  -0.01278  53.69324
   Z384      30.27341   0.00166   0.00000  -0.00026  -0.00040  30.27301
   X385      42.57553   0.00638   0.00000   0.00524   0.00439  42.57992
   Y385      53.34697  -0.00492   0.00000  -0.00303  -0.00271  53.34426
   Z385      31.48284   0.00825   0.00000  -0.00225  -0.00228  31.48056
         Item               Value     Threshold  Converged?
 Maximum Force            0.034111     0.000450     NO 
 RMS     Force            0.010588     0.000300     NO 
 Maximum Displacement     0.034074     0.001800     NO 
 RMS     Displacement     0.008807     0.001200     NO 
 Predicted change in Energy=-7.509064D-02
 GradGradGradGradGradGradGradGradGradGradGradGradGradGradGradGradGradGrad

 Leave Link  103 at Tue May 15 19:12:51 2018, MaxMem= 14763950080 cpu:      3844.1
 (Enter /cm/shared/gaussian/g09.e01/intel64-sandybridge/g09/l9999.exe)
 1\1\GINC-POPLE03\Force\RPBE1PBE\CC-pVDZ\Br1H256O128(1-)\M.PELUSO\15-Ma
 y-2018\0\\#p PBE1PBE/cc-pvDZ force Counterpoise=2 noSymm\\forces on ch
 loride comput - NWATER: 128\\-1,1\Br,20.,20.,20.\O,21.32,22.78,19.35\H
 ,20.99,21.95,19.69\H,22.24,22.8,19.63\O,22.74,18.49,20.56\H,23.45,18.9
 6,20.12\H,21.95,18.98,20.32\O,19.94,20.73,16.85\H,19.04,21.03,16.8\H,2
 0.,20.29,17.7\O,18.43,17.05,20.6\H,19.05,16.49,20.13\H,18.84,17.91,20.
 62\O,16.76,20.86,20.78\H,16.54,21.63,20.25\H,17.52,20.47,20.33\O,21.63
 ,17.03,17.44\H,22.52,17.12,17.78\H,21.27,17.92,17.47\O,20.7,22.06,23.7
 2\H,21.56,22.48,23.81\H,20.88,21.25,23.24\O,23.68,20.08,18.57\H,24.01,
 20.02,17.68\H,23.26,20.94,18.61\O,21.35,16.45,22.24\H,21.49,15.68,21.6
 9\H,21.76,17.17,21.75\O,18.31,22.95,22.45\H,17.64,22.36,22.8\H,19.14,2
 2.56,22.72\O,17.16,17.33,17.91\H,17.3,18.28,17.86\H,16.22,17.22,17.76\
 O,16.15,18.18,21.53\H,16.43,19.09,21.42\H,16.89,17.66,21.21\O,19.24,24
 .47,19.84\H,19.96,23.99,19.44\H,18.79,23.81,20.38\O,22.31,22.14,16.49\
 H,22.32,22.72,17.26\H,21.55,21.57,16.63\O,16.99,20.44,17.22\H,16.97,20
 .67,16.3\H,16.4,21.06,17.65\O,19.31,17.47,23.91\H,19.43,18.41,23.82\H,
 20.05,17.08,23.45\O,18.49,20.65,24.44\H,19.22,21.11,24.04\H,18.48,20.9
 4,25.35\O,15.91,20.34,23.27\H,16.18,20.62,22.4\H,16.72,20.07,23.7\O,19
 .28,15.58,18.28\H,19.84,16.05,17.67\H,18.45,16.05,18.26\O,24.1,22.66,1
 9.74\H,24.47,22.9,20.59\H,24.85,22.68,19.14\O,20.21,20.73,14.14\H,20.3
 ,20.64,15.09\H,19.27,20.74,13.98\O,15.59,22.46,18.78\H,15.47,23.39,18.
 57\H,14.81,22.03,18.44\O,22.42,17.83,14.79\H,23.08,18.36,15.23\H,21.75
 ,17.68,15.45\O,17.81,14.04,20.\H,18.14,14.69,19.38\H,18.43,14.06,20.72
 \O,18.02,25.96,17.97\H,18.09,25.19,18.54\H,18.69,25.82,17.3\O,18.73,18
 .17,14.53\H,18.9,17.23,14.51\H,17.87,18.25,14.94\O,25.25,19.41,22.71\H
 ,25.42,19.19,21.8\H,25.,18.58,23.12\O,24.52,16.29,17.67\H,24.62,17.22,
 17.88\H,24.81,15.84,18.46\O,15.72,24.52,21.35\H,16.56,24.4,21.78\H,15.
 77,25.39,20.96\O,18.52,25.68,23.56\H,18.84,24.95,23.03\H,19.31,26.14,2
 3.84\O,21.11,26.48,20.19\H,21.47,26.61,19.31\H,20.36,25.91,20.06\O,24.
 27,19.52,15.81\H,24.57,20.43,15.79\H,25.02,19.03,16.14\O,15.17,15.66,2
 1.67\H,16.07,15.36,21.82\H,15.25,16.61,21.6\O,13.99,18.18,23.11\H,14.8
 ,18.21,22.6\H,13.88,19.07,23.45\O,16.58,17.28,24.83\H,17.54,17.32,24.8
 8\H,16.32,18.17,24.6\O,16.13,18.39,15.06\H,15.95,17.46,15.16\H,15.7,18
 .8,15.82\O,14.22,18.34,17.88\H,14.06,19.12,17.35\H,14.14,18.64,18.78\O
 ,17.12,21.84,14.86\H,16.27,22.26,14.71\H,17.76,22.54,14.72\O,22.93,21.
 42,13.82\H,22.2,20.81,13.81\H,22.98,21.72,14.73\O,20.71,17.7,26.55\H,2
 0.4,17.37,25.71\H,20.1,17.31,27.19\O,20.43,23.67,26.24\H,20.11,22.98,2
 6.82\H,20.39,23.29,25.36\O,21.4,26.22,22.8\H,21.72,27.09,22.58\H,20.99
 ,25.9,22.\O,22.84,14.14,17.77\H,22.04,14.55,17.45\H,23.52,14.8,17.63\O
 ,13.83,22.31,21.72\H,14.47,23.,21.54\H,13.98,22.1,22.65\O,22.15,13.89,
 21.08\H,22.11,12.97,21.35\H,22.11,13.86,20.12\O,13.08,20.2,20.22\H,12.
 38,19.89,20.79\H,13.6,20.79,20.78\O,25.02,23.91,21.99\H,25.54,23.22,22
 .39\H,24.33,24.09,22.63\O,21.09,24.88,14.83\H,21.63,24.54,15.54\H,21.4
 9,25.72,14.61\O,24.86,16.88,23.46\H,25.72,16.47,23.59\H,24.3,16.16,23.
 17\O,23.01,25.4,17.7\H,23.83,24.9,17.73\H,23.27,26.31,17.84\O,23.02,23
 .88,24.47\H,22.6,24.74,24.46\H,22.77,23.5,25.31\O,19.52,14.59,24.71\H,
 19.26,15.5,24.88\H,19.19,14.1,25.46\O,17.4,14.58,23.06\H,18.25,14.57,2
 3.51\H,16.88,15.22,23.54\O,26.9,18.1,20.23\H,27.58,17.56,19.82\H,26.21
 ,17.49,20.46\O,15.13,21.26,25.72\H,15.97,21.61,26.03\H,15.33,20.89,24.
 85\O,20.68,14.2,16.08\H,20.45,14.72,15.31\H,19.86,14.12,16.57\O,20.03,
 20.62,26.96\H,19.81,20.78,27.88\H,19.93,19.67,26.85\O,25.54,15.39,19.9
 9\H,26.44,15.16,20.23\H,25.06,15.34,20.82\O,17.59,24.36,25.56\H,17.53,
 25.13,26.13\H,17.81,24.71,24.7\O,13.23,21.46,17.77\H,12.57,22.14,17.92
 \H,13.15,20.88,18.53\O,25.62,24.05,17.86\H,25.89,24.84,17.38\H,25.68,2
 3.35,17.21\O,26.67,22.03,23.18\H,27.4,22.17,22.58\H,26.43,21.11,23.07\
 O,15.76,25.19,17.\H,14.97,25.73,17.03\H,16.43,25.72,17.44\O,25.81,21.6
 5,16.03\H,26.66,21.77,16.45\H,25.85,22.19,15.24\O,25.05,25.88,20.18\H,
 24.87,25.45,21.01\H,25.03,25.17,19.53\O,25.6,20.51,25.62\H,24.89,21.14
 ,25.7\H,25.44,20.06,24.79\O,21.57,18.16,12.26\H,21.74,18.05,13.2\H,21.
 99,18.98,12.03\O,24.55,14.27,22.53\H,23.74,14.04,22.08\H,24.67,13.58,2
 3.18\O,18.86,15.4,14.37\H,17.99,15.18,14.68\H,18.89,15.06,13.47\O,17.3
 3,21.97,26.66\H,17.34,22.87,26.32\H,17.65,22.06,27.56\O,18.72,24.2,13.
 35\H,19.04,24.66,12.58\H,19.35,24.41,14.04\O,13.69,20.2,15.58\H,14.37,
 20.53,15.\H,13.59,20.87,16.25\O,18.93,19.06,11.91\H,19.73,19.47,11.59\
 H,19.22,18.49,12.62\O,16.06,13.14,18.19\H,16.53,13.33,19.\H,16.71,12.7
 ,17.63\O,13.86,14.47,19.53\H,14.31,14.93,20.23\H,14.55,13.95,19.1\O,15
 .51,15.7,15.46\H,14.56,15.68,15.46\H,15.77,14.79,15.61\O,25.47,17.24,2
 5.99\H,24.82,17.69,26.54\H,25.19,17.41,25.09\O,20.99,21.25,11.67\H,21.
 66,21.8,12.07\H,20.33,21.14,12.35\O,24.03,16.1,13.39\H,23.49,16.68,13.
 93\H,24.03,16.52,12.53\O,13.1,24.59,19.26\H,13.79,24.66,19.92\H,13.03,
 25.48,18.9\O,26.89,19.06,16.47\H,27.34,19.82,16.85\H,27.32,18.93,15.63
 \O,16.41,18.6,12.3\H,16.32,18.73,13.24\H,17.31,18.87,12.1\O,22.89,18.2
 4,27.86\H,22.43,18.56,28.64\H,22.2,18.,27.25\O,20.37,26.56,25.34\H,20.
 41,25.74,25.82\H,20.88,26.4,24.54\O,18.4,11.93,22.81\H,17.63,11.46,22.
 51\H,18.11,12.84,22.89\O,15.21,24.48,14.49\H,15.42,24.62,15.42\H,14.55
 ,25.15,14.29\O,15.2,14.96,25.43\H,14.27,15.17,25.32\H,15.65,15.78,25.2
 1\O,24.47,19.27,12.53\H,24.22,19.96,13.15\H,24.5,19.7,11.68\O,23.43,22
 .45,26.88\H,23.1,22.04,27.68\H,24.11,23.05,27.18\O,18.68,28.59,18.46\H
 ,18.81,29.08,17.65\H,18.37,27.73,18.18\O,22.41,13.27,24.64\H,21.55,12.
 89,24.48\H,22.22,14.09,25.09\O,11.49,22.79,20.19\H,11.87,23.58,19.8\H,
 12.24,22.3,20.53\O,17.64,28.28,22.93\H,18.29,28.66,22.34\H,17.86,27.35
 ,22.97\O,24.25,26.59,24.4\H,24.87,27.23,24.05\H,23.67,26.39,23.66\O,15
 .47,26.85,20.51\H,14.89,27.45,20.97\H,16.29,27.34,20.4\O,28.51,18.45,2
 2.68\H,27.88,18.95,22.16\H,28.56,18.91,23.52\O,22.07,15.19,26.9\H,21.8
 8,16.12,27.02\H,22.45,14.91,27.73\O,26.57,16.16,15.21\H,25.91,15.99,15
 .88\H,26.07,16.47,14.46\O,12.41,15.93,17.56\H,12.83,16.76,17.36\H,12.7
 4,15.7,18.43\O,25.99,23.52,25.72\H,25.99,22.98,24.93\H,26.54,23.05,26.
 34\O,11.33,18.76,22.04\H,12.15,18.52,22.47\H,11.06,17.97,21.57\O,13.04
 ,16.5,24.89\H,12.12,16.72,25.\H,13.37,17.11,24.23\O,22.52,12.,15.93\H,
 22.87,11.54,16.7\H,22.04,12.74,16.3\O,17.37,21.64,11.64\H,18.04,20.98,
 11.45\H,16.8,21.23,12.28\O,23.95,11.65,18.59\H,23.7,12.56,18.41\H,24.2
 2,11.65,19.51\O,19.4,27.32,15.76\H,19.41,27.45,14.81\H,19.,28.12,16.11
 \O,12.42,15.37,22.29\H,13.27,15.11,21.93\H,12.61,15.57,23.21\O,28.04,2
 2.73,20.92\H,27.82,23.54,20.47\H,28.99,22.77,21.06\O,14.51,22.03,13.74
 \H,13.72,22.,13.2\H,14.68,22.96,13.87\O,18.54,15.84,27.38\H,18.53,14.9
 ,27.52\H,17.82,16.17,27.91\O,25.24,24.56,14.93\H,25.62,25.29,15.41\H,2
 5.96,24.23,14.4\O,22.95,27.94,18.32\H,23.64,28.,18.98\H,22.25,28.5,18.
 66\O,14.8,23.93,26.56\H,14.86,23.02,26.26\H,15.34,23.95,27.36\O,24.,23
 .31,11.91\H,23.73,22.79,12.67\H,24.23,22.66,11.24\O,21.94,24.97,27.97\
 H,21.36,24.37,27.49\H,22.76,24.94,27.48\O,17.81,10.63,19.02\H,17.33,10
 .25,18.28\H,18.05,11.51,18.73\O,21.27,11.54,22.67\H,21.55,10.72,23.08\
 H,20.34,11.63,22.9\O,12.62,18.23,14.\H,13.27,18.91,14.19\H,11.93,18.37
 ,14.64\O,12.58,19.86,25.66\H,12.11,20.41,25.04\H,13.32,20.4,25.96\O,27
 .93,25.39,19.76\H,27.01,25.59,19.96\H,28.32,26.24,19.55\O,24.75,13.53,
 15.54\H,24.59,13.91,14.68\H,23.93,13.1,15.77\O,12.18,21.91,24.06\H,11.
 95,22.71,24.54\H,11.57,21.89,23.32\O,10.3,19.41,18.13\H,9.64,20.1,18.1
 9\H,11.14,19.87,18.13\O,28.47,21.35,17.08\H,28.62,22.26,17.34\H,29.31,
 21.06,16.74\O,27.41,16.33,23.9\H,27.86,16.41,24.75\H,27.92,16.9,23.31\
 O,14.13,20.68,28.15\H,14.16,19.79,28.5\H,14.87,20.72,27.55\O,25.7,27.5
 5,22.14\H,25.79,28.5,22.08\H,25.49,27.27,21.24\O,22.11,28.5,15.85\H,21
 .17,28.42,16.02\H,22.53,28.23,16.66\\Version=ES64L-G09RevE.01\HF=-9773
 .3511165\RMSD=2.138e-09\RMSF=1.059e-02\Dipole=11.4158363,17.2373718,6.
 266314\Quadrupole=3.9375617,478.2837019,-482.2212636,-347.3310165,-772
 .5642011,-675.39676\PG=C01 [X(Br1H256O128)]\\@


 Boundary, n.  In political geography, an imaginary
 line between two nations, separating the imaginary
 rights of one from the imaginary rights of another.
                               -- Ambrose Bierce
 Job cpu time:       7 days 15 hours 59 minutes  2.0 seconds.
 File lengths (MBytes):  RWF=   7285 Int=      0 D2E=      0 Chk=   2411 Scr=      1
 Normal termination of Gaussian 09 at Tue May 15 19:13:20 2018.
