 Entering Gaussian System, Link 0=/cm/shared/gaussian/g09.e01/intel64-sandybridge/g09/g09
 Initial command:
 /cm/shared/gaussian/g09.e01/intel64-sandybridge/g09/l1.exe "/local/scratch/m.peluso/128_wat/order/Gau-49200.inp" -scrdir="/local/scratch/m.peluso/128_wat/order/"
 Entering Link 1 = /cm/shared/gaussian/g09.e01/intel64-sandybridge/g09/l1.exe PID=     49201.
  
 Copyright (c) 1988,1990,1992,1993,1995,1998,2003,2009,2015,
            Gaussian, Inc.  All Rights Reserved.
  
 This is part of the Gaussian(R) 09 program.  It is based on
 the Gaussian(R) 03 system (copyright 2003, Gaussian, Inc.),
 the Gaussian(R) 98 system (copyright 1998, Gaussian, Inc.),
 the Gaussian(R) 94 system (copyright 1995, Gaussian, Inc.),
 the Gaussian 92(TM) system (copyright 1992, Gaussian, Inc.),
 the Gaussian 90(TM) system (copyright 1990, Gaussian, Inc.),
 the Gaussian 88(TM) system (copyright 1988, Gaussian, Inc.),
 the Gaussian 86(TM) system (copyright 1986, Carnegie Mellon
 University), and the Gaussian 82(TM) system (copyright 1983,
 Carnegie Mellon University). Gaussian is a federally registered
 trademark of Gaussian, Inc.
  
 This software contains proprietary and confidential information,
 including trade secrets, belonging to Gaussian, Inc.
  
 This software is provided under written license and may be
 used, copied, transmitted, or stored only in accord with that
 written license.
  
 The following legend is applicable only to US Government
 contracts under FAR:
  
                    RESTRICTED RIGHTS LEGEND
  
 Use, reproduction and disclosure by the US Government is
 subject to restrictions as set forth in subparagraphs (a)
 and (c) of the Commercial Computer Software - Restricted
 Rights clause in FAR 52.227-19.
  
 Gaussian, Inc.
 340 Quinnipiac St., Bldg. 40, Wallingford CT 06492
  
  
 ---------------------------------------------------------------
 Warning -- This program may not be used in any manner that
 competes with the business of Gaussian, Inc. or will provide
 assistance to any competitor of Gaussian, Inc.  The licensee
 of this program is prohibited from giving any competitor of
 Gaussian, Inc. access to this program.  By using this program,
 the user acknowledges that Gaussian, Inc. is engaged in the
 business of creating and licensing software in the field of
 computational chemistry and represents and warrants to the
 licensee that it is not a competitor of Gaussian, Inc. and that
 it will not use this program in any manner prohibited above.
 ---------------------------------------------------------------
  

 Cite this work as:
 Gaussian 09, Revision E.01,
 M. J. Frisch, G. W. Trucks, H. B. Schlegel, G. E. Scuseria, 
 M. A. Robb, J. R. Cheeseman, G. Scalmani, V. Barone, B. Mennucci, 
 G. A. Petersson, H. Nakatsuji, M. Caricato, X. Li, H. P. Hratchian, 
 A. F. Izmaylov, J. Bloino, G. Zheng, J. L. Sonnenberg, M. Hada, 
 M. Ehara, K. Toyota, R. Fukuda, J. Hasegawa, M. Ishida, T. Nakajima, 
 Y. Honda, O. Kitao, H. Nakai, T. Vreven, J. A. Montgomery, Jr., 
 J. E. Peralta, F. Ogliaro, M. Bearpark, J. J. Heyd, E. Brothers, 
 K. N. Kudin, V. N. Staroverov, T. Keith, R. Kobayashi, J. Normand, 
 K. Raghavachari, A. Rendell, J. C. Burant, S. S. Iyengar, J. Tomasi, 
 M. Cossi, N. Rega, J. M. Millam, M. Klene, J. E. Knox, J. B. Cross, 
 V. Bakken, C. Adamo, J. Jaramillo, R. Gomperts, R. E. Stratmann, 
 O. Yazyev, A. J. Austin, R. Cammi, C. Pomelli, J. W. Ochterski, 
 R. L. Martin, K. Morokuma, V. G. Zakrzewski, G. A. Voth, 
 P. Salvador, J. J. Dannenberg, S. Dapprich, A. D. Daniels, 
 O. Farkas, J. B. Foresman, J. V. Ortiz, J. Cioslowski, 
 and D. J. Fox, Gaussian, Inc., Wallingford CT, 2013.
 
 ******************************************
 Gaussian 09:  ES64L-G09RevE.01 30-Nov-2015
                11-May-2018 
 ******************************************
 %Mem=110GB
 %NProcShared=64
 Will use up to   64 processors via shared memory.
 %chk=snap118.chk
 ----------------------------------------------
 #p PBE1PBE/cc-pvDZ force Counterpoise=2 noSymm
 ----------------------------------------------
 1/10=7,30=1,38=1,62=2/1,3;
 2/12=2,15=1,17=6,18=5,40=1/2;
 1/10=7,30=1,38=1,53=2,62=2,63=101/22;
 3/5=16,11=2,16=1,25=1,30=1,71=1,74=-13/1,2,3;
 4//1;
 5/5=2,38=5/2;
 6/7=2,8=2,9=2,10=2,28=1/1;
 7/7=1,29=1,30=1,33=-1/1,2,3,16;
 1/10=7,30=1,53=2,62=2,63=101/22;
 3/5=7,6=11,11=2,16=1,25=1,30=1,71=1,74=-13,82=7/1,2,3;
 4//1;
 5/5=2,38=5/2;
 6/7=2,8=2,9=2,10=2,28=1/1;
 7/7=1,29=1,30=1,33=-1/1,2,3,16;
 1/10=7,30=1,53=2,62=2,63=101/22(-5);
 7/9=1,29=1,44=-1/16;
 1/10=7,30=1,62=2/3;
 99//99;
 Leave Link    1 at Fri May 11 17:01:41 2018, MaxMem= 14763950080 cpu:         4.4
 (Enter /cm/shared/gaussian/g09.e01/intel64-sandybridge/g09/l101.exe)
 ---------------------------------------
 forces on chloride comput - NWATER: 128
 ---------------------------------------
 Symbolic Z-matrix:
 Charge = -1 Multiplicity = 1 in supermolecule
 Charge = -1 Multiplicity = 1 in fragment      1.
 Charge =  0 Multiplicity = 1 in fragment      2.
 Br(Fragment=1)        20.       20.       20. 
 O(Fragment=2)         19.37     20.3      21.77 
 H(Fragment=2)         18.5      20.26     22.17 
 H(Fragment=2)         19.9      20.77     22.41 
 O(Fragment=2)         21.26     18.7      20.64 
 H(Fragment=2)         21.12     18.05     21.32 
 H(Fragment=2)         22.17     18.58     20.38 
 O(Fragment=2)         18.78     21.34     19.33 
 H(Fragment=2)         18.5      21.49     18.43 
 H(Fragment=2)         18.52     22.13     19.8 
 O(Fragment=2)         21.33     21.39     20.19 
 H(Fragment=2)         22.2      21.37     20.58 
 H(Fragment=2)         21.21     22.3      19.92 
 O(Fragment=2)         18.67     18.61     19.7 
 H(Fragment=2)         18.5      17.73     20.03 
 H(Fragment=2)         18.01     18.75     19.02 
 O(Fragment=2)         20.63     19.72     18.17 
 H(Fragment=2)         21.55     19.88     17.97 
 H(Fragment=2)         20.24     19.5      17.33 
 O(Fragment=2)         23.31     20.14     17.98 
 H(Fragment=2)         23.6      19.45     18.58 
 H(Fragment=2)         23.81     20.91     18.25 
 O(Fragment=2)         20.94     21.83     23.33 
 H(Fragment=2)         20.44     22.6      23.61 
 H(Fragment=2)         21.84     22.01     23.6 
 O(Fragment=2)         16.87     19.28     17.73 
 H(Fragment=2)         17.14     20.01     17.17 
 H(Fragment=2)         16.3      19.68     18.38 
 O(Fragment=2)         15.83     20.26     20.12 
 H(Fragment=2)         16.19     20.46     20.99 
 H(Fragment=2)         15.43     19.4      20.22 
 O(Fragment=2)         18.4      21.38     16.63 
 H(Fragment=2)         18.84     22.15     16.28 
 H(Fragment=2)         18.8      20.65     16.17 
 O(Fragment=2)         18.67     23.72     20.73 
 H(Fragment=2)         18.09     24.4      20.38 
 H(Fragment=2)         19.55     23.99     20.45 
 O(Fragment=2)         20.98     16.77     22.52 
 H(Fragment=2)         21.8      16.56     22.97 
 H(Fragment=2)         20.33     16.83     23.22 
 O(Fragment=2)         23.84     18.24     19.87 
 H(Fragment=2)         23.81     17.32     19.61 
 H(Fragment=2)         24.57     18.29     20.49 
 O(Fragment=2)         21.19     24.02     19.41 
 H(Fragment=2)         22.1      24.29     19.51 
 H(Fragment=2)         20.86     24.55     18.68 
 O(Fragment=2)         16.79     20.36     22.75 
 H(Fragment=2)         16.11     19.73     22.97 
 H(Fragment=2)         16.77     21.       23.46 
 O(Fragment=2)         23.84     21.64     21.11 
 H(Fragment=2)         23.82     21.87     22.04 
 H(Fragment=2)         24.64     22.05     20.78 
 O(Fragment=2)         19.64     19.17     15.58 
 H(Fragment=2)         20.28     18.47     15.48 
 H(Fragment=2)         19.22     19.23     14.72 
 O(Fragment=2)         21.12     14.99     20.35 
 H(Fragment=2)         20.99     15.52     21.14 
 H(Fragment=2)         21.3      14.11     20.68 
 O(Fragment=2)         18.9      23.76     23.61 
 H(Fragment=2)         18.72     23.77     22.67 
 H(Fragment=2)         18.2      23.22     23.99 
 O(Fragment=2)         22.78     19.82     15.3 
 H(Fragment=2)         23.01     19.84     16.23 
 H(Fragment=2)         22.48     18.92     15.15 
 O(Fragment=2)         14.92     22.65     19.18 
 H(Fragment=2)         14.91     23.16     19.99 
 H(Fragment=2)         15.31     21.81     19.42 
 O(Fragment=2)         16.81     16.62     16.8 
 H(Fragment=2)         17.36     16.52     16.03 
 H(Fragment=2)         16.77     17.56     16.95 
 O(Fragment=2)         17.07     15.88     19.44 
 H(Fragment=2)         16.9      16.1      18.53 
 H(Fragment=2)         17.67     15.13     19.39 
 O(Fragment=2)         23.32     15.74     18.84 
 H(Fragment=2)         23.5      14.91     18.4 
 H(Fragment=2)         22.51     15.58     19.33 
 O(Fragment=2)         15.07     17.65     20.34 
 H(Fragment=2)         14.28     17.43     19.84 
 H(Fragment=2)         15.71     17.       20.07 
 O(Fragment=2)         20.08     23.34     15.68 
 H(Fragment=2)         21.       23.14     15.52 
 H(Fragment=2)         20.09     24.11     16.25 
 O(Fragment=2)         24.31     19.5      23.67 
 H(Fragment=2)         24.83     19.31     22.89 
 H(Fragment=2)         24.12     20.44     23.61 
 O(Fragment=2)         24.43     17.31     16.66 
 H(Fragment=2)         24.15     16.91     17.48 
 H(Fragment=2)         25.15     17.89     16.91 
 O(Fragment=2)         19.44     16.94     24.85 
 H(Fragment=2)         20.07     16.4      25.32 
 H(Fragment=2)         19.35     17.73     25.38 
 O(Fragment=2)         22.69     22.68     15.09 
 H(Fragment=2)         22.76     21.74     15.25 
 H(Fragment=2)         22.89     22.79     14.16 
 O(Fragment=2)         19.       13.98     18.78 
 H(Fragment=2)         19.3      14.12     17.88 
 H(Fragment=2)         19.75     14.24     19.32 
 O(Fragment=2)         14.73     18.46     22.99 
 H(Fragment=2)         14.9      18.1      22.12 
 H(Fragment=2)         13.85     18.16     23.21 
 O(Fragment=2)         23.81     22.29     23.8 
 H(Fragment=2)         24.14     23.18     23.7 
 H(Fragment=2)         23.94     22.09     24.73 
 O(Fragment=2)         21.56     17.37     14.82 
 H(Fragment=2)         22.       16.59     15.16 
 H(Fragment=2)         21.24     17.11     13.96 
 O(Fragment=2)         16.09     15.08     22.06 
 H(Fragment=2)         15.14     15.04     22. 
 H(Fragment=2)         16.38     15.28     21.17 
 O(Fragment=2)         23.93     24.72     19.52 
 H(Fragment=2)         24.35     25.14     18.77 
 H(Fragment=2)         24.56     24.06     19.81 
 O(Fragment=2)         16.84     22.23     24.79 
 H(Fragment=2)         16.91     21.87     25.68 
 H(Fragment=2)         16.32     23.03     24.89 
 O(Fragment=2)         20.23     25.55     17.32 
 H(Fragment=2)         20.82     26.14     16.85 
 H(Fragment=2)         19.43     26.06     17.44 
 O(Fragment=2)         14.89     23.63     21.8 
 H(Fragment=2)         14.17     23.31     22.35 
 H(Fragment=2)         15.61     23.77     22.41 
 O(Fragment=2)         16.73     16.13     24.55 
 H(Fragment=2)         17.68     16.26     24.49 
 H(Fragment=2)         16.48     15.78     23.69 
 O(Fragment=2)         17.2      25.73     19.58 
 H(Fragment=2)         16.26     25.9      19.52 
 H(Fragment=2)         17.57     26.17     18.82 
 O(Fragment=2)         23.28     16.05     23.85 
 H(Fragment=2)         24.       16.52     24.27 
 H(Fragment=2)         23.71     15.34     23.37 
 O(Fragment=2)         26.02     18.47     21.64 
 H(Fragment=2)         26.89     18.75     21.93 
 H(Fragment=2)         25.98     17.54     21.85 
 O(Fragment=2)         26.96     20.17     19.52 
 H(Fragment=2)         27.84     19.79     19.55 
 H(Fragment=2)         26.47     19.69     20.19 
 O(Fragment=2)         19.9      14.46     16.25 
 H(Fragment=2)         19.37     15.05     15.71 
 H(Fragment=2)         20.8      14.64     15.99 
 O(Fragment=2)         14.87     23.53     16.47 
 H(Fragment=2)         14.93     23.3      17.4 
 H(Fragment=2)         14.56     24.43     16.46 
 O(Fragment=2)         26.06     22.89     20.04 
 H(Fragment=2)         26.74     23.56     20.14 
 H(Fragment=2)         26.55     22.08     19.87 
 O(Fragment=2)         21.39     20.49     12.72 
 H(Fragment=2)         21.81     20.19     13.53 
 H(Fragment=2)         20.5      20.15     12.77 
 O(Fragment=2)         18.85     23.48     13.21 
 H(Fragment=2)         19.45     24.04     12.72 
 H(Fragment=2)         19.29     23.34     14.05 
 O(Fragment=2)         25.42     20.       14.6 
 H(Fragment=2)         25.84     19.66     15.39 
 H(Fragment=2)         24.48     19.96     14.79 
 O(Fragment=2)         23.1      26.68     21.35 
 H(Fragment=2)         23.94     26.99     21.68 
 H(Fragment=2)         23.33     25.97     20.75 
 O(Fragment=2)         12.56     21.13     19.18 
 H(Fragment=2)         12.03     21.61     19.82 
 H(Fragment=2)         13.34     21.67     19.07 
 O(Fragment=2)         18.44     16.03     14.53 
 H(Fragment=2)         18.99     16.42     13.85 
 H(Fragment=2)         17.98     15.32     14.09 
 O(Fragment=2)         24.82     17.7      25.6 
 H(Fragment=2)         24.18     17.75     26.31 
 H(Fragment=2)         24.57     18.4      25. 
 O(Fragment=2)         21.69     15.89     26.07 
 H(Fragment=2)         22.09     16.55     26.64 
 H(Fragment=2)         22.23     15.89     25.28 
 O(Fragment=2)         26.52     19.14     16.96 
 H(Fragment=2)         27.38     18.88     16.62 
 H(Fragment=2)         26.7      19.53     17.81 
 O(Fragment=2)         18.53     27.34     21.38 
 H(Fragment=2)         18.04     26.75     20.8 
 H(Fragment=2)         17.88     27.64     22.02 
 O(Fragment=2)         14.82     18.89     25.75 
 H(Fragment=2)         14.96     18.65     24.83 
 H(Fragment=2)         15.59     18.54     26.2 
 O(Fragment=2)         23.54     25.32     15.46 
 H(Fragment=2)         24.18     25.35     16.17 
 H(Fragment=2)         23.29     24.4      15.4 
 O(Fragment=2)         19.32     25.9      25.46 
 H(Fragment=2)         19.87     25.36     26.02 
 H(Fragment=2)         19.04     25.31     24.76 
 O(Fragment=2)         19.14     18.8      27.07 
 H(Fragment=2)         19.59     18.34     27.78 
 H(Fragment=2)         18.25     18.46     27.09 
 O(Fragment=2)         20.04     21.47     27.52 
 H(Fragment=2)         19.41     21.81     28.16 
 H(Fragment=2)         19.64     20.67     27.19 
 O(Fragment=2)         19.       19.1      12.88 
 H(Fragment=2)         19.35     18.28     12.54 
 H(Fragment=2)         18.18     19.22     12.41 
 O(Fragment=2)         17.84     13.02     22.89 
 H(Fragment=2)         17.28     13.75     22.63 
 H(Fragment=2)         17.24     12.27     22.95 
 O(Fragment=2)         15.11     14.46     16.19 
 H(Fragment=2)         15.65     15.2      16.47 
 H(Fragment=2)         14.35     14.48     16.78 
 O(Fragment=2)         22.49     14.71     15.31 
 H(Fragment=2)         22.42     14.05     14.62 
 H(Fragment=2)         23.4      15.       15.28 
 O(Fragment=2)         16.37     24.32     14.12 
 H(Fragment=2)         16.03     23.84     14.87 
 H(Fragment=2)         17.19     23.87     13.9 
 O(Fragment=2)         16.82     17.36     26.97 
 H(Fragment=2)         16.83     16.88     26.14 
 H(Fragment=2)         16.61     16.7      27.63 
 O(Fragment=2)         12.75     19.42     17.05 
 H(Fragment=2)         12.66     20.01     17.8 
 H(Fragment=2)         13.12     19.97     16.36 
 O(Fragment=2)         13.       17.11     18.62 
 H(Fragment=2)         12.99     17.71     17.88 
 H(Fragment=2)         12.84     16.25     18.24 
 O(Fragment=2)         22.92     13.15     17.66 
 H(Fragment=2)         22.79     13.59     16.82 
 H(Fragment=2)         22.41     12.35     17.59 
 O(Fragment=2)         20.92     28.07     20.26 
 H(Fragment=2)         20.11     27.79     20.68 
 H(Fragment=2)         21.59     27.5      20.63 
 O(Fragment=2)         13.52     21.42     15.32 
 H(Fragment=2)         14.01     22.16     15.68 
 H(Fragment=2)         12.64     21.77     15.15 
 O(Fragment=2)         25.13     15.3      14.97 
 H(Fragment=2)         25.06     16.05     15.56 
 H(Fragment=2)         25.65     15.62     14.23 
 O(Fragment=2)         21.53     12.4      21.17 
 H(Fragment=2)         21.36     11.57     20.72 
 H(Fragment=2)         21.1      12.31     22.02 
 O(Fragment=2)         20.75     24.17     27.06 
 H(Fragment=2)         20.55     23.24     27.12 
 H(Fragment=2)         20.56     24.52     27.93 
 O(Fragment=2)         18.04     27.2      17.44 
 H(Fragment=2)         17.97     28.14     17.61 
 H(Fragment=2)         17.59     27.07     16.6 
 O(Fragment=2)         26.35     15.83     22.18 
 H(Fragment=2)         26.77     15.65     21.34 
 H(Fragment=2)         25.78     15.08     22.32 
 O(Fragment=2)         24.87     24.9      23.86 
 H(Fragment=2)         25.02     25.79     23.55 
 H(Fragment=2)         24.28     25.       24.61 
 O(Fragment=2)         24.4      13.91     22.53 
 H(Fragment=2)         24.       13.25     23.1 
 H(Fragment=2)         24.44     13.49     21.67 
 O(Fragment=2)         13.57     25.94     21.2 
 H(Fragment=2)         14.02     25.1      21.32 
 H(Fragment=2)         13.91     26.29     20.38 
 O(Fragment=2)         24.21     21.93     26.51 
 H(Fragment=2)         25.08     21.96     26.92 
 H(Fragment=2)         23.68     21.41     27.12 
 O(Fragment=2)         23.31     24.52     26.08 
 H(Fragment=2)         23.57     23.62     26.28 
 H(Fragment=2)         22.4      24.57     26.36 
 O(Fragment=2)         22.49     20.41     28.19 
 H(Fragment=2)         21.69     20.83     27.87 
 H(Fragment=2)         22.4      20.41     29.14 
 O(Fragment=2)         17.49     11.69     17.81 
 H(Fragment=2)         18.03     10.9      17.74 
 H(Fragment=2)         18.06     12.32     18.25 
 O(Fragment=2)         15.58     24.58     25.13 
 H(Fragment=2)         15.64     24.89     26.03 
 H(Fragment=2)         15.07     25.25     24.68 
 O(Fragment=2)         25.46     25.58     17.37 
 H(Fragment=2)         25.81     26.46     17.2 
 H(Fragment=2)         26.18     24.99     17.14 
 O(Fragment=2)         23.06     22.66     12.39 
 H(Fragment=2)         22.34     22.03     12.36 
 H(Fragment=2)         23.78     22.21     11.95 
 O(Fragment=2)         24.06     12.55     20.08 
 H(Fragment=2)         23.79     12.72     19.18 
 H(Fragment=2)         23.24     12.42     20.56 
 O(Fragment=2)         14.55     19.88     13.31 
 H(Fragment=2)         14.17     19.02     13.45 
 H(Fragment=2)         14.27     20.4      14.07 
 O(Fragment=2)         27.3      23.54     16.67 
 H(Fragment=2)         27.3      22.78     17.25 
 H(Fragment=2)         27.14     23.17     15.8 
 O(Fragment=2)         20.27     11.96     23.56 
 H(Fragment=2)         19.46     12.44     23.38 
 H(Fragment=2)         19.98     11.13     23.94 
 O(Fragment=2)         13.27     21.13     25.46 
 H(Fragment=2)         13.83     20.36     25.54 
 H(Fragment=2)         13.54     21.7      26.18 
 O(Fragment=2)         20.3      16.68     12.36 
 H(Fragment=2)         19.87     16.02     11.81 
 H(Fragment=2)         21.19     16.74     12. 
 O(Fragment=2)         11.11     18.87     19.84 
 H(Fragment=2)         11.68     19.61     19.64 
 H(Fragment=2)         11.59     18.11     19.52 
 O(Fragment=2)         21.74     27.33     15.9 
 H(Fragment=2)         22.45     26.72     15.7 
 H(Fragment=2)         21.52     27.73     15.06 
 O(Fragment=2)         22.9      17.77     27.65 
 H(Fragment=2)         22.76     18.71     27.78 
 H(Fragment=2)         22.91     17.4      28.53 
 O(Fragment=2)         12.81     22.94     23.42 
 H(Fragment=2)         13.02     22.23     24.02 
 H(Fragment=2)         12.33     23.57     23.96 
 O(Fragment=2)         22.63     27.94     23.88 
 H(Fragment=2)         23.57     28.09     23.8 
 H(Fragment=2)         22.41     27.39     23.12 
 O(Fragment=2)         27.81     21.42     22.89 
 H(Fragment=2)         28.3      21.94     22.25 
 H(Fragment=2)         28.05     20.51     22.7 
 O(Fragment=2)         20.16     11.84     15.28 
 H(Fragment=2)         20.56     11.46     16.06 
 H(Fragment=2)         19.87     12.71     15.56 
 O(Fragment=2)         16.66     21.77     27.66 
 H(Fragment=2)         15.79     22.17     27.62 
 H(Fragment=2)         17.17     22.35     28.23 
 O(Fragment=2)         13.28     15.01     21.94 
 H(Fragment=2)         13.14     14.16     22.35 
 H(Fragment=2)         12.56     15.09     21.31 
 O(Fragment=2)         14.48     15.18     26.11 
 H(Fragment=2)         15.09     15.53     25.46 
 H(Fragment=2)         13.92     15.92     26.33 
 O(Fragment=2)         12.31     17.13     23.4 
 H(Fragment=2)         11.62     16.72     23.92 
 H(Fragment=2)         12.69     16.41     22.9 
 O(Fragment=2)         14.72     26.76     18.9 
 H(Fragment=2)         14.91     27.7      18.83 
 H(Fragment=2)         14.45     26.51     18.02 
 O(Fragment=2)         27.07     23.44     24.71 
 H(Fragment=2)         27.2      22.77     24.04 
 H(Fragment=2)         26.35     23.98     24.38 
 O(Fragment=2)         26.95     22.26     14.28 
 H(Fragment=2)         26.39     21.49     14.29 
 H(Fragment=2)         26.74     22.7      13.46 
 O(Fragment=2)         25.03     18.69     12.23 
 H(Fragment=2)         25.24     19.08     13.08 
 H(Fragment=2)         25.       19.44     11.63 
 O(Fragment=2)         16.75     26.86     15.09 
 H(Fragment=2)         16.7      26.03     14.62 
 H(Fragment=2)         16.75     27.53     14.4 
 O(Fragment=2)         27.58     15.55     19.69 
 H(Fragment=2)         27.62     15.83     18.78 
 H(Fragment=2)         28.5      15.42     19.94 
 O(Fragment=2)         11.31     22.57     21.12 
 H(Fragment=2)         10.92     23.4      20.85 
 H(Fragment=2)         11.87     22.79     21.87 
 O(Fragment=2)         16.57     19.34     11.53 
 H(Fragment=2)         15.92     19.59     12.18 
 H(Fragment=2)         16.44     19.96     10.81 
 O(Fragment=2)         19.92     28.38     24.43 
 H(Fragment=2)         20.86     28.31     24.25 
 H(Fragment=2)         19.67     27.51     24.75 
 O(Fragment=2)         20.83     29.18     17.74 
 H(Fragment=2)         20.87     28.79     18.61 
 H(Fragment=2)         21.19     28.51     17.16 
 O(Fragment=2)         22.95     12.22     24.15 
 H(Fragment=2)         22.02     12.17     23.92 
 H(Fragment=2)         22.97     12.68     24.99 
 O(Fragment=2)         28.66     18.92     22.22 
 H(Fragment=2)         28.99     18.88     21.32 
 H(Fragment=2)         29.27     18.39     22.73 
 O(Fragment=2)         26.49     13.16     18.81 
 H(Fragment=2)         25.72     13.01     19.36 
 H(Fragment=2)         26.88     13.96     19.16 
 O(Fragment=2)         14.33     26.29     16.24 
 H(Fragment=2)         13.72     26.82     15.72 
 H(Fragment=2)         15.2      26.51     15.9 
 O(Fragment=2)         22.92     13.42     26.57 
 H(Fragment=2)         22.38     14.21     26.57 
 H(Fragment=2)         22.43     12.79     27.09 
 O(Fragment=2)         27.53     17.95     26.03 
 H(Fragment=2)         27.72     18.85     25.76 
 H(Fragment=2)         26.58     17.88     25.95 
 O(Fragment=2)         22.96     16.86     11.68 
 H(Fragment=2)         23.38     16.       11.67 
 H(Fragment=2)         23.65     17.46     11.95 
 O(Fragment=2)         17.84     23.18     10.62 
 H(Fragment=2)         17.85     24.11     10.41 
 H(Fragment=2)         18.1      23.13     11.54 
 O(Fragment=2)         16.53     12.27     15.26 
 H(Fragment=2)         16.93     11.94     16.06 
 H(Fragment=2)         15.94     12.96     15.55 
 O(Fragment=2)         21.86     20.42     9.95 
 H(Fragment=2)         21.09     20.88     9.62 
 H(Fragment=2)         21.75     20.41     10.9 
 O(Fragment=2)         16.33     28.04     23.04 
 H(Fragment=2)         15.63     27.48     23.37 
 H(Fragment=2)         16.67     28.49     23.81 
 O(Fragment=2)         28.24     15.92     24.31 
 H(Fragment=2)         27.54     15.91     23.66 
 H(Fragment=2)         27.95     16.55     24.97 
 
 NAtoms=    385 NQM=      385 NQMF=       0 NMMI=      0 NMMIF=      0
                NMic=       0 NMicF=      0.
                    Isotopes and Nuclear Properties:
 (Nuclear quadrupole moments (NQMom) in fm**2, nuclear magnetic moments (NMagM)
  in nuclear magnetons)

  Atom         1           2           3           4           5           6           7           8           9          10
 IAtWgt=          79          16           1           1          16           1           1          16           1           1
 AtmWgt=  78.9183361  15.9949146   1.0078250   1.0078250  15.9949146   1.0078250   1.0078250  15.9949146   1.0078250   1.0078250
 NucSpn=           3           0           1           1           0           1           1           0           1           1
 AtZEff=   0.0000000   0.0000000   0.0000000   0.0000000   0.0000000   0.0000000   0.0000000   0.0000000   0.0000000   0.0000000
 NQMom=   31.3000000   0.0000000   0.0000000   0.0000000   0.0000000   0.0000000   0.0000000   0.0000000   0.0000000   0.0000000
 NMagM=    2.1063990   0.0000000   2.7928460   2.7928460   0.0000000   2.7928460   2.7928460   0.0000000   2.7928460   2.7928460
 AtZNuc=  35.0000000   8.0000000   1.0000000   1.0000000   8.0000000   1.0000000   1.0000000   8.0000000   1.0000000   1.0000000

  Atom        11          12          13          14          15          16          17          18          19          20
 IAtWgt=          16           1           1          16           1           1          16           1           1          16
 AtmWgt=  15.9949146   1.0078250   1.0078250  15.9949146   1.0078250   1.0078250  15.9949146   1.0078250   1.0078250  15.9949146
 NucSpn=           0           1           1           0           1           1           0           1           1           0
 AtZEff=   0.0000000   0.0000000   0.0000000   0.0000000   0.0000000   0.0000000   0.0000000   0.0000000   0.0000000   0.0000000
 NQMom=    0.0000000   0.0000000   0.0000000   0.0000000   0.0000000   0.0000000   0.0000000   0.0000000   0.0000000   0.0000000
 NMagM=    0.0000000   2.7928460   2.7928460   0.0000000   2.7928460   2.7928460   0.0000000   2.7928460   2.7928460   0.0000000
 AtZNuc=   8.0000000   1.0000000   1.0000000   8.0000000   1.0000000   1.0000000   8.0000000   1.0000000   1.0000000   8.0000000

  Atom        21          22          23          24          25          26          27          28          29          30
 IAtWgt=           1           1          16           1           1          16           1           1          16           1
 AtmWgt=   1.0078250   1.0078250  15.9949146   1.0078250   1.0078250  15.9949146   1.0078250   1.0078250  15.9949146   1.0078250
 NucSpn=           1           1           0           1           1           0           1           1           0           1
 AtZEff=   0.0000000   0.0000000   0.0000000   0.0000000   0.0000000   0.0000000   0.0000000   0.0000000   0.0000000   0.0000000
 NQMom=    0.0000000   0.0000000   0.0000000   0.0000000   0.0000000   0.0000000   0.0000000   0.0000000   0.0000000   0.0000000
 NMagM=    2.7928460   2.7928460   0.0000000   2.7928460   2.7928460   0.0000000   2.7928460   2.7928460   0.0000000   2.7928460
 AtZNuc=   1.0000000   1.0000000   8.0000000   1.0000000   1.0000000   8.0000000   1.0000000   1.0000000   8.0000000   1.0000000

  Atom        31          32          33          34          35          36          37          38          39          40
 IAtWgt=           1          16           1           1          16           1           1          16           1           1
 AtmWgt=   1.0078250  15.9949146   1.0078250   1.0078250  15.9949146   1.0078250   1.0078250  15.9949146   1.0078250   1.0078250
 NucSpn=           1           0           1           1           0           1           1           0           1           1
 AtZEff=   0.0000000   0.0000000   0.0000000   0.0000000   0.0000000   0.0000000   0.0000000   0.0000000   0.0000000   0.0000000
 NQMom=    0.0000000   0.0000000   0.0000000   0.0000000   0.0000000   0.0000000   0.0000000   0.0000000   0.0000000   0.0000000
 NMagM=    2.7928460   0.0000000   2.7928460   2.7928460   0.0000000   2.7928460   2.7928460   0.0000000   2.7928460   2.7928460
 AtZNuc=   1.0000000   8.0000000   1.0000000   1.0000000   8.0000000   1.0000000   1.0000000   8.0000000   1.0000000   1.0000000

  Atom        41          42          43          44          45          46          47          48          49          50
 IAtWgt=          16           1           1          16           1           1          16           1           1          16
 AtmWgt=  15.9949146   1.0078250   1.0078250  15.9949146   1.0078250   1.0078250  15.9949146   1.0078250   1.0078250  15.9949146
 NucSpn=           0           1           1           0           1           1           0           1           1           0
 AtZEff=   0.0000000   0.0000000   0.0000000   0.0000000   0.0000000   0.0000000   0.0000000   0.0000000   0.0000000   0.0000000
 NQMom=    0.0000000   0.0000000   0.0000000   0.0000000   0.0000000   0.0000000   0.0000000   0.0000000   0.0000000   0.0000000
 NMagM=    0.0000000   2.7928460   2.7928460   0.0000000   2.7928460   2.7928460   0.0000000   2.7928460   2.7928460   0.0000000
 AtZNuc=   8.0000000   1.0000000   1.0000000   8.0000000   1.0000000   1.0000000   8.0000000   1.0000000   1.0000000   8.0000000

  Atom        51          52          53          54          55          56          57          58          59          60
 IAtWgt=           1           1          16           1           1          16           1           1          16           1
 AtmWgt=   1.0078250   1.0078250  15.9949146   1.0078250   1.0078250  15.9949146   1.0078250   1.0078250  15.9949146   1.0078250
 NucSpn=           1           1           0           1           1           0           1           1           0           1
 AtZEff=   0.0000000   0.0000000   0.0000000   0.0000000   0.0000000   0.0000000   0.0000000   0.0000000   0.0000000   0.0000000
 NQMom=    0.0000000   0.0000000   0.0000000   0.0000000   0.0000000   0.0000000   0.0000000   0.0000000   0.0000000   0.0000000
 NMagM=    2.7928460   2.7928460   0.0000000   2.7928460   2.7928460   0.0000000   2.7928460   2.7928460   0.0000000   2.7928460
 AtZNuc=   1.0000000   1.0000000   8.0000000   1.0000000   1.0000000   8.0000000   1.0000000   1.0000000   8.0000000   1.0000000

  Atom        61          62          63          64          65          66          67          68          69          70
 IAtWgt=           1          16           1           1          16           1           1          16           1           1
 AtmWgt=   1.0078250  15.9949146   1.0078250   1.0078250  15.9949146   1.0078250   1.0078250  15.9949146   1.0078250   1.0078250
 NucSpn=           1           0           1           1           0           1           1           0           1           1
 AtZEff=   0.0000000   0.0000000   0.0000000   0.0000000   0.0000000   0.0000000   0.0000000   0.0000000   0.0000000   0.0000000
 NQMom=    0.0000000   0.0000000   0.0000000   0.0000000   0.0000000   0.0000000   0.0000000   0.0000000   0.0000000   0.0000000
 NMagM=    2.7928460   0.0000000   2.7928460   2.7928460   0.0000000   2.7928460   2.7928460   0.0000000   2.7928460   2.7928460
 AtZNuc=   1.0000000   8.0000000   1.0000000   1.0000000   8.0000000   1.0000000   1.0000000   8.0000000   1.0000000   1.0000000

  Atom        71          72          73          74          75          76          77          78          79          80
 IAtWgt=          16           1           1          16           1           1          16           1           1          16
 AtmWgt=  15.9949146   1.0078250   1.0078250  15.9949146   1.0078250   1.0078250  15.9949146   1.0078250   1.0078250  15.9949146
 NucSpn=           0           1           1           0           1           1           0           1           1           0
 AtZEff=   0.0000000   0.0000000   0.0000000   0.0000000   0.0000000   0.0000000   0.0000000   0.0000000   0.0000000   0.0000000
 NQMom=    0.0000000   0.0000000   0.0000000   0.0000000   0.0000000   0.0000000   0.0000000   0.0000000   0.0000000   0.0000000
 NMagM=    0.0000000   2.7928460   2.7928460   0.0000000   2.7928460   2.7928460   0.0000000   2.7928460   2.7928460   0.0000000
 AtZNuc=   8.0000000   1.0000000   1.0000000   8.0000000   1.0000000   1.0000000   8.0000000   1.0000000   1.0000000   8.0000000

  Atom        81          82          83          84          85          86          87          88          89          90
 IAtWgt=           1           1          16           1           1          16           1           1          16           1
 AtmWgt=   1.0078250   1.0078250  15.9949146   1.0078250   1.0078250  15.9949146   1.0078250   1.0078250  15.9949146   1.0078250
 NucSpn=           1           1           0           1           1           0           1           1           0           1
 AtZEff=   0.0000000   0.0000000   0.0000000   0.0000000   0.0000000   0.0000000   0.0000000   0.0000000   0.0000000   0.0000000
 NQMom=    0.0000000   0.0000000   0.0000000   0.0000000   0.0000000   0.0000000   0.0000000   0.0000000   0.0000000   0.0000000
 NMagM=    2.7928460   2.7928460   0.0000000   2.7928460   2.7928460   0.0000000   2.7928460   2.7928460   0.0000000   2.7928460
 AtZNuc=   1.0000000   1.0000000   8.0000000   1.0000000   1.0000000   8.0000000   1.0000000   1.0000000   8.0000000   1.0000000

  Atom        91          92          93          94          95          96          97          98          99         100
 IAtWgt=           1          16           1           1          16           1           1          16           1           1
 AtmWgt=   1.0078250  15.9949146   1.0078250   1.0078250  15.9949146   1.0078250   1.0078250  15.9949146   1.0078250   1.0078250
 NucSpn=           1           0           1           1           0           1           1           0           1           1
 AtZEff=   0.0000000   0.0000000   0.0000000   0.0000000   0.0000000   0.0000000   0.0000000   0.0000000   0.0000000   0.0000000
 NQMom=    0.0000000   0.0000000   0.0000000   0.0000000   0.0000000   0.0000000   0.0000000   0.0000000   0.0000000   0.0000000
 NMagM=    2.7928460   0.0000000   2.7928460   2.7928460   0.0000000   2.7928460   2.7928460   0.0000000   2.7928460   2.7928460
 AtZNuc=   1.0000000   8.0000000   1.0000000   1.0000000   8.0000000   1.0000000   1.0000000   8.0000000   1.0000000   1.0000000

  Atom       101         102         103         104         105         106         107         108         109         110
 IAtWgt=          16           1           1          16           1           1          16           1           1          16
 AtmWgt=  15.9949146   1.0078250   1.0078250  15.9949146   1.0078250   1.0078250  15.9949146   1.0078250   1.0078250  15.9949146
 NucSpn=           0           1           1           0           1           1           0           1           1           0
 AtZEff=   0.0000000   0.0000000   0.0000000   0.0000000   0.0000000   0.0000000   0.0000000   0.0000000   0.0000000   0.0000000
 NQMom=    0.0000000   0.0000000   0.0000000   0.0000000   0.0000000   0.0000000   0.0000000   0.0000000   0.0000000   0.0000000
 NMagM=    0.0000000   2.7928460   2.7928460   0.0000000   2.7928460   2.7928460   0.0000000   2.7928460   2.7928460   0.0000000
 AtZNuc=   8.0000000   1.0000000   1.0000000   8.0000000   1.0000000   1.0000000   8.0000000   1.0000000   1.0000000   8.0000000

  Atom       111         112         113         114         115         116         117         118         119         120
 IAtWgt=           1           1          16           1           1          16           1           1          16           1
 AtmWgt=   1.0078250   1.0078250  15.9949146   1.0078250   1.0078250  15.9949146   1.0078250   1.0078250  15.9949146   1.0078250
 NucSpn=           1           1           0           1           1           0           1           1           0           1
 AtZEff=   0.0000000   0.0000000   0.0000000   0.0000000   0.0000000   0.0000000   0.0000000   0.0000000   0.0000000   0.0000000
 NQMom=    0.0000000   0.0000000   0.0000000   0.0000000   0.0000000   0.0000000   0.0000000   0.0000000   0.0000000   0.0000000
 NMagM=    2.7928460   2.7928460   0.0000000   2.7928460   2.7928460   0.0000000   2.7928460   2.7928460   0.0000000   2.7928460
 AtZNuc=   1.0000000   1.0000000   8.0000000   1.0000000   1.0000000   8.0000000   1.0000000   1.0000000   8.0000000   1.0000000

  Atom       121         122         123         124         125         126         127         128         129         130
 IAtWgt=           1          16           1           1          16           1           1          16           1           1
 AtmWgt=   1.0078250  15.9949146   1.0078250   1.0078250  15.9949146   1.0078250   1.0078250  15.9949146   1.0078250   1.0078250
 NucSpn=           1           0           1           1           0           1           1           0           1           1
 AtZEff=   0.0000000   0.0000000   0.0000000   0.0000000   0.0000000   0.0000000   0.0000000   0.0000000   0.0000000   0.0000000
 NQMom=    0.0000000   0.0000000   0.0000000   0.0000000   0.0000000   0.0000000   0.0000000   0.0000000   0.0000000   0.0000000
 NMagM=    2.7928460   0.0000000   2.7928460   2.7928460   0.0000000   2.7928460   2.7928460   0.0000000   2.7928460   2.7928460
 AtZNuc=   1.0000000   8.0000000   1.0000000   1.0000000   8.0000000   1.0000000   1.0000000   8.0000000   1.0000000   1.0000000

  Atom       131         132         133         134         135         136         137         138         139         140
 IAtWgt=          16           1           1          16           1           1          16           1           1          16
 AtmWgt=  15.9949146   1.0078250   1.0078250  15.9949146   1.0078250   1.0078250  15.9949146   1.0078250   1.0078250  15.9949146
 NucSpn=           0           1           1           0           1           1           0           1           1           0
 AtZEff=   0.0000000   0.0000000   0.0000000   0.0000000   0.0000000   0.0000000   0.0000000   0.0000000   0.0000000   0.0000000
 NQMom=    0.0000000   0.0000000   0.0000000   0.0000000   0.0000000   0.0000000   0.0000000   0.0000000   0.0000000   0.0000000
 NMagM=    0.0000000   2.7928460   2.7928460   0.0000000   2.7928460   2.7928460   0.0000000   2.7928460   2.7928460   0.0000000
 AtZNuc=   8.0000000   1.0000000   1.0000000   8.0000000   1.0000000   1.0000000   8.0000000   1.0000000   1.0000000   8.0000000

  Atom       141         142         143         144         145         146         147         148         149         150
 IAtWgt=           1           1          16           1           1          16           1           1          16           1
 AtmWgt=   1.0078250   1.0078250  15.9949146   1.0078250   1.0078250  15.9949146   1.0078250   1.0078250  15.9949146   1.0078250
 NucSpn=           1           1           0           1           1           0           1           1           0           1
 AtZEff=   0.0000000   0.0000000   0.0000000   0.0000000   0.0000000   0.0000000   0.0000000   0.0000000   0.0000000   0.0000000
 NQMom=    0.0000000   0.0000000   0.0000000   0.0000000   0.0000000   0.0000000   0.0000000   0.0000000   0.0000000   0.0000000
 NMagM=    2.7928460   2.7928460   0.0000000   2.7928460   2.7928460   0.0000000   2.7928460   2.7928460   0.0000000   2.7928460
 AtZNuc=   1.0000000   1.0000000   8.0000000   1.0000000   1.0000000   8.0000000   1.0000000   1.0000000   8.0000000   1.0000000

  Atom       151         152         153         154         155         156         157         158         159         160
 IAtWgt=           1          16           1           1          16           1           1          16           1           1
 AtmWgt=   1.0078250  15.9949146   1.0078250   1.0078250  15.9949146   1.0078250   1.0078250  15.9949146   1.0078250   1.0078250
 NucSpn=           1           0           1           1           0           1           1           0           1           1
 AtZEff=   0.0000000   0.0000000   0.0000000   0.0000000   0.0000000   0.0000000   0.0000000   0.0000000   0.0000000   0.0000000
 NQMom=    0.0000000   0.0000000   0.0000000   0.0000000   0.0000000   0.0000000   0.0000000   0.0000000   0.0000000   0.0000000
 NMagM=    2.7928460   0.0000000   2.7928460   2.7928460   0.0000000   2.7928460   2.7928460   0.0000000   2.7928460   2.7928460
 AtZNuc=   1.0000000   8.0000000   1.0000000   1.0000000   8.0000000   1.0000000   1.0000000   8.0000000   1.0000000   1.0000000

  Atom       161         162         163         164         165         166         167         168         169         170
 IAtWgt=          16           1           1          16           1           1          16           1           1          16
 AtmWgt=  15.9949146   1.0078250   1.0078250  15.9949146   1.0078250   1.0078250  15.9949146   1.0078250   1.0078250  15.9949146
 NucSpn=           0           1           1           0           1           1           0           1           1           0
 AtZEff=   0.0000000   0.0000000   0.0000000   0.0000000   0.0000000   0.0000000   0.0000000   0.0000000   0.0000000   0.0000000
 NQMom=    0.0000000   0.0000000   0.0000000   0.0000000   0.0000000   0.0000000   0.0000000   0.0000000   0.0000000   0.0000000
 NMagM=    0.0000000   2.7928460   2.7928460   0.0000000   2.7928460   2.7928460   0.0000000   2.7928460   2.7928460   0.0000000
 AtZNuc=   8.0000000   1.0000000   1.0000000   8.0000000   1.0000000   1.0000000   8.0000000   1.0000000   1.0000000   8.0000000

  Atom       171         172         173         174         175         176         177         178         179         180
 IAtWgt=           1           1          16           1           1          16           1           1          16           1
 AtmWgt=   1.0078250   1.0078250  15.9949146   1.0078250   1.0078250  15.9949146   1.0078250   1.0078250  15.9949146   1.0078250
 NucSpn=           1           1           0           1           1           0           1           1           0           1
 AtZEff=   0.0000000   0.0000000   0.0000000   0.0000000   0.0000000   0.0000000   0.0000000   0.0000000   0.0000000   0.0000000
 NQMom=    0.0000000   0.0000000   0.0000000   0.0000000   0.0000000   0.0000000   0.0000000   0.0000000   0.0000000   0.0000000
 NMagM=    2.7928460   2.7928460   0.0000000   2.7928460   2.7928460   0.0000000   2.7928460   2.7928460   0.0000000   2.7928460
 AtZNuc=   1.0000000   1.0000000   8.0000000   1.0000000   1.0000000   8.0000000   1.0000000   1.0000000   8.0000000   1.0000000

  Atom       181         182         183         184         185         186         187         188         189         190
 IAtWgt=           1          16           1           1          16           1           1          16           1           1
 AtmWgt=   1.0078250  15.9949146   1.0078250   1.0078250  15.9949146   1.0078250   1.0078250  15.9949146   1.0078250   1.0078250
 NucSpn=           1           0           1           1           0           1           1           0           1           1
 AtZEff=   0.0000000   0.0000000   0.0000000   0.0000000   0.0000000   0.0000000   0.0000000   0.0000000   0.0000000   0.0000000
 NQMom=    0.0000000   0.0000000   0.0000000   0.0000000   0.0000000   0.0000000   0.0000000   0.0000000   0.0000000   0.0000000
 NMagM=    2.7928460   0.0000000   2.7928460   2.7928460   0.0000000   2.7928460   2.7928460   0.0000000   2.7928460   2.7928460
 AtZNuc=   1.0000000   8.0000000   1.0000000   1.0000000   8.0000000   1.0000000   1.0000000   8.0000000   1.0000000   1.0000000

  Atom       191         192         193         194         195         196         197         198         199         200
 IAtWgt=          16           1           1          16           1           1          16           1           1          16
 AtmWgt=  15.9949146   1.0078250   1.0078250  15.9949146   1.0078250   1.0078250  15.9949146   1.0078250   1.0078250  15.9949146
 NucSpn=           0           1           1           0           1           1           0           1           1           0
 AtZEff=   0.0000000   0.0000000   0.0000000   0.0000000   0.0000000   0.0000000   0.0000000   0.0000000   0.0000000   0.0000000
 NQMom=    0.0000000   0.0000000   0.0000000   0.0000000   0.0000000   0.0000000   0.0000000   0.0000000   0.0000000   0.0000000
 NMagM=    0.0000000   2.7928460   2.7928460   0.0000000   2.7928460   2.7928460   0.0000000   2.7928460   2.7928460   0.0000000
 AtZNuc=   8.0000000   1.0000000   1.0000000   8.0000000   1.0000000   1.0000000   8.0000000   1.0000000   1.0000000   8.0000000

  Atom       201         202         203         204         205         206         207         208         209         210
 IAtWgt=           1           1          16           1           1          16           1           1          16           1
 AtmWgt=   1.0078250   1.0078250  15.9949146   1.0078250   1.0078250  15.9949146   1.0078250   1.0078250  15.9949146   1.0078250
 NucSpn=           1           1           0           1           1           0           1           1           0           1
 AtZEff=   0.0000000   0.0000000   0.0000000   0.0000000   0.0000000   0.0000000   0.0000000   0.0000000   0.0000000   0.0000000
 NQMom=    0.0000000   0.0000000   0.0000000   0.0000000   0.0000000   0.0000000   0.0000000   0.0000000   0.0000000   0.0000000
 NMagM=    2.7928460   2.7928460   0.0000000   2.7928460   2.7928460   0.0000000   2.7928460   2.7928460   0.0000000   2.7928460
 AtZNuc=   1.0000000   1.0000000   8.0000000   1.0000000   1.0000000   8.0000000   1.0000000   1.0000000   8.0000000   1.0000000

  Atom       211         212         213         214         215         216         217         218         219         220
 IAtWgt=           1          16           1           1          16           1           1          16           1           1
 AtmWgt=   1.0078250  15.9949146   1.0078250   1.0078250  15.9949146   1.0078250   1.0078250  15.9949146   1.0078250   1.0078250
 NucSpn=           1           0           1           1           0           1           1           0           1           1
 AtZEff=   0.0000000   0.0000000   0.0000000   0.0000000   0.0000000   0.0000000   0.0000000   0.0000000   0.0000000   0.0000000
 NQMom=    0.0000000   0.0000000   0.0000000   0.0000000   0.0000000   0.0000000   0.0000000   0.0000000   0.0000000   0.0000000
 NMagM=    2.7928460   0.0000000   2.7928460   2.7928460   0.0000000   2.7928460   2.7928460   0.0000000   2.7928460   2.7928460
 AtZNuc=   1.0000000   8.0000000   1.0000000   1.0000000   8.0000000   1.0000000   1.0000000   8.0000000   1.0000000   1.0000000

  Atom       221         222         223         224         225         226         227         228         229         230
 IAtWgt=          16           1           1          16           1           1          16           1           1          16
 AtmWgt=  15.9949146   1.0078250   1.0078250  15.9949146   1.0078250   1.0078250  15.9949146   1.0078250   1.0078250  15.9949146
 NucSpn=           0           1           1           0           1           1           0           1           1           0
 AtZEff=   0.0000000   0.0000000   0.0000000   0.0000000   0.0000000   0.0000000   0.0000000   0.0000000   0.0000000   0.0000000
 NQMom=    0.0000000   0.0000000   0.0000000   0.0000000   0.0000000   0.0000000   0.0000000   0.0000000   0.0000000   0.0000000
 NMagM=    0.0000000   2.7928460   2.7928460   0.0000000   2.7928460   2.7928460   0.0000000   2.7928460   2.7928460   0.0000000
 AtZNuc=   8.0000000   1.0000000   1.0000000   8.0000000   1.0000000   1.0000000   8.0000000   1.0000000   1.0000000   8.0000000

  Atom       231         232         233         234         235         236         237         238         239         240
 IAtWgt=           1           1          16           1           1          16           1           1          16           1
 AtmWgt=   1.0078250   1.0078250  15.9949146   1.0078250   1.0078250  15.9949146   1.0078250   1.0078250  15.9949146   1.0078250
 NucSpn=           1           1           0           1           1           0           1           1           0           1
 AtZEff=   0.0000000   0.0000000   0.0000000   0.0000000   0.0000000   0.0000000   0.0000000   0.0000000   0.0000000   0.0000000
 NQMom=    0.0000000   0.0000000   0.0000000   0.0000000   0.0000000   0.0000000   0.0000000   0.0000000   0.0000000   0.0000000
 NMagM=    2.7928460   2.7928460   0.0000000   2.7928460   2.7928460   0.0000000   2.7928460   2.7928460   0.0000000   2.7928460
 AtZNuc=   1.0000000   1.0000000   8.0000000   1.0000000   1.0000000   8.0000000   1.0000000   1.0000000   8.0000000   1.0000000

  Atom       241         242         243         244         245         246         247         248         249         250
 IAtWgt=           1          16           1           1          16           1           1          16           1           1
 AtmWgt=   1.0078250  15.9949146   1.0078250   1.0078250  15.9949146   1.0078250   1.0078250  15.9949146   1.0078250   1.0078250
 NucSpn=           1           0           1           1           0           1           1           0           1           1
 AtZEff=   0.0000000   0.0000000   0.0000000   0.0000000   0.0000000   0.0000000   0.0000000   0.0000000   0.0000000   0.0000000
 NQMom=    0.0000000   0.0000000   0.0000000   0.0000000   0.0000000   0.0000000   0.0000000   0.0000000   0.0000000   0.0000000
 NMagM=    2.7928460   0.0000000   2.7928460   2.7928460   0.0000000   2.7928460   2.7928460   0.0000000   2.7928460   2.7928460
 AtZNuc=   1.0000000   8.0000000   1.0000000   1.0000000   8.0000000   1.0000000   1.0000000   8.0000000   1.0000000   1.0000000

  Atom       251         252         253         254         255         256         257         258         259         260
 IAtWgt=          16           1           1          16           1           1          16           1           1          16
 AtmWgt=  15.9949146   1.0078250   1.0078250  15.9949146   1.0078250   1.0078250  15.9949146   1.0078250   1.0078250  15.9949146
 NucSpn=           0           1           1           0           1           1           0           1           1           0
 AtZEff=   0.0000000   0.0000000   0.0000000   0.0000000   0.0000000   0.0000000   0.0000000   0.0000000   0.0000000   0.0000000
 NQMom=    0.0000000   0.0000000   0.0000000   0.0000000   0.0000000   0.0000000   0.0000000   0.0000000   0.0000000   0.0000000
 NMagM=    0.0000000   2.7928460   2.7928460   0.0000000   2.7928460   2.7928460   0.0000000   2.7928460   2.7928460   0.0000000
 AtZNuc=   8.0000000   1.0000000   1.0000000   8.0000000   1.0000000   1.0000000   8.0000000   1.0000000   1.0000000   8.0000000

  Atom       261         262         263         264         265         266         267         268         269         270
 IAtWgt=           1           1          16           1           1          16           1           1          16           1
 AtmWgt=   1.0078250   1.0078250  15.9949146   1.0078250   1.0078250  15.9949146   1.0078250   1.0078250  15.9949146   1.0078250
 NucSpn=           1           1           0           1           1           0           1           1           0           1
 AtZEff=   0.0000000   0.0000000   0.0000000   0.0000000   0.0000000   0.0000000   0.0000000   0.0000000   0.0000000   0.0000000
 NQMom=    0.0000000   0.0000000   0.0000000   0.0000000   0.0000000   0.0000000   0.0000000   0.0000000   0.0000000   0.0000000
 NMagM=    2.7928460   2.7928460   0.0000000   2.7928460   2.7928460   0.0000000   2.7928460   2.7928460   0.0000000   2.7928460
 AtZNuc=   1.0000000   1.0000000   8.0000000   1.0000000   1.0000000   8.0000000   1.0000000   1.0000000   8.0000000   1.0000000

  Atom       271         272         273         274         275         276         277         278         279         280
 IAtWgt=           1          16           1           1          16           1           1          16           1           1
 AtmWgt=   1.0078250  15.9949146   1.0078250   1.0078250  15.9949146   1.0078250   1.0078250  15.9949146   1.0078250   1.0078250
 NucSpn=           1           0           1           1           0           1           1           0           1           1
 AtZEff=   0.0000000   0.0000000   0.0000000   0.0000000   0.0000000   0.0000000   0.0000000   0.0000000   0.0000000   0.0000000
 NQMom=    0.0000000   0.0000000   0.0000000   0.0000000   0.0000000   0.0000000   0.0000000   0.0000000   0.0000000   0.0000000
 NMagM=    2.7928460   0.0000000   2.7928460   2.7928460   0.0000000   2.7928460   2.7928460   0.0000000   2.7928460   2.7928460
 AtZNuc=   1.0000000   8.0000000   1.0000000   1.0000000   8.0000000   1.0000000   1.0000000   8.0000000   1.0000000   1.0000000

  Atom       281         282         283         284         285         286         287         288         289         290
 IAtWgt=          16           1           1          16           1           1          16           1           1          16
 AtmWgt=  15.9949146   1.0078250   1.0078250  15.9949146   1.0078250   1.0078250  15.9949146   1.0078250   1.0078250  15.9949146
 NucSpn=           0           1           1           0           1           1           0           1           1           0
 AtZEff=   0.0000000   0.0000000   0.0000000   0.0000000   0.0000000   0.0000000   0.0000000   0.0000000   0.0000000   0.0000000
 NQMom=    0.0000000   0.0000000   0.0000000   0.0000000   0.0000000   0.0000000   0.0000000   0.0000000   0.0000000   0.0000000
 NMagM=    0.0000000   2.7928460   2.7928460   0.0000000   2.7928460   2.7928460   0.0000000   2.7928460   2.7928460   0.0000000
 AtZNuc=   8.0000000   1.0000000   1.0000000   8.0000000   1.0000000   1.0000000   8.0000000   1.0000000   1.0000000   8.0000000

  Atom       291         292         293         294         295         296         297         298         299         300
 IAtWgt=           1           1          16           1           1          16           1           1          16           1
 AtmWgt=   1.0078250   1.0078250  15.9949146   1.0078250   1.0078250  15.9949146   1.0078250   1.0078250  15.9949146   1.0078250
 NucSpn=           1           1           0           1           1           0           1           1           0           1
 AtZEff=   0.0000000   0.0000000   0.0000000   0.0000000   0.0000000   0.0000000   0.0000000   0.0000000   0.0000000   0.0000000
 NQMom=    0.0000000   0.0000000   0.0000000   0.0000000   0.0000000   0.0000000   0.0000000   0.0000000   0.0000000   0.0000000
 NMagM=    2.7928460   2.7928460   0.0000000   2.7928460   2.7928460   0.0000000   2.7928460   2.7928460   0.0000000   2.7928460
 AtZNuc=   1.0000000   1.0000000   8.0000000   1.0000000   1.0000000   8.0000000   1.0000000   1.0000000   8.0000000   1.0000000

  Atom       301         302         303         304         305         306         307         308         309         310
 IAtWgt=           1          16           1           1          16           1           1          16           1           1
 AtmWgt=   1.0078250  15.9949146   1.0078250   1.0078250  15.9949146   1.0078250   1.0078250  15.9949146   1.0078250   1.0078250
 NucSpn=           1           0           1           1           0           1           1           0           1           1
 AtZEff=   0.0000000   0.0000000   0.0000000   0.0000000   0.0000000   0.0000000   0.0000000   0.0000000   0.0000000   0.0000000
 NQMom=    0.0000000   0.0000000   0.0000000   0.0000000   0.0000000   0.0000000   0.0000000   0.0000000   0.0000000   0.0000000
 NMagM=    2.7928460   0.0000000   2.7928460   2.7928460   0.0000000   2.7928460   2.7928460   0.0000000   2.7928460   2.7928460
 AtZNuc=   1.0000000   8.0000000   1.0000000   1.0000000   8.0000000   1.0000000   1.0000000   8.0000000   1.0000000   1.0000000

  Atom       311         312         313         314         315         316         317         318         319         320
 IAtWgt=          16           1           1          16           1           1          16           1           1          16
 AtmWgt=  15.9949146   1.0078250   1.0078250  15.9949146   1.0078250   1.0078250  15.9949146   1.0078250   1.0078250  15.9949146
 NucSpn=           0           1           1           0           1           1           0           1           1           0
 AtZEff=   0.0000000   0.0000000   0.0000000   0.0000000   0.0000000   0.0000000   0.0000000   0.0000000   0.0000000   0.0000000
 NQMom=    0.0000000   0.0000000   0.0000000   0.0000000   0.0000000   0.0000000   0.0000000   0.0000000   0.0000000   0.0000000
 NMagM=    0.0000000   2.7928460   2.7928460   0.0000000   2.7928460   2.7928460   0.0000000   2.7928460   2.7928460   0.0000000
 AtZNuc=   8.0000000   1.0000000   1.0000000   8.0000000   1.0000000   1.0000000   8.0000000   1.0000000   1.0000000   8.0000000

  Atom       321         322         323         324         325         326         327         328         329         330
 IAtWgt=           1           1          16           1           1          16           1           1          16           1
 AtmWgt=   1.0078250   1.0078250  15.9949146   1.0078250   1.0078250  15.9949146   1.0078250   1.0078250  15.9949146   1.0078250
 NucSpn=           1           1           0           1           1           0           1           1           0           1
 AtZEff=   0.0000000   0.0000000   0.0000000   0.0000000   0.0000000   0.0000000   0.0000000   0.0000000   0.0000000   0.0000000
 NQMom=    0.0000000   0.0000000   0.0000000   0.0000000   0.0000000   0.0000000   0.0000000   0.0000000   0.0000000   0.0000000
 NMagM=    2.7928460   2.7928460   0.0000000   2.7928460   2.7928460   0.0000000   2.7928460   2.7928460   0.0000000   2.7928460
 AtZNuc=   1.0000000   1.0000000   8.0000000   1.0000000   1.0000000   8.0000000   1.0000000   1.0000000   8.0000000   1.0000000

  Atom       331         332         333         334         335         336         337         338         339         340
 IAtWgt=           1          16           1           1          16           1           1          16           1           1
 AtmWgt=   1.0078250  15.9949146   1.0078250   1.0078250  15.9949146   1.0078250   1.0078250  15.9949146   1.0078250   1.0078250
 NucSpn=           1           0           1           1           0           1           1           0           1           1
 AtZEff=   0.0000000   0.0000000   0.0000000   0.0000000   0.0000000   0.0000000   0.0000000   0.0000000   0.0000000   0.0000000
 NQMom=    0.0000000   0.0000000   0.0000000   0.0000000   0.0000000   0.0000000   0.0000000   0.0000000   0.0000000   0.0000000
 NMagM=    2.7928460   0.0000000   2.7928460   2.7928460   0.0000000   2.7928460   2.7928460   0.0000000   2.7928460   2.7928460
 AtZNuc=   1.0000000   8.0000000   1.0000000   1.0000000   8.0000000   1.0000000   1.0000000   8.0000000   1.0000000   1.0000000

  Atom       341         342         343         344         345         346         347         348         349         350
 IAtWgt=          16           1           1          16           1           1          16           1           1          16
 AtmWgt=  15.9949146   1.0078250   1.0078250  15.9949146   1.0078250   1.0078250  15.9949146   1.0078250   1.0078250  15.9949146
 NucSpn=           0           1           1           0           1           1           0           1           1           0
 AtZEff=   0.0000000   0.0000000   0.0000000   0.0000000   0.0000000   0.0000000   0.0000000   0.0000000   0.0000000   0.0000000
 NQMom=    0.0000000   0.0000000   0.0000000   0.0000000   0.0000000   0.0000000   0.0000000   0.0000000   0.0000000   0.0000000
 NMagM=    0.0000000   2.7928460   2.7928460   0.0000000   2.7928460   2.7928460   0.0000000   2.7928460   2.7928460   0.0000000
 AtZNuc=   8.0000000   1.0000000   1.0000000   8.0000000   1.0000000   1.0000000   8.0000000   1.0000000   1.0000000   8.0000000

  Atom       351         352         353         354         355         356         357         358         359         360
 IAtWgt=           1           1          16           1           1          16           1           1          16           1
 AtmWgt=   1.0078250   1.0078250  15.9949146   1.0078250   1.0078250  15.9949146   1.0078250   1.0078250  15.9949146   1.0078250
 NucSpn=           1           1           0           1           1           0           1           1           0           1
 AtZEff=   0.0000000   0.0000000   0.0000000   0.0000000   0.0000000   0.0000000   0.0000000   0.0000000   0.0000000   0.0000000
 NQMom=    0.0000000   0.0000000   0.0000000   0.0000000   0.0000000   0.0000000   0.0000000   0.0000000   0.0000000   0.0000000
 NMagM=    2.7928460   2.7928460   0.0000000   2.7928460   2.7928460   0.0000000   2.7928460   2.7928460   0.0000000   2.7928460
 AtZNuc=   1.0000000   1.0000000   8.0000000   1.0000000   1.0000000   8.0000000   1.0000000   1.0000000   8.0000000   1.0000000

  Atom       361         362         363         364         365         366         367         368         369         370
 IAtWgt=           1          16           1           1          16           1           1          16           1           1
 AtmWgt=   1.0078250  15.9949146   1.0078250   1.0078250  15.9949146   1.0078250   1.0078250  15.9949146   1.0078250   1.0078250
 NucSpn=           1           0           1           1           0           1           1           0           1           1
 AtZEff=   0.0000000   0.0000000   0.0000000   0.0000000   0.0000000   0.0000000   0.0000000   0.0000000   0.0000000   0.0000000
 NQMom=    0.0000000   0.0000000   0.0000000   0.0000000   0.0000000   0.0000000   0.0000000   0.0000000   0.0000000   0.0000000
 NMagM=    2.7928460   0.0000000   2.7928460   2.7928460   0.0000000   2.7928460   2.7928460   0.0000000   2.7928460   2.7928460
 AtZNuc=   1.0000000   8.0000000   1.0000000   1.0000000   8.0000000   1.0000000   1.0000000   8.0000000   1.0000000   1.0000000

  Atom       371         372         373         374         375         376         377         378         379         380
 IAtWgt=          16           1           1          16           1           1          16           1           1          16
 AtmWgt=  15.9949146   1.0078250   1.0078250  15.9949146   1.0078250   1.0078250  15.9949146   1.0078250   1.0078250  15.9949146
 NucSpn=           0           1           1           0           1           1           0           1           1           0
 AtZEff=   0.0000000   0.0000000   0.0000000   0.0000000   0.0000000   0.0000000   0.0000000   0.0000000   0.0000000   0.0000000
 NQMom=    0.0000000   0.0000000   0.0000000   0.0000000   0.0000000   0.0000000   0.0000000   0.0000000   0.0000000   0.0000000
 NMagM=    0.0000000   2.7928460   2.7928460   0.0000000   2.7928460   2.7928460   0.0000000   2.7928460   2.7928460   0.0000000
 AtZNuc=   8.0000000   1.0000000   1.0000000   8.0000000   1.0000000   1.0000000   8.0000000   1.0000000   1.0000000   8.0000000

  Atom       381         382         383         384         385
 IAtWgt=           1           1          16           1           1
 AtmWgt=   1.0078250   1.0078250  15.9949146   1.0078250   1.0078250
 NucSpn=           1           1           0           1           1
 AtZEff=   0.0000000   0.0000000   0.0000000   0.0000000   0.0000000
 NQMom=    0.0000000   0.0000000   0.0000000   0.0000000   0.0000000
 NMagM=    2.7928460   2.7928460   0.0000000   2.7928460   2.7928460
 AtZNuc=   1.0000000   1.0000000   8.0000000   1.0000000   1.0000000
 Leave Link  101 at Fri May 11 17:01:42 2018, MaxMem= 14763950080 cpu:        31.4
 (Enter /cm/shared/gaussian/g09.e01/intel64-sandybridge/g09/l103.exe)

 GradGradGradGradGradGradGradGradGradGradGradGradGradGradGradGradGradGrad
 Berny optimization.
 Initialization pass.
 Trust Radius=3.00D-01 FncErr=1.00D-07 GrdErr=1.00D-07
 Number of steps in this run=      2 maximum allowed number of steps=      2.
 GradGradGradGradGradGradGradGradGradGradGradGradGradGradGradGradGradGrad

 Leave Link  103 at Fri May 11 17:01:42 2018, MaxMem= 14763950080 cpu:         3.6
 (Enter /cm/shared/gaussian/g09.e01/intel64-sandybridge/g09/l202.exe)
 Symmetry turned off by external request.
 Stoichiometry    BrH256O128(1-)
 Framework group  C1[X(BrH256O128)]
 Deg. of freedom  1149
 Full point group                 C1      NOp   1
                          Input orientation:                          
 ---------------------------------------------------------------------
 Center     Atomic      Atomic             Coordinates (Angstroms)
 Number     Number       Type             X           Y           Z
 ---------------------------------------------------------------------
      1         35           0       20.000000   20.000000   20.000000
      2          8           0       19.370000   20.300000   21.770000
      3          1           0       18.500000   20.260000   22.170000
      4          1           0       19.900000   20.770000   22.410000
      5          8           0       21.260000   18.700000   20.640000
      6          1           0       21.120000   18.050000   21.320000
      7          1           0       22.170000   18.580000   20.380000
      8          8           0       18.780000   21.340000   19.330000
      9          1           0       18.500000   21.490000   18.430000
     10          1           0       18.520000   22.130000   19.800000
     11          8           0       21.330000   21.390000   20.190000
     12          1           0       22.200000   21.370000   20.580000
     13          1           0       21.210000   22.300000   19.920000
     14          8           0       18.670000   18.610000   19.700000
     15          1           0       18.500000   17.730000   20.030000
     16          1           0       18.010000   18.750000   19.020000
     17          8           0       20.630000   19.720000   18.170000
     18          1           0       21.550000   19.880000   17.970000
     19          1           0       20.240000   19.500000   17.330000
     20          8           0       23.310000   20.140000   17.980000
     21          1           0       23.600000   19.450000   18.580000
     22          1           0       23.810000   20.910000   18.250000
     23          8           0       20.940000   21.830000   23.330000
     24          1           0       20.440000   22.600000   23.610000
     25          1           0       21.840000   22.010000   23.600000
     26          8           0       16.870000   19.280000   17.730000
     27          1           0       17.140000   20.010000   17.170000
     28          1           0       16.300000   19.680000   18.380000
     29          8           0       15.830000   20.260000   20.120000
     30          1           0       16.190000   20.460000   20.990000
     31          1           0       15.430000   19.400000   20.220000
     32          8           0       18.400000   21.380000   16.630000
     33          1           0       18.840000   22.150000   16.280000
     34          1           0       18.800000   20.650000   16.170000
     35          8           0       18.670000   23.720000   20.730000
     36          1           0       18.090000   24.400000   20.380000
     37          1           0       19.550000   23.990000   20.450000
     38          8           0       20.980000   16.770000   22.520000
     39          1           0       21.800000   16.560000   22.970000
     40          1           0       20.330000   16.830000   23.220000
     41          8           0       23.840000   18.240000   19.870000
     42          1           0       23.810000   17.320000   19.610000
     43          1           0       24.570000   18.290000   20.490000
     44          8           0       21.190000   24.020000   19.410000
     45          1           0       22.100000   24.290000   19.510000
     46          1           0       20.860000   24.550000   18.680000
     47          8           0       16.790000   20.360000   22.750000
     48          1           0       16.110000   19.730000   22.970000
     49          1           0       16.770000   21.000000   23.460000
     50          8           0       23.840000   21.640000   21.110000
     51          1           0       23.820000   21.870000   22.040000
     52          1           0       24.640000   22.050000   20.780000
     53          8           0       19.640000   19.170000   15.580000
     54          1           0       20.280000   18.470000   15.480000
     55          1           0       19.220000   19.230000   14.720000
     56          8           0       21.120000   14.990000   20.350000
     57          1           0       20.990000   15.520000   21.140000
     58          1           0       21.300000   14.110000   20.680000
     59          8           0       18.900000   23.760000   23.610000
     60          1           0       18.720000   23.770000   22.670000
     61          1           0       18.200000   23.220000   23.990000
     62          8           0       22.780000   19.820000   15.300000
     63          1           0       23.010000   19.840000   16.230000
     64          1           0       22.480000   18.920000   15.150000
     65          8           0       14.920000   22.650000   19.180000
     66          1           0       14.910000   23.160000   19.990000
     67          1           0       15.310000   21.810000   19.420000
     68          8           0       16.810000   16.620000   16.800000
     69          1           0       17.360000   16.520000   16.030000
     70          1           0       16.770000   17.560000   16.950000
     71          8           0       17.070000   15.880000   19.440000
     72          1           0       16.900000   16.100000   18.530000
     73          1           0       17.670000   15.130000   19.390000
     74          8           0       23.320000   15.740000   18.840000
     75          1           0       23.500000   14.910000   18.400000
     76          1           0       22.510000   15.580000   19.330000
     77          8           0       15.070000   17.650000   20.340000
     78          1           0       14.280000   17.430000   19.840000
     79          1           0       15.710000   17.000000   20.070000
     80          8           0       20.080000   23.340000   15.680000
     81          1           0       21.000000   23.140000   15.520000
     82          1           0       20.090000   24.110000   16.250000
     83          8           0       24.310000   19.500000   23.670000
     84          1           0       24.830000   19.310000   22.890000
     85          1           0       24.120000   20.440000   23.610000
     86          8           0       24.430000   17.310000   16.660000
     87          1           0       24.150000   16.910000   17.480000
     88          1           0       25.150000   17.890000   16.910000
     89          8           0       19.440000   16.940000   24.850000
     90          1           0       20.070000   16.400000   25.320000
     91          1           0       19.350000   17.730000   25.380000
     92          8           0       22.690000   22.680000   15.090000
     93          1           0       22.760000   21.740000   15.250000
     94          1           0       22.890000   22.790000   14.160000
     95          8           0       19.000000   13.980000   18.780000
     96          1           0       19.300000   14.120000   17.880000
     97          1           0       19.750000   14.240000   19.320000
     98          8           0       14.730000   18.460000   22.990000
     99          1           0       14.900000   18.100000   22.120000
    100          1           0       13.850000   18.160000   23.210000
    101          8           0       23.810000   22.290000   23.800000
    102          1           0       24.140000   23.180000   23.700000
    103          1           0       23.940000   22.090000   24.730000
    104          8           0       21.560000   17.370000   14.820000
    105          1           0       22.000000   16.590000   15.160000
    106          1           0       21.240000   17.110000   13.960000
    107          8           0       16.090000   15.080000   22.060000
    108          1           0       15.140000   15.040000   22.000000
    109          1           0       16.380000   15.280000   21.170000
    110          8           0       23.930000   24.720000   19.520000
    111          1           0       24.350000   25.140000   18.770000
    112          1           0       24.560000   24.060000   19.810000
    113          8           0       16.840000   22.230000   24.790000
    114          1           0       16.910000   21.870000   25.680000
    115          1           0       16.320000   23.030000   24.890000
    116          8           0       20.230000   25.550000   17.320000
    117          1           0       20.820000   26.140000   16.850000
    118          1           0       19.430000   26.060000   17.440000
    119          8           0       14.890000   23.630000   21.800000
    120          1           0       14.170000   23.310000   22.350000
    121          1           0       15.610000   23.770000   22.410000
    122          8           0       16.730000   16.130000   24.550000
    123          1           0       17.680000   16.260000   24.490000
    124          1           0       16.480000   15.780000   23.690000
    125          8           0       17.200000   25.730000   19.580000
    126          1           0       16.260000   25.900000   19.520000
    127          1           0       17.570000   26.170000   18.820000
    128          8           0       23.280000   16.050000   23.850000
    129          1           0       24.000000   16.520000   24.270000
    130          1           0       23.710000   15.340000   23.370000
    131          8           0       26.020000   18.470000   21.640000
    132          1           0       26.890000   18.750000   21.930000
    133          1           0       25.980000   17.540000   21.850000
    134          8           0       26.960000   20.170000   19.520000
    135          1           0       27.840000   19.790000   19.550000
    136          1           0       26.470000   19.690000   20.190000
    137          8           0       19.900000   14.460000   16.250000
    138          1           0       19.370000   15.050000   15.710000
    139          1           0       20.800000   14.640000   15.990000
    140          8           0       14.870000   23.530000   16.470000
    141          1           0       14.930000   23.300000   17.400000
    142          1           0       14.560000   24.430000   16.460000
    143          8           0       26.060000   22.890000   20.040000
    144          1           0       26.740000   23.560000   20.140000
    145          1           0       26.550000   22.080000   19.870000
    146          8           0       21.390000   20.490000   12.720000
    147          1           0       21.810000   20.190000   13.530000
    148          1           0       20.500000   20.150000   12.770000
    149          8           0       18.850000   23.480000   13.210000
    150          1           0       19.450000   24.040000   12.720000
    151          1           0       19.290000   23.340000   14.050000
    152          8           0       25.420000   20.000000   14.600000
    153          1           0       25.840000   19.660000   15.390000
    154          1           0       24.480000   19.960000   14.790000
    155          8           0       23.100000   26.680000   21.350000
    156          1           0       23.940000   26.990000   21.680000
    157          1           0       23.330000   25.970000   20.750000
    158          8           0       12.560000   21.130000   19.180000
    159          1           0       12.030000   21.610000   19.820000
    160          1           0       13.340000   21.670000   19.070000
    161          8           0       18.440000   16.030000   14.530000
    162          1           0       18.990000   16.420000   13.850000
    163          1           0       17.980000   15.320000   14.090000
    164          8           0       24.820000   17.700000   25.600000
    165          1           0       24.180000   17.750000   26.310000
    166          1           0       24.570000   18.400000   25.000000
    167          8           0       21.690000   15.890000   26.070000
    168          1           0       22.090000   16.550000   26.640000
    169          1           0       22.230000   15.890000   25.280000
    170          8           0       26.520000   19.140000   16.960000
    171          1           0       27.380000   18.880000   16.620000
    172          1           0       26.700000   19.530000   17.810000
    173          8           0       18.530000   27.340000   21.380000
    174          1           0       18.040000   26.750000   20.800000
    175          1           0       17.880000   27.640000   22.020000
    176          8           0       14.820000   18.890000   25.750000
    177          1           0       14.960000   18.650000   24.830000
    178          1           0       15.590000   18.540000   26.200000
    179          8           0       23.540000   25.320000   15.460000
    180          1           0       24.180000   25.350000   16.170000
    181          1           0       23.290000   24.400000   15.400000
    182          8           0       19.320000   25.900000   25.460000
    183          1           0       19.870000   25.360000   26.020000
    184          1           0       19.040000   25.310000   24.760000
    185          8           0       19.140000   18.800000   27.070000
    186          1           0       19.590000   18.340000   27.780000
    187          1           0       18.250000   18.460000   27.090000
    188          8           0       20.040000   21.470000   27.520000
    189          1           0       19.410000   21.810000   28.160000
    190          1           0       19.640000   20.670000   27.190000
    191          8           0       19.000000   19.100000   12.880000
    192          1           0       19.350000   18.280000   12.540000
    193          1           0       18.180000   19.220000   12.410000
    194          8           0       17.840000   13.020000   22.890000
    195          1           0       17.280000   13.750000   22.630000
    196          1           0       17.240000   12.270000   22.950000
    197          8           0       15.110000   14.460000   16.190000
    198          1           0       15.650000   15.200000   16.470000
    199          1           0       14.350000   14.480000   16.780000
    200          8           0       22.490000   14.710000   15.310000
    201          1           0       22.420000   14.050000   14.620000
    202          1           0       23.400000   15.000000   15.280000
    203          8           0       16.370000   24.320000   14.120000
    204          1           0       16.030000   23.840000   14.870000
    205          1           0       17.190000   23.870000   13.900000
    206          8           0       16.820000   17.360000   26.970000
    207          1           0       16.830000   16.880000   26.140000
[...]
   Z335      37.20871   0.01835   0.00000   0.00858   0.00799  37.21669
   X336      52.19424  -0.00222   0.00000  -0.00251  -0.00257  52.19167
   Y336      29.91436   0.01276   0.00000   0.00811   0.00861  29.92298
   Z336      35.48906  -0.01934   0.00000  -0.00772  -0.00832  35.48074
   X337      53.85719   0.00918   0.00000   0.00605   0.00608  53.86327
   Y337      29.13958  -0.00060   0.00000  -0.00068  -0.00011  29.13947
   Z337      37.68114   0.00154   0.00000   0.00145   0.00081  37.68195
   X338      21.37280  -0.00719   0.00000  -0.00259  -0.00302  21.36978
   Y338      42.65112  -0.00844   0.00000  -0.00235  -0.00300  42.64812
   Z338      39.91102  -0.01250   0.00000  -0.00643  -0.00635  39.90466
   X339      20.63581  -0.00148   0.00000  -0.00016  -0.00067  20.63514
   Y339      44.21959   0.00863   0.00000   0.00582   0.00514  44.22473
   Z339      39.40079  -0.00209   0.00000  -0.00141  -0.00132  39.39947
   X340      22.43105   0.00746   0.00000   0.00302   0.00261  22.43366
   Y340      43.06686  -0.00139   0.00000  -0.00256  -0.00316  43.06370
   Z340      41.32831   0.01369   0.00000   0.00682   0.00687  41.33518
   X341      31.31276   0.02276   0.00000   0.01137   0.01073  31.32350
   Y341      36.54730  -0.01326   0.00000  -0.00531  -0.00567  36.54164
   Z341      21.78854  -0.01242   0.00000  -0.00391  -0.00404  21.78450
   X342      30.08444  -0.02018   0.00000  -0.00849  -0.00911  30.07533
   Y342      37.01973   0.00921   0.00000   0.00445   0.00405  37.02378
   Z342      23.01686   0.01936   0.00000   0.00893   0.00883  23.02569
   X343      31.06710   0.00086   0.00000   0.00206   0.00134  31.06844
   Y343      37.71893   0.00566   0.00000   0.00337   0.00299  37.72193
   Z343      20.42794  -0.00267   0.00000  -0.00094  -0.00107  20.42687
   X344      37.64334  -0.01049   0.00000  -0.00557  -0.00627  37.63708
   Y344      53.63043   0.01829   0.00000   0.00883   0.00882  53.63925
   Z344      46.16601  -0.00514   0.00000  -0.00217  -0.00253  46.16348
   X345      39.41969   0.00522   0.00000   0.00170   0.00100  39.42069
   Y345      53.49815   0.00108   0.00000   0.00190   0.00196  53.50011
   Z345      45.82586   0.00108   0.00000   0.00158   0.00118  45.82704
   X346      37.17091   0.00062   0.00000   0.00186   0.00124  37.17215
   Y346      51.98637  -0.01376   0.00000  -0.00587  -0.00589  51.98048
   Z346      46.77072   0.00650   0.00000   0.00380   0.00345  46.77417
   X347      39.36300  -0.01268   0.00000  -0.00679  -0.00785  39.35514
   Y347      55.14221   0.01980   0.00000   0.00885   0.00885  55.15106
   Z347      33.52374  -0.01760   0.00000  -0.00667  -0.00708  33.51666
   X348      39.43858   0.00217   0.00000   0.00171   0.00072  39.43930
   Y348      54.40522  -0.00998   0.00000  -0.00354  -0.00353  54.40168
   Z348      35.16780   0.02407   0.00000   0.01159   0.01118  35.17898
   X349      40.04330   0.00624   0.00000   0.00450   0.00346  40.04676
   Y349      53.87609  -0.00592   0.00000  -0.00195  -0.00192  53.87417
   Z349      32.42770  -0.00252   0.00000  -0.00024  -0.00066  32.42704
   X350      43.36921   0.01510   0.00000   0.00760   0.00804  43.37726
   Y350      23.09245  -0.01118   0.00000  -0.00506  -0.00485  23.08760
   Z350      45.63689  -0.02078   0.00000  -0.00899  -0.00935  45.62754
   X351      41.61177  -0.00853   0.00000  -0.00364  -0.00320  41.60857
   Y351      22.99797   0.00302   0.00000   0.00231   0.00245  23.00042
   Z351      45.20225   0.00035   0.00000   0.00070   0.00038  45.20263
   X352      43.40701   0.00107   0.00000   0.00133   0.00178  43.40879
   Y352      23.96173   0.01058   0.00000   0.00425   0.00447  23.96620
   Z352      47.22426   0.02031   0.00000   0.00924   0.00887  47.23313
   X353      54.15955  -0.01287   0.00000  -0.00376  -0.00388  54.15567
   Y353      35.75362   0.00946   0.00000   0.00324   0.00385  35.75746
   Z353      41.98971   0.01079   0.00000   0.00536   0.00469  41.99440
   X354      54.78316   0.00716   0.00000   0.00311   0.00295  54.78611
   Y354      35.67803  -0.00097   0.00000  -0.00075  -0.00013  35.67790
   Z354      40.28896  -0.02348   0.00000  -0.01165  -0.01235  40.27662
   X355      55.31228   0.00609   0.00000   0.00132   0.00126  55.31355
   Y355      34.75206  -0.01456   0.00000  -0.00964  -0.00899  34.74308
   Z355      42.95348   0.01378   0.00000   0.00929   0.00859  42.96207
   X356      50.05885   0.00166   0.00000   0.00047   0.00060  50.05945
   Y356      24.86880  -0.01140   0.00000  -0.00609  -0.00568  24.86312
   Z356      35.54575  -0.01426   0.00000  -0.00686  -0.00739  35.53836
   X357      48.60376  -0.00276   0.00000  -0.00011   0.00007  48.60382
   Y357      24.58534  -0.00266   0.00000  -0.00261  -0.00224  24.58310
   Z357      36.58510   0.00753   0.00000   0.00467   0.00418  36.58927
   X358      50.79584   0.00271   0.00000   0.00062   0.00072  50.79656
   Y358      26.38058   0.00822   0.00000   0.00237   0.00282  26.38340
   Z358      36.20715   0.00627   0.00000   0.00337   0.00282  36.20997
   X359      27.07978  -0.01671   0.00000  -0.00525  -0.00616  27.07361
   Y359      49.68090  -0.00775   0.00000  -0.00233  -0.00281  49.67809
   Z359      30.68915   0.01297   0.00000   0.00663   0.00654  30.69569
   X360      25.92704  -0.00383   0.00000  -0.00216  -0.00314  25.92390
   Y360      50.68245   0.00040   0.00000  -0.00040  -0.00093  50.68153
   Z360      29.70649  -0.00251   0.00000  -0.00102  -0.00108  29.70541
   X361      28.72384   0.01981   0.00000   0.00959   0.00863  28.73247
   Y361      50.09664   0.00800   0.00000   0.00472   0.00430  50.10094
   Z361      30.04665  -0.01053   0.00000  -0.00540  -0.00554  30.04111
   X362      43.31252   0.01681   0.00000   0.00618   0.00665  43.31918
   Y362      25.36012  -0.01091   0.00000  -0.00456  -0.00432  25.35580
   Z362      50.21002  -0.00276   0.00000   0.00047   0.00010  50.21013
   X363      42.29207  -0.01183   0.00000  -0.00507  -0.00465  42.28742
   Y363      26.85301   0.02157   0.00000   0.01102   0.01121  26.86422
   Z363      50.21002  -0.00292   0.00000  -0.00248  -0.00283  50.20719
   X364      42.38656  -0.00644   0.00000  -0.00382  -0.00328  42.38327
   Y364      24.16960  -0.00783   0.00000  -0.00466  -0.00446  24.16513
   Z364      51.19268   0.00747   0.00000   0.00463   0.00429  51.19698
   X365      52.02416   0.02069   0.00000   0.00777   0.00790  52.03206
   Y365      33.92058  -0.00163   0.00000  -0.00078  -0.00022  33.92036
   Z365      49.18957   0.00822   0.00000   0.00663   0.00602  49.19559
   X366      52.38321   0.00116   0.00000   0.00103   0.00107  52.38428
   Y366      35.62134   0.00518   0.00000   0.00223   0.00280  35.62413
   Z366      48.67935  -0.00408   0.00000  -0.00253  -0.00316  48.67619
   X367      50.22892  -0.02518   0.00000  -0.01204  -0.01192  50.21700
   Y367      33.78830  -0.00185   0.00000  -0.00162  -0.00113  33.78717
   Z367      49.03839  -0.00209   0.00000  -0.00049  -0.00106  49.03733
   X368      43.38811  -0.02926   0.00000  -0.01269  -0.01314  43.37497
   Y368      31.86078  -0.01461   0.00000  -0.00674  -0.00664  31.85414
   Z368      22.07200  -0.00702   0.00000  -0.00133  -0.00173  22.07027
   X369      44.18180   0.00557   0.00000   0.00345   0.00306  44.18486
   Y369      30.23562  -0.00759   0.00000  -0.00466  -0.00453  30.23109
   Z369      22.05310   0.00107   0.00000   0.00103   0.00062  22.05373
   X370      44.69202   0.02020   0.00000   0.00755   0.00706  44.69909
   Y370      32.99462   0.02321   0.00000   0.01192   0.01208  33.00670
   Z370      22.58223   0.00806   0.00000   0.00335   0.00292  22.58514
   X371      33.71271  -0.00281   0.00000   0.00095   0.00000  33.71271
   Y371      43.80385  -0.01224   0.00000  -0.00571  -0.00598  43.79787
   Z371      20.06889  -0.01346   0.00000  -0.00651  -0.00673  20.06216
   X372      33.73161  -0.00056   0.00000  -0.00004  -0.00107  33.73054
   Y372      45.56130   0.00995   0.00000   0.00463   0.00436  45.56565
   Z372      19.67205   0.00033   0.00000   0.00084   0.00061  19.67266
   X373      34.20404   0.00130   0.00000   0.00018  -0.00073  34.20332
   Y373      43.70937  -0.00217   0.00000  -0.00199  -0.00224  43.70713
   Z373      21.80744   0.01214   0.00000   0.00548   0.00524  21.81268
   X374      31.23717   0.00582   0.00000   0.00301   0.00305  31.24023
   Y374      23.18694  -0.00869   0.00000  -0.00333  -0.00366  23.18328
   Z374      28.83722  -0.02938   0.00000  -0.01470  -0.01477  28.82245
   X375      31.99306   0.00525   0.00000   0.00198   0.00208  31.99514
   Y375      22.56333   0.00025   0.00000   0.00219   0.00190  22.56523
   Z375      30.34900   0.01563   0.00000   0.00652   0.00644  30.35544
   X376      30.12223  -0.00903   0.00000  -0.00337  -0.00337  30.11887
   Y376      24.49085   0.01180   0.00000   0.00504   0.00468  24.49553
   Z376      29.38524   0.00899   0.00000   0.00423   0.00418  29.38942
   X377      41.30941   0.01281   0.00000   0.00790   0.00711  41.31653
   Y377      38.58821  -0.00327   0.00000  -0.00071  -0.00070  38.58751
   Z377      18.80278  -0.01481   0.00000  -0.00613  -0.00651  18.79627
   X378      39.85432  -0.00755   0.00000  -0.00281  -0.00364  39.85068
   Y378      39.45748   0.00484   0.00000   0.00236   0.00230  39.45979
   Z378      18.17917   0.00017   0.00000   0.00102   0.00067  18.17984
   X379      41.10154  -0.00342   0.00000  -0.00113  -0.00187  41.09967
   Y379      38.56931  -0.00312   0.00000  -0.00299  -0.00298  38.56633
   Z379      20.59801   0.01543   0.00000   0.00691   0.00653  20.60455
   X380      30.85923   0.00227   0.00000   0.00142   0.00069  30.85991
   Y380      52.98792   0.00414   0.00000   0.00356   0.00329  52.99121
   Z380      43.53929  -0.01398   0.00000  -0.00596  -0.00616  43.53313
   X381      29.53642  -0.00706   0.00000  -0.00240  -0.00308  29.53334
   Y381      51.92967  -0.00807   0.00000  -0.00422  -0.00454  51.92513
   Z381      44.16290   0.00187   0.00000  -0.00016  -0.00032  44.16258
   X382      31.50173   0.00690   0.00000   0.00499   0.00425  31.50599
   Y382      53.83830   0.00404   0.00000   0.00159   0.00135  53.83965
   Z382      44.99438   0.01070   0.00000   0.00546   0.00525  44.99962
   X383      53.36587   0.01964   0.00000   0.00935   0.00954  53.37541
   Y383      30.08444  -0.01108   0.00000  -0.00571  -0.00511  30.07933
   Z383      45.93924  -0.00344   0.00000  -0.00128  -0.00191  45.93734
   X384      52.04306  -0.01018   0.00000  -0.00418  -0.00402  52.03904
   Y384      30.06554   0.00008   0.00000  -0.00062  -0.00008  30.06546
   Z384      44.71092  -0.01062   0.00000  -0.00504  -0.00563  44.70529
   X385      52.81785  -0.00198   0.00000   0.00076   0.00094  52.81878
   Y385      31.27497   0.01248   0.00000   0.00587   0.00644  31.28141
   Z385      47.18646   0.00968   0.00000   0.00438   0.00376  47.19022
         Item               Value     Threshold  Converged?
 Maximum Force            0.124451     0.000450     NO 
 RMS     Force            0.015616     0.000300     NO 
 Maximum Displacement     0.076422     0.001800     NO 
 RMS     Displacement     0.008838     0.001200     NO 
 Predicted change in Energy=-1.286337D-01
 GradGradGradGradGradGradGradGradGradGradGradGradGradGradGradGradGradGrad

 Leave Link  103 at Sat May 12 01:43:25 2018, MaxMem= 14763950080 cpu:      2786.4
 (Enter /cm/shared/gaussian/g09.e01/intel64-sandybridge/g09/l9999.exe)
 1\1\GINC-POPLE03\Force\RPBE1PBE\CC-pVDZ\Br1H256O128(1-)\M.PELUSO\12-Ma
 y-2018\0\\#p PBE1PBE/cc-pvDZ force Counterpoise=2 noSymm\\forces on ch
 loride comput - NWATER: 128\\-1,1\Br,20.,20.,20.\O,19.37,20.3,21.77\H,
 18.5,20.26,22.17\H,19.9,20.77,22.41\O,21.26,18.7,20.64\H,21.12,18.05,2
 1.32\H,22.17,18.58,20.38\O,18.78,21.34,19.33\H,18.5,21.49,18.43\H,18.5
 2,22.13,19.8\O,21.33,21.39,20.19\H,22.2,21.37,20.58\H,21.21,22.3,19.92
 \O,18.67,18.61,19.7\H,18.5,17.73,20.03\H,18.01,18.75,19.02\O,20.63,19.
 72,18.17\H,21.55,19.88,17.97\H,20.24,19.5,17.33\O,23.31,20.14,17.98\H,
 23.6,19.45,18.58\H,23.81,20.91,18.25\O,20.94,21.83,23.33\H,20.44,22.6,
 23.61\H,21.84,22.01,23.6\O,16.87,19.28,17.73\H,17.14,20.01,17.17\H,16.
 3,19.68,18.38\O,15.83,20.26,20.12\H,16.19,20.46,20.99\H,15.43,19.4,20.
 22\O,18.4,21.38,16.63\H,18.84,22.15,16.28\H,18.8,20.65,16.17\O,18.67,2
 3.72,20.73\H,18.09,24.4,20.38\H,19.55,23.99,20.45\O,20.98,16.77,22.52\
 H,21.8,16.56,22.97\H,20.33,16.83,23.22\O,23.84,18.24,19.87\H,23.81,17.
 32,19.61\H,24.57,18.29,20.49\O,21.19,24.02,19.41\H,22.1,24.29,19.51\H,
 20.86,24.55,18.68\O,16.79,20.36,22.75\H,16.11,19.73,22.97\H,16.77,21.,
 23.46\O,23.84,21.64,21.11\H,23.82,21.87,22.04\H,24.64,22.05,20.78\O,19
 .64,19.17,15.58\H,20.28,18.47,15.48\H,19.22,19.23,14.72\O,21.12,14.99,
 20.35\H,20.99,15.52,21.14\H,21.3,14.11,20.68\O,18.9,23.76,23.61\H,18.7
 2,23.77,22.67\H,18.2,23.22,23.99\O,22.78,19.82,15.3\H,23.01,19.84,16.2
 3\H,22.48,18.92,15.15\O,14.92,22.65,19.18\H,14.91,23.16,19.99\H,15.31,
 21.81,19.42\O,16.81,16.62,16.8\H,17.36,16.52,16.03\H,16.77,17.56,16.95
 \O,17.07,15.88,19.44\H,16.9,16.1,18.53\H,17.67,15.13,19.39\O,23.32,15.
 74,18.84\H,23.5,14.91,18.4\H,22.51,15.58,19.33\O,15.07,17.65,20.34\H,1
 4.28,17.43,19.84\H,15.71,17.,20.07\O,20.08,23.34,15.68\H,21.,23.14,15.
 52\H,20.09,24.11,16.25\O,24.31,19.5,23.67\H,24.83,19.31,22.89\H,24.12,
 20.44,23.61\O,24.43,17.31,16.66\H,24.15,16.91,17.48\H,25.15,17.89,16.9
 1\O,19.44,16.94,24.85\H,20.07,16.4,25.32\H,19.35,17.73,25.38\O,22.69,2
 2.68,15.09\H,22.76,21.74,15.25\H,22.89,22.79,14.16\O,19.,13.98,18.78\H
 ,19.3,14.12,17.88\H,19.75,14.24,19.32\O,14.73,18.46,22.99\H,14.9,18.1,
 22.12\H,13.85,18.16,23.21\O,23.81,22.29,23.8\H,24.14,23.18,23.7\H,23.9
 4,22.09,24.73\O,21.56,17.37,14.82\H,22.,16.59,15.16\H,21.24,17.11,13.9
 6\O,16.09,15.08,22.06\H,15.14,15.04,22.\H,16.38,15.28,21.17\O,23.93,24
 .72,19.52\H,24.35,25.14,18.77\H,24.56,24.06,19.81\O,16.84,22.23,24.79\
 H,16.91,21.87,25.68\H,16.32,23.03,24.89\O,20.23,25.55,17.32\H,20.82,26
 .14,16.85\H,19.43,26.06,17.44\O,14.89,23.63,21.8\H,14.17,23.31,22.35\H
 ,15.61,23.77,22.41\O,16.73,16.13,24.55\H,17.68,16.26,24.49\H,16.48,15.
 78,23.69\O,17.2,25.73,19.58\H,16.26,25.9,19.52\H,17.57,26.17,18.82\O,2
 3.28,16.05,23.85\H,24.,16.52,24.27\H,23.71,15.34,23.37\O,26.02,18.47,2
 1.64\H,26.89,18.75,21.93\H,25.98,17.54,21.85\O,26.96,20.17,19.52\H,27.
 84,19.79,19.55\H,26.47,19.69,20.19\O,19.9,14.46,16.25\H,19.37,15.05,15
 .71\H,20.8,14.64,15.99\O,14.87,23.53,16.47\H,14.93,23.3,17.4\H,14.56,2
 4.43,16.46\O,26.06,22.89,20.04\H,26.74,23.56,20.14\H,26.55,22.08,19.87
 \O,21.39,20.49,12.72\H,21.81,20.19,13.53\H,20.5,20.15,12.77\O,18.85,23
 .48,13.21\H,19.45,24.04,12.72\H,19.29,23.34,14.05\O,25.42,20.,14.6\H,2
 5.84,19.66,15.39\H,24.48,19.96,14.79\O,23.1,26.68,21.35\H,23.94,26.99,
 21.68\H,23.33,25.97,20.75\O,12.56,21.13,19.18\H,12.03,21.61,19.82\H,13
 .34,21.67,19.07\O,18.44,16.03,14.53\H,18.99,16.42,13.85\H,17.98,15.32,
 14.09\O,24.82,17.7,25.6\H,24.18,17.75,26.31\H,24.57,18.4,25.\O,21.69,1
 5.89,26.07\H,22.09,16.55,26.64\H,22.23,15.89,25.28\O,26.52,19.14,16.96
 \H,27.38,18.88,16.62\H,26.7,19.53,17.81\O,18.53,27.34,21.38\H,18.04,26
 .75,20.8\H,17.88,27.64,22.02\O,14.82,18.89,25.75\H,14.96,18.65,24.83\H
 ,15.59,18.54,26.2\O,23.54,25.32,15.46\H,24.18,25.35,16.17\H,23.29,24.4
 ,15.4\O,19.32,25.9,25.46\H,19.87,25.36,26.02\H,19.04,25.31,24.76\O,19.
 14,18.8,27.07\H,19.59,18.34,27.78\H,18.25,18.46,27.09\O,20.04,21.47,27
 .52\H,19.41,21.81,28.16\H,19.64,20.67,27.19\O,19.,19.1,12.88\H,19.35,1
 8.28,12.54\H,18.18,19.22,12.41\O,17.84,13.02,22.89\H,17.28,13.75,22.63
 \H,17.24,12.27,22.95\O,15.11,14.46,16.19\H,15.65,15.2,16.47\H,14.35,14
 .48,16.78\O,22.49,14.71,15.31\H,22.42,14.05,14.62\H,23.4,15.,15.28\O,1
 6.37,24.32,14.12\H,16.03,23.84,14.87\H,17.19,23.87,13.9\O,16.82,17.36,
 26.97\H,16.83,16.88,26.14\H,16.61,16.7,27.63\O,12.75,19.42,17.05\H,12.
 66,20.01,17.8\H,13.12,19.97,16.36\O,13.,17.11,18.62\H,12.99,17.71,17.8
 8\H,12.84,16.25,18.24\O,22.92,13.15,17.66\H,22.79,13.59,16.82\H,22.41,
 12.35,17.59\O,20.92,28.07,20.26\H,20.11,27.79,20.68\H,21.59,27.5,20.63
 \O,13.52,21.42,15.32\H,14.01,22.16,15.68\H,12.64,21.77,15.15\O,25.13,1
 5.3,14.97\H,25.06,16.05,15.56\H,25.65,15.62,14.23\O,21.53,12.4,21.17\H
 ,21.36,11.57,20.72\H,21.1,12.31,22.02\O,20.75,24.17,27.06\H,20.55,23.2
 4,27.12\H,20.56,24.52,27.93\O,18.04,27.2,17.44\H,17.97,28.14,17.61\H,1
 7.59,27.07,16.6\O,26.35,15.83,22.18\H,26.77,15.65,21.34\H,25.78,15.08,
 22.32\O,24.87,24.9,23.86\H,25.02,25.79,23.55\H,24.28,25.,24.61\O,24.4,
 13.91,22.53\H,24.,13.25,23.1\H,24.44,13.49,21.67\O,13.57,25.94,21.2\H,
 14.02,25.1,21.32\H,13.91,26.29,20.38\O,24.21,21.93,26.51\H,25.08,21.96
 ,26.92\H,23.68,21.41,27.12\O,23.31,24.52,26.08\H,23.57,23.62,26.28\H,2
 2.4,24.57,26.36\O,22.49,20.41,28.19\H,21.69,20.83,27.87\H,22.4,20.41,2
 9.14\O,17.49,11.69,17.81\H,18.03,10.9,17.74\H,18.06,12.32,18.25\O,15.5
 8,24.58,25.13\H,15.64,24.89,26.03\H,15.07,25.25,24.68\O,25.46,25.58,17
 .37\H,25.81,26.46,17.2\H,26.18,24.99,17.14\O,23.06,22.66,12.39\H,22.34
 ,22.03,12.36\H,23.78,22.21,11.95\O,24.06,12.55,20.08\H,23.79,12.72,19.
 18\H,23.24,12.42,20.56\O,14.55,19.88,13.31\H,14.17,19.02,13.45\H,14.27
 ,20.4,14.07\O,27.3,23.54,16.67\H,27.3,22.78,17.25\H,27.14,23.17,15.8\O
 ,20.27,11.96,23.56\H,19.46,12.44,23.38\H,19.98,11.13,23.94\O,13.27,21.
 13,25.46\H,13.83,20.36,25.54\H,13.54,21.7,26.18\O,20.3,16.68,12.36\H,1
 9.87,16.02,11.81\H,21.19,16.74,12.\O,11.11,18.87,19.84\H,11.68,19.61,1
 9.64\H,11.59,18.11,19.52\O,21.74,27.33,15.9\H,22.45,26.72,15.7\H,21.52
 ,27.73,15.06\O,22.9,17.77,27.65\H,22.76,18.71,27.78\H,22.91,17.4,28.53
 \O,12.81,22.94,23.42\H,13.02,22.23,24.02\H,12.33,23.57,23.96\O,22.63,2
 7.94,23.88\H,23.57,28.09,23.8\H,22.41,27.39,23.12\O,27.81,21.42,22.89\
 H,28.3,21.94,22.25\H,28.05,20.51,22.7\O,20.16,11.84,15.28\H,20.56,11.4
 6,16.06\H,19.87,12.71,15.56\O,16.66,21.77,27.66\H,15.79,22.17,27.62\H,
 17.17,22.35,28.23\O,13.28,15.01,21.94\H,13.14,14.16,22.35\H,12.56,15.0
 9,21.31\O,14.48,15.18,26.11\H,15.09,15.53,25.46\H,13.92,15.92,26.33\O,
 12.31,17.13,23.4\H,11.62,16.72,23.92\H,12.69,16.41,22.9\O,14.72,26.76,
 18.9\H,14.91,27.7,18.83\H,14.45,26.51,18.02\O,27.07,23.44,24.71\H,27.2
 ,22.77,24.04\H,26.35,23.98,24.38\O,26.95,22.26,14.28\H,26.39,21.49,14.
 29\H,26.74,22.7,13.46\O,25.03,18.69,12.23\H,25.24,19.08,13.08\H,25.,19
 .44,11.63\O,16.75,26.86,15.09\H,16.7,26.03,14.62\H,16.75,27.53,14.4\O,
 27.58,15.55,19.69\H,27.62,15.83,18.78\H,28.5,15.42,19.94\O,11.31,22.57
 ,21.12\H,10.92,23.4,20.85\H,11.87,22.79,21.87\O,16.57,19.34,11.53\H,15
 .92,19.59,12.18\H,16.44,19.96,10.81\O,19.92,28.38,24.43\H,20.86,28.31,
 24.25\H,19.67,27.51,24.75\O,20.83,29.18,17.74\H,20.87,28.79,18.61\H,21
 .19,28.51,17.16\O,22.95,12.22,24.15\H,22.02,12.17,23.92\H,22.97,12.68,
 24.99\O,28.66,18.92,22.22\H,28.99,18.88,21.32\H,29.27,18.39,22.73\O,26
 .49,13.16,18.81\H,25.72,13.01,19.36\H,26.88,13.96,19.16\O,14.33,26.29,
 16.24\H,13.72,26.82,15.72\H,15.2,26.51,15.9\O,22.92,13.42,26.57\H,22.3
 8,14.21,26.57\H,22.43,12.79,27.09\O,27.53,17.95,26.03\H,27.72,18.85,25
 .76\H,26.58,17.88,25.95\O,22.96,16.86,11.68\H,23.38,16.,11.67\H,23.65,
 17.46,11.95\O,17.84,23.18,10.62\H,17.85,24.11,10.41\H,18.1,23.13,11.54
 \O,16.53,12.27,15.26\H,16.93,11.94,16.06\H,15.94,12.96,15.55\O,21.86,2
 0.42,9.95\H,21.09,20.88,9.62\H,21.75,20.41,10.9\O,16.33,28.04,23.04\H,
 15.63,27.48,23.37\H,16.67,28.49,23.81\O,28.24,15.92,24.31\H,27.54,15.9
 1,23.66\H,27.95,16.55,24.97\\Version=ES64L-G09RevE.01\HF=-9773.6734836
 \RMSD=2.065e-09\RMSF=1.562e-02\Dipole=-4.6002941,-0.4718846,-0.9344543
 \Quadrupole=-254.8020736,96.5319104,158.2701632,-1611.3932788,-1676.90
 22086,-1578.167674\PG=C01 [X(Br1H256O128)]\\@


 TIME IS NATURE'S WAY OF MAKING SURE EVERYTHING
 DOESN'T HAPPEN AT ONCE.
                     - WOODY ALLEN
 Job cpu time:      22 days 19 hours 59 minutes 30.5 seconds.
 File lengths (MBytes):  RWF=   7285 Int=      0 D2E=      0 Chk=   2411 Scr=      1
 Normal termination of Gaussian 09 at Sat May 12 01:43:49 2018.
