 Entering Gaussian System, Link 0=/cm/shared/gaussian/g09.e01/intel64-sandybridge/g09/g09
 Initial command:
 /cm/shared/gaussian/g09.e01/intel64-sandybridge/g09/l1.exe "/local/scratch/m.peluso/128_wat/order/Gau-62527.inp" -scrdir="/local/scratch/m.peluso/128_wat/order/"
 Entering Link 1 = /cm/shared/gaussian/g09.e01/intel64-sandybridge/g09/l1.exe PID=     62528.
  
 Copyright (c) 1988,1990,1992,1993,1995,1998,2003,2009,2015,
            Gaussian, Inc.  All Rights Reserved.
  
 This is part of the Gaussian(R) 09 program.  It is based on
 the Gaussian(R) 03 system (copyright 2003, Gaussian, Inc.),
 the Gaussian(R) 98 system (copyright 1998, Gaussian, Inc.),
 the Gaussian(R) 94 system (copyright 1995, Gaussian, Inc.),
 the Gaussian 92(TM) system (copyright 1992, Gaussian, Inc.),
 the Gaussian 90(TM) system (copyright 1990, Gaussian, Inc.),
 the Gaussian 88(TM) system (copyright 1988, Gaussian, Inc.),
 the Gaussian 86(TM) system (copyright 1986, Carnegie Mellon
 University), and the Gaussian 82(TM) system (copyright 1983,
 Carnegie Mellon University). Gaussian is a federally registered
 trademark of Gaussian, Inc.
  
 This software contains proprietary and confidential information,
 including trade secrets, belonging to Gaussian, Inc.
  
 This software is provided under written license and may be
 used, copied, transmitted, or stored only in accord with that
 written license.
  
 The following legend is applicable only to US Government
 contracts under FAR:
  
                    RESTRICTED RIGHTS LEGEND
  
 Use, reproduction and disclosure by the US Government is
 subject to restrictions as set forth in subparagraphs (a)
 and (c) of the Commercial Computer Software - Restricted
 Rights clause in FAR 52.227-19.
  
 Gaussian, Inc.
 340 Quinnipiac St., Bldg. 40, Wallingford CT 06492
  
  
 ---------------------------------------------------------------
 Warning -- This program may not be used in any manner that
 competes with the business of Gaussian, Inc. or will provide
 assistance to any competitor of Gaussian, Inc.  The licensee
 of this program is prohibited from giving any competitor of
 Gaussian, Inc. access to this program.  By using this program,
 the user acknowledges that Gaussian, Inc. is engaged in the
 business of creating and licensing software in the field of
 computational chemistry and represents and warrants to the
 licensee that it is not a competitor of Gaussian, Inc. and that
 it will not use this program in any manner prohibited above.
 ---------------------------------------------------------------
  

 Cite this work as:
 Gaussian 09, Revision E.01,
 M. J. Frisch, G. W. Trucks, H. B. Schlegel, G. E. Scuseria, 
 M. A. Robb, J. R. Cheeseman, G. Scalmani, V. Barone, B. Mennucci, 
 G. A. Petersson, H. Nakatsuji, M. Caricato, X. Li, H. P. Hratchian, 
 A. F. Izmaylov, J. Bloino, G. Zheng, J. L. Sonnenberg, M. Hada, 
 M. Ehara, K. Toyota, R. Fukuda, J. Hasegawa, M. Ishida, T. Nakajima, 
 Y. Honda, O. Kitao, H. Nakai, T. Vreven, J. A. Montgomery, Jr., 
 J. E. Peralta, F. Ogliaro, M. Bearpark, J. J. Heyd, E. Brothers, 
 K. N. Kudin, V. N. Staroverov, T. Keith, R. Kobayashi, J. Normand, 
 K. Raghavachari, A. Rendell, J. C. Burant, S. S. Iyengar, J. Tomasi, 
 M. Cossi, N. Rega, J. M. Millam, M. Klene, J. E. Knox, J. B. Cross, 
 V. Bakken, C. Adamo, J. Jaramillo, R. Gomperts, R. E. Stratmann, 
 O. Yazyev, A. J. Austin, R. Cammi, C. Pomelli, J. W. Ochterski, 
 R. L. Martin, K. Morokuma, V. G. Zakrzewski, G. A. Voth, 
 P. Salvador, J. J. Dannenberg, S. Dapprich, A. D. Daniels, 
 O. Farkas, J. B. Foresman, J. V. Ortiz, J. Cioslowski, 
 and D. J. Fox, Gaussian, Inc., Wallingford CT, 2013.
 
 ******************************************
 Gaussian 09:  ES64L-G09RevE.01 30-Nov-2015
                15-May-2018 
 ******************************************
 %Mem=110GB
 %NProcShared=64
 Will use up to   64 processors via shared memory.
 %chk=snap65.chk
 ----------------------------------------------
 #p PBE1PBE/cc-pvDZ force Counterpoise=2 noSymm
 ----------------------------------------------
 1/10=7,30=1,38=1,62=2/1,3;
 2/12=2,15=1,17=6,18=5,40=1/2;
 1/10=7,30=1,38=1,53=2,62=2,63=101/22;
 3/5=16,11=2,16=1,25=1,30=1,71=1,74=-13/1,2,3;
 4//1;
 5/5=2,38=5/2;
 6/7=2,8=2,9=2,10=2,28=1/1;
 7/7=1,29=1,30=1,33=-1/1,2,3,16;
 1/10=7,30=1,53=2,62=2,63=101/22;
 3/5=7,6=11,11=2,16=1,25=1,30=1,71=1,74=-13,82=7/1,2,3;
 4//1;
 5/5=2,38=5/2;
 6/7=2,8=2,9=2,10=2,28=1/1;
 7/7=1,29=1,30=1,33=-1/1,2,3,16;
 1/10=7,30=1,53=2,62=2,63=101/22(-5);
 7/9=1,29=1,44=-1/16;
 1/10=7,30=1,62=2/3;
 99//99;
 Leave Link    1 at Tue May 15 21:01:51 2018, MaxMem= 14763950080 cpu:         6.3
 (Enter /cm/shared/gaussian/g09.e01/intel64-sandybridge/g09/l101.exe)
 ---------------------------------------
 forces on chloride comput - NWATER: 128
 ---------------------------------------
 Symbolic Z-matrix:
 Charge = -1 Multiplicity = 1 in supermolecule
 Charge = -1 Multiplicity = 1 in fragment      1.
 Charge =  0 Multiplicity = 1 in fragment      2.
 Br(Fragment=1)        20.       20.       20. 
 O(Fragment=2)         20.99     22.86     19.68 
 H(Fragment=2)         20.28     23.17     19.12 
 H(Fragment=2)         20.97     21.9      19.58 
 O(Fragment=2)         17.       18.7      20.39 
 H(Fragment=2)         16.35     19.32     20.06 
 H(Fragment=2)         17.84     19.06     20.12 
 O(Fragment=2)         20.57     22.03     22.75 
 H(Fragment=2)         20.37     21.51     21.97 
 H(Fragment=2)         20.34     22.93     22.5 
 O(Fragment=2)         19.34     16.7      21.37 
 H(Fragment=2)         19.29     17.61     21.09 
 H(Fragment=2)         18.54     16.55     21.87 
 O(Fragment=2)         22.83     17.79     20.45 
 H(Fragment=2)         22.36     18.56     20.12 
 H(Fragment=2)         23.54     18.16     20.98 
 O(Fragment=2)         20.71     17.44     17.38 
 H(Fragment=2)         20.56     17.83     18.24 
 H(Fragment=2)         20.57     16.5      17.51 
 O(Fragment=2)         17.26     19.25     17.36 
 H(Fragment=2)         18.05     19.52     17.84 
 H(Fragment=2)         16.54     19.58     17.89 
 O(Fragment=2)         16.94     21.7      19.57 
 H(Fragment=2)         17.61     21.79     20.25 
 H(Fragment=2)         17.31     22.15     18.81 
 O(Fragment=2)         21.32     17.62     22.96 
 H(Fragment=2)         21.72     18.08     22.22 
 H(Fragment=2)         20.71     17.       22.56 
 O(Fragment=2)         16.95     20.64     22.95 
 H(Fragment=2)         17.37     20.34     22.14 
 H(Fragment=2)         16.05     20.84     22.69 
 O(Fragment=2)         23.81     20.71     18.18 
 H(Fragment=2)         23.7      20.13     18.93 
 H(Fragment=2)         24.48     20.29     17.64 
 O(Fragment=2)         21.18     22.06     16.02 
 H(Fragment=2)         21.54     21.66     16.81 
 H(Fragment=2)         21.57     21.57     15.3 
 O(Fragment=2)         23.46     23.05     21.63 
 H(Fragment=2)         23.35     23.54     22.44 
 H(Fragment=2)         22.58     23.01     21.25 
 O(Fragment=2)         18.2      23.17     17.77 
 H(Fragment=2)         18.91     23.79     17.61 
 H(Fragment=2)         17.63     23.25     17.01 
 O(Fragment=2)         23.66     23.46     18.04 
 H(Fragment=2)         22.92     23.19     18.57 
 H(Fragment=2)         24.       22.64     17.66 
 O(Fragment=2)         17.08     15.78     19.24 
 H(Fragment=2)         17.21     15.7      18.29 
 H(Fragment=2)         16.89     16.71     19.37 
 O(Fragment=2)         18.39     24.05     21.68 
 H(Fragment=2)         19.23     24.5      21.72 
 H(Fragment=2)         17.91     24.48     20.98 
 O(Fragment=2)         19.81     15.01     18.44 
 H(Fragment=2)         20.14     14.17     18.75 
 H(Fragment=2)         19.41     15.41     19.21 
 O(Fragment=2)         18.59     21.98     24.68 
 H(Fragment=2)         18.       21.59     24.04 
 H(Fragment=2)         19.45     21.96     24.25 
 O(Fragment=2)         18.9      17.45     15.33 
 H(Fragment=2)         19.82     17.34     15.57 
 H(Fragment=2)         18.59     18.19     15.87 
 O(Fragment=2)         21.71     21.61     25.21 
 H(Fragment=2)         21.98     20.72     25.45 
 H(Fragment=2)         21.57     21.58     24.27 
 O(Fragment=2)         15.78     17.78     22.65 
 H(Fragment=2)         16.46     18.25     23.14 
 H(Fragment=2)         15.87     18.11     21.75 
 O(Fragment=2)         14.63     20.89     18.58 
 H(Fragment=2)         14.07     20.8      19.35 
 H(Fragment=2)         15.39     21.38     18.9 
 O(Fragment=2)         17.61     20.04     14.77 
 H(Fragment=2)         17.39     20.94     14.56 
 H(Fragment=2)         17.31     19.92     15.67 
 O(Fragment=2)         18.23     17.56     24.18 
 H(Fragment=2)         17.72     17.48     24.99 
 H(Fragment=2)         19.13     17.69     24.48 
 O(Fragment=2)         24.19     18.38     23.5 
 H(Fragment=2)         23.25     18.39     23.66 
 H(Fragment=2)         24.43     19.31     23.39 
 O(Fragment=2)         20.33     24.5      16.38 
 H(Fragment=2)         20.68     23.62     16.27 
 H(Fragment=2)         20.94     25.07     15.9 
 O(Fragment=2)         23.28     14.77     19.97 
 H(Fragment=2)         23.31     14.52     19.04 
 H(Fragment=2)         23.02     15.69     19.96 
 O(Fragment=2)         21.36     14.68     22.37 
 H(Fragment=2)         20.74     15.       21.72 
 H(Fragment=2)         22.01     14.19     21.86 
 O(Fragment=2)         25.37     18.89     19.84 
 H(Fragment=2)         25.67     18.17     20.39 
 H(Fragment=2)         26.17     19.21     19.41 
 O(Fragment=2)         25.57     22.27     20.04 
 H(Fragment=2)         24.91     22.34     20.73 
 H(Fragment=2)         25.27     21.54     19.5 
 O(Fragment=2)         22.69     16.93     15.12 
 H(Fragment=2)         22.81     17.82     14.78 
 H(Fragment=2)         22.55     17.05     16.06 
 O(Fragment=2)         14.62     21.25     21.48 
 H(Fragment=2)         14.94     22.07     21.1 
 H(Fragment=2)         13.7      21.21     21.23 
 O(Fragment=2)         20.79     25.16     22.11 
 H(Fragment=2)         20.72     25.47     23.01 
 H(Fragment=2)         21.27     25.85     21.65 
 O(Fragment=2)         14.94     23.79     19.55 
 H(Fragment=2)         15.85     24.08     19.53 
 H(Fragment=2)         14.48     24.44     20.07 
 O(Fragment=2)         15.27     18.11     15.55 
 H(Fragment=2)         16.02     18.52     15.98 
 H(Fragment=2)         14.6      18.06     16.23 
 O(Fragment=2)         22.29     26.26     20.27 
 H(Fragment=2)         22.61     26.8      19.54 
 H(Fragment=2)         22.43     25.36     19.97 
 O(Fragment=2)         17.6      15.08     16.74 
 H(Fragment=2)         17.69     15.89     16.24 
 H(Fragment=2)         18.46     14.67     16.69 
 O(Fragment=2)         15.94     24.59     22.54 
 H(Fragment=2)         16.9      24.62     22.5 
 H(Fragment=2)         15.75     23.97     23.25 
 O(Fragment=2)         17.1      25.58     19.59 
 H(Fragment=2)         16.41     26.19     19.31 
 H(Fragment=2)         17.77     25.67     18.91 
 O(Fragment=2)         17.78     14.73     23.72 
 H(Fragment=2)         17.46     14.33     24.53 
 H(Fragment=2)         17.95     15.64     23.95 
 O(Fragment=2)         21.9      15.61     24.99 
 H(Fragment=2)         22.19     16.46     24.66 
 H(Fragment=2)         21.8      15.07     24.2 
 O(Fragment=2)         17.92     13.8      21.03 
 H(Fragment=2)         17.39     14.32     20.41 
 H(Fragment=2)         17.88     14.3      21.84 
 O(Fragment=2)         22.44     19.06     25.88 
 H(Fragment=2)         23.01     18.49     26.4 
 H(Fragment=2)         21.56     18.74     26.05 
 O(Fragment=2)         24.93     21.04     23.91 
 H(Fragment=2)         24.48     21.82     24.27 
 H(Fragment=2)         25.58     21.4      23.31 
 O(Fragment=2)         24.76     15.89     22.85 
 H(Fragment=2)         24.56     16.78     23.14 
 H(Fragment=2)         23.93     15.56     22.49 
 O(Fragment=2)         19.69     19.17     26.51 
 H(Fragment=2)         19.94     20.       26.91 
 H(Fragment=2)         18.76     19.27     26.31 
 O(Fragment=2)         23.86     23.36     24.84 
 H(Fragment=2)         24.22     23.65     25.68 
 H(Fragment=2)         23.08     22.86     25.07 
 O(Fragment=2)         18.85     24.49     25.71 
 H(Fragment=2)         18.92     23.56     25.49 
 H(Fragment=2)         17.97     24.58     26.08 
 O(Fragment=2)         13.5      19.55     23.76 
 H(Fragment=2)         13.36     20.38     23.32 
 H(Fragment=2)         14.36     19.25     23.46 
 O(Fragment=2)         14.25     17.21     18.05 
 H(Fragment=2)         13.65     17.23     18.79 
 H(Fragment=2)         14.22     16.31     17.73 
 O(Fragment=2)         16.95     20.62     26.7 
 H(Fragment=2)         16.2      21.1      27.06 
 H(Fragment=2)         17.29     21.19     26.01 
 O(Fragment=2)         18.51     26.53     17.62 
 H(Fragment=2)         18.35     27.32     17.11 
 H(Fragment=2)         19.01     25.97     17.03 
 O(Fragment=2)         14.11     23.43     17.16 
 H(Fragment=2)         13.65     22.6      17.09 
 H(Fragment=2)         14.5      23.41     18.04 
 O(Fragment=2)         25.21     25.41     19.05 
 H(Fragment=2)         24.78     24.64     18.67 
 H(Fragment=2)         24.88     26.14     18.54 
 O(Fragment=2)         24.01     20.02     14.36 
 H(Fragment=2)         24.68     20.       15.04 
 H(Fragment=2)         24.5      20.13     13.54 
 O(Fragment=2)         20.28     15.25     14.45 
 H(Fragment=2)         21.03     15.84     14.34 
 H(Fragment=2)         19.54     15.84     14.6 
 O(Fragment=2)         21.8      20.45     13.17 
 H(Fragment=2)         21.65     19.62     12.71 
 H(Fragment=2)         22.62     20.31     13.64 
 O(Fragment=2)         12.81     17.7      20.99 
 H(Fragment=2)         13.24     18.55     20.98 
 H(Fragment=2)         13.26     17.22     21.69 
 O(Fragment=2)         25.95     20.02     16.32 
 H(Fragment=2)         26.46     19.39     16.84 
 H(Fragment=2)         26.22     20.88     16.65 
 O(Fragment=2)         17.13     22.73     14.22 
 H(Fragment=2)         16.36     23.29     14.33 
 H(Fragment=2)         17.22     22.62     13.27 
 O(Fragment=2)         22.79     24.69     14.68 
 H(Fragment=2)         23.       24.15     13.93 
 H(Fragment=2)         23.2      24.24     15.42 
 O(Fragment=2)         20.24     22.11     27.69 
 H(Fragment=2)         20.6      22.96     27.94 
 H(Fragment=2)         20.3      22.1      26.73 
 O(Fragment=2)         26.69     22.46     17.42 
 H(Fragment=2)         26.52     22.43     18.36 
 H(Fragment=2)         27.6      22.76     17.36 
 O(Fragment=2)         17.78     19.14     12.22 
 H(Fragment=2)         17.91     19.97     11.77 
 H(Fragment=2)         17.88     19.35     13.15 
 O(Fragment=2)         20.7      12.79     19.66 
 H(Fragment=2)         19.78     12.56     19.75 
 H(Fragment=2)         21.1      12.51     20.48 
 O(Fragment=2)         26.64     16.76     21.03 
 H(Fragment=2)         26.82     16.09     20.37 
 H(Fragment=2)         26.04     16.34     21.65 
 O(Fragment=2)         20.54     26.03     24.47 
 H(Fragment=2)         21.22     26.24     25.1 
 H(Fragment=2)         20.02     25.35     24.9 
 O(Fragment=2)         14.11     14.68     20.6 
 H(Fragment=2)         14.69     14.23     19.98 
 H(Fragment=2)         14.7      15.17     21.17 
 O(Fragment=2)         16.84     18.01     26.54 
 H(Fragment=2)         16.8      18.96     26.44 
 H(Fragment=2)         15.94     17.74     26.67 
 O(Fragment=2)         15.1      15.35     15.62 
 H(Fragment=2)         15.48     16.22     15.66 
 H(Fragment=2)         15.68     14.8      16.15 
 O(Fragment=2)         18.66     25.61     14.21 
 H(Fragment=2)         19.22     25.       14.7 
 H(Fragment=2)         19.25     26.32     13.95 
 O(Fragment=2)         13.48     16.14     23.13 
 H(Fragment=2)         13.47     15.51     23.85 
 H(Fragment=2)         14.38     16.47     23.12 
 O(Fragment=2)         15.74     23.42     25.24 
 H(Fragment=2)         16.       24.3      25.52 
 H(Fragment=2)         15.61     22.94     26.06 
 O(Fragment=2)         21.07     17.47     27.95 
 H(Fragment=2)         20.54     17.1      28.66 
 H(Fragment=2)         20.43     17.9      27.38 
 O(Fragment=2)         23.46     21.68     27.57 
 H(Fragment=2)         22.67     21.73     27.04 
 H(Fragment=2)         23.2      22.01     28.43 
 O(Fragment=2)         12.24     20.76     19.92 
 H(Fragment=2)         11.69     21.55     19.91 
 H(Fragment=2)         12.16     20.4      19.04 
 O(Fragment=2)         14.64     26.51     20.9 
 H(Fragment=2)         15.19     27.26     21.12 
 H(Fragment=2)         14.97     25.8      21.46 
 O(Fragment=2)         28.04     18.78     21.74 
 H(Fragment=2)         28.67     18.35     22.31 
 H(Fragment=2)         27.45     18.08     21.46 
 O(Fragment=2)         24.14     13.73     17.73 
 H(Fragment=2)         24.75     14.       17.05 
 H(Fragment=2)         24.45     12.86     18. 
 O(Fragment=2)         20.45     28.52     19.06 
 H(Fragment=2)         20.05     28.61     19.93 
 H(Fragment=2)         20.01     27.76     18.67 
 O(Fragment=2)         12.73     23.65     21.57 
 H(Fragment=2)         13.43     23.78     22.21 
 H(Fragment=2)         11.93     23.83     22.06 
 O(Fragment=2)         27.51     18.06     17.56 
 H(Fragment=2)         27.35     17.5      18.32 
 H(Fragment=2)         28.35     18.48     17.74 
 O(Fragment=2)         26.01     24.76     23.83 
 H(Fragment=2)         25.35     24.16     24.18 
 H(Fragment=2)         25.59     25.18     23.08 
 O(Fragment=2)         15.94     12.53     19.46 
 H(Fragment=2)         15.89     11.73     18.94 
 H(Fragment=2)         16.86     12.62     19.69 
 O(Fragment=2)         14.72     24.33     14.81 
 H(Fragment=2)         13.89     24.2      14.35 
 H(Fragment=2)         14.55     24.06     15.71 
 O(Fragment=2)         26.       13.82     20.43 
 H(Fragment=2)         25.57     14.19     19.66 
 H(Fragment=2)         25.3      13.32     20.87 
 O(Fragment=2)         13.66     19.95     13.92 
 H(Fragment=2)         13.45     19.54     13.08 
 H(Fragment=2)         14.32     19.36     14.31 
 O(Fragment=2)         26.74     18.5      25.17 
 H(Fragment=2)         26.25     19.32     25.16 
 H(Fragment=2)         26.08     17.83     25.03 
 O(Fragment=2)         16.29     16.97     12.94 
 H(Fragment=2)         16.6      17.83     12.65 
 H(Fragment=2)         15.72     17.15     13.68 
 O(Fragment=2)         28.41     20.76     19.8 
 H(Fragment=2)         28.9      20.22     19.18 
 H(Fragment=2)         28.22     20.18     20.53 
 O(Fragment=2)         12.35     21.39     16.31 
 H(Fragment=2)         12.94     20.82     15.81 
 H(Fragment=2)         11.93     20.81     16.95 
 O(Fragment=2)         20.91     22.03     11.22 
 H(Fragment=2)         20.06     21.7      10.92 
 H(Fragment=2)         21.13     21.47     11.96 
 O(Fragment=2)         27.87     24.13     20.21 
 H(Fragment=2)         27.04     24.35     20.62 
 H(Fragment=2)         27.81     23.19     20.04 
 O(Fragment=2)         25.38     26.73     21.8 
 H(Fragment=2)         24.85     27.51     21.94 
 H(Fragment=2)         25.2      26.47     20.89 
 O(Fragment=2)         26.49     17.33     15.02 
 H(Fragment=2)         26.91     17.56     15.84 
 H(Fragment=2)         26.99     17.81     14.35 
 O(Fragment=2)         23.18     28.43     22.5 
 H(Fragment=2)         22.94     27.51     22.45 
 H(Fragment=2)         22.89     28.8      21.67 
 O(Fragment=2)         16.21     26.3      15.6 
 H(Fragment=2)         15.59     25.59     15.45 
 H(Fragment=2)         16.95     26.1      15.03 
 O(Fragment=2)         25.38     14.8      14.96 
 H(Fragment=2)         25.77     15.67     14.86 
 H(Fragment=2)         24.44     14.95     14.89 
 O(Fragment=2)         23.85     17.33     27.16 
 H(Fragment=2)         24.04     17.63     28.05 
 H(Fragment=2)         23.02     16.86     27.24 
 O(Fragment=2)         22.84     27.76     18.22 
 H(Fragment=2)         22.07     28.21     18.57 
 H(Fragment=2)         23.43     28.47     17.95 
 O(Fragment=2)         19.49     28.5      21.89 
 H(Fragment=2)         18.65     28.26     21.5 
 H(Fragment=2)         19.34     28.48     22.83 
 O(Fragment=2)         20.99     11.01     17.26 
 H(Fragment=2)         21.76     11.1      16.7 
 H(Fragment=2)         20.95     11.84     17.74 
 O(Fragment=2)         21.24     17.59     11.55 
 H(Fragment=2)         20.64     18.17     11.09 
 H(Fragment=2)         20.68     16.99     12.04 
 O(Fragment=2)         21.21     26.64     13.89 
 H(Fragment=2)         21.82     25.93     14.09 
 H(Fragment=2)         21.56     27.39     14.36 
 O(Fragment=2)         18.83     15.86     11.83 
 H(Fragment=2)         18.39     15.03     12.01 
 H(Fragment=2)         18.33     16.51     12.33 
 O(Fragment=2)         13.19     25.91     17.23 
 H(Fragment=2)         13.61     25.07     17.1 
 H(Fragment=2)         12.7      25.81     18.05 
 O(Fragment=2)         22.89     13.74     26.65 
 H(Fragment=2)         22.12     13.17     26.68 
 H(Fragment=2)         22.58     14.54     26.22 
 O(Fragment=2)         24.48     16.94     12.06 
 H(Fragment=2)         25.33     17.37     11.94 
 H(Fragment=2)         24.28     17.07     12.98 
 O(Fragment=2)         15.49     27.3      17.99 
 H(Fragment=2)         14.61     26.91     18.02 
 H(Fragment=2)         15.8      27.14     17.1 
 O(Fragment=2)         19.17     28.31     24.8 
 H(Fragment=2)         19.57     28.66     25.6 
 H(Fragment=2)         19.71     27.56     24.57 
 O(Fragment=2)         22.13     11.58     22.31 
 H(Fragment=2)         22.97     11.91     22.64 
 H(Fragment=2)         21.5      11.8      23. 
 O(Fragment=2)         16.7      11.23     22.08 
 H(Fragment=2)         17.48     10.94     21.62 
 H(Fragment=2)         16.42     12.01     21.6 
 O(Fragment=2)         27.86     14.85     22.75 
 H(Fragment=2)         28.11     14.8      21.83 
 H(Fragment=2)         26.95     15.14     22.73 
 O(Fragment=2)         28.38     21.77     22.48 
 H(Fragment=2)         28.67     21.63     21.58 
 H(Fragment=2)         28.47     22.72     22.62 
 O(Fragment=2)         27.64     15.53     18.79 
 H(Fragment=2)         27.44     14.69     18.39 
 H(Fragment=2)         28.52     15.75     18.46 
 O(Fragment=2)         17.44     19.74     29.4 
 H(Fragment=2)         17.5      20.23     28.58 
 H(Fragment=2)         16.56     19.36     29.39 
 O(Fragment=2)         25.28     22.5      12.91 
 H(Fragment=2)         25.37     21.61     12.55 
 H(Fragment=2)         24.38     22.75     12.7 
 O(Fragment=2)         16.63     28.62     20.42 
 H(Fragment=2)         16.5      28.23     19.55 
 H(Fragment=2)         16.28     29.5      20.34 
 O(Fragment=2)         18.22     16.73     28.89 
 H(Fragment=2)         17.73     16.77     29.71 
 H(Fragment=2)         17.71     17.26     28.28 
 O(Fragment=2)         25.97     15.52     26.17 
 H(Fragment=2)         25.22     16.11     26.28 
 H(Fragment=2)         25.79     15.04     25.37 
 O(Fragment=2)         27.76     21.35     14.01 
 H(Fragment=2)         27.81     21.77     13.15 
 H(Fragment=2)         26.89     21.57     14.34 
 O(Fragment=2)         11.75     25.38     19.48 
 H(Fragment=2)         12.3      24.78     19.97 
 H(Fragment=2)         11.15     25.74     20.13 
 O(Fragment=2)         10.37     18.54     20.47 
 H(Fragment=2)         10.68     19.42     20.26 
 H(Fragment=2)         11.17     18.03     20.6 
 O(Fragment=2)         11.49     18.62     25.17 
 H(Fragment=2)         12.27     19.       24.76 
 H(Fragment=2)         11.77     17.75     25.45 
 O(Fragment=2)         23.9      12.83     24.11 
 H(Fragment=2)         24.76     13.13     24.4 
 H(Fragment=2)         23.4      12.7      24.91 
 O(Fragment=2)         18.24     12.33     13.7 
 H(Fragment=2)         18.51     12.82     14.48 
 H(Fragment=2)         17.52     12.85     13.33 
 O(Fragment=2)         22.86     23.57     11.99 
 H(Fragment=2)         23.18     24.2      11.34 
 H(Fragment=2)         22.18     23.07     11.54 
 
 NAtoms=    385 NQM=      385 NQMF=       0 NMMI=      0 NMMIF=      0
                NMic=       0 NMicF=      0.
                    Isotopes and Nuclear Properties:
 (Nuclear quadrupole moments (NQMom) in fm**2, nuclear magnetic moments (NMagM)
  in nuclear magnetons)

  Atom         1           2           3           4           5           6           7           8           9          10
 IAtWgt=          79          16           1           1          16           1           1          16           1           1
 AtmWgt=  78.9183361  15.9949146   1.0078250   1.0078250  15.9949146   1.0078250   1.0078250  15.9949146   1.0078250   1.0078250
 NucSpn=           3           0           1           1           0           1           1           0           1           1
 AtZEff=   0.0000000   0.0000000   0.0000000   0.0000000   0.0000000   0.0000000   0.0000000   0.0000000   0.0000000   0.0000000
 NQMom=   31.3000000   0.0000000   0.0000000   0.0000000   0.0000000   0.0000000   0.0000000   0.0000000   0.0000000   0.0000000
 NMagM=    2.1063990   0.0000000   2.7928460   2.7928460   0.0000000   2.7928460   2.7928460   0.0000000   2.7928460   2.7928460
 AtZNuc=  35.0000000   8.0000000   1.0000000   1.0000000   8.0000000   1.0000000   1.0000000   8.0000000   1.0000000   1.0000000

  Atom        11          12          13          14          15          16          17          18          19          20
 IAtWgt=          16           1           1          16           1           1          16           1           1          16
 AtmWgt=  15.9949146   1.0078250   1.0078250  15.9949146   1.0078250   1.0078250  15.9949146   1.0078250   1.0078250  15.9949146
 NucSpn=           0           1           1           0           1           1           0           1           1           0
 AtZEff=   0.0000000   0.0000000   0.0000000   0.0000000   0.0000000   0.0000000   0.0000000   0.0000000   0.0000000   0.0000000
 NQMom=    0.0000000   0.0000000   0.0000000   0.0000000   0.0000000   0.0000000   0.0000000   0.0000000   0.0000000   0.0000000
 NMagM=    0.0000000   2.7928460   2.7928460   0.0000000   2.7928460   2.7928460   0.0000000   2.7928460   2.7928460   0.0000000
 AtZNuc=   8.0000000   1.0000000   1.0000000   8.0000000   1.0000000   1.0000000   8.0000000   1.0000000   1.0000000   8.0000000

  Atom        21          22          23          24          25          26          27          28          29          30
 IAtWgt=           1           1          16           1           1          16           1           1          16           1
 AtmWgt=   1.0078250   1.0078250  15.9949146   1.0078250   1.0078250  15.9949146   1.0078250   1.0078250  15.9949146   1.0078250
 NucSpn=           1           1           0           1           1           0           1           1           0           1
 AtZEff=   0.0000000   0.0000000   0.0000000   0.0000000   0.0000000   0.0000000   0.0000000   0.0000000   0.0000000   0.0000000
 NQMom=    0.0000000   0.0000000   0.0000000   0.0000000   0.0000000   0.0000000   0.0000000   0.0000000   0.0000000   0.0000000
 NMagM=    2.7928460   2.7928460   0.0000000   2.7928460   2.7928460   0.0000000   2.7928460   2.7928460   0.0000000   2.7928460
 AtZNuc=   1.0000000   1.0000000   8.0000000   1.0000000   1.0000000   8.0000000   1.0000000   1.0000000   8.0000000   1.0000000

  Atom        31          32          33          34          35          36          37          38          39          40
 IAtWgt=           1          16           1           1          16           1           1          16           1           1
 AtmWgt=   1.0078250  15.9949146   1.0078250   1.0078250  15.9949146   1.0078250   1.0078250  15.9949146   1.0078250   1.0078250
 NucSpn=           1           0           1           1           0           1           1           0           1           1
 AtZEff=   0.0000000   0.0000000   0.0000000   0.0000000   0.0000000   0.0000000   0.0000000   0.0000000   0.0000000   0.0000000
 NQMom=    0.0000000   0.0000000   0.0000000   0.0000000   0.0000000   0.0000000   0.0000000   0.0000000   0.0000000   0.0000000
 NMagM=    2.7928460   0.0000000   2.7928460   2.7928460   0.0000000   2.7928460   2.7928460   0.0000000   2.7928460   2.7928460
 AtZNuc=   1.0000000   8.0000000   1.0000000   1.0000000   8.0000000   1.0000000   1.0000000   8.0000000   1.0000000   1.0000000

  Atom        41          42          43          44          45          46          47          48          49          50
 IAtWgt=          16           1           1          16           1           1          16           1           1          16
 AtmWgt=  15.9949146   1.0078250   1.0078250  15.9949146   1.0078250   1.0078250  15.9949146   1.0078250   1.0078250  15.9949146
 NucSpn=           0           1           1           0           1           1           0           1           1           0
 AtZEff=   0.0000000   0.0000000   0.0000000   0.0000000   0.0000000   0.0000000   0.0000000   0.0000000   0.0000000   0.0000000
 NQMom=    0.0000000   0.0000000   0.0000000   0.0000000   0.0000000   0.0000000   0.0000000   0.0000000   0.0000000   0.0000000
 NMagM=    0.0000000   2.7928460   2.7928460   0.0000000   2.7928460   2.7928460   0.0000000   2.7928460   2.7928460   0.0000000
 AtZNuc=   8.0000000   1.0000000   1.0000000   8.0000000   1.0000000   1.0000000   8.0000000   1.0000000   1.0000000   8.0000000

  Atom        51          52          53          54          55          56          57          58          59          60
 IAtWgt=           1           1          16           1           1          16           1           1          16           1
 AtmWgt=   1.0078250   1.0078250  15.9949146   1.0078250   1.0078250  15.9949146   1.0078250   1.0078250  15.9949146   1.0078250
 NucSpn=           1           1           0           1           1           0           1           1           0           1
 AtZEff=   0.0000000   0.0000000   0.0000000   0.0000000   0.0000000   0.0000000   0.0000000   0.0000000   0.0000000   0.0000000
 NQMom=    0.0000000   0.0000000   0.0000000   0.0000000   0.0000000   0.0000000   0.0000000   0.0000000   0.0000000   0.0000000
 NMagM=    2.7928460   2.7928460   0.0000000   2.7928460   2.7928460   0.0000000   2.7928460   2.7928460   0.0000000   2.7928460
 AtZNuc=   1.0000000   1.0000000   8.0000000   1.0000000   1.0000000   8.0000000   1.0000000   1.0000000   8.0000000   1.0000000

  Atom        61          62          63          64          65          66          67          68          69          70
 IAtWgt=           1          16           1           1          16           1           1          16           1           1
 AtmWgt=   1.0078250  15.9949146   1.0078250   1.0078250  15.9949146   1.0078250   1.0078250  15.9949146   1.0078250   1.0078250
 NucSpn=           1           0           1           1           0           1           1           0           1           1
 AtZEff=   0.0000000   0.0000000   0.0000000   0.0000000   0.0000000   0.0000000   0.0000000   0.0000000   0.0000000   0.0000000
 NQMom=    0.0000000   0.0000000   0.0000000   0.0000000   0.0000000   0.0000000   0.0000000   0.0000000   0.0000000   0.0000000
 NMagM=    2.7928460   0.0000000   2.7928460   2.7928460   0.0000000   2.7928460   2.7928460   0.0000000   2.7928460   2.7928460
 AtZNuc=   1.0000000   8.0000000   1.0000000   1.0000000   8.0000000   1.0000000   1.0000000   8.0000000   1.0000000   1.0000000

  Atom        71          72          73          74          75          76          77          78          79          80
 IAtWgt=          16           1           1          16           1           1          16           1           1          16
 AtmWgt=  15.9949146   1.0078250   1.0078250  15.9949146   1.0078250   1.0078250  15.9949146   1.0078250   1.0078250  15.9949146
 NucSpn=           0           1           1           0           1           1           0           1           1           0
 AtZEff=   0.0000000   0.0000000   0.0000000   0.0000000   0.0000000   0.0000000   0.0000000   0.0000000   0.0000000   0.0000000
 NQMom=    0.0000000   0.0000000   0.0000000   0.0000000   0.0000000   0.0000000   0.0000000   0.0000000   0.0000000   0.0000000
 NMagM=    0.0000000   2.7928460   2.7928460   0.0000000   2.7928460   2.7928460   0.0000000   2.7928460   2.7928460   0.0000000
 AtZNuc=   8.0000000   1.0000000   1.0000000   8.0000000   1.0000000   1.0000000   8.0000000   1.0000000   1.0000000   8.0000000

  Atom        81          82          83          84          85          86          87          88          89          90
 IAtWgt=           1           1          16           1           1          16           1           1          16           1
 AtmWgt=   1.0078250   1.0078250  15.9949146   1.0078250   1.0078250  15.9949146   1.0078250   1.0078250  15.9949146   1.0078250
 NucSpn=           1           1           0           1           1           0           1           1           0           1
 AtZEff=   0.0000000   0.0000000   0.0000000   0.0000000   0.0000000   0.0000000   0.0000000   0.0000000   0.0000000   0.0000000
 NQMom=    0.0000000   0.0000000   0.0000000   0.0000000   0.0000000   0.0000000   0.0000000   0.0000000   0.0000000   0.0000000
 NMagM=    2.7928460   2.7928460   0.0000000   2.7928460   2.7928460   0.0000000   2.7928460   2.7928460   0.0000000   2.7928460
 AtZNuc=   1.0000000   1.0000000   8.0000000   1.0000000   1.0000000   8.0000000   1.0000000   1.0000000   8.0000000   1.0000000

  Atom        91          92          93          94          95          96          97          98          99         100
 IAtWgt=           1          16           1           1          16           1           1          16           1           1
 AtmWgt=   1.0078250  15.9949146   1.0078250   1.0078250  15.9949146   1.0078250   1.0078250  15.9949146   1.0078250   1.0078250
 NucSpn=           1           0           1           1           0           1           1           0           1           1
 AtZEff=   0.0000000   0.0000000   0.0000000   0.0000000   0.0000000   0.0000000   0.0000000   0.0000000   0.0000000   0.0000000
 NQMom=    0.0000000   0.0000000   0.0000000   0.0000000   0.0000000   0.0000000   0.0000000   0.0000000   0.0000000   0.0000000
 NMagM=    2.7928460   0.0000000   2.7928460   2.7928460   0.0000000   2.7928460   2.7928460   0.0000000   2.7928460   2.7928460
 AtZNuc=   1.0000000   8.0000000   1.0000000   1.0000000   8.0000000   1.0000000   1.0000000   8.0000000   1.0000000   1.0000000

  Atom       101         102         103         104         105         106         107         108         109         110
 IAtWgt=          16           1           1          16           1           1          16           1           1          16
 AtmWgt=  15.9949146   1.0078250   1.0078250  15.9949146   1.0078250   1.0078250  15.9949146   1.0078250   1.0078250  15.9949146
 NucSpn=           0           1           1           0           1           1           0           1           1           0
 AtZEff=   0.0000000   0.0000000   0.0000000   0.0000000   0.0000000   0.0000000   0.0000000   0.0000000   0.0000000   0.0000000
 NQMom=    0.0000000   0.0000000   0.0000000   0.0000000   0.0000000   0.0000000   0.0000000   0.0000000   0.0000000   0.0000000
 NMagM=    0.0000000   2.7928460   2.7928460   0.0000000   2.7928460   2.7928460   0.0000000   2.7928460   2.7928460   0.0000000
 AtZNuc=   8.0000000   1.0000000   1.0000000   8.0000000   1.0000000   1.0000000   8.0000000   1.0000000   1.0000000   8.0000000

  Atom       111         112         113         114         115         116         117         118         119         120
 IAtWgt=           1           1          16           1           1          16           1           1          16           1
 AtmWgt=   1.0078250   1.0078250  15.9949146   1.0078250   1.0078250  15.9949146   1.0078250   1.0078250  15.9949146   1.0078250
 NucSpn=           1           1           0           1           1           0           1           1           0           1
 AtZEff=   0.0000000   0.0000000   0.0000000   0.0000000   0.0000000   0.0000000   0.0000000   0.0000000   0.0000000   0.0000000
 NQMom=    0.0000000   0.0000000   0.0000000   0.0000000   0.0000000   0.0000000   0.0000000   0.0000000   0.0000000   0.0000000
 NMagM=    2.7928460   2.7928460   0.0000000   2.7928460   2.7928460   0.0000000   2.7928460   2.7928460   0.0000000   2.7928460
 AtZNuc=   1.0000000   1.0000000   8.0000000   1.0000000   1.0000000   8.0000000   1.0000000   1.0000000   8.0000000   1.0000000

  Atom       121         122         123         124         125         126         127         128         129         130
 IAtWgt=           1          16           1           1          16           1           1          16           1           1
 AtmWgt=   1.0078250  15.9949146   1.0078250   1.0078250  15.9949146   1.0078250   1.0078250  15.9949146   1.0078250   1.0078250
 NucSpn=           1           0           1           1           0           1           1           0           1           1
 AtZEff=   0.0000000   0.0000000   0.0000000   0.0000000   0.0000000   0.0000000   0.0000000   0.0000000   0.0000000   0.0000000
 NQMom=    0.0000000   0.0000000   0.0000000   0.0000000   0.0000000   0.0000000   0.0000000   0.0000000   0.0000000   0.0000000
 NMagM=    2.7928460   0.0000000   2.7928460   2.7928460   0.0000000   2.7928460   2.7928460   0.0000000   2.7928460   2.7928460
 AtZNuc=   1.0000000   8.0000000   1.0000000   1.0000000   8.0000000   1.0000000   1.0000000   8.0000000   1.0000000   1.0000000

  Atom       131         132         133         134         135         136         137         138         139         140
 IAtWgt=          16           1           1          16           1           1          16           1           1          16
 AtmWgt=  15.9949146   1.0078250   1.0078250  15.9949146   1.0078250   1.0078250  15.9949146   1.0078250   1.0078250  15.9949146
 NucSpn=           0           1           1           0           1           1           0           1           1           0
 AtZEff=   0.0000000   0.0000000   0.0000000   0.0000000   0.0000000   0.0000000   0.0000000   0.0000000   0.0000000   0.0000000
 NQMom=    0.0000000   0.0000000   0.0000000   0.0000000   0.0000000   0.0000000   0.0000000   0.0000000   0.0000000   0.0000000
 NMagM=    0.0000000   2.7928460   2.7928460   0.0000000   2.7928460   2.7928460   0.0000000   2.7928460   2.7928460   0.0000000
 AtZNuc=   8.0000000   1.0000000   1.0000000   8.0000000   1.0000000   1.0000000   8.0000000   1.0000000   1.0000000   8.0000000

  Atom       141         142         143         144         145         146         147         148         149         150
 IAtWgt=           1           1          16           1           1          16           1           1          16           1
 AtmWgt=   1.0078250   1.0078250  15.9949146   1.0078250   1.0078250  15.9949146   1.0078250   1.0078250  15.9949146   1.0078250
 NucSpn=           1           1           0           1           1           0           1           1           0           1
 AtZEff=   0.0000000   0.0000000   0.0000000   0.0000000   0.0000000   0.0000000   0.0000000   0.0000000   0.0000000   0.0000000
 NQMom=    0.0000000   0.0000000   0.0000000   0.0000000   0.0000000   0.0000000   0.0000000   0.0000000   0.0000000   0.0000000
 NMagM=    2.7928460   2.7928460   0.0000000   2.7928460   2.7928460   0.0000000   2.7928460   2.7928460   0.0000000   2.7928460
 AtZNuc=   1.0000000   1.0000000   8.0000000   1.0000000   1.0000000   8.0000000   1.0000000   1.0000000   8.0000000   1.0000000

  Atom       151         152         153         154         155         156         157         158         159         160
 IAtWgt=           1          16           1           1          16           1           1          16           1           1
 AtmWgt=   1.0078250  15.9949146   1.0078250   1.0078250  15.9949146   1.0078250   1.0078250  15.9949146   1.0078250   1.0078250
 NucSpn=           1           0           1           1           0           1           1           0           1           1
 AtZEff=   0.0000000   0.0000000   0.0000000   0.0000000   0.0000000   0.0000000   0.0000000   0.0000000   0.0000000   0.0000000
 NQMom=    0.0000000   0.0000000   0.0000000   0.0000000   0.0000000   0.0000000   0.0000000   0.0000000   0.0000000   0.0000000
 NMagM=    2.7928460   0.0000000   2.7928460   2.7928460   0.0000000   2.7928460   2.7928460   0.0000000   2.7928460   2.7928460
 AtZNuc=   1.0000000   8.0000000   1.0000000   1.0000000   8.0000000   1.0000000   1.0000000   8.0000000   1.0000000   1.0000000

  Atom       161         162         163         164         165         166         167         168         169         170
 IAtWgt=          16           1           1          16           1           1          16           1           1          16
 AtmWgt=  15.9949146   1.0078250   1.0078250  15.9949146   1.0078250   1.0078250  15.9949146   1.0078250   1.0078250  15.9949146
 NucSpn=           0           1           1           0           1           1           0           1           1           0
 AtZEff=   0.0000000   0.0000000   0.0000000   0.0000000   0.0000000   0.0000000   0.0000000   0.0000000   0.0000000   0.0000000
 NQMom=    0.0000000   0.0000000   0.0000000   0.0000000   0.0000000   0.0000000   0.0000000   0.0000000   0.0000000   0.0000000
 NMagM=    0.0000000   2.7928460   2.7928460   0.0000000   2.7928460   2.7928460   0.0000000   2.7928460   2.7928460   0.0000000
 AtZNuc=   8.0000000   1.0000000   1.0000000   8.0000000   1.0000000   1.0000000   8.0000000   1.0000000   1.0000000   8.0000000

  Atom       171         172         173         174         175         176         177         178         179         180
 IAtWgt=           1           1          16           1           1          16           1           1          16           1
 AtmWgt=   1.0078250   1.0078250  15.9949146   1.0078250   1.0078250  15.9949146   1.0078250   1.0078250  15.9949146   1.0078250
 NucSpn=           1           1           0           1           1           0           1           1           0           1
 AtZEff=   0.0000000   0.0000000   0.0000000   0.0000000   0.0000000   0.0000000   0.0000000   0.0000000   0.0000000   0.0000000
 NQMom=    0.0000000   0.0000000   0.0000000   0.0000000   0.0000000   0.0000000   0.0000000   0.0000000   0.0000000   0.0000000
 NMagM=    2.7928460   2.7928460   0.0000000   2.7928460   2.7928460   0.0000000   2.7928460   2.7928460   0.0000000   2.7928460
 AtZNuc=   1.0000000   1.0000000   8.0000000   1.0000000   1.0000000   8.0000000   1.0000000   1.0000000   8.0000000   1.0000000

  Atom       181         182         183         184         185         186         187         188         189         190
 IAtWgt=           1          16           1           1          16           1           1          16           1           1
 AtmWgt=   1.0078250  15.9949146   1.0078250   1.0078250  15.9949146   1.0078250   1.0078250  15.9949146   1.0078250   1.0078250
 NucSpn=           1           0           1           1           0           1           1           0           1           1
 AtZEff=   0.0000000   0.0000000   0.0000000   0.0000000   0.0000000   0.0000000   0.0000000   0.0000000   0.0000000   0.0000000
 NQMom=    0.0000000   0.0000000   0.0000000   0.0000000   0.0000000   0.0000000   0.0000000   0.0000000   0.0000000   0.0000000
 NMagM=    2.7928460   0.0000000   2.7928460   2.7928460   0.0000000   2.7928460   2.7928460   0.0000000   2.7928460   2.7928460
 AtZNuc=   1.0000000   8.0000000   1.0000000   1.0000000   8.0000000   1.0000000   1.0000000   8.0000000   1.0000000   1.0000000

  Atom       191         192         193         194         195         196         197         198         199         200
 IAtWgt=          16           1           1          16           1           1          16           1           1          16
 AtmWgt=  15.9949146   1.0078250   1.0078250  15.9949146   1.0078250   1.0078250  15.9949146   1.0078250   1.0078250  15.9949146
 NucSpn=           0           1           1           0           1           1           0           1           1           0
 AtZEff=   0.0000000   0.0000000   0.0000000   0.0000000   0.0000000   0.0000000   0.0000000   0.0000000   0.0000000   0.0000000
 NQMom=    0.0000000   0.0000000   0.0000000   0.0000000   0.0000000   0.0000000   0.0000000   0.0000000   0.0000000   0.0000000
 NMagM=    0.0000000   2.7928460   2.7928460   0.0000000   2.7928460   2.7928460   0.0000000   2.7928460   2.7928460   0.0000000
 AtZNuc=   8.0000000   1.0000000   1.0000000   8.0000000   1.0000000   1.0000000   8.0000000   1.0000000   1.0000000   8.0000000

  Atom       201         202         203         204         205         206         207         208         209         210
 IAtWgt=           1           1          16           1           1          16           1           1          16           1
 AtmWgt=   1.0078250   1.0078250  15.9949146   1.0078250   1.0078250  15.9949146   1.0078250   1.0078250  15.9949146   1.0078250
 NucSpn=           1           1           0           1           1           0           1           1           0           1
 AtZEff=   0.0000000   0.0000000   0.0000000   0.0000000   0.0000000   0.0000000   0.0000000   0.0000000   0.0000000   0.0000000
 NQMom=    0.0000000   0.0000000   0.0000000   0.0000000   0.0000000   0.0000000   0.0000000   0.0000000   0.0000000   0.0000000
 NMagM=    2.7928460   2.7928460   0.0000000   2.7928460   2.7928460   0.0000000   2.7928460   2.7928460   0.0000000   2.7928460
 AtZNuc=   1.0000000   1.0000000   8.0000000   1.0000000   1.0000000   8.0000000   1.0000000   1.0000000   8.0000000   1.0000000

  Atom       211         212         213         214         215         216         217         218         219         220
 IAtWgt=           1          16           1           1          16           1           1          16           1           1
 AtmWgt=   1.0078250  15.9949146   1.0078250   1.0078250  15.9949146   1.0078250   1.0078250  15.9949146   1.0078250   1.0078250
 NucSpn=           1           0           1           1           0           1           1           0           1           1
 AtZEff=   0.0000000   0.0000000   0.0000000   0.0000000   0.0000000   0.0000000   0.0000000   0.0000000   0.0000000   0.0000000
 NQMom=    0.0000000   0.0000000   0.0000000   0.0000000   0.0000000   0.0000000   0.0000000   0.0000000   0.0000000   0.0000000
 NMagM=    2.7928460   0.0000000   2.7928460   2.7928460   0.0000000   2.7928460   2.7928460   0.0000000   2.7928460   2.7928460
 AtZNuc=   1.0000000   8.0000000   1.0000000   1.0000000   8.0000000   1.0000000   1.0000000   8.0000000   1.0000000   1.0000000

  Atom       221         222         223         224         225         226         227         228         229         230
 IAtWgt=          16           1           1          16           1           1          16           1           1          16
 AtmWgt=  15.9949146   1.0078250   1.0078250  15.9949146   1.0078250   1.0078250  15.9949146   1.0078250   1.0078250  15.9949146
 NucSpn=           0           1           1           0           1           1           0           1           1           0
 AtZEff=   0.0000000   0.0000000   0.0000000   0.0000000   0.0000000   0.0000000   0.0000000   0.0000000   0.0000000   0.0000000
 NQMom=    0.0000000   0.0000000   0.0000000   0.0000000   0.0000000   0.0000000   0.0000000   0.0000000   0.0000000   0.0000000
 NMagM=    0.0000000   2.7928460   2.7928460   0.0000000   2.7928460   2.7928460   0.0000000   2.7928460   2.7928460   0.0000000
 AtZNuc=   8.0000000   1.0000000   1.0000000   8.0000000   1.0000000   1.0000000   8.0000000   1.0000000   1.0000000   8.0000000

  Atom       231         232         233         234         235         236         237         238         239         240
 IAtWgt=           1           1          16           1           1          16           1           1          16           1
 AtmWgt=   1.0078250   1.0078250  15.9949146   1.0078250   1.0078250  15.9949146   1.0078250   1.0078250  15.9949146   1.0078250
 NucSpn=           1           1           0           1           1           0           1           1           0           1
 AtZEff=   0.0000000   0.0000000   0.0000000   0.0000000   0.0000000   0.0000000   0.0000000   0.0000000   0.0000000   0.0000000
 NQMom=    0.0000000   0.0000000   0.0000000   0.0000000   0.0000000   0.0000000   0.0000000   0.0000000   0.0000000   0.0000000
 NMagM=    2.7928460   2.7928460   0.0000000   2.7928460   2.7928460   0.0000000   2.7928460   2.7928460   0.0000000   2.7928460
 AtZNuc=   1.0000000   1.0000000   8.0000000   1.0000000   1.0000000   8.0000000   1.0000000   1.0000000   8.0000000   1.0000000

  Atom       241         242         243         244         245         246         247         248         249         250
 IAtWgt=           1          16           1           1          16           1           1          16           1           1
 AtmWgt=   1.0078250  15.9949146   1.0078250   1.0078250  15.9949146   1.0078250   1.0078250  15.9949146   1.0078250   1.0078250
 NucSpn=           1           0           1           1           0           1           1           0           1           1
 AtZEff=   0.0000000   0.0000000   0.0000000   0.0000000   0.0000000   0.0000000   0.0000000   0.0000000   0.0000000   0.0000000
 NQMom=    0.0000000   0.0000000   0.0000000   0.0000000   0.0000000   0.0000000   0.0000000   0.0000000   0.0000000   0.0000000
 NMagM=    2.7928460   0.0000000   2.7928460   2.7928460   0.0000000   2.7928460   2.7928460   0.0000000   2.7928460   2.7928460
 AtZNuc=   1.0000000   8.0000000   1.0000000   1.0000000   8.0000000   1.0000000   1.0000000   8.0000000   1.0000000   1.0000000

  Atom       251         252         253         254         255         256         257         258         259         260
 IAtWgt=          16           1           1          16           1           1          16           1           1          16
 AtmWgt=  15.9949146   1.0078250   1.0078250  15.9949146   1.0078250   1.0078250  15.9949146   1.0078250   1.0078250  15.9949146
 NucSpn=           0           1           1           0           1           1           0           1           1           0
 AtZEff=   0.0000000   0.0000000   0.0000000   0.0000000   0.0000000   0.0000000   0.0000000   0.0000000   0.0000000   0.0000000
 NQMom=    0.0000000   0.0000000   0.0000000   0.0000000   0.0000000   0.0000000   0.0000000   0.0000000   0.0000000   0.0000000
 NMagM=    0.0000000   2.7928460   2.7928460   0.0000000   2.7928460   2.7928460   0.0000000   2.7928460   2.7928460   0.0000000
 AtZNuc=   8.0000000   1.0000000   1.0000000   8.0000000   1.0000000   1.0000000   8.0000000   1.0000000   1.0000000   8.0000000

  Atom       261         262         263         264         265         266         267         268         269         270
 IAtWgt=           1           1          16           1           1          16           1           1          16           1
 AtmWgt=   1.0078250   1.0078250  15.9949146   1.0078250   1.0078250  15.9949146   1.0078250   1.0078250  15.9949146   1.0078250
 NucSpn=           1           1           0           1           1           0           1           1           0           1
 AtZEff=   0.0000000   0.0000000   0.0000000   0.0000000   0.0000000   0.0000000   0.0000000   0.0000000   0.0000000   0.0000000
 NQMom=    0.0000000   0.0000000   0.0000000   0.0000000   0.0000000   0.0000000   0.0000000   0.0000000   0.0000000   0.0000000
 NMagM=    2.7928460   2.7928460   0.0000000   2.7928460   2.7928460   0.0000000   2.7928460   2.7928460   0.0000000   2.7928460
 AtZNuc=   1.0000000   1.0000000   8.0000000   1.0000000   1.0000000   8.0000000   1.0000000   1.0000000   8.0000000   1.0000000

  Atom       271         272         273         274         275         276         277         278         279         280
 IAtWgt=           1          16           1           1          16           1           1          16           1           1
 AtmWgt=   1.0078250  15.9949146   1.0078250   1.0078250  15.9949146   1.0078250   1.0078250  15.9949146   1.0078250   1.0078250
 NucSpn=           1           0           1           1           0           1           1           0           1           1
 AtZEff=   0.0000000   0.0000000   0.0000000   0.0000000   0.0000000   0.0000000   0.0000000   0.0000000   0.0000000   0.0000000
 NQMom=    0.0000000   0.0000000   0.0000000   0.0000000   0.0000000   0.0000000   0.0000000   0.0000000   0.0000000   0.0000000
 NMagM=    2.7928460   0.0000000   2.7928460   2.7928460   0.0000000   2.7928460   2.7928460   0.0000000   2.7928460   2.7928460
 AtZNuc=   1.0000000   8.0000000   1.0000000   1.0000000   8.0000000   1.0000000   1.0000000   8.0000000   1.0000000   1.0000000

  Atom       281         282         283         284         285         286         287         288         289         290
 IAtWgt=          16           1           1          16           1           1          16           1           1          16
 AtmWgt=  15.9949146   1.0078250   1.0078250  15.9949146   1.0078250   1.0078250  15.9949146   1.0078250   1.0078250  15.9949146
 NucSpn=           0           1           1           0           1           1           0           1           1           0
 AtZEff=   0.0000000   0.0000000   0.0000000   0.0000000   0.0000000   0.0000000   0.0000000   0.0000000   0.0000000   0.0000000
 NQMom=    0.0000000   0.0000000   0.0000000   0.0000000   0.0000000   0.0000000   0.0000000   0.0000000   0.0000000   0.0000000
 NMagM=    0.0000000   2.7928460   2.7928460   0.0000000   2.7928460   2.7928460   0.0000000   2.7928460   2.7928460   0.0000000
 AtZNuc=   8.0000000   1.0000000   1.0000000   8.0000000   1.0000000   1.0000000   8.0000000   1.0000000   1.0000000   8.0000000

  Atom       291         292         293         294         295         296         297         298         299         300
 IAtWgt=           1           1          16           1           1          16           1           1          16           1
 AtmWgt=   1.0078250   1.0078250  15.9949146   1.0078250   1.0078250  15.9949146   1.0078250   1.0078250  15.9949146   1.0078250
 NucSpn=           1           1           0           1           1           0           1           1           0           1
 AtZEff=   0.0000000   0.0000000   0.0000000   0.0000000   0.0000000   0.0000000   0.0000000   0.0000000   0.0000000   0.0000000
 NQMom=    0.0000000   0.0000000   0.0000000   0.0000000   0.0000000   0.0000000   0.0000000   0.0000000   0.0000000   0.0000000
 NMagM=    2.7928460   2.7928460   0.0000000   2.7928460   2.7928460   0.0000000   2.7928460   2.7928460   0.0000000   2.7928460
 AtZNuc=   1.0000000   1.0000000   8.0000000   1.0000000   1.0000000   8.0000000   1.0000000   1.0000000   8.0000000   1.0000000

  Atom       301         302         303         304         305         306         307         308         309         310
 IAtWgt=           1          16           1           1          16           1           1          16           1           1
 AtmWgt=   1.0078250  15.9949146   1.0078250   1.0078250  15.9949146   1.0078250   1.0078250  15.9949146   1.0078250   1.0078250
 NucSpn=           1           0           1           1           0           1           1           0           1           1
 AtZEff=   0.0000000   0.0000000   0.0000000   0.0000000   0.0000000   0.0000000   0.0000000   0.0000000   0.0000000   0.0000000
 NQMom=    0.0000000   0.0000000   0.0000000   0.0000000   0.0000000   0.0000000   0.0000000   0.0000000   0.0000000   0.0000000
 NMagM=    2.7928460   0.0000000   2.7928460   2.7928460   0.0000000   2.7928460   2.7928460   0.0000000   2.7928460   2.7928460
 AtZNuc=   1.0000000   8.0000000   1.0000000   1.0000000   8.0000000   1.0000000   1.0000000   8.0000000   1.0000000   1.0000000

  Atom       311         312         313         314         315         316         317         318         319         320
 IAtWgt=          16           1           1          16           1           1          16           1           1          16
 AtmWgt=  15.9949146   1.0078250   1.0078250  15.9949146   1.0078250   1.0078250  15.9949146   1.0078250   1.0078250  15.9949146
 NucSpn=           0           1           1           0           1           1           0           1           1           0
 AtZEff=   0.0000000   0.0000000   0.0000000   0.0000000   0.0000000   0.0000000   0.0000000   0.0000000   0.0000000   0.0000000
 NQMom=    0.0000000   0.0000000   0.0000000   0.0000000   0.0000000   0.0000000   0.0000000   0.0000000   0.0000000   0.0000000
 NMagM=    0.0000000   2.7928460   2.7928460   0.0000000   2.7928460   2.7928460   0.0000000   2.7928460   2.7928460   0.0000000
 AtZNuc=   8.0000000   1.0000000   1.0000000   8.0000000   1.0000000   1.0000000   8.0000000   1.0000000   1.0000000   8.0000000

  Atom       321         322         323         324         325         326         327         328         329         330
 IAtWgt=           1           1          16           1           1          16           1           1          16           1
 AtmWgt=   1.0078250   1.0078250  15.9949146   1.0078250   1.0078250  15.9949146   1.0078250   1.0078250  15.9949146   1.0078250
 NucSpn=           1           1           0           1           1           0           1           1           0           1
 AtZEff=   0.0000000   0.0000000   0.0000000   0.0000000   0.0000000   0.0000000   0.0000000   0.0000000   0.0000000   0.0000000
 NQMom=    0.0000000   0.0000000   0.0000000   0.0000000   0.0000000   0.0000000   0.0000000   0.0000000   0.0000000   0.0000000
 NMagM=    2.7928460   2.7928460   0.0000000   2.7928460   2.7928460   0.0000000   2.7928460   2.7928460   0.0000000   2.7928460
 AtZNuc=   1.0000000   1.0000000   8.0000000   1.0000000   1.0000000   8.0000000   1.0000000   1.0000000   8.0000000   1.0000000

  Atom       331         332         333         334         335         336         337         338         339         340
 IAtWgt=           1          16           1           1          16           1           1          16           1           1
 AtmWgt=   1.0078250  15.9949146   1.0078250   1.0078250  15.9949146   1.0078250   1.0078250  15.9949146   1.0078250   1.0078250
 NucSpn=           1           0           1           1           0           1           1           0           1           1
 AtZEff=   0.0000000   0.0000000   0.0000000   0.0000000   0.0000000   0.0000000   0.0000000   0.0000000   0.0000000   0.0000000
 NQMom=    0.0000000   0.0000000   0.0000000   0.0000000   0.0000000   0.0000000   0.0000000   0.0000000   0.0000000   0.0000000
 NMagM=    2.7928460   0.0000000   2.7928460   2.7928460   0.0000000   2.7928460   2.7928460   0.0000000   2.7928460   2.7928460
 AtZNuc=   1.0000000   8.0000000   1.0000000   1.0000000   8.0000000   1.0000000   1.0000000   8.0000000   1.0000000   1.0000000

  Atom       341         342         343         344         345         346         347         348         349         350
 IAtWgt=          16           1           1          16           1           1          16           1           1          16
 AtmWgt=  15.9949146   1.0078250   1.0078250  15.9949146   1.0078250   1.0078250  15.9949146   1.0078250   1.0078250  15.9949146
 NucSpn=           0           1           1           0           1           1           0           1           1           0
 AtZEff=   0.0000000   0.0000000   0.0000000   0.0000000   0.0000000   0.0000000   0.0000000   0.0000000   0.0000000   0.0000000
 NQMom=    0.0000000   0.0000000   0.0000000   0.0000000   0.0000000   0.0000000   0.0000000   0.0000000   0.0000000   0.0000000
 NMagM=    0.0000000   2.7928460   2.7928460   0.0000000   2.7928460   2.7928460   0.0000000   2.7928460   2.7928460   0.0000000
 AtZNuc=   8.0000000   1.0000000   1.0000000   8.0000000   1.0000000   1.0000000   8.0000000   1.0000000   1.0000000   8.0000000

  Atom       351         352         353         354         355         356         357         358         359         360
 IAtWgt=           1           1          16           1           1          16           1           1          16           1
 AtmWgt=   1.0078250   1.0078250  15.9949146   1.0078250   1.0078250  15.9949146   1.0078250   1.0078250  15.9949146   1.0078250
 NucSpn=           1           1           0           1           1           0           1           1           0           1
 AtZEff=   0.0000000   0.0000000   0.0000000   0.0000000   0.0000000   0.0000000   0.0000000   0.0000000   0.0000000   0.0000000
 NQMom=    0.0000000   0.0000000   0.0000000   0.0000000   0.0000000   0.0000000   0.0000000   0.0000000   0.0000000   0.0000000
 NMagM=    2.7928460   2.7928460   0.0000000   2.7928460   2.7928460   0.0000000   2.7928460   2.7928460   0.0000000   2.7928460
 AtZNuc=   1.0000000   1.0000000   8.0000000   1.0000000   1.0000000   8.0000000   1.0000000   1.0000000   8.0000000   1.0000000

  Atom       361         362         363         364         365         366         367         368         369         370
 IAtWgt=           1          16           1           1          16           1           1          16           1           1
 AtmWgt=   1.0078250  15.9949146   1.0078250   1.0078250  15.9949146   1.0078250   1.0078250  15.9949146   1.0078250   1.0078250
 NucSpn=           1           0           1           1           0           1           1           0           1           1
 AtZEff=   0.0000000   0.0000000   0.0000000   0.0000000   0.0000000   0.0000000   0.0000000   0.0000000   0.0000000   0.0000000
 NQMom=    0.0000000   0.0000000   0.0000000   0.0000000   0.0000000   0.0000000   0.0000000   0.0000000   0.0000000   0.0000000
 NMagM=    2.7928460   0.0000000   2.7928460   2.7928460   0.0000000   2.7928460   2.7928460   0.0000000   2.7928460   2.7928460
 AtZNuc=   1.0000000   8.0000000   1.0000000   1.0000000   8.0000000   1.0000000   1.0000000   8.0000000   1.0000000   1.0000000

  Atom       371         372         373         374         375         376         377         378         379         380
 IAtWgt=          16           1           1          16           1           1          16           1           1          16
 AtmWgt=  15.9949146   1.0078250   1.0078250  15.9949146   1.0078250   1.0078250  15.9949146   1.0078250   1.0078250  15.9949146
 NucSpn=           0           1           1           0           1           1           0           1           1           0
 AtZEff=   0.0000000   0.0000000   0.0000000   0.0000000   0.0000000   0.0000000   0.0000000   0.0000000   0.0000000   0.0000000
 NQMom=    0.0000000   0.0000000   0.0000000   0.0000000   0.0000000   0.0000000   0.0000000   0.0000000   0.0000000   0.0000000
 NMagM=    0.0000000   2.7928460   2.7928460   0.0000000   2.7928460   2.7928460   0.0000000   2.7928460   2.7928460   0.0000000
 AtZNuc=   8.0000000   1.0000000   1.0000000   8.0000000   1.0000000   1.0000000   8.0000000   1.0000000   1.0000000   8.0000000

  Atom       381         382         383         384         385
 IAtWgt=           1           1          16           1           1
 AtmWgt=   1.0078250   1.0078250  15.9949146   1.0078250   1.0078250
 NucSpn=           1           1           0           1           1
 AtZEff=   0.0000000   0.0000000   0.0000000   0.0000000   0.0000000
 NQMom=    0.0000000   0.0000000   0.0000000   0.0000000   0.0000000
 NMagM=    2.7928460   2.7928460   0.0000000   2.7928460   2.7928460
 AtZNuc=   1.0000000   1.0000000   8.0000000   1.0000000   1.0000000
 Leave Link  101 at Tue May 15 21:01:53 2018, MaxMem= 14763950080 cpu:        83.9
 (Enter /cm/shared/gaussian/g09.e01/intel64-sandybridge/g09/l103.exe)

 GradGradGradGradGradGradGradGradGradGradGradGradGradGradGradGradGradGrad
 Berny optimization.
 Initialization pass.
 Trust Radius=3.00D-01 FncErr=1.00D-07 GrdErr=1.00D-07
 Number of steps in this run=      2 maximum allowed number of steps=      2.
 GradGradGradGradGradGradGradGradGradGradGradGradGradGradGradGradGradGrad

 Leave Link  103 at Tue May 15 21:01:53 2018, MaxMem= 14763950080 cpu:         4.0
 (Enter /cm/shared/gaussian/g09.e01/intel64-sandybridge/g09/l202.exe)
 Symmetry turned off by external request.
 Stoichiometry    BrH256O128(1-)
 Framework group  C1[X(BrH256O128)]
 Deg. of freedom  1149
 Full point group                 C1      NOp   1
                          Input orientation:                          
 ---------------------------------------------------------------------
 Center     Atomic      Atomic             Coordinates (Angstroms)
 Number     Number       Type             X           Y           Z
 ---------------------------------------------------------------------
      1         35           0       20.000000   20.000000   20.000000
      2          8           0       20.990000   22.860000   19.680000
      3          1           0       20.280000   23.170000   19.120000
      4          1           0       20.970000   21.900000   19.580000
      5          8           0       17.000000   18.700000   20.390000
      6          1           0       16.350000   19.320000   20.060000
      7          1           0       17.840000   19.060000   20.120000
      8          8           0       20.570000   22.030000   22.750000
      9          1           0       20.370000   21.510000   21.970000
     10          1           0       20.340000   22.930000   22.500000
     11          8           0       19.340000   16.700000   21.370000
     12          1           0       19.290000   17.610000   21.090000
     13          1           0       18.540000   16.550000   21.870000
     14          8           0       22.830000   17.790000   20.450000
     15          1           0       22.360000   18.560000   20.120000
     16          1           0       23.540000   18.160000   20.980000
     17          8           0       20.710000   17.440000   17.380000
     18          1           0       20.560000   17.830000   18.240000
     19          1           0       20.570000   16.500000   17.510000
     20          8           0       17.260000   19.250000   17.360000
     21          1           0       18.050000   19.520000   17.840000
     22          1           0       16.540000   19.580000   17.890000
     23          8           0       16.940000   21.700000   19.570000
     24          1           0       17.610000   21.790000   20.250000
     25          1           0       17.310000   22.150000   18.810000
     26          8           0       21.320000   17.620000   22.960000
     27          1           0       21.720000   18.080000   22.220000
     28          1           0       20.710000   17.000000   22.560000
     29          8           0       16.950000   20.640000   22.950000
     30          1           0       17.370000   20.340000   22.140000
     31          1           0       16.050000   20.840000   22.690000
     32          8           0       23.810000   20.710000   18.180000
     33          1           0       23.700000   20.130000   18.930000
     34          1           0       24.480000   20.290000   17.640000
     35          8           0       21.180000   22.060000   16.020000
     36          1           0       21.540000   21.660000   16.810000
     37          1           0       21.570000   21.570000   15.300000
     38          8           0       23.460000   23.050000   21.630000
     39          1           0       23.350000   23.540000   22.440000
     40          1           0       22.580000   23.010000   21.250000
     41          8           0       18.200000   23.170000   17.770000
     42          1           0       18.910000   23.790000   17.610000
     43          1           0       17.630000   23.250000   17.010000
     44          8           0       23.660000   23.460000   18.040000
     45          1           0       22.920000   23.190000   18.570000
     46          1           0       24.000000   22.640000   17.660000
     47          8           0       17.080000   15.780000   19.240000
     48          1           0       17.210000   15.700000   18.290000
     49          1           0       16.890000   16.710000   19.370000
     50          8           0       18.390000   24.050000   21.680000
     51          1           0       19.230000   24.500000   21.720000
     52          1           0       17.910000   24.480000   20.980000
     53          8           0       19.810000   15.010000   18.440000
     54          1           0       20.140000   14.170000   18.750000
     55          1           0       19.410000   15.410000   19.210000
     56          8           0       18.590000   21.980000   24.680000
     57          1           0       18.000000   21.590000   24.040000
     58          1           0       19.450000   21.960000   24.250000
     59          8           0       18.900000   17.450000   15.330000
     60          1           0       19.820000   17.340000   15.570000
     61          1           0       18.590000   18.190000   15.870000
     62          8           0       21.710000   21.610000   25.210000
     63          1           0       21.980000   20.720000   25.450000
     64          1           0       21.570000   21.580000   24.270000
     65          8           0       15.780000   17.780000   22.650000
     66          1           0       16.460000   18.250000   23.140000
     67          1           0       15.870000   18.110000   21.750000
     68          8           0       14.630000   20.890000   18.580000
     69          1           0       14.070000   20.800000   19.350000
     70          1           0       15.390000   21.380000   18.900000
     71          8           0       17.610000   20.040000   14.770000
     72          1           0       17.390000   20.940000   14.560000
     73          1           0       17.310000   19.920000   15.670000
     74          8           0       18.230000   17.560000   24.180000
     75          1           0       17.720000   17.480000   24.990000
     76          1           0       19.130000   17.690000   24.480000
     77          8           0       24.190000   18.380000   23.500000
     78          1           0       23.250000   18.390000   23.660000
     79          1           0       24.430000   19.310000   23.390000
     80          8           0       20.330000   24.500000   16.380000
     81          1           0       20.680000   23.620000   16.270000
     82          1           0       20.940000   25.070000   15.900000
     83          8           0       23.280000   14.770000   19.970000
     84          1           0       23.310000   14.520000   19.040000
     85          1           0       23.020000   15.690000   19.960000
     86          8           0       21.360000   14.680000   22.370000
     87          1           0       20.740000   15.000000   21.720000
     88          1           0       22.010000   14.190000   21.860000
     89          8           0       25.370000   18.890000   19.840000
     90          1           0       25.670000   18.170000   20.390000
     91          1           0       26.170000   19.210000   19.410000
     92          8           0       25.570000   22.270000   20.040000
     93          1           0       24.910000   22.340000   20.730000
     94          1           0       25.270000   21.540000   19.500000
     95          8           0       22.690000   16.930000   15.120000
     96          1           0       22.810000   17.820000   14.780000
     97          1           0       22.550000   17.050000   16.060000
     98          8           0       14.620000   21.250000   21.480000
     99          1           0       14.940000   22.070000   21.100000
    100          1           0       13.700000   21.210000   21.230000
    101          8           0       20.790000   25.160000   22.110000
    102          1           0       20.720000   25.470000   23.010000
    103          1           0       21.270000   25.850000   21.650000
    104          8           0       14.940000   23.790000   19.550000
    105          1           0       15.850000   24.080000   19.530000
    106          1           0       14.480000   24.440000   20.070000
    107          8           0       15.270000   18.110000   15.550000
    108          1           0       16.020000   18.520000   15.980000
    109          1           0       14.600000   18.060000   16.230000
    110          8           0       22.290000   26.260000   20.270000
    111          1           0       22.610000   26.800000   19.540000
    112          1           0       22.430000   25.360000   19.970000
    113          8           0       17.600000   15.080000   16.740000
    114          1           0       17.690000   15.890000   16.240000
    115          1           0       18.460000   14.670000   16.690000
    116          8           0       15.940000   24.590000   22.540000
    117          1           0       16.900000   24.620000   22.500000
    118          1           0       15.750000   23.970000   23.250000
    119          8           0       17.100000   25.580000   19.590000
    120          1           0       16.410000   26.190000   19.310000
    121          1           0       17.770000   25.670000   18.910000
    122          8           0       17.780000   14.730000   23.720000
    123          1           0       17.460000   14.330000   24.530000
    124          1           0       17.950000   15.640000   23.950000
    125          8           0       21.900000   15.610000   24.990000
    126          1           0       22.190000   16.460000   24.660000
    127          1           0       21.800000   15.070000   24.200000
    128          8           0       17.920000   13.800000   21.030000
    129          1           0       17.390000   14.320000   20.410000
    130          1           0       17.880000   14.300000   21.840000
    131          8           0       22.440000   19.060000   25.880000
    132          1           0       23.010000   18.490000   26.400000
    133          1           0       21.560000   18.740000   26.050000
    134          8           0       24.930000   21.040000   23.910000
    135          1           0       24.480000   21.820000   24.270000
    136          1           0       25.580000   21.400000   23.310000
    137          8           0       24.760000   15.890000   22.850000
    138          1           0       24.560000   16.780000   23.140000
    139          1           0       23.930000   15.560000   22.490000
    140          8           0       19.690000   19.170000   26.510000
    141          1           0       19.940000   20.000000   26.910000
    142          1           0       18.760000   19.270000   26.310000
    143          8           0       23.860000   23.360000   24.840000
    144          1           0       24.220000   23.650000   25.680000
    145          1           0       23.080000   22.860000   25.070000
    146          8           0       18.850000   24.490000   25.710000
    147          1           0       18.920000   23.560000   25.490000
    148          1           0       17.970000   24.580000   26.080000
    149          8           0       13.500000   19.550000   23.760000
    150          1           0       13.360000   20.380000   23.320000
    151          1           0       14.360000   19.250000   23.460000
    152          8           0       14.250000   17.210000   18.050000
    153          1           0       13.650000   17.230000   18.790000
    154          1           0       14.220000   16.310000   17.730000
    155          8           0       16.950000   20.620000   26.700000
    156          1           0       16.200000   21.100000   27.060000
    157          1           0       17.290000   21.190000   26.010000
    158          8           0       18.510000   26.530000   17.620000
    159          1           0       18.350000   27.320000   17.110000
    160          1           0       19.010000   25.970000   17.030000
    161          8           0       14.110000   23.430000   17.160000
    162          1           0       13.650000   22.600000   17.090000
    163          1           0       14.500000   23.410000   18.040000
    164          8           0       25.210000   25.410000   19.050000
    165          1           0       24.780000   24.640000   18.670000
    166          1           0       24.880000   26.140000   18.540000
    167          8           0       24.010000   20.020000   14.360000
    168          1           0       24.680000   20.000000   15.040000
    169          1           0       24.500000   20.130000   13.540000
    170          8           0       20.280000   15.250000   14.450000
    171          1           0       21.030000   15.840000   14.340000
    172          1           0       19.540000   15.840000   14.600000
    173          8           0       21.800000   20.450000   13.170000
    174          1           0       21.650000   19.620000   12.710000
    175          1           0       22.620000   20.310000   13.640000
    176          8           0       12.810000   17.700000   20.990000
    177          1           0       13.240000   18.550000   20.980000
    178          1           0       13.260000   17.220000   21.690000
    179          8           0       25.950000   20.020000   16.320000
    180          1           0       26.460000   19.390000   16.840000
    181          1           0       26.220000   20.880000   16.650000
    182          8           0       17.130000   22.730000   14.220000
    183          1           0       16.360000   23.290000   14.330000
    184          1           0       17.220000   22.620000   13.270000
    185          8           0       22.790000   24.690000   14.680000
    186          1           0       23.000000   24.150000   13.930000
    187          1           0       23.200000   24.240000   15.420000
    188          8           0       20.240000   22.110000   27.690000
    189          1           0       20.600000   22.960000   27.940000
    190          1           0       20.300000   22.100000   26.730000
    191          8           0       26.690000   22.460000   17.420000
    192          1           0       26.520000   22.430000   18.360000
    193          1           0       27.600000   22.760000   17.360000
    194          8           0       17.780000   19.140000   12.220000
    195          1           0       17.910000   19.970000   11.770000
    196          1           0       17.880000   19.350000   13.150000
    197          8           0       20.700000   12.790000   19.660000
    198          1           0       19.780000   12.560000   19.750000
    199          1           0       21.100000   12.510000   20.480000
    200          8           0       26.640000   16.760000   21.030000
    201          1           0       26.820000   16.090000   20.370000
    202          1           0       26.040000   16.340000   21.650000
    203          8           0       20.540000   26.030000   24.470000
    204          1           0       21.220000   26.240000   25.100000
    205          1           0       20.020000   25.350000   24.900000
    206          8           0       14.110000   14.680000   20.600000
    207          1           0       14.690000   14.230000   19.980000
[...]
   Y335      21.88303  -0.00476   0.00000   0.00200   0.00144  21.88447
   Z335      42.15979  -0.01829   0.00000  -0.01556  -0.01657  42.14322
   X336      43.40701   0.00771   0.00000   0.00063   0.00072  43.40773
   Y336      22.50664   0.00618   0.00000   0.00461   0.00400  22.51064
   Z336      42.78340   0.01097   0.00000   0.01172   0.01070  42.79410
   X337      40.62911  -0.00044   0.00000   0.00140   0.00151  40.63062
   Y337      22.29877   0.00417   0.00000   0.00482   0.00421  22.30298
   Z337      43.46370   0.00392   0.00000   0.00087  -0.00008  43.46362
   X338      31.55843  -0.01116   0.00000  -0.00845  -0.00841  31.55002
   Y338      21.22162  -0.00762   0.00000  -0.00615  -0.00656  21.21506
   Z338      41.72515   0.01548   0.00000   0.01159   0.01084  41.73599
   X339      33.03241   0.01057   0.00000   0.00583   0.00585  33.03826
   Y339      20.67360   0.00000   0.00000   0.00303   0.00264  20.67624
   Z339      40.85588  -0.00689   0.00000  -0.00228  -0.00310  40.85278
   X340      31.02930  -0.00016   0.00000   0.00115   0.00119  31.03050
   Y340      22.69561   0.00695   0.00000   0.00302   0.00266  22.69827
   Z340      40.81808  -0.00639   0.00000  -0.00322  -0.00389  40.81420
   X341      52.64777   0.01215   0.00000   0.00948   0.00965  52.65742
   Y341      28.06243  -0.00522   0.00000  -0.00384  -0.00458  28.05785
   Z341      42.99127   0.01396   0.00000   0.01253   0.01150  43.00277
   X342      53.12020  -0.00367   0.00000  -0.00698  -0.00686  53.11334
   Y342      27.96795  -0.00107   0.00000  -0.00170  -0.00236  27.96559
   Z342      41.25272  -0.00844   0.00000  -0.00320  -0.00424  41.24848
   X343      50.92812  -0.00869   0.00000  -0.00337  -0.00320  50.92492
   Y343      28.61045   0.00038   0.00000  -0.00281  -0.00352  28.60693
   Z343      42.95348  -0.00047   0.00000   0.00256   0.00161  42.95508
   X344      53.63043  -0.00470   0.00000  -0.00351  -0.00319  53.62724
   Y344      41.13934  -0.00020   0.00000   0.00121   0.00049  41.13983
   Z344      42.48104   0.01501   0.00000   0.01190   0.01145  42.49249
   X345      54.17845   0.00424   0.00000   0.00269   0.00296  54.18140
   Y345      40.87478   0.00404   0.00000   0.00745   0.00680  40.88157
   Z345      40.78029  -0.00889   0.00000  -0.00201  -0.00248  40.77781
   X346      53.80050  -0.00206   0.00000  -0.00454  -0.00419  53.79631
   Y346      42.93458   0.00221   0.00000   0.00397   0.00323  42.93781
   Z346      42.74561  -0.00425   0.00000  -0.00530  -0.00567  42.73994
   X347      52.23203   0.00629   0.00000   0.00456   0.00454  52.23657
   Y347      29.34745   0.01618   0.00000   0.01089   0.01051  29.35796
   Z347      35.50795   0.00403   0.00000   0.00129   0.00033  35.50829
   X348      51.85409  -0.00413   0.00000  -0.00373  -0.00380  51.85028
   Y348      27.76008  -0.01409   0.00000  -0.00772  -0.00806  27.75202
   Z348      34.75206  -0.00540   0.00000  -0.00056  -0.00158  34.75048
   X349      53.89499   0.00089   0.00000   0.00462   0.00458  53.89957
   Y349      29.76319  -0.00379   0.00000  -0.00516  -0.00554  29.75765
   Z349      34.88434   0.00069   0.00000   0.00100   0.00001  34.88436
   X350      32.95682   0.00287   0.00000  -0.00048   0.00017  32.95699
   Y350      37.30319  -0.00222   0.00000   0.00238   0.00131  37.30450
   Z350      55.55795   0.01230   0.00000   0.01035   0.01031  55.56826
   X351      33.07021   0.00296   0.00000   0.00494   0.00555  33.07576
   Y351      38.22916   0.00219   0.00000  -0.00138  -0.00238  38.22678
   Z351      54.00837  -0.00912   0.00000  -0.00560  -0.00560  54.00278
   X352      31.29386  -0.00457   0.00000  -0.00417  -0.00354  31.29032
   Y352      36.58510  -0.00123   0.00000  -0.00017  -0.00122  36.58388
   Z352      55.53905  -0.00212   0.00000  -0.00282  -0.00284  55.53621
   X353      47.77228   0.02106   0.00000   0.01135   0.01117  47.78345
   Y353      42.51884  -0.00986   0.00000  -0.00862  -0.00843  42.51041
   Z353      24.39636   0.00857   0.00000   0.01019   0.00997  24.40634
   X354      47.94235  -0.00031   0.00000   0.00127   0.00105  47.94340
   Y354      40.83698   0.00319   0.00000   0.00178   0.00200  40.83898
   Z354      23.71606  -0.00359   0.00000  -0.00712  -0.00742  23.70865
   X355      46.07152  -0.01855   0.00000  -0.00823  -0.00841  46.06312
   Y355      42.99127   0.00515   0.00000   0.00343   0.00367  42.99494
   Z355      23.99952  -0.00931   0.00000  -0.01002  -0.01016  23.98936
   X356      31.42615   0.01104   0.00000   0.00828   0.00865  31.43480
   Y356      54.08396  -0.01158   0.00000  -0.00799  -0.00826  54.07571
   Z356      38.58821   0.01606   0.00000   0.00769   0.00848  38.59668
   X357      31.18048  -0.00766   0.00000  -0.01054  -0.01022  31.17026
   Y357      53.34697  -0.00532   0.00000  -0.00442  -0.00460  53.34236
   Z357      36.94415  -0.01419   0.00000  -0.00987  -0.00911  36.93504
   X358      30.76474  -0.00529   0.00000  -0.00221  -0.00182  30.76292
   Y358      55.74692   0.01334   0.00000   0.00678   0.00653  55.75345
   Z358      38.43703  -0.00260   0.00000  -0.00149  -0.00061  38.43642
   X359      34.43081   0.01175   0.00000   0.00549   0.00604  34.43685
   Y359      31.61512  -0.01226   0.00000  -0.00961  -0.01066  31.60446
   Z359      54.59419   0.00142   0.00000  -0.00010  -0.00045  54.59374
   X360      33.50484  -0.00268   0.00000  -0.00025   0.00034  33.50518
   Y360      31.69071   0.00328   0.00000   0.00548   0.00437  31.69508
   Z360      56.14376   0.00651   0.00000   0.00519   0.00487  56.14863
   X361      33.46705  -0.00419   0.00000   0.00166   0.00218  33.46923
   Y361      32.61667   0.01009   0.00000   0.00909   0.00810  32.62478
   Z361      53.44146  -0.00918   0.00000  -0.00632  -0.00659  53.43487
   X362      49.07619   0.01037   0.00000   0.00558   0.00595  49.08214
   Y362      29.32855   0.00079   0.00000   0.00132   0.00033  29.32888
   Z362      49.45413   0.01005   0.00000   0.00610   0.00523  49.45937
   X363      47.65889  -0.00772   0.00000  -0.00589  -0.00550  47.65340
   Y363      30.44349   0.00418   0.00000   0.00259   0.00161  30.44510
   Z363      49.66200   0.00312   0.00000   0.00598   0.00521  49.66721
   X364      48.73604  -0.00476   0.00000  -0.00450  -0.00419  48.73185
   Y364      28.42148  -0.00292   0.00000   0.00249   0.00157  28.42305
   Z364      47.94235  -0.01362   0.00000  -0.01031  -0.01121  47.93114
   X365      52.45880   0.01086   0.00000   0.00506   0.00491  52.46371
   Y365      40.34565  -0.01379   0.00000  -0.01548  -0.01545  40.33021
   Z365      26.47506   0.00290   0.00000   0.00108   0.00063  26.47570
   X366      52.55328  -0.00364   0.00000  -0.00402  -0.00420  52.54909
   Y366      41.13934   0.00673   0.00000   0.00724   0.00735  41.14669
   Z366      24.84990  -0.00244   0.00000   0.00270   0.00228  24.85218
   X367      50.81474  -0.00905   0.00000  -0.00384  -0.00396  50.81078
   Y367      40.76139   0.00782   0.00000   0.00929   0.00932  40.77071
   Z367      27.09867  -0.00021   0.00000  -0.00205  -0.00243  27.09624
   X368      22.20428  -0.00931   0.00000  -0.00943  -0.00918  22.19510
   Y368      47.96125   0.00308   0.00000  -0.00545  -0.00551  47.95574
   Z368      36.81187  -0.01514   0.00000  -0.00972  -0.00896  36.80291
   X369      23.24363   0.01025   0.00000   0.00620   0.00646  23.25009
   Y369      46.82741  -0.01100   0.00000  -0.00617  -0.00628  46.82113
   Z369      37.73783   0.01419   0.00000   0.01245   0.01313  37.75096
   X370      21.07045  -0.00254   0.00000  -0.00037  -0.00008  21.07037
   Y370      48.64155   0.00623   0.00000   0.00879   0.00868  48.65024
   Z370      38.04019   0.00504   0.00000   0.00216   0.00298  38.04317
   X371      19.59646  -0.02704   0.00000  -0.02315  -0.02301  19.57345
   Y371      35.03552   0.00307   0.00000   0.00002  -0.00009  35.03543
   Z371      38.68269  -0.00855   0.00000  -0.01387  -0.01363  38.66906
   X372      20.18228   0.00520   0.00000   0.00444   0.00459  20.18686
   Y372      36.69848   0.00243   0.00000   0.00076   0.00066  36.69914
   Z372      38.28585   0.00378   0.00000   0.00726   0.00755  38.29340
   X373      21.10824   0.01155   0.00000   0.00024   0.00037  21.10861
   Y373      34.07176  -0.00484   0.00000   0.00062   0.00047  34.07224
   Z373      38.92836   0.00602   0.00000   0.00811   0.00825  38.93661
   X374      21.71295  -0.01770   0.00000  -0.01349  -0.01310  21.69985
   Y374      35.18670   0.00377   0.00000   0.00519   0.00463  35.19133
   Z374      47.56441   0.01339   0.00000   0.01834   0.01852  47.58292
   X375      23.18694   0.00708   0.00000  -0.00154  -0.00117  23.18577
   Y375      35.90480  -0.00155   0.00000  -0.00627  -0.00681  35.89799
   Z375      46.78962  -0.00691   0.00000  -0.00621  -0.00604  46.78358
   X376      22.24208   0.00307   0.00000   0.00062   0.00100  22.24308
   Y376      33.54264  -0.00705   0.00000  -0.00583  -0.00642  33.53622
   Z376      48.09353  -0.00202   0.00000  -0.00479  -0.00470  48.08883
   X377      45.16445  -0.00064   0.00000  -0.00169  -0.00150  45.16295
   Y377      24.24519  -0.00639   0.00000  -0.00865  -0.00941  24.23578
   Z377      45.56130  -0.02891   0.00000  -0.01924  -0.02024  45.54106
   X378      46.78962   0.00531   0.00000   0.00018   0.00039  46.79001
   Y378      24.81210   0.00313   0.00000   0.00262   0.00182  24.81392
   Z378      46.10932   0.00478   0.00000   0.00158   0.00057  46.10988
   X379      44.21959  -0.00343   0.00000   0.00305   0.00329  44.22288
   Y379      23.99952   0.00733   0.00000   0.01539   0.01457  24.01409
   Z379      47.07308   0.02146   0.00000   0.01595   0.01497  47.08805
   X380      34.46860  -0.00006   0.00000  -0.00017  -0.00055  34.46806
   Y380      23.30032  -0.00633   0.00000  -0.00512  -0.00483  23.29549
   Z380      25.88925  -0.00527   0.00000  -0.00266  -0.00339  25.88586
   X381      34.97883   0.00190   0.00000   0.00259   0.00227  34.98110
   Y381      24.22629   0.00569   0.00000   0.00544   0.00566  24.23194
   Z381      27.36323   0.00173   0.00000  -0.00174  -0.00245  27.36079
   X382      33.10800  -0.00190   0.00000  -0.00145  -0.00184  33.10616
   Y382      24.28298   0.00313   0.00000   0.00305   0.00339  24.28637
   Z382      25.19005   0.00262   0.00000   0.00491   0.00426  25.19431
   X383      43.19914   0.02456   0.00000   0.01970   0.01950  43.21864
   Y383      44.54084   0.01161   0.00000   0.00426   0.00460  44.54544
   Z383      22.65782   0.01797   0.00000   0.01144   0.01145  22.66927
   X384      43.80385   0.00134   0.00000   0.00266   0.00245  43.80630
   Y384      45.73137   0.00337   0.00000   0.00449   0.00488  45.73625
   Z384      21.42949  -0.00211   0.00000  -0.00080  -0.00076  21.42874
   X385      41.91413  -0.02202   0.00000  -0.01493  -0.01517  41.89896
   Y385      43.59598  -0.01113   0.00000  -0.00319  -0.00280  43.59318
   Z385      21.80744  -0.00982   0.00000  -0.00009  -0.00009  21.80735
         Item               Value     Threshold  Converged?
 Maximum Force            0.036222     0.000450     NO 
 RMS     Force            0.010831     0.000300     NO 
 Maximum Displacement     0.029419     0.001800     NO 
 RMS     Displacement     0.008817     0.001200     NO 
 Predicted change in Energy=-7.539815D-02
 GradGradGradGradGradGradGradGradGradGradGradGradGradGradGradGradGradGrad

 Leave Link  103 at Wed May 16 00:16:34 2018, MaxMem= 14763950080 cpu:      3270.4
 (Enter /cm/shared/gaussian/g09.e01/intel64-sandybridge/g09/l9999.exe)
 1\1\GINC-POPLE03\Force\RPBE1PBE\CC-pVDZ\Br1H256O128(1-)\M.PELUSO\16-Ma
 y-2018\0\\#p PBE1PBE/cc-pvDZ force Counterpoise=2 noSymm\\forces on ch
 loride comput - NWATER: 128\\-1,1\Br,20.,20.,20.\O,20.99,22.86,19.68\H
 ,20.28,23.17,19.12\H,20.97,21.9,19.58\O,17.,18.7,20.39\H,16.35,19.32,2
 0.06\H,17.84,19.06,20.12\O,20.57,22.03,22.75\H,20.37,21.51,21.97\H,20.
 34,22.93,22.5\O,19.34,16.7,21.37\H,19.29,17.61,21.09\H,18.54,16.55,21.
 87\O,22.83,17.79,20.45\H,22.36,18.56,20.12\H,23.54,18.16,20.98\O,20.71
 ,17.44,17.38\H,20.56,17.83,18.24\H,20.57,16.5,17.51\O,17.26,19.25,17.3
 6\H,18.05,19.52,17.84\H,16.54,19.58,17.89\O,16.94,21.7,19.57\H,17.61,2
 1.79,20.25\H,17.31,22.15,18.81\O,21.32,17.62,22.96\H,21.72,18.08,22.22
 \H,20.71,17.,22.56\O,16.95,20.64,22.95\H,17.37,20.34,22.14\H,16.05,20.
 84,22.69\O,23.81,20.71,18.18\H,23.7,20.13,18.93\H,24.48,20.29,17.64\O,
 21.18,22.06,16.02\H,21.54,21.66,16.81\H,21.57,21.57,15.3\O,23.46,23.05
 ,21.63\H,23.35,23.54,22.44\H,22.58,23.01,21.25\O,18.2,23.17,17.77\H,18
 .91,23.79,17.61\H,17.63,23.25,17.01\O,23.66,23.46,18.04\H,22.92,23.19,
 18.57\H,24.,22.64,17.66\O,17.08,15.78,19.24\H,17.21,15.7,18.29\H,16.89
 ,16.71,19.37\O,18.39,24.05,21.68\H,19.23,24.5,21.72\H,17.91,24.48,20.9
 8\O,19.81,15.01,18.44\H,20.14,14.17,18.75\H,19.41,15.41,19.21\O,18.59,
 21.98,24.68\H,18.,21.59,24.04\H,19.45,21.96,24.25\O,18.9,17.45,15.33\H
 ,19.82,17.34,15.57\H,18.59,18.19,15.87\O,21.71,21.61,25.21\H,21.98,20.
 72,25.45\H,21.57,21.58,24.27\O,15.78,17.78,22.65\H,16.46,18.25,23.14\H
 ,15.87,18.11,21.75\O,14.63,20.89,18.58\H,14.07,20.8,19.35\H,15.39,21.3
 8,18.9\O,17.61,20.04,14.77\H,17.39,20.94,14.56\H,17.31,19.92,15.67\O,1
 8.23,17.56,24.18\H,17.72,17.48,24.99\H,19.13,17.69,24.48\O,24.19,18.38
 ,23.5\H,23.25,18.39,23.66\H,24.43,19.31,23.39\O,20.33,24.5,16.38\H,20.
 68,23.62,16.27\H,20.94,25.07,15.9\O,23.28,14.77,19.97\H,23.31,14.52,19
 .04\H,23.02,15.69,19.96\O,21.36,14.68,22.37\H,20.74,15.,21.72\H,22.01,
 14.19,21.86\O,25.37,18.89,19.84\H,25.67,18.17,20.39\H,26.17,19.21,19.4
 1\O,25.57,22.27,20.04\H,24.91,22.34,20.73\H,25.27,21.54,19.5\O,22.69,1
 6.93,15.12\H,22.81,17.82,14.78\H,22.55,17.05,16.06\O,14.62,21.25,21.48
 \H,14.94,22.07,21.1\H,13.7,21.21,21.23\O,20.79,25.16,22.11\H,20.72,25.
 47,23.01\H,21.27,25.85,21.65\O,14.94,23.79,19.55\H,15.85,24.08,19.53\H
 ,14.48,24.44,20.07\O,15.27,18.11,15.55\H,16.02,18.52,15.98\H,14.6,18.0
 6,16.23\O,22.29,26.26,20.27\H,22.61,26.8,19.54\H,22.43,25.36,19.97\O,1
 7.6,15.08,16.74\H,17.69,15.89,16.24\H,18.46,14.67,16.69\O,15.94,24.59,
 22.54\H,16.9,24.62,22.5\H,15.75,23.97,23.25\O,17.1,25.58,19.59\H,16.41
 ,26.19,19.31\H,17.77,25.67,18.91\O,17.78,14.73,23.72\H,17.46,14.33,24.
 53\H,17.95,15.64,23.95\O,21.9,15.61,24.99\H,22.19,16.46,24.66\H,21.8,1
 5.07,24.2\O,17.92,13.8,21.03\H,17.39,14.32,20.41\H,17.88,14.3,21.84\O,
 22.44,19.06,25.88\H,23.01,18.49,26.4\H,21.56,18.74,26.05\O,24.93,21.04
 ,23.91\H,24.48,21.82,24.27\H,25.58,21.4,23.31\O,24.76,15.89,22.85\H,24
 .56,16.78,23.14\H,23.93,15.56,22.49\O,19.69,19.17,26.51\H,19.94,20.,26
 .91\H,18.76,19.27,26.31\O,23.86,23.36,24.84\H,24.22,23.65,25.68\H,23.0
 8,22.86,25.07\O,18.85,24.49,25.71\H,18.92,23.56,25.49\H,17.97,24.58,26
 .08\O,13.5,19.55,23.76\H,13.36,20.38,23.32\H,14.36,19.25,23.46\O,14.25
 ,17.21,18.05\H,13.65,17.23,18.79\H,14.22,16.31,17.73\O,16.95,20.62,26.
 7\H,16.2,21.1,27.06\H,17.29,21.19,26.01\O,18.51,26.53,17.62\H,18.35,27
 .32,17.11\H,19.01,25.97,17.03\O,14.11,23.43,17.16\H,13.65,22.6,17.09\H
 ,14.5,23.41,18.04\O,25.21,25.41,19.05\H,24.78,24.64,18.67\H,24.88,26.1
 4,18.54\O,24.01,20.02,14.36\H,24.68,20.,15.04\H,24.5,20.13,13.54\O,20.
 28,15.25,14.45\H,21.03,15.84,14.34\H,19.54,15.84,14.6\O,21.8,20.45,13.
 17\H,21.65,19.62,12.71\H,22.62,20.31,13.64\O,12.81,17.7,20.99\H,13.24,
 18.55,20.98\H,13.26,17.22,21.69\O,25.95,20.02,16.32\H,26.46,19.39,16.8
 4\H,26.22,20.88,16.65\O,17.13,22.73,14.22\H,16.36,23.29,14.33\H,17.22,
 22.62,13.27\O,22.79,24.69,14.68\H,23.,24.15,13.93\H,23.2,24.24,15.42\O
 ,20.24,22.11,27.69\H,20.6,22.96,27.94\H,20.3,22.1,26.73\O,26.69,22.46,
 17.42\H,26.52,22.43,18.36\H,27.6,22.76,17.36\O,17.78,19.14,12.22\H,17.
 91,19.97,11.77\H,17.88,19.35,13.15\O,20.7,12.79,19.66\H,19.78,12.56,19
 .75\H,21.1,12.51,20.48\O,26.64,16.76,21.03\H,26.82,16.09,20.37\H,26.04
 ,16.34,21.65\O,20.54,26.03,24.47\H,21.22,26.24,25.1\H,20.02,25.35,24.9
 \O,14.11,14.68,20.6\H,14.69,14.23,19.98\H,14.7,15.17,21.17\O,16.84,18.
 01,26.54\H,16.8,18.96,26.44\H,15.94,17.74,26.67\O,15.1,15.35,15.62\H,1
 5.48,16.22,15.66\H,15.68,14.8,16.15\O,18.66,25.61,14.21\H,19.22,25.,14
 .7\H,19.25,26.32,13.95\O,13.48,16.14,23.13\H,13.47,15.51,23.85\H,14.38
 ,16.47,23.12\O,15.74,23.42,25.24\H,16.,24.3,25.52\H,15.61,22.94,26.06\
 O,21.07,17.47,27.95\H,20.54,17.1,28.66\H,20.43,17.9,27.38\O,23.46,21.6
 8,27.57\H,22.67,21.73,27.04\H,23.2,22.01,28.43\O,12.24,20.76,19.92\H,1
 1.69,21.55,19.91\H,12.16,20.4,19.04\O,14.64,26.51,20.9\H,15.19,27.26,2
 1.12\H,14.97,25.8,21.46\O,28.04,18.78,21.74\H,28.67,18.35,22.31\H,27.4
 5,18.08,21.46\O,24.14,13.73,17.73\H,24.75,14.,17.05\H,24.45,12.86,18.\
 O,20.45,28.52,19.06\H,20.05,28.61,19.93\H,20.01,27.76,18.67\O,12.73,23
 .65,21.57\H,13.43,23.78,22.21\H,11.93,23.83,22.06\O,27.51,18.06,17.56\
 H,27.35,17.5,18.32\H,28.35,18.48,17.74\O,26.01,24.76,23.83\H,25.35,24.
 16,24.18\H,25.59,25.18,23.08\O,15.94,12.53,19.46\H,15.89,11.73,18.94\H
 ,16.86,12.62,19.69\O,14.72,24.33,14.81\H,13.89,24.2,14.35\H,14.55,24.0
 6,15.71\O,26.,13.82,20.43\H,25.57,14.19,19.66\H,25.3,13.32,20.87\O,13.
 66,19.95,13.92\H,13.45,19.54,13.08\H,14.32,19.36,14.31\O,26.74,18.5,25
 .17\H,26.25,19.32,25.16\H,26.08,17.83,25.03\O,16.29,16.97,12.94\H,16.6
 ,17.83,12.65\H,15.72,17.15,13.68\O,28.41,20.76,19.8\H,28.9,20.22,19.18
 \H,28.22,20.18,20.53\O,12.35,21.39,16.31\H,12.94,20.82,15.81\H,11.93,2
 0.81,16.95\O,20.91,22.03,11.22\H,20.06,21.7,10.92\H,21.13,21.47,11.96\
 O,27.87,24.13,20.21\H,27.04,24.35,20.62\H,27.81,23.19,20.04\O,25.38,26
 .73,21.8\H,24.85,27.51,21.94\H,25.2,26.47,20.89\O,26.49,17.33,15.02\H,
 26.91,17.56,15.84\H,26.99,17.81,14.35\O,23.18,28.43,22.5\H,22.94,27.51
 ,22.45\H,22.89,28.8,21.67\O,16.21,26.3,15.6\H,15.59,25.59,15.45\H,16.9
 5,26.1,15.03\O,25.38,14.8,14.96\H,25.77,15.67,14.86\H,24.44,14.95,14.8
 9\O,23.85,17.33,27.16\H,24.04,17.63,28.05\H,23.02,16.86,27.24\O,22.84,
 27.76,18.22\H,22.07,28.21,18.57\H,23.43,28.47,17.95\O,19.49,28.5,21.89
 \H,18.65,28.26,21.5\H,19.34,28.48,22.83\O,20.99,11.01,17.26\H,21.76,11
 .1,16.7\H,20.95,11.84,17.74\O,21.24,17.59,11.55\H,20.64,18.17,11.09\H,
 20.68,16.99,12.04\O,21.21,26.64,13.89\H,21.82,25.93,14.09\H,21.56,27.3
 9,14.36\O,18.83,15.86,11.83\H,18.39,15.03,12.01\H,18.33,16.51,12.33\O,
 13.19,25.91,17.23\H,13.61,25.07,17.1\H,12.7,25.81,18.05\O,22.89,13.74,
 26.65\H,22.12,13.17,26.68\H,22.58,14.54,26.22\O,24.48,16.94,12.06\H,25
 .33,17.37,11.94\H,24.28,17.07,12.98\O,15.49,27.3,17.99\H,14.61,26.91,1
 8.02\H,15.8,27.14,17.1\O,19.17,28.31,24.8\H,19.57,28.66,25.6\H,19.71,2
 7.56,24.57\O,22.13,11.58,22.31\H,22.97,11.91,22.64\H,21.5,11.8,23.\O,1
 6.7,11.23,22.08\H,17.48,10.94,21.62\H,16.42,12.01,21.6\O,27.86,14.85,2
 2.75\H,28.11,14.8,21.83\H,26.95,15.14,22.73\O,28.38,21.77,22.48\H,28.6
 7,21.63,21.58\H,28.47,22.72,22.62\O,27.64,15.53,18.79\H,27.44,14.69,18
 .39\H,28.52,15.75,18.46\O,17.44,19.74,29.4\H,17.5,20.23,28.58\H,16.56,
 19.36,29.39\O,25.28,22.5,12.91\H,25.37,21.61,12.55\H,24.38,22.75,12.7\
 O,16.63,28.62,20.42\H,16.5,28.23,19.55\H,16.28,29.5,20.34\O,18.22,16.7
 3,28.89\H,17.73,16.77,29.71\H,17.71,17.26,28.28\O,25.97,15.52,26.17\H,
 25.22,16.11,26.28\H,25.79,15.04,25.37\O,27.76,21.35,14.01\H,27.81,21.7
 7,13.15\H,26.89,21.57,14.34\O,11.75,25.38,19.48\H,12.3,24.78,19.97\H,1
 1.15,25.74,20.13\O,10.37,18.54,20.47\H,10.68,19.42,20.26\H,11.17,18.03
 ,20.6\O,11.49,18.62,25.17\H,12.27,19.,24.76\H,11.77,17.75,25.45\O,23.9
 ,12.83,24.11\H,24.76,13.13,24.4\H,23.4,12.7,24.91\O,18.24,12.33,13.7\H
 ,18.51,12.82,14.48\H,17.52,12.85,13.33\O,22.86,23.57,11.99\H,23.18,24.
 2,11.34\H,22.18,23.07,11.54\\Version=ES64L-G09RevE.01\HF=-9773.4264131
 \RMSD=1.685e-09\RMSF=1.083e-02\Dipole=-2.3631082,7.3694637,2.2412298\Q
 uadrupole=-412.4963717,325.5609983,86.9353734,-1328.1342573,-1601.5901
 251,-1077.1711318\PG=C01 [X(Br1H256O128)]\\@


 I LOVE MANKIND - IT'S PEOPLE I CAN'T STAND.
     -- LINUS OF PEANUTS
 Job cpu time:       8 days 12 hours 26 minutes 24.6 seconds.
 File lengths (MBytes):  RWF=   7285 Int=      0 D2E=      0 Chk=   2411 Scr=      1
 Normal termination of Gaussian 09 at Wed May 16 00:17:03 2018.
