 Entering Gaussian System, Link 0=/cm/shared/gaussian/g09.e01/intel64-sandybridge/g09/g09
 Initial command:
 /cm/shared/gaussian/g09.e01/intel64-sandybridge/g09/l1.exe "/local/scratch/m.peluso/128_wat/order/Gau-17178.inp" -scrdir="/local/scratch/m.peluso/128_wat/order/"
 Entering Link 1 = /cm/shared/gaussian/g09.e01/intel64-sandybridge/g09/l1.exe PID=     17179.
  
 Copyright (c) 1988,1990,1992,1993,1995,1998,2003,2009,2015,
            Gaussian, Inc.  All Rights Reserved.
  
 This is part of the Gaussian(R) 09 program.  It is based on
 the Gaussian(R) 03 system (copyright 2003, Gaussian, Inc.),
 the Gaussian(R) 98 system (copyright 1998, Gaussian, Inc.),
 the Gaussian(R) 94 system (copyright 1995, Gaussian, Inc.),
 the Gaussian 92(TM) system (copyright 1992, Gaussian, Inc.),
 the Gaussian 90(TM) system (copyright 1990, Gaussian, Inc.),
 the Gaussian 88(TM) system (copyright 1988, Gaussian, Inc.),
 the Gaussian 86(TM) system (copyright 1986, Carnegie Mellon
 University), and the Gaussian 82(TM) system (copyright 1983,
 Carnegie Mellon University). Gaussian is a federally registered
 trademark of Gaussian, Inc.
  
 This software contains proprietary and confidential information,
 including trade secrets, belonging to Gaussian, Inc.
  
 This software is provided under written license and may be
 used, copied, transmitted, or stored only in accord with that
 written license.
  
 The following legend is applicable only to US Government
 contracts under FAR:
  
                    RESTRICTED RIGHTS LEGEND
  
 Use, reproduction and disclosure by the US Government is
 subject to restrictions as set forth in subparagraphs (a)
 and (c) of the Commercial Computer Software - Restricted
 Rights clause in FAR 52.227-19.
  
 Gaussian, Inc.
 340 Quinnipiac St., Bldg. 40, Wallingford CT 06492
  
  
 ---------------------------------------------------------------
 Warning -- This program may not be used in any manner that
 competes with the business of Gaussian, Inc. or will provide
 assistance to any competitor of Gaussian, Inc.  The licensee
 of this program is prohibited from giving any competitor of
 Gaussian, Inc. access to this program.  By using this program,
 the user acknowledges that Gaussian, Inc. is engaged in the
 business of creating and licensing software in the field of
 computational chemistry and represents and warrants to the
 licensee that it is not a competitor of Gaussian, Inc. and that
 it will not use this program in any manner prohibited above.
 ---------------------------------------------------------------
  

 Cite this work as:
 Gaussian 09, Revision E.01,
 M. J. Frisch, G. W. Trucks, H. B. Schlegel, G. E. Scuseria, 
 M. A. Robb, J. R. Cheeseman, G. Scalmani, V. Barone, B. Mennucci, 
 G. A. Petersson, H. Nakatsuji, M. Caricato, X. Li, H. P. Hratchian, 
 A. F. Izmaylov, J. Bloino, G. Zheng, J. L. Sonnenberg, M. Hada, 
 M. Ehara, K. Toyota, R. Fukuda, J. Hasegawa, M. Ishida, T. Nakajima, 
 Y. Honda, O. Kitao, H. Nakai, T. Vreven, J. A. Montgomery, Jr., 
 J. E. Peralta, F. Ogliaro, M. Bearpark, J. J. Heyd, E. Brothers, 
 K. N. Kudin, V. N. Staroverov, T. Keith, R. Kobayashi, J. Normand, 
 K. Raghavachari, A. Rendell, J. C. Burant, S. S. Iyengar, J. Tomasi, 
 M. Cossi, N. Rega, J. M. Millam, M. Klene, J. E. Knox, J. B. Cross, 
 V. Bakken, C. Adamo, J. Jaramillo, R. Gomperts, R. E. Stratmann, 
 O. Yazyev, A. J. Austin, R. Cammi, C. Pomelli, J. W. Ochterski, 
 R. L. Martin, K. Morokuma, V. G. Zakrzewski, G. A. Voth, 
 P. Salvador, J. J. Dannenberg, S. Dapprich, A. D. Daniels, 
 O. Farkas, J. B. Foresman, J. V. Ortiz, J. Cioslowski, 
 and D. J. Fox, Gaussian, Inc., Wallingford CT, 2013.
 
 ******************************************
 Gaussian 09:  ES64L-G09RevE.01 30-Nov-2015
                12-May-2018 
 ******************************************
 %Mem=110GB
 %NProcShared=64
 Will use up to   64 processors via shared memory.
 %chk=snap83.chk
 ----------------------------------------------
 #p PBE1PBE/cc-pvDZ force Counterpoise=2 noSymm
 ----------------------------------------------
 1/10=7,30=1,38=1,62=2/1,3;
 2/12=2,15=1,17=6,18=5,40=1/2;
 1/10=7,30=1,38=1,53=2,62=2,63=101/22;
 3/5=16,11=2,16=1,25=1,30=1,71=1,74=-13/1,2,3;
 4//1;
 5/5=2,38=5/2;
 6/7=2,8=2,9=2,10=2,28=1/1;
 7/7=1,29=1,30=1,33=-1/1,2,3,16;
 1/10=7,30=1,53=2,62=2,63=101/22;
 3/5=7,6=11,11=2,16=1,25=1,30=1,71=1,74=-13,82=7/1,2,3;
 4//1;
 5/5=2,38=5/2;
 6/7=2,8=2,9=2,10=2,28=1/1;
 7/7=1,29=1,30=1,33=-1/1,2,3,16;
 1/10=7,30=1,53=2,62=2,63=101/22(-5);
 7/9=1,29=1,44=-1/16;
 1/10=7,30=1,62=2/3;
 99//99;
 Leave Link    1 at Sat May 12 01:43:53 2018, MaxMem= 14763950080 cpu:        11.5
 (Enter /cm/shared/gaussian/g09.e01/intel64-sandybridge/g09/l101.exe)
 ---------------------------------------
 forces on chloride comput - NWATER: 128
 ---------------------------------------
 Symbolic Z-matrix:
 Charge = -1 Multiplicity = 1 in supermolecule
 Charge = -1 Multiplicity = 1 in fragment      1.
 Charge =  0 Multiplicity = 1 in fragment      2.
 Br(Fragment=1)        20.       20.       20. 
 O(Fragment=2)         17.41     21.76     20.58 
 H(Fragment=2)         17.5      22.44     21.24 
 H(Fragment=2)         18.23     21.26     20.63 
 O(Fragment=2)         23.09     20.51     19.14 
 H(Fragment=2)         23.64     19.95     19.68 
 H(Fragment=2)         22.2      20.16     19.27 
 O(Fragment=2)         21.11     23.07     20.31 
 H(Fragment=2)         21.85     23.23     19.72 
 H(Fragment=2)         20.81     22.2      20.08 
 O(Fragment=2)         20.07     17.58     17.76 
 H(Fragment=2)         19.31     17.02     17.89 
 H(Fragment=2)         19.95     18.3      18.38 
 O(Fragment=2)         22.01     18.5      22.18 
 H(Fragment=2)         21.44     17.81     22.54 
 H(Fragment=2)         21.42     19.05     21.67 
 O(Fragment=2)         18.       21.78     17.92 
 H(Fragment=2)         17.6      22.11     18.72 
 H(Fragment=2)         18.63     21.13     18.23 
 O(Fragment=2)         17.72     17.54     21.21 
 H(Fragment=2)         18.33     18.23     20.95 
 H(Fragment=2)         17.67     16.97     20.44 
 O(Fragment=2)         20.54     21.12     23.84 
 H(Fragment=2)         19.89     21.49     23.24 
 H(Fragment=2)         21.38     21.23     23.39 
 O(Fragment=2)         21.54     19.36     16.07 
 H(Fragment=2)         21.19     18.6      16.52 
 H(Fragment=2)         20.77     19.88     15.85 
 O(Fragment=2)         17.17     18.82     17.19 
 H(Fragment=2)         17.08     19.78     17.2 
 H(Fragment=2)         17.91     18.66     16.6 
 O(Fragment=2)         23.51     23.07     18.55 
 H(Fragment=2)         24.29     22.94     18.02 
 H(Fragment=2)         23.29     22.19     18.87 
 O(Fragment=2)         15.48     19.       22.02 
 H(Fragment=2)         15.16     19.61     21.35 
 H(Fragment=2)         16.33     18.7      21.69 
 O(Fragment=2)         19.72     24.08     22.5 
 H(Fragment=2)         20.17     23.97     21.66 
 H(Fragment=2)         20.35     23.8      23.16 
 O(Fragment=2)         17.86     18.78     24.73 
 H(Fragment=2)         18.76     18.6      24.99 
 H(Fragment=2)         17.93     19.08     23.82 
 O(Fragment=2)         19.53     21.15     15.3 
 H(Fragment=2)         18.92     21.09     14.57 
 H(Fragment=2)         19.07     21.67     15.96 
 O(Fragment=2)         24.42     19.38     23.09 
 H(Fragment=2)         23.61     19.37     22.57 
 H(Fragment=2)         24.28     20.08     23.73 
 O(Fragment=2)         23.41     16.22     21.18 
 H(Fragment=2)         22.65     15.64     21.3 
 H(Fragment=2)         23.09     17.08     21.45 
 O(Fragment=2)         23.8      20.56     16.5 
 H(Fragment=2)         22.92     20.45     16.15 
 H(Fragment=2)         23.68     20.55     17.45 
 O(Fragment=2)         14.77     21.2      20.52 
 H(Fragment=2)         14.38     21.35     19.66 
 H(Fragment=2)         15.67     21.48     20.43 
 O(Fragment=2)         22.37     16.54     16.67 
 H(Fragment=2)         23.22     16.55     17.12 
 H(Fragment=2)         21.72     16.63     17.37 
 O(Fragment=2)         15.33     17.6      18.73 
 H(Fragment=2)         14.51     17.84     18.31 
 H(Fragment=2)         16.       18.11     18.27 
 O(Fragment=2)         20.65     16.27     22.96 
 H(Fragment=2)         21.15     15.85     23.66 
 H(Fragment=2)         20.55     15.59     22.29 
 O(Fragment=2)         24.91     18.3      19.97 
 H(Fragment=2)         25.85     18.25     19.82 
 H(Fragment=2)         24.78     17.94     20.84 
 O(Fragment=2)         15.98     22.65     16.23 
 H(Fragment=2)         15.36     23.2      16.71 
 H(Fragment=2)         16.69     22.5      16.86 
 O(Fragment=2)         20.38     18.61     25.79 
 H(Fragment=2)         20.89     18.85     25.02 
 H(Fragment=2)         21.04     18.36     26.44 
 O(Fragment=2)         21.56     24.48     17.22 
 H(Fragment=2)         21.81     25.4      17.13 
 H(Fragment=2)         22.31     24.06     17.64 
 O(Fragment=2)         19.04     24.19     16.22 
 H(Fragment=2)         18.4      23.9      16.87 
 H(Fragment=2)         19.85     24.3      16.72 
 O(Fragment=2)         22.6      23.77     23.12 
 H(Fragment=2)         23.51     23.56     22.92 
 H(Fragment=2)         22.28     24.24     22.36 
 O(Fragment=2)         16.37     15.99     23.29 
 H(Fragment=2)         16.74     16.45     22.54 
 H(Fragment=2)         16.43     16.63     24.01 
 O(Fragment=2)         17.54     22.15     24.37 
 H(Fragment=2)         18.       22.96     24.6 
 H(Fragment=2)         17.8      21.53     25.06 
 O(Fragment=2)         17.8      25.51     20.51 
 H(Fragment=2)         18.62     25.37     20.99 
 H(Fragment=2)         17.11     25.31     21.15 
 O(Fragment=2)         25.09     16.62     17.73 
 H(Fragment=2)         24.67     17.12     18.43 
 H(Fragment=2)         25.87     17.13     17.5 
 O(Fragment=2)         19.23     14.44     18.96 
 H(Fragment=2)         19.21     14.12     18.06 
 H(Fragment=2)         18.41     14.14     19.34 
 O(Fragment=2)         21.16     14.31     20.74 
 H(Fragment=2)         21.18     13.4      21.03 
 H(Fragment=2)         20.6      14.3      19.97 
 O(Fragment=2)         16.17     24.09     18.56 
 H(Fragment=2)         15.33     24.03     19.02 
 H(Fragment=2)         16.72     24.63     19.12 
 O(Fragment=2)         21.47     22.88     14.61 
 H(Fragment=2)         20.67     22.37     14.69 
 H(Fragment=2)         21.19     23.8      14.67 
 O(Fragment=2)         23.35     21.43     24.8 
 H(Fragment=2)         23.14     22.32     25.11 
 H(Fragment=2)         23.09     20.86     25.53 
 O(Fragment=2)         23.17     16.63     24.92 
 H(Fragment=2)         23.33     17.34     24.3 
 H(Fragment=2)         23.44     15.84     24.46 
 O(Fragment=2)         23.68     25.16     20.74 
 H(Fragment=2)         23.63     25.27     19.79 
 H(Fragment=2)         24.18     24.36     20.86 
 O(Fragment=2)         23.37     18.08     14.12 
 H(Fragment=2)         22.78     18.29     14.84 
 H(Fragment=2)         24.23     18.38     14.42 
 O(Fragment=2)         14.98     15.37     20.38 
 H(Fragment=2)         14.98     16.07     19.72 
 H(Fragment=2)         15.71     14.8      20.14 
 O(Fragment=2)         25.23     23.2      22.4 
 H(Fragment=2)         25.58     22.46     21.9 
 H(Fragment=2)         25.53     23.03     23.3 
 O(Fragment=2)         24.18     22.53     14.77 
 H(Fragment=2)         23.28     22.82     14.61 
 H(Fragment=2)         24.11     21.84     15.42 
 O(Fragment=2)         15.33     18.11     24.92 
 H(Fragment=2)         16.19     18.44     25.17 
 H(Fragment=2)         15.21     18.4      24.02 
 O(Fragment=2)         25.54     18.87     15.62 
 H(Fragment=2)         24.98     19.6      15.87 
 H(Fragment=2)         26.22     18.85     16.29 
 O(Fragment=2)         26.51     22.35     18.43 
 H(Fragment=2)         26.15     21.92     19.21 
 H(Fragment=2)         27.43     22.09     18.42 
 O(Fragment=2)         21.56     24.21     25.58 
 H(Fragment=2)         22.39     24.47     25.98 
 H(Fragment=2)         21.73     24.21     24.64 
 O(Fragment=2)         20.7      21.18     27.14 
 H(Fragment=2)         20.6      21.61     26.29 
 H(Fragment=2)         20.       20.53     27.17 
 O(Fragment=2)         25.56     14.9      20.2 
 H(Fragment=2)         24.82     15.51     20.23 
 H(Fragment=2)         25.21     14.11     19.78 
 O(Fragment=2)         14.73     21.58     24.78 
 H(Fragment=2)         14.16     21.79     24.04 
 H(Fragment=2)         15.59     21.91     24.53 
 O(Fragment=2)         18.7      17.9      13.72 
 H(Fragment=2)         17.85     18.25     13.98 
 H(Fragment=2)         18.99     18.47     13.01 
 O(Fragment=2)         26.42     21.13     21.3 
 H(Fragment=2)         26.83     20.26     21.29 
 H(Fragment=2)         27.15     21.74     21.4 
 O(Fragment=2)         13.64     21.16     18.11 
 H(Fragment=2)         13.8      20.85     17.22 
 H(Fragment=2)         13.26     22.03     18. 
 O(Fragment=2)         13.02     17.62     22.26 
 H(Fragment=2)         13.96     17.78     22.17 
 H(Fragment=2)         12.91     17.3      23.16 
 O(Fragment=2)         18.12     20.28     27.15 
 H(Fragment=2)         18.22     19.52     26.58 
 H(Fragment=2)         18.3      19.95     28.03 
 O(Fragment=2)         19.7      15.85     25.56 
 H(Fragment=2)         20.57     15.94     25.95 
 H(Fragment=2)         19.2      16.59     25.9 
 O(Fragment=2)         17.69     23.78     13.89 
 H(Fragment=2)         18.16     23.97     14.7 
 H(Fragment=2)         16.8      24.07     14.06 
 O(Fragment=2)         18.27     13.96     24.1 
 H(Fragment=2)         17.71     14.46     23.5 
 H(Fragment=2)         18.73     14.62     24.61 
 O(Fragment=2)         15.78     24.88     22.62 
 H(Fragment=2)         15.74     24.9      23.58 
 H(Fragment=2)         14.87     24.93     22.34 
 O(Fragment=2)         12.13     19.63     20.53 
 H(Fragment=2)         13.03     19.79     20.28 
 H(Fragment=2)         12.18     18.93     21.19 
 O(Fragment=2)         21.71     13.18     17.23 
 H(Fragment=2)         21.99     13.31     16.33 
 H(Fragment=2)         22.28     13.75     17.75 
 O(Fragment=2)         18.84     24.29     25.86 
 H(Fragment=2)         19.79     24.16     25.79 
 H(Fragment=2)         18.71     24.58     26.76 
 O(Fragment=2)         26.68     18.79     24.4 
 H(Fragment=2)         27.43     18.72     23.82 
 H(Fragment=2)         25.93     18.94     23.82 
 O(Fragment=2)         15.25     16.39     15.07 
 H(Fragment=2)         15.07     16.74     15.94 
 H(Fragment=2)         15.57     15.5      15.22 
 O(Fragment=2)         14.45     21.42     14.5 
 H(Fragment=2)         14.18     22.12     13.91 
 H(Fragment=2)         14.94     21.86     15.19 
 O(Fragment=2)         19.55     15.36     13.98 
 H(Fragment=2)         18.93     16.08     13.9 
 H(Fragment=2)         20.38     15.72     13.67 
 O(Fragment=2)         18.24     13.97     16.19 
 H(Fragment=2)         18.42     14.35     15.33 
 H(Fragment=2)         17.29     13.98     16.26 
 O(Fragment=2)         16.08     18.98     13.52 
 H(Fragment=2)         16.47     19.85     13.48 
 H(Fragment=2)         15.33     19.08     14.1 
 O(Fragment=2)         17.76     21.23     12.99 
 H(Fragment=2)         17.79     22.15     13.25 
 H(Fragment=2)         17.92     21.24     12.05 
 O(Fragment=2)         24.99     14.88     23.38 
 H(Fragment=2)         25.22     15.34     22.58 
 H(Fragment=2)         24.39     14.19     23.1 
 O(Fragment=2)         21.97     13.88     23.8 
 H(Fragment=2)         22.42     13.29     23.19 
 H(Fragment=2)         22.33     13.66     24.66 
 O(Fragment=2)         17.02     13.14     19.85 
 H(Fragment=2)         16.45     12.63     19.27 
 H(Fragment=2)         17.37     12.49     20.46 
 O(Fragment=2)         21.53     21.48     12.12 
 H(Fragment=2)         21.99     21.63     12.94 
 H(Fragment=2)         21.41     22.36     11.76 
 O(Fragment=2)         17.63     27.97     19.25 
 H(Fragment=2)         17.55     27.15     19.74 
 H(Fragment=2)         17.75     28.64     19.92 
 O(Fragment=2)         20.27     27.4      18.32 
 H(Fragment=2)         20.42     28.02     17.61 
 H(Fragment=2)         19.34     27.47     18.52 
 O(Fragment=2)         26.58     22.62     15.71 
 H(Fragment=2)         25.77     22.65     15.19 
 H(Fragment=2)         26.39     22.01     16.42 
 O(Fragment=2)         13.33     17.75     17.05 
 H(Fragment=2)         13.24     18.22     16.22 
 H(Fragment=2)         12.44     17.43     17.24 
 O(Fragment=2)         14.81     26.16     16.96 
 H(Fragment=2)         14.9      26.85     17.61 
 H(Fragment=2)         15.25     25.4      17.36 
 O(Fragment=2)         20.46     28.07     20.92 
 H(Fragment=2)         20.91     28.92     20.84 
 H(Fragment=2)         20.64     27.64     20.08 
 O(Fragment=2)         21.6      17.02     12.5 
 H(Fragment=2)         20.87     17.63     12.6 
 H(Fragment=2)         22.23     17.29     13.16 
 O(Fragment=2)         24.96     13.69     17.8 
 H(Fragment=2)         24.97     14.63     17.62 
 H(Fragment=2)         25.85     13.4      17.6 
 O(Fragment=2)         27.48     18.56     21.13 
 H(Fragment=2)         28.33     18.98     20.97 
 H(Fragment=2)         27.63     17.63     21. 
 O(Fragment=2)         13.67     24.6      19.61 
 H(Fragment=2)         13.15     23.81     19.75 
 H(Fragment=2)         13.58     25.1      20.42 
 O(Fragment=2)         21.94     16.74     27.52 
 H(Fragment=2)         22.18     15.85     27.79 
 H(Fragment=2)         22.49     16.92     26.77 
 O(Fragment=2)         27.4      18.54     17.81 
 H(Fragment=2)         27.91     19.33     17.94 
 H(Fragment=2)         27.95     17.83     18.15 
 O(Fragment=2)         23.86     14.66     14.33 
 H(Fragment=2)         23.22     14.03     14.65 
 H(Fragment=2)         23.5      15.52     14.56 
 O(Fragment=2)         24.38     25.88     17.14 
 H(Fragment=2)         24.34     26.8      16.89 
 H(Fragment=2)         25.13     25.83     17.73 
 O(Fragment=2)         14.48     14.08     22.79 
 H(Fragment=2)         15.03     14.57     23.4 
 H(Fragment=2)         14.56     14.55     21.96 
 O(Fragment=2)         11.94     22.39     20.17 
 H(Fragment=2)         12.14     21.45     20.16 
 H(Fragment=2)         11.07     22.46     19.8 
 O(Fragment=2)         19.7      27.94     23.64 
 H(Fragment=2)         18.85     28.32     23.43 
 H(Fragment=2)         19.97     27.5      22.84 
 O(Fragment=2)         24.93     26.78     22.77 
 H(Fragment=2)         24.49     26.35     22.04 
 H(Fragment=2)         24.48     27.62     22.86 
 O(Fragment=2)         13.02     19.49     24.98 
 H(Fragment=2)         13.5      18.78     25.4 
 H(Fragment=2)         13.63     20.23     24.99 
 O(Fragment=2)         19.83     19.25     11.59 
 H(Fragment=2)         19.26     19.73     10.99 
 H(Fragment=2)         20.48     19.89     11.87 
 O(Fragment=2)         16.18     22.44     27.76 
 H(Fragment=2)         16.49     23.34     27.89 
 H(Fragment=2)         16.9      22.01     27.3 
 O(Fragment=2)         26.75     25.4      18.34 
 H(Fragment=2)         26.7      24.45     18.24 
 H(Fragment=2)         27.63     25.62     18.04 
 O(Fragment=2)         19.26     11.54     22.84 
 H(Fragment=2)         20.15     11.24     23.04 
 H(Fragment=2)         19.22     12.43     23.21 
 O(Fragment=2)         23.64     19.54     11.61 
 H(Fragment=2)         23.55     19.42     12.56 
 H(Fragment=2)         22.89     20.08     11.37 
 O(Fragment=2)         19.14     27.31     14.82 
 H(Fragment=2)         19.13     26.9      13.96 
 H(Fragment=2)         18.63     26.71     15.37 
 O(Fragment=2)         21.76     11.37     19.27 
 H(Fragment=2)         21.74     11.96     18.52 
 H(Fragment=2)         22.66     11.4      19.59 
 O(Fragment=2)         12.15     15.13     20.25 
 H(Fragment=2)         13.04     15.39     20.49 
 H(Fragment=2)         12.23     14.83     19.34 
 O(Fragment=2)         18.11     26.93     25.69 
 H(Fragment=2)         17.92     26.01     25.51 
 H(Fragment=2)         18.91     27.11     25.19 
 O(Fragment=2)         14.44     16.04     26.13 
 H(Fragment=2)         14.57     16.88     25.7 
 H(Fragment=2)         14.38     16.25     27.07 
 O(Fragment=2)         16.15     13.82     25.93 
 H(Fragment=2)         15.4      14.41     25.93 
 H(Fragment=2)         16.75     14.19     25.28 
 O(Fragment=2)         12.56     19.6      15.18 
 H(Fragment=2)         13.25     20.16     14.83 
 H(Fragment=2)         12.03     20.19     15.73 
 O(Fragment=2)         12.38     22.86     23.53 
 H(Fragment=2)         12.6      23.72     23.89 
 H(Fragment=2)         12.44     22.98     22.58 
 O(Fragment=2)         28.02     23.36     21.72 
 H(Fragment=2)         27.31     23.82     22.16 
 H(Fragment=2)         28.62     24.05     21.44 
 O(Fragment=2)         14.47     20.05     27.47 
 H(Fragment=2)         14.55     19.75     26.57 
 H(Fragment=2)         15.15     20.71     27.57 
 O(Fragment=2)         24.56     19.41     27.33 
 H(Fragment=2)         25.44     19.79     27.39 
 H(Fragment=2)         23.98     20.13     27.58 
 O(Fragment=2)         15.11     14.03     16.26 
 H(Fragment=2)         15.08     13.58     17.1 
 H(Fragment=2)         14.19     14.15     16.01 
 O(Fragment=2)         26.58     22.96     24.96 
 H(Fragment=2)         26.28     22.19     25.44 
 H(Fragment=2)         27.48     22.73     24.69 
 O(Fragment=2)         24.39     25.45     13.64 
 H(Fragment=2)         24.18     25.18     14.54 
 H(Fragment=2)         24.52     24.63     13.17 
 O(Fragment=2)         17.91     17.09     27.84 
 H(Fragment=2)         17.2      16.66     28.31 
 H(Fragment=2)         18.71     16.72     28.21 
 O(Fragment=2)         12.27     23.85     17.53 
 H(Fragment=2)         12.89     24.47     17.92 
 H(Fragment=2)         11.55     24.4      17.21 
 O(Fragment=2)         16.25     16.47     12.39 
 H(Fragment=2)         15.81     16.45     13.24 
 H(Fragment=2)         16.18     17.38     12.11 
 O(Fragment=2)         23.87     12.48     22.19 
 H(Fragment=2)         24.71     12.4      22.64 
 H(Fragment=2)         23.98     11.96     21.39 
 O(Fragment=2)         19.46     25.48     12.71 
 H(Fragment=2)         19.99     25.3      11.93 
 H(Fragment=2)         18.84     24.76     12.76 
 O(Fragment=2)         21.63     13.       14.59 
 H(Fragment=2)         20.92     13.51     14.21 
 H(Fragment=2)         21.91     12.42     13.88 
 O(Fragment=2)         10.57     19.4      18.44 
 H(Fragment=2)         11.27     19.46     19.09 
 H(Fragment=2)         10.78     20.08     17.8 
 O(Fragment=2)         15.44     24.91     14.18 
 H(Fragment=2)         15.17     25.42     14.95 
 H(Fragment=2)         14.65     24.82     13.66 
 O(Fragment=2)         28.66     20.92     18.4 
 H(Fragment=2)         29.28     21.04     19.12 
 H(Fragment=2)         29.16     21.18     17.62 
 O(Fragment=2)         24.46     11.8      19.56 
 H(Fragment=2)         24.5      12.45     18.85 
 H(Fragment=2)         25.18     11.21     19.38 
 O(Fragment=2)         19.53     11.28     16.25 
 H(Fragment=2)         18.87     11.96     16.31 
 H(Fragment=2)         20.35     11.71     16.51 
 O(Fragment=2)         19.22     13.24     26.98 
 H(Fragment=2)         18.91     12.83     26.18 
 H(Fragment=2)         19.57     14.09     26.69 
 O(Fragment=2)         27.48     18.14     13.8 
 H(Fragment=2)         28.01     18.8      14.25 
 H(Fragment=2)         26.65     18.13     14.28 
 O(Fragment=2)         18.69     16.52     10.88 
 H(Fragment=2)         18.82     17.21     11.54 
 H(Fragment=2)         18.04     15.93     11.27 
 O(Fragment=2)         26.09     15.08     25.89 
 H(Fragment=2)         26.75     14.4      25.74 
 H(Fragment=2)         25.52     15.03     25.13 
 O(Fragment=2)         23.31     28.87     22.02 
 H(Fragment=2)         23.83     29.63     21.77 
 H(Fragment=2)         23.02     28.49     21.19 
 O(Fragment=2)         23.7      24.98     26.65 
 H(Fragment=2)         24.19     25.69     26.24 
 H(Fragment=2)         24.31     24.6      27.28 
 
 NAtoms=    385 NQM=      385 NQMF=       0 NMMI=      0 NMMIF=      0
                NMic=       0 NMicF=      0.
                    Isotopes and Nuclear Properties:
 (Nuclear quadrupole moments (NQMom) in fm**2, nuclear magnetic moments (NMagM)
  in nuclear magnetons)

  Atom         1           2           3           4           5           6           7           8           9          10
 IAtWgt=          79          16           1           1          16           1           1          16           1           1
 AtmWgt=  78.9183361  15.9949146   1.0078250   1.0078250  15.9949146   1.0078250   1.0078250  15.9949146   1.0078250   1.0078250
 NucSpn=           3           0           1           1           0           1           1           0           1           1
 AtZEff=   0.0000000   0.0000000   0.0000000   0.0000000   0.0000000   0.0000000   0.0000000   0.0000000   0.0000000   0.0000000
 NQMom=   31.3000000   0.0000000   0.0000000   0.0000000   0.0000000   0.0000000   0.0000000   0.0000000   0.0000000   0.0000000
 NMagM=    2.1063990   0.0000000   2.7928460   2.7928460   0.0000000   2.7928460   2.7928460   0.0000000   2.7928460   2.7928460
 AtZNuc=  35.0000000   8.0000000   1.0000000   1.0000000   8.0000000   1.0000000   1.0000000   8.0000000   1.0000000   1.0000000

  Atom        11          12          13          14          15          16          17          18          19          20
 IAtWgt=          16           1           1          16           1           1          16           1           1          16
 AtmWgt=  15.9949146   1.0078250   1.0078250  15.9949146   1.0078250   1.0078250  15.9949146   1.0078250   1.0078250  15.9949146
 NucSpn=           0           1           1           0           1           1           0           1           1           0
 AtZEff=   0.0000000   0.0000000   0.0000000   0.0000000   0.0000000   0.0000000   0.0000000   0.0000000   0.0000000   0.0000000
 NQMom=    0.0000000   0.0000000   0.0000000   0.0000000   0.0000000   0.0000000   0.0000000   0.0000000   0.0000000   0.0000000
 NMagM=    0.0000000   2.7928460   2.7928460   0.0000000   2.7928460   2.7928460   0.0000000   2.7928460   2.7928460   0.0000000
 AtZNuc=   8.0000000   1.0000000   1.0000000   8.0000000   1.0000000   1.0000000   8.0000000   1.0000000   1.0000000   8.0000000

  Atom        21          22          23          24          25          26          27          28          29          30
 IAtWgt=           1           1          16           1           1          16           1           1          16           1
 AtmWgt=   1.0078250   1.0078250  15.9949146   1.0078250   1.0078250  15.9949146   1.0078250   1.0078250  15.9949146   1.0078250
 NucSpn=           1           1           0           1           1           0           1           1           0           1
 AtZEff=   0.0000000   0.0000000   0.0000000   0.0000000   0.0000000   0.0000000   0.0000000   0.0000000   0.0000000   0.0000000
 NQMom=    0.0000000   0.0000000   0.0000000   0.0000000   0.0000000   0.0000000   0.0000000   0.0000000   0.0000000   0.0000000
 NMagM=    2.7928460   2.7928460   0.0000000   2.7928460   2.7928460   0.0000000   2.7928460   2.7928460   0.0000000   2.7928460
 AtZNuc=   1.0000000   1.0000000   8.0000000   1.0000000   1.0000000   8.0000000   1.0000000   1.0000000   8.0000000   1.0000000

  Atom        31          32          33          34          35          36          37          38          39          40
 IAtWgt=           1          16           1           1          16           1           1          16           1           1
 AtmWgt=   1.0078250  15.9949146   1.0078250   1.0078250  15.9949146   1.0078250   1.0078250  15.9949146   1.0078250   1.0078250
 NucSpn=           1           0           1           1           0           1           1           0           1           1
 AtZEff=   0.0000000   0.0000000   0.0000000   0.0000000   0.0000000   0.0000000   0.0000000   0.0000000   0.0000000   0.0000000
 NQMom=    0.0000000   0.0000000   0.0000000   0.0000000   0.0000000   0.0000000   0.0000000   0.0000000   0.0000000   0.0000000
 NMagM=    2.7928460   0.0000000   2.7928460   2.7928460   0.0000000   2.7928460   2.7928460   0.0000000   2.7928460   2.7928460
 AtZNuc=   1.0000000   8.0000000   1.0000000   1.0000000   8.0000000   1.0000000   1.0000000   8.0000000   1.0000000   1.0000000

  Atom        41          42          43          44          45          46          47          48          49          50
 IAtWgt=          16           1           1          16           1           1          16           1           1          16
 AtmWgt=  15.9949146   1.0078250   1.0078250  15.9949146   1.0078250   1.0078250  15.9949146   1.0078250   1.0078250  15.9949146
 NucSpn=           0           1           1           0           1           1           0           1           1           0
 AtZEff=   0.0000000   0.0000000   0.0000000   0.0000000   0.0000000   0.0000000   0.0000000   0.0000000   0.0000000   0.0000000
 NQMom=    0.0000000   0.0000000   0.0000000   0.0000000   0.0000000   0.0000000   0.0000000   0.0000000   0.0000000   0.0000000
 NMagM=    0.0000000   2.7928460   2.7928460   0.0000000   2.7928460   2.7928460   0.0000000   2.7928460   2.7928460   0.0000000
 AtZNuc=   8.0000000   1.0000000   1.0000000   8.0000000   1.0000000   1.0000000   8.0000000   1.0000000   1.0000000   8.0000000

  Atom        51          52          53          54          55          56          57          58          59          60
 IAtWgt=           1           1          16           1           1          16           1           1          16           1
 AtmWgt=   1.0078250   1.0078250  15.9949146   1.0078250   1.0078250  15.9949146   1.0078250   1.0078250  15.9949146   1.0078250
 NucSpn=           1           1           0           1           1           0           1           1           0           1
 AtZEff=   0.0000000   0.0000000   0.0000000   0.0000000   0.0000000   0.0000000   0.0000000   0.0000000   0.0000000   0.0000000
 NQMom=    0.0000000   0.0000000   0.0000000   0.0000000   0.0000000   0.0000000   0.0000000   0.0000000   0.0000000   0.0000000
 NMagM=    2.7928460   2.7928460   0.0000000   2.7928460   2.7928460   0.0000000   2.7928460   2.7928460   0.0000000   2.7928460
 AtZNuc=   1.0000000   1.0000000   8.0000000   1.0000000   1.0000000   8.0000000   1.0000000   1.0000000   8.0000000   1.0000000

  Atom        61          62          63          64          65          66          67          68          69          70
 IAtWgt=           1          16           1           1          16           1           1          16           1           1
 AtmWgt=   1.0078250  15.9949146   1.0078250   1.0078250  15.9949146   1.0078250   1.0078250  15.9949146   1.0078250   1.0078250
 NucSpn=           1           0           1           1           0           1           1           0           1           1
 AtZEff=   0.0000000   0.0000000   0.0000000   0.0000000   0.0000000   0.0000000   0.0000000   0.0000000   0.0000000   0.0000000
 NQMom=    0.0000000   0.0000000   0.0000000   0.0000000   0.0000000   0.0000000   0.0000000   0.0000000   0.0000000   0.0000000
 NMagM=    2.7928460   0.0000000   2.7928460   2.7928460   0.0000000   2.7928460   2.7928460   0.0000000   2.7928460   2.7928460
 AtZNuc=   1.0000000   8.0000000   1.0000000   1.0000000   8.0000000   1.0000000   1.0000000   8.0000000   1.0000000   1.0000000

  Atom        71          72          73          74          75          76          77          78          79          80
 IAtWgt=          16           1           1          16           1           1          16           1           1          16
 AtmWgt=  15.9949146   1.0078250   1.0078250  15.9949146   1.0078250   1.0078250  15.9949146   1.0078250   1.0078250  15.9949146
 NucSpn=           0           1           1           0           1           1           0           1           1           0
 AtZEff=   0.0000000   0.0000000   0.0000000   0.0000000   0.0000000   0.0000000   0.0000000   0.0000000   0.0000000   0.0000000
 NQMom=    0.0000000   0.0000000   0.0000000   0.0000000   0.0000000   0.0000000   0.0000000   0.0000000   0.0000000   0.0000000
 NMagM=    0.0000000   2.7928460   2.7928460   0.0000000   2.7928460   2.7928460   0.0000000   2.7928460   2.7928460   0.0000000
 AtZNuc=   8.0000000   1.0000000   1.0000000   8.0000000   1.0000000   1.0000000   8.0000000   1.0000000   1.0000000   8.0000000

  Atom        81          82          83          84          85          86          87          88          89          90
 IAtWgt=           1           1          16           1           1          16           1           1          16           1
 AtmWgt=   1.0078250   1.0078250  15.9949146   1.0078250   1.0078250  15.9949146   1.0078250   1.0078250  15.9949146   1.0078250
 NucSpn=           1           1           0           1           1           0           1           1           0           1
 AtZEff=   0.0000000   0.0000000   0.0000000   0.0000000   0.0000000   0.0000000   0.0000000   0.0000000   0.0000000   0.0000000
 NQMom=    0.0000000   0.0000000   0.0000000   0.0000000   0.0000000   0.0000000   0.0000000   0.0000000   0.0000000   0.0000000
 NMagM=    2.7928460   2.7928460   0.0000000   2.7928460   2.7928460   0.0000000   2.7928460   2.7928460   0.0000000   2.7928460
 AtZNuc=   1.0000000   1.0000000   8.0000000   1.0000000   1.0000000   8.0000000   1.0000000   1.0000000   8.0000000   1.0000000

  Atom        91          92          93          94          95          96          97          98          99         100
 IAtWgt=           1          16           1           1          16           1           1          16           1           1
 AtmWgt=   1.0078250  15.9949146   1.0078250   1.0078250  15.9949146   1.0078250   1.0078250  15.9949146   1.0078250   1.0078250
 NucSpn=           1           0           1           1           0           1           1           0           1           1
 AtZEff=   0.0000000   0.0000000   0.0000000   0.0000000   0.0000000   0.0000000   0.0000000   0.0000000   0.0000000   0.0000000
 NQMom=    0.0000000   0.0000000   0.0000000   0.0000000   0.0000000   0.0000000   0.0000000   0.0000000   0.0000000   0.0000000
 NMagM=    2.7928460   0.0000000   2.7928460   2.7928460   0.0000000   2.7928460   2.7928460   0.0000000   2.7928460   2.7928460
 AtZNuc=   1.0000000   8.0000000   1.0000000   1.0000000   8.0000000   1.0000000   1.0000000   8.0000000   1.0000000   1.0000000

  Atom       101         102         103         104         105         106         107         108         109         110
 IAtWgt=          16           1           1          16           1           1          16           1           1          16
 AtmWgt=  15.9949146   1.0078250   1.0078250  15.9949146   1.0078250   1.0078250  15.9949146   1.0078250   1.0078250  15.9949146
 NucSpn=           0           1           1           0           1           1           0           1           1           0
 AtZEff=   0.0000000   0.0000000   0.0000000   0.0000000   0.0000000   0.0000000   0.0000000   0.0000000   0.0000000   0.0000000
 NQMom=    0.0000000   0.0000000   0.0000000   0.0000000   0.0000000   0.0000000   0.0000000   0.0000000   0.0000000   0.0000000
 NMagM=    0.0000000   2.7928460   2.7928460   0.0000000   2.7928460   2.7928460   0.0000000   2.7928460   2.7928460   0.0000000
 AtZNuc=   8.0000000   1.0000000   1.0000000   8.0000000   1.0000000   1.0000000   8.0000000   1.0000000   1.0000000   8.0000000

  Atom       111         112         113         114         115         116         117         118         119         120
 IAtWgt=           1           1          16           1           1          16           1           1          16           1
 AtmWgt=   1.0078250   1.0078250  15.9949146   1.0078250   1.0078250  15.9949146   1.0078250   1.0078250  15.9949146   1.0078250
 NucSpn=           1           1           0           1           1           0           1           1           0           1
 AtZEff=   0.0000000   0.0000000   0.0000000   0.0000000   0.0000000   0.0000000   0.0000000   0.0000000   0.0000000   0.0000000
 NQMom=    0.0000000   0.0000000   0.0000000   0.0000000   0.0000000   0.0000000   0.0000000   0.0000000   0.0000000   0.0000000
 NMagM=    2.7928460   2.7928460   0.0000000   2.7928460   2.7928460   0.0000000   2.7928460   2.7928460   0.0000000   2.7928460
 AtZNuc=   1.0000000   1.0000000   8.0000000   1.0000000   1.0000000   8.0000000   1.0000000   1.0000000   8.0000000   1.0000000

  Atom       121         122         123         124         125         126         127         128         129         130
 IAtWgt=           1          16           1           1          16           1           1          16           1           1
 AtmWgt=   1.0078250  15.9949146   1.0078250   1.0078250  15.9949146   1.0078250   1.0078250  15.9949146   1.0078250   1.0078250
 NucSpn=           1           0           1           1           0           1           1           0           1           1
 AtZEff=   0.0000000   0.0000000   0.0000000   0.0000000   0.0000000   0.0000000   0.0000000   0.0000000   0.0000000   0.0000000
 NQMom=    0.0000000   0.0000000   0.0000000   0.0000000   0.0000000   0.0000000   0.0000000   0.0000000   0.0000000   0.0000000
 NMagM=    2.7928460   0.0000000   2.7928460   2.7928460   0.0000000   2.7928460   2.7928460   0.0000000   2.7928460   2.7928460
 AtZNuc=   1.0000000   8.0000000   1.0000000   1.0000000   8.0000000   1.0000000   1.0000000   8.0000000   1.0000000   1.0000000

  Atom       131         132         133         134         135         136         137         138         139         140
 IAtWgt=          16           1           1          16           1           1          16           1           1          16
 AtmWgt=  15.9949146   1.0078250   1.0078250  15.9949146   1.0078250   1.0078250  15.9949146   1.0078250   1.0078250  15.9949146
 NucSpn=           0           1           1           0           1           1           0           1           1           0
 AtZEff=   0.0000000   0.0000000   0.0000000   0.0000000   0.0000000   0.0000000   0.0000000   0.0000000   0.0000000   0.0000000
 NQMom=    0.0000000   0.0000000   0.0000000   0.0000000   0.0000000   0.0000000   0.0000000   0.0000000   0.0000000   0.0000000
 NMagM=    0.0000000   2.7928460   2.7928460   0.0000000   2.7928460   2.7928460   0.0000000   2.7928460   2.7928460   0.0000000
 AtZNuc=   8.0000000   1.0000000   1.0000000   8.0000000   1.0000000   1.0000000   8.0000000   1.0000000   1.0000000   8.0000000

  Atom       141         142         143         144         145         146         147         148         149         150
 IAtWgt=           1           1          16           1           1          16           1           1          16           1
 AtmWgt=   1.0078250   1.0078250  15.9949146   1.0078250   1.0078250  15.9949146   1.0078250   1.0078250  15.9949146   1.0078250
 NucSpn=           1           1           0           1           1           0           1           1           0           1
 AtZEff=   0.0000000   0.0000000   0.0000000   0.0000000   0.0000000   0.0000000   0.0000000   0.0000000   0.0000000   0.0000000
 NQMom=    0.0000000   0.0000000   0.0000000   0.0000000   0.0000000   0.0000000   0.0000000   0.0000000   0.0000000   0.0000000
 NMagM=    2.7928460   2.7928460   0.0000000   2.7928460   2.7928460   0.0000000   2.7928460   2.7928460   0.0000000   2.7928460
 AtZNuc=   1.0000000   1.0000000   8.0000000   1.0000000   1.0000000   8.0000000   1.0000000   1.0000000   8.0000000   1.0000000

  Atom       151         152         153         154         155         156         157         158         159         160
 IAtWgt=           1          16           1           1          16           1           1          16           1           1
 AtmWgt=   1.0078250  15.9949146   1.0078250   1.0078250  15.9949146   1.0078250   1.0078250  15.9949146   1.0078250   1.0078250
 NucSpn=           1           0           1           1           0           1           1           0           1           1
 AtZEff=   0.0000000   0.0000000   0.0000000   0.0000000   0.0000000   0.0000000   0.0000000   0.0000000   0.0000000   0.0000000
 NQMom=    0.0000000   0.0000000   0.0000000   0.0000000   0.0000000   0.0000000   0.0000000   0.0000000   0.0000000   0.0000000
 NMagM=    2.7928460   0.0000000   2.7928460   2.7928460   0.0000000   2.7928460   2.7928460   0.0000000   2.7928460   2.7928460
 AtZNuc=   1.0000000   8.0000000   1.0000000   1.0000000   8.0000000   1.0000000   1.0000000   8.0000000   1.0000000   1.0000000

  Atom       161         162         163         164         165         166         167         168         169         170
 IAtWgt=          16           1           1          16           1           1          16           1           1          16
 AtmWgt=  15.9949146   1.0078250   1.0078250  15.9949146   1.0078250   1.0078250  15.9949146   1.0078250   1.0078250  15.9949146
 NucSpn=           0           1           1           0           1           1           0           1           1           0
 AtZEff=   0.0000000   0.0000000   0.0000000   0.0000000   0.0000000   0.0000000   0.0000000   0.0000000   0.0000000   0.0000000
 NQMom=    0.0000000   0.0000000   0.0000000   0.0000000   0.0000000   0.0000000   0.0000000   0.0000000   0.0000000   0.0000000
 NMagM=    0.0000000   2.7928460   2.7928460   0.0000000   2.7928460   2.7928460   0.0000000   2.7928460   2.7928460   0.0000000
 AtZNuc=   8.0000000   1.0000000   1.0000000   8.0000000   1.0000000   1.0000000   8.0000000   1.0000000   1.0000000   8.0000000

  Atom       171         172         173         174         175         176         177         178         179         180
 IAtWgt=           1           1          16           1           1          16           1           1          16           1
 AtmWgt=   1.0078250   1.0078250  15.9949146   1.0078250   1.0078250  15.9949146   1.0078250   1.0078250  15.9949146   1.0078250
 NucSpn=           1           1           0           1           1           0           1           1           0           1
 AtZEff=   0.0000000   0.0000000   0.0000000   0.0000000   0.0000000   0.0000000   0.0000000   0.0000000   0.0000000   0.0000000
 NQMom=    0.0000000   0.0000000   0.0000000   0.0000000   0.0000000   0.0000000   0.0000000   0.0000000   0.0000000   0.0000000
 NMagM=    2.7928460   2.7928460   0.0000000   2.7928460   2.7928460   0.0000000   2.7928460   2.7928460   0.0000000   2.7928460
 AtZNuc=   1.0000000   1.0000000   8.0000000   1.0000000   1.0000000   8.0000000   1.0000000   1.0000000   8.0000000   1.0000000

  Atom       181         182         183         184         185         186         187         188         189         190
 IAtWgt=           1          16           1           1          16           1           1          16           1           1
 AtmWgt=   1.0078250  15.9949146   1.0078250   1.0078250  15.9949146   1.0078250   1.0078250  15.9949146   1.0078250   1.0078250
 NucSpn=           1           0           1           1           0           1           1           0           1           1
 AtZEff=   0.0000000   0.0000000   0.0000000   0.0000000   0.0000000   0.0000000   0.0000000   0.0000000   0.0000000   0.0000000
 NQMom=    0.0000000   0.0000000   0.0000000   0.0000000   0.0000000   0.0000000   0.0000000   0.0000000   0.0000000   0.0000000
 NMagM=    2.7928460   0.0000000   2.7928460   2.7928460   0.0000000   2.7928460   2.7928460   0.0000000   2.7928460   2.7928460
 AtZNuc=   1.0000000   8.0000000   1.0000000   1.0000000   8.0000000   1.0000000   1.0000000   8.0000000   1.0000000   1.0000000

  Atom       191         192         193         194         195         196         197         198         199         200
 IAtWgt=          16           1           1          16           1           1          16           1           1          16
 AtmWgt=  15.9949146   1.0078250   1.0078250  15.9949146   1.0078250   1.0078250  15.9949146   1.0078250   1.0078250  15.9949146
 NucSpn=           0           1           1           0           1           1           0           1           1           0
 AtZEff=   0.0000000   0.0000000   0.0000000   0.0000000   0.0000000   0.0000000   0.0000000   0.0000000   0.0000000   0.0000000
 NQMom=    0.0000000   0.0000000   0.0000000   0.0000000   0.0000000   0.0000000   0.0000000   0.0000000   0.0000000   0.0000000
 NMagM=    0.0000000   2.7928460   2.7928460   0.0000000   2.7928460   2.7928460   0.0000000   2.7928460   2.7928460   0.0000000
 AtZNuc=   8.0000000   1.0000000   1.0000000   8.0000000   1.0000000   1.0000000   8.0000000   1.0000000   1.0000000   8.0000000

  Atom       201         202         203         204         205         206         207         208         209         210
 IAtWgt=           1           1          16           1           1          16           1           1          16           1
 AtmWgt=   1.0078250   1.0078250  15.9949146   1.0078250   1.0078250  15.9949146   1.0078250   1.0078250  15.9949146   1.0078250
 NucSpn=           1           1           0           1           1           0           1           1           0           1
 AtZEff=   0.0000000   0.0000000   0.0000000   0.0000000   0.0000000   0.0000000   0.0000000   0.0000000   0.0000000   0.0000000
 NQMom=    0.0000000   0.0000000   0.0000000   0.0000000   0.0000000   0.0000000   0.0000000   0.0000000   0.0000000   0.0000000
 NMagM=    2.7928460   2.7928460   0.0000000   2.7928460   2.7928460   0.0000000   2.7928460   2.7928460   0.0000000   2.7928460
 AtZNuc=   1.0000000   1.0000000   8.0000000   1.0000000   1.0000000   8.0000000   1.0000000   1.0000000   8.0000000   1.0000000

  Atom       211         212         213         214         215         216         217         218         219         220
 IAtWgt=           1          16           1           1          16           1           1          16           1           1
 AtmWgt=   1.0078250  15.9949146   1.0078250   1.0078250  15.9949146   1.0078250   1.0078250  15.9949146   1.0078250   1.0078250
 NucSpn=           1           0           1           1           0           1           1           0           1           1
 AtZEff=   0.0000000   0.0000000   0.0000000   0.0000000   0.0000000   0.0000000   0.0000000   0.0000000   0.0000000   0.0000000
 NQMom=    0.0000000   0.0000000   0.0000000   0.0000000   0.0000000   0.0000000   0.0000000   0.0000000   0.0000000   0.0000000
 NMagM=    2.7928460   0.0000000   2.7928460   2.7928460   0.0000000   2.7928460   2.7928460   0.0000000   2.7928460   2.7928460
 AtZNuc=   1.0000000   8.0000000   1.0000000   1.0000000   8.0000000   1.0000000   1.0000000   8.0000000   1.0000000   1.0000000

  Atom       221         222         223         224         225         226         227         228         229         230
 IAtWgt=          16           1           1          16           1           1          16           1           1          16
 AtmWgt=  15.9949146   1.0078250   1.0078250  15.9949146   1.0078250   1.0078250  15.9949146   1.0078250   1.0078250  15.9949146
 NucSpn=           0           1           1           0           1           1           0           1           1           0
 AtZEff=   0.0000000   0.0000000   0.0000000   0.0000000   0.0000000   0.0000000   0.0000000   0.0000000   0.0000000   0.0000000
 NQMom=    0.0000000   0.0000000   0.0000000   0.0000000   0.0000000   0.0000000   0.0000000   0.0000000   0.0000000   0.0000000
 NMagM=    0.0000000   2.7928460   2.7928460   0.0000000   2.7928460   2.7928460   0.0000000   2.7928460   2.7928460   0.0000000
 AtZNuc=   8.0000000   1.0000000   1.0000000   8.0000000   1.0000000   1.0000000   8.0000000   1.0000000   1.0000000   8.0000000

  Atom       231         232         233         234         235         236         237         238         239         240
 IAtWgt=           1           1          16           1           1          16           1           1          16           1
 AtmWgt=   1.0078250   1.0078250  15.9949146   1.0078250   1.0078250  15.9949146   1.0078250   1.0078250  15.9949146   1.0078250
 NucSpn=           1           1           0           1           1           0           1           1           0           1
 AtZEff=   0.0000000   0.0000000   0.0000000   0.0000000   0.0000000   0.0000000   0.0000000   0.0000000   0.0000000   0.0000000
 NQMom=    0.0000000   0.0000000   0.0000000   0.0000000   0.0000000   0.0000000   0.0000000   0.0000000   0.0000000   0.0000000
 NMagM=    2.7928460   2.7928460   0.0000000   2.7928460   2.7928460   0.0000000   2.7928460   2.7928460   0.0000000   2.7928460
 AtZNuc=   1.0000000   1.0000000   8.0000000   1.0000000   1.0000000   8.0000000   1.0000000   1.0000000   8.0000000   1.0000000

  Atom       241         242         243         244         245         246         247         248         249         250
 IAtWgt=           1          16           1           1          16           1           1          16           1           1
 AtmWgt=   1.0078250  15.9949146   1.0078250   1.0078250  15.9949146   1.0078250   1.0078250  15.9949146   1.0078250   1.0078250
 NucSpn=           1           0           1           1           0           1           1           0           1           1
 AtZEff=   0.0000000   0.0000000   0.0000000   0.0000000   0.0000000   0.0000000   0.0000000   0.0000000   0.0000000   0.0000000
 NQMom=    0.0000000   0.0000000   0.0000000   0.0000000   0.0000000   0.0000000   0.0000000   0.0000000   0.0000000   0.0000000
 NMagM=    2.7928460   0.0000000   2.7928460   2.7928460   0.0000000   2.7928460   2.7928460   0.0000000   2.7928460   2.7928460
 AtZNuc=   1.0000000   8.0000000   1.0000000   1.0000000   8.0000000   1.0000000   1.0000000   8.0000000   1.0000000   1.0000000

  Atom       251         252         253         254         255         256         257         258         259         260
 IAtWgt=          16           1           1          16           1           1          16           1           1          16
 AtmWgt=  15.9949146   1.0078250   1.0078250  15.9949146   1.0078250   1.0078250  15.9949146   1.0078250   1.0078250  15.9949146
 NucSpn=           0           1           1           0           1           1           0           1           1           0
 AtZEff=   0.0000000   0.0000000   0.0000000   0.0000000   0.0000000   0.0000000   0.0000000   0.0000000   0.0000000   0.0000000
 NQMom=    0.0000000   0.0000000   0.0000000   0.0000000   0.0000000   0.0000000   0.0000000   0.0000000   0.0000000   0.0000000
 NMagM=    0.0000000   2.7928460   2.7928460   0.0000000   2.7928460   2.7928460   0.0000000   2.7928460   2.7928460   0.0000000
 AtZNuc=   8.0000000   1.0000000   1.0000000   8.0000000   1.0000000   1.0000000   8.0000000   1.0000000   1.0000000   8.0000000

  Atom       261         262         263         264         265         266         267         268         269         270
 IAtWgt=           1           1          16           1           1          16           1           1          16           1
 AtmWgt=   1.0078250   1.0078250  15.9949146   1.0078250   1.0078250  15.9949146   1.0078250   1.0078250  15.9949146   1.0078250
 NucSpn=           1           1           0           1           1           0           1           1           0           1
 AtZEff=   0.0000000   0.0000000   0.0000000   0.0000000   0.0000000   0.0000000   0.0000000   0.0000000   0.0000000   0.0000000
 NQMom=    0.0000000   0.0000000   0.0000000   0.0000000   0.0000000   0.0000000   0.0000000   0.0000000   0.0000000   0.0000000
 NMagM=    2.7928460   2.7928460   0.0000000   2.7928460   2.7928460   0.0000000   2.7928460   2.7928460   0.0000000   2.7928460
 AtZNuc=   1.0000000   1.0000000   8.0000000   1.0000000   1.0000000   8.0000000   1.0000000   1.0000000   8.0000000   1.0000000

  Atom       271         272         273         274         275         276         277         278         279         280
 IAtWgt=           1          16           1           1          16           1           1          16           1           1
 AtmWgt=   1.0078250  15.9949146   1.0078250   1.0078250  15.9949146   1.0078250   1.0078250  15.9949146   1.0078250   1.0078250
 NucSpn=           1           0           1           1           0           1           1           0           1           1
 AtZEff=   0.0000000   0.0000000   0.0000000   0.0000000   0.0000000   0.0000000   0.0000000   0.0000000   0.0000000   0.0000000
 NQMom=    0.0000000   0.0000000   0.0000000   0.0000000   0.0000000   0.0000000   0.0000000   0.0000000   0.0000000   0.0000000
 NMagM=    2.7928460   0.0000000   2.7928460   2.7928460   0.0000000   2.7928460   2.7928460   0.0000000   2.7928460   2.7928460
 AtZNuc=   1.0000000   8.0000000   1.0000000   1.0000000   8.0000000   1.0000000   1.0000000   8.0000000   1.0000000   1.0000000

  Atom       281         282         283         284         285         286         287         288         289         290
 IAtWgt=          16           1           1          16           1           1          16           1           1          16
 AtmWgt=  15.9949146   1.0078250   1.0078250  15.9949146   1.0078250   1.0078250  15.9949146   1.0078250   1.0078250  15.9949146
 NucSpn=           0           1           1           0           1           1           0           1           1           0
 AtZEff=   0.0000000   0.0000000   0.0000000   0.0000000   0.0000000   0.0000000   0.0000000   0.0000000   0.0000000   0.0000000
 NQMom=    0.0000000   0.0000000   0.0000000   0.0000000   0.0000000   0.0000000   0.0000000   0.0000000   0.0000000   0.0000000
 NMagM=    0.0000000   2.7928460   2.7928460   0.0000000   2.7928460   2.7928460   0.0000000   2.7928460   2.7928460   0.0000000
 AtZNuc=   8.0000000   1.0000000   1.0000000   8.0000000   1.0000000   1.0000000   8.0000000   1.0000000   1.0000000   8.0000000

  Atom       291         292         293         294         295         296         297         298         299         300
 IAtWgt=           1           1          16           1           1          16           1           1          16           1
 AtmWgt=   1.0078250   1.0078250  15.9949146   1.0078250   1.0078250  15.9949146   1.0078250   1.0078250  15.9949146   1.0078250
 NucSpn=           1           1           0           1           1           0           1           1           0           1
 AtZEff=   0.0000000   0.0000000   0.0000000   0.0000000   0.0000000   0.0000000   0.0000000   0.0000000   0.0000000   0.0000000
 NQMom=    0.0000000   0.0000000   0.0000000   0.0000000   0.0000000   0.0000000   0.0000000   0.0000000   0.0000000   0.0000000
 NMagM=    2.7928460   2.7928460   0.0000000   2.7928460   2.7928460   0.0000000   2.7928460   2.7928460   0.0000000   2.7928460
 AtZNuc=   1.0000000   1.0000000   8.0000000   1.0000000   1.0000000   8.0000000   1.0000000   1.0000000   8.0000000   1.0000000

  Atom       301         302         303         304         305         306         307         308         309         310
 IAtWgt=           1          16           1           1          16           1           1          16           1           1
 AtmWgt=   1.0078250  15.9949146   1.0078250   1.0078250  15.9949146   1.0078250   1.0078250  15.9949146   1.0078250   1.0078250
 NucSpn=           1           0           1           1           0           1           1           0           1           1
 AtZEff=   0.0000000   0.0000000   0.0000000   0.0000000   0.0000000   0.0000000   0.0000000   0.0000000   0.0000000   0.0000000
 NQMom=    0.0000000   0.0000000   0.0000000   0.0000000   0.0000000   0.0000000   0.0000000   0.0000000   0.0000000   0.0000000
 NMagM=    2.7928460   0.0000000   2.7928460   2.7928460   0.0000000   2.7928460   2.7928460   0.0000000   2.7928460   2.7928460
 AtZNuc=   1.0000000   8.0000000   1.0000000   1.0000000   8.0000000   1.0000000   1.0000000   8.0000000   1.0000000   1.0000000

  Atom       311         312         313         314         315         316         317         318         319         320
 IAtWgt=          16           1           1          16           1           1          16           1           1          16
 AtmWgt=  15.9949146   1.0078250   1.0078250  15.9949146   1.0078250   1.0078250  15.9949146   1.0078250   1.0078250  15.9949146
 NucSpn=           0           1           1           0           1           1           0           1           1           0
 AtZEff=   0.0000000   0.0000000   0.0000000   0.0000000   0.0000000   0.0000000   0.0000000   0.0000000   0.0000000   0.0000000
 NQMom=    0.0000000   0.0000000   0.0000000   0.0000000   0.0000000   0.0000000   0.0000000   0.0000000   0.0000000   0.0000000
 NMagM=    0.0000000   2.7928460   2.7928460   0.0000000   2.7928460   2.7928460   0.0000000   2.7928460   2.7928460   0.0000000
 AtZNuc=   8.0000000   1.0000000   1.0000000   8.0000000   1.0000000   1.0000000   8.0000000   1.0000000   1.0000000   8.0000000

  Atom       321         322         323         324         325         326         327         328         329         330
 IAtWgt=           1           1          16           1           1          16           1           1          16           1
 AtmWgt=   1.0078250   1.0078250  15.9949146   1.0078250   1.0078250  15.9949146   1.0078250   1.0078250  15.9949146   1.0078250
 NucSpn=           1           1           0           1           1           0           1           1           0           1
 AtZEff=   0.0000000   0.0000000   0.0000000   0.0000000   0.0000000   0.0000000   0.0000000   0.0000000   0.0000000   0.0000000
 NQMom=    0.0000000   0.0000000   0.0000000   0.0000000   0.0000000   0.0000000   0.0000000   0.0000000   0.0000000   0.0000000
 NMagM=    2.7928460   2.7928460   0.0000000   2.7928460   2.7928460   0.0000000   2.7928460   2.7928460   0.0000000   2.7928460
 AtZNuc=   1.0000000   1.0000000   8.0000000   1.0000000   1.0000000   8.0000000   1.0000000   1.0000000   8.0000000   1.0000000

  Atom       331         332         333         334         335         336         337         338         339         340
 IAtWgt=           1          16           1           1          16           1           1          16           1           1
 AtmWgt=   1.0078250  15.9949146   1.0078250   1.0078250  15.9949146   1.0078250   1.0078250  15.9949146   1.0078250   1.0078250
 NucSpn=           1           0           1           1           0           1           1           0           1           1
 AtZEff=   0.0000000   0.0000000   0.0000000   0.0000000   0.0000000   0.0000000   0.0000000   0.0000000   0.0000000   0.0000000
 NQMom=    0.0000000   0.0000000   0.0000000   0.0000000   0.0000000   0.0000000   0.0000000   0.0000000   0.0000000   0.0000000
 NMagM=    2.7928460   0.0000000   2.7928460   2.7928460   0.0000000   2.7928460   2.7928460   0.0000000   2.7928460   2.7928460
 AtZNuc=   1.0000000   8.0000000   1.0000000   1.0000000   8.0000000   1.0000000   1.0000000   8.0000000   1.0000000   1.0000000

  Atom       341         342         343         344         345         346         347         348         349         350
 IAtWgt=          16           1           1          16           1           1          16           1           1          16
 AtmWgt=  15.9949146   1.0078250   1.0078250  15.9949146   1.0078250   1.0078250  15.9949146   1.0078250   1.0078250  15.9949146
 NucSpn=           0           1           1           0           1           1           0           1           1           0
 AtZEff=   0.0000000   0.0000000   0.0000000   0.0000000   0.0000000   0.0000000   0.0000000   0.0000000   0.0000000   0.0000000
 NQMom=    0.0000000   0.0000000   0.0000000   0.0000000   0.0000000   0.0000000   0.0000000   0.0000000   0.0000000   0.0000000
 NMagM=    0.0000000   2.7928460   2.7928460   0.0000000   2.7928460   2.7928460   0.0000000   2.7928460   2.7928460   0.0000000
 AtZNuc=   8.0000000   1.0000000   1.0000000   8.0000000   1.0000000   1.0000000   8.0000000   1.0000000   1.0000000   8.0000000

  Atom       351         352         353         354         355         356         357         358         359         360
 IAtWgt=           1           1          16           1           1          16           1           1          16           1
 AtmWgt=   1.0078250   1.0078250  15.9949146   1.0078250   1.0078250  15.9949146   1.0078250   1.0078250  15.9949146   1.0078250
 NucSpn=           1           1           0           1           1           0           1           1           0           1
 AtZEff=   0.0000000   0.0000000   0.0000000   0.0000000   0.0000000   0.0000000   0.0000000   0.0000000   0.0000000   0.0000000
 NQMom=    0.0000000   0.0000000   0.0000000   0.0000000   0.0000000   0.0000000   0.0000000   0.0000000   0.0000000   0.0000000
 NMagM=    2.7928460   2.7928460   0.0000000   2.7928460   2.7928460   0.0000000   2.7928460   2.7928460   0.0000000   2.7928460
 AtZNuc=   1.0000000   1.0000000   8.0000000   1.0000000   1.0000000   8.0000000   1.0000000   1.0000000   8.0000000   1.0000000

  Atom       361         362         363         364         365         366         367         368         369         370
 IAtWgt=           1          16           1           1          16           1           1          16           1           1
 AtmWgt=   1.0078250  15.9949146   1.0078250   1.0078250  15.9949146   1.0078250   1.0078250  15.9949146   1.0078250   1.0078250
 NucSpn=           1           0           1           1           0           1           1           0           1           1
 AtZEff=   0.0000000   0.0000000   0.0000000   0.0000000   0.0000000   0.0000000   0.0000000   0.0000000   0.0000000   0.0000000
 NQMom=    0.0000000   0.0000000   0.0000000   0.0000000   0.0000000   0.0000000   0.0000000   0.0000000   0.0000000   0.0000000
 NMagM=    2.7928460   0.0000000   2.7928460   2.7928460   0.0000000   2.7928460   2.7928460   0.0000000   2.7928460   2.7928460
 AtZNuc=   1.0000000   8.0000000   1.0000000   1.0000000   8.0000000   1.0000000   1.0000000   8.0000000   1.0000000   1.0000000

  Atom       371         372         373         374         375         376         377         378         379         380
 IAtWgt=          16           1           1          16           1           1          16           1           1          16
 AtmWgt=  15.9949146   1.0078250   1.0078250  15.9949146   1.0078250   1.0078250  15.9949146   1.0078250   1.0078250  15.9949146
 NucSpn=           0           1           1           0           1           1           0           1           1           0
 AtZEff=   0.0000000   0.0000000   0.0000000   0.0000000   0.0000000   0.0000000   0.0000000   0.0000000   0.0000000   0.0000000
 NQMom=    0.0000000   0.0000000   0.0000000   0.0000000   0.0000000   0.0000000   0.0000000   0.0000000   0.0000000   0.0000000
 NMagM=    0.0000000   2.7928460   2.7928460   0.0000000   2.7928460   2.7928460   0.0000000   2.7928460   2.7928460   0.0000000
 AtZNuc=   8.0000000   1.0000000   1.0000000   8.0000000   1.0000000   1.0000000   8.0000000   1.0000000   1.0000000   8.0000000

  Atom       381         382         383         384         385
 IAtWgt=           1           1          16           1           1
 AtmWgt=   1.0078250   1.0078250  15.9949146   1.0078250   1.0078250
 NucSpn=           1           1           0           1           1
 AtZEff=   0.0000000   0.0000000   0.0000000   0.0000000   0.0000000
 NQMom=    0.0000000   0.0000000   0.0000000   0.0000000   0.0000000
 NMagM=    2.7928460   2.7928460   0.0000000   2.7928460   2.7928460
 AtZNuc=   1.0000000   1.0000000   8.0000000   1.0000000   1.0000000
 Leave Link  101 at Sat May 12 01:43:53 2018, MaxMem= 14763950080 cpu:        33.3
 (Enter /cm/shared/gaussian/g09.e01/intel64-sandybridge/g09/l103.exe)

 GradGradGradGradGradGradGradGradGradGradGradGradGradGradGradGradGradGrad
 Berny optimization.
 Initialization pass.
 Trust Radius=3.00D-01 FncErr=1.00D-07 GrdErr=1.00D-07
 Number of steps in this run=      2 maximum allowed number of steps=      2.
 GradGradGradGradGradGradGradGradGradGradGradGradGradGradGradGradGradGrad

 Leave Link  103 at Sat May 12 01:43:53 2018, MaxMem= 14763950080 cpu:         3.7
 (Enter /cm/shared/gaussian/g09.e01/intel64-sandybridge/g09/l202.exe)
 Symmetry turned off by external request.
 Stoichiometry    BrH256O128(1-)
 Framework group  C1[X(BrH256O128)]
 Deg. of freedom  1149
 Full point group                 C1      NOp   1
                          Input orientation:                          
 ---------------------------------------------------------------------
 Center     Atomic      Atomic             Coordinates (Angstroms)
 Number     Number       Type             X           Y           Z
 ---------------------------------------------------------------------
      1         35           0       20.000000   20.000000   20.000000
      2          8           0       17.410000   21.760000   20.580000
      3          1           0       17.500000   22.440000   21.240000
      4          1           0       18.230000   21.260000   20.630000
      5          8           0       23.090000   20.510000   19.140000
      6          1           0       23.640000   19.950000   19.680000
      7          1           0       22.200000   20.160000   19.270000
      8          8           0       21.110000   23.070000   20.310000
      9          1           0       21.850000   23.230000   19.720000
     10          1           0       20.810000   22.200000   20.080000
     11          8           0       20.070000   17.580000   17.760000
     12          1           0       19.310000   17.020000   17.890000
     13          1           0       19.950000   18.300000   18.380000
     14          8           0       22.010000   18.500000   22.180000
     15          1           0       21.440000   17.810000   22.540000
     16          1           0       21.420000   19.050000   21.670000
     17          8           0       18.000000   21.780000   17.920000
     18          1           0       17.600000   22.110000   18.720000
     19          1           0       18.630000   21.130000   18.230000
     20          8           0       17.720000   17.540000   21.210000
     21          1           0       18.330000   18.230000   20.950000
     22          1           0       17.670000   16.970000   20.440000
     23          8           0       20.540000   21.120000   23.840000
     24          1           0       19.890000   21.490000   23.240000
     25          1           0       21.380000   21.230000   23.390000
     26          8           0       21.540000   19.360000   16.070000
     27          1           0       21.190000   18.600000   16.520000
     28          1           0       20.770000   19.880000   15.850000
     29          8           0       17.170000   18.820000   17.190000
     30          1           0       17.080000   19.780000   17.200000
     31          1           0       17.910000   18.660000   16.600000
     32          8           0       23.510000   23.070000   18.550000
     33          1           0       24.290000   22.940000   18.020000
     34          1           0       23.290000   22.190000   18.870000
     35          8           0       15.480000   19.000000   22.020000
     36          1           0       15.160000   19.610000   21.350000
     37          1           0       16.330000   18.700000   21.690000
     38          8           0       19.720000   24.080000   22.500000
     39          1           0       20.170000   23.970000   21.660000
     40          1           0       20.350000   23.800000   23.160000
     41          8           0       17.860000   18.780000   24.730000
     42          1           0       18.760000   18.600000   24.990000
     43          1           0       17.930000   19.080000   23.820000
     44          8           0       19.530000   21.150000   15.300000
     45          1           0       18.920000   21.090000   14.570000
     46          1           0       19.070000   21.670000   15.960000
     47          8           0       24.420000   19.380000   23.090000
     48          1           0       23.610000   19.370000   22.570000
     49          1           0       24.280000   20.080000   23.730000
     50          8           0       23.410000   16.220000   21.180000
     51          1           0       22.650000   15.640000   21.300000
     52          1           0       23.090000   17.080000   21.450000
     53          8           0       23.800000   20.560000   16.500000
     54          1           0       22.920000   20.450000   16.150000
     55          1           0       23.680000   20.550000   17.450000
     56          8           0       14.770000   21.200000   20.520000
     57          1           0       14.380000   21.350000   19.660000
     58          1           0       15.670000   21.480000   20.430000
     59          8           0       22.370000   16.540000   16.670000
     60          1           0       23.220000   16.550000   17.120000
     61          1           0       21.720000   16.630000   17.370000
     62          8           0       15.330000   17.600000   18.730000
     63          1           0       14.510000   17.840000   18.310000
     64          1           0       16.000000   18.110000   18.270000
     65          8           0       20.650000   16.270000   22.960000
     66          1           0       21.150000   15.850000   23.660000
     67          1           0       20.550000   15.590000   22.290000
     68          8           0       24.910000   18.300000   19.970000
     69          1           0       25.850000   18.250000   19.820000
     70          1           0       24.780000   17.940000   20.840000
     71          8           0       15.980000   22.650000   16.230000
     72          1           0       15.360000   23.200000   16.710000
     73          1           0       16.690000   22.500000   16.860000
     74          8           0       20.380000   18.610000   25.790000
     75          1           0       20.890000   18.850000   25.020000
     76          1           0       21.040000   18.360000   26.440000
     77          8           0       21.560000   24.480000   17.220000
     78          1           0       21.810000   25.400000   17.130000
     79          1           0       22.310000   24.060000   17.640000
     80          8           0       19.040000   24.190000   16.220000
     81          1           0       18.400000   23.900000   16.870000
     82          1           0       19.850000   24.300000   16.720000
     83          8           0       22.600000   23.770000   23.120000
     84          1           0       23.510000   23.560000   22.920000
     85          1           0       22.280000   24.240000   22.360000
     86          8           0       16.370000   15.990000   23.290000
     87          1           0       16.740000   16.450000   22.540000
     88          1           0       16.430000   16.630000   24.010000
     89          8           0       17.540000   22.150000   24.370000
     90          1           0       18.000000   22.960000   24.600000
     91          1           0       17.800000   21.530000   25.060000
     92          8           0       17.800000   25.510000   20.510000
     93          1           0       18.620000   25.370000   20.990000
     94          1           0       17.110000   25.310000   21.150000
     95          8           0       25.090000   16.620000   17.730000
     96          1           0       24.670000   17.120000   18.430000
     97          1           0       25.870000   17.130000   17.500000
     98          8           0       19.230000   14.440000   18.960000
     99          1           0       19.210000   14.120000   18.060000
    100          1           0       18.410000   14.140000   19.340000
    101          8           0       21.160000   14.310000   20.740000
    102          1           0       21.180000   13.400000   21.030000
    103          1           0       20.600000   14.300000   19.970000
    104          8           0       16.170000   24.090000   18.560000
    105          1           0       15.330000   24.030000   19.020000
    106          1           0       16.720000   24.630000   19.120000
    107          8           0       21.470000   22.880000   14.610000
    108          1           0       20.670000   22.370000   14.690000
    109          1           0       21.190000   23.800000   14.670000
    110          8           0       23.350000   21.430000   24.800000
    111          1           0       23.140000   22.320000   25.110000
    112          1           0       23.090000   20.860000   25.530000
    113          8           0       23.170000   16.630000   24.920000
    114          1           0       23.330000   17.340000   24.300000
    115          1           0       23.440000   15.840000   24.460000
    116          8           0       23.680000   25.160000   20.740000
    117          1           0       23.630000   25.270000   19.790000
    118          1           0       24.180000   24.360000   20.860000
    119          8           0       23.370000   18.080000   14.120000
    120          1           0       22.780000   18.290000   14.840000
    121          1           0       24.230000   18.380000   14.420000
    122          8           0       14.980000   15.370000   20.380000
    123          1           0       14.980000   16.070000   19.720000
    124          1           0       15.710000   14.800000   20.140000
    125          8           0       25.230000   23.200000   22.400000
    126          1           0       25.580000   22.460000   21.900000
    127          1           0       25.530000   23.030000   23.300000
    128          8           0       24.180000   22.530000   14.770000
    129          1           0       23.280000   22.820000   14.610000
    130          1           0       24.110000   21.840000   15.420000
    131          8           0       15.330000   18.110000   24.920000
    132          1           0       16.190000   18.440000   25.170000
    133          1           0       15.210000   18.400000   24.020000
    134          8           0       25.540000   18.870000   15.620000
    135          1           0       24.980000   19.600000   15.870000
    136          1           0       26.220000   18.850000   16.290000
    137          8           0       26.510000   22.350000   18.430000
    138          1           0       26.150000   21.920000   19.210000
    139          1           0       27.430000   22.090000   18.420000
    140          8           0       21.560000   24.210000   25.580000
    141          1           0       22.390000   24.470000   25.980000
    142          1           0       21.730000   24.210000   24.640000
    143          8           0       20.700000   21.180000   27.140000
    144          1           0       20.600000   21.610000   26.290000
    145          1           0       20.000000   20.530000   27.170000
    146          8           0       25.560000   14.900000   20.200000
    147          1           0       24.820000   15.510000   20.230000
    148          1           0       25.210000   14.110000   19.780000
    149          8           0       14.730000   21.580000   24.780000
    150          1           0       14.160000   21.790000   24.040000
    151          1           0       15.590000   21.910000   24.530000
    152          8           0       18.700000   17.900000   13.720000
    153          1           0       17.850000   18.250000   13.980000
    154          1           0       18.990000   18.470000   13.010000
    155          8           0       26.420000   21.130000   21.300000
    156          1           0       26.830000   20.260000   21.290000
    157          1           0       27.150000   21.740000   21.400000
    158          8           0       13.640000   21.160000   18.110000
    159          1           0       13.800000   20.850000   17.220000
    160          1           0       13.260000   22.030000   18.000000
    161          8           0       13.020000   17.620000   22.260000
    162          1           0       13.960000   17.780000   22.170000
    163          1           0       12.910000   17.300000   23.160000
    164          8           0       18.120000   20.280000   27.150000
    165          1           0       18.220000   19.520000   26.580000
    166          1           0       18.300000   19.950000   28.030000
    167          8           0       19.700000   15.850000   25.560000
    168          1           0       20.570000   15.940000   25.950000
    169          1           0       19.200000   16.590000   25.900000
    170          8           0       17.690000   23.780000   13.890000
    171          1           0       18.160000   23.970000   14.700000
    172          1           0       16.800000   24.070000   14.060000
    173          8           0       18.270000   13.960000   24.100000
    174          1           0       17.710000   14.460000   23.500000
    175          1           0       18.730000   14.620000   24.610000
    176          8           0       15.780000   24.880000   22.620000
    177          1           0       15.740000   24.900000   23.580000
    178          1           0       14.870000   24.930000   22.340000
    179          8           0       12.130000   19.630000   20.530000
    180          1           0       13.030000   19.790000   20.280000
    181          1           0       12.180000   18.930000   21.190000
    182          8           0       21.710000   13.180000   17.230000
    183          1           0       21.990000   13.310000   16.330000
    184          1           0       22.280000   13.750000   17.750000
    185          8           0       18.840000   24.290000   25.860000
    186          1           0       19.790000   24.160000   25.790000
    187          1           0       18.710000   24.580000   26.760000
    188          8           0       26.680000   18.790000   24.400000
    189          1           0       27.430000   18.720000   23.820000
    190          1           0       25.930000   18.940000   23.820000
    191          8           0       15.250000   16.390000   15.070000
    192          1           0       15.070000   16.740000   15.940000
    193          1           0       15.570000   15.500000   15.220000
    194          8           0       14.450000   21.420000   14.500000
    195          1           0       14.180000   22.120000   13.910000
    196          1           0       14.940000   21.860000   15.190000
    197          8           0       19.550000   15.360000   13.980000
    198          1           0       18.930000   16.080000   13.900000
    199          1           0       20.380000   15.720000   13.670000
    200          8           0       18.240000   13.970000   16.190000
    201          1           0       18.420000   14.350000   15.330000
    202          1           0       17.290000   13.980000   16.260000
    203          8           0       16.080000   18.980000   13.520000
    204          1           0       16.470000   19.850000   13.480000
    205          1           0       15.330000   19.080000   14.100000
    206          8           0       17.760000   21.230000   12.990000
    207          1           0       17.790000   22.150000   13.250000
[...]
   X338      23.18694  -0.00177   0.00000   0.00416   0.00394  23.19088
   Y338      45.06997  -0.01333   0.00000  -0.00776  -0.00874  45.06123
   Z338      33.12690  -0.01051   0.00000  -0.01214  -0.01304  33.11385
   X339      24.35857   0.00426   0.00000  -0.00082  -0.00113  24.35744
   Y339      46.24160   0.01205   0.00000   0.01112   0.01023  46.25183
   Z339      33.86389   0.00449   0.00000   0.00293   0.00202  33.86591
   X340      21.82634  -0.00138   0.00000  -0.00061  -0.00085  21.82549
   Y340      46.10932   0.00066   0.00000  -0.00154  -0.00261  46.10670
   Z340      32.52219  -0.00124   0.00000  -0.00105  -0.00207  32.52012
   X341      30.70805   0.00471   0.00000  -0.00407  -0.00322  30.70483
   Y341      31.12379  -0.02016   0.00000  -0.01705  -0.01819  31.10560
   Z341      23.41371  -0.01541   0.00000  -0.01470  -0.01454  23.39916
   X342      29.87657  -0.00435   0.00000  -0.00018   0.00060  29.87717
   Y342      31.08599   0.00661   0.00000   0.00910   0.00801  31.09400
   Z342      25.01997   0.01107   0.00000   0.00588   0.00599  25.02597
   X343      30.57577  -0.00041   0.00000   0.00167   0.00246  30.57823
   Y343      32.84344   0.00960   0.00000   0.00424   0.00307  32.84651
   Z343      22.88458   0.00399   0.00000   0.00783   0.00789  22.89247
   X344      45.10776  -0.01087   0.00000  -0.00899  -0.00864  45.09912
   Y344      23.58378   0.00469   0.00000  -0.00388  -0.00342  23.58036
   Z344      41.93302   0.01639   0.00000   0.01580   0.01699  41.95001
   X345      46.69513   0.00938   0.00000   0.00865   0.00897  46.70410
   Y345      23.43260  -0.00378   0.00000  -0.00576  -0.00518  23.42742
   Z345      42.78340   0.00265   0.00000   0.00075   0.00202  42.78542
   X346      45.31563   0.00132   0.00000  -0.00109  -0.00063  45.31500
   Y346      22.60112   0.00163   0.00000   0.01275   0.01315  22.61427
   Z346      40.42124  -0.01659   0.00000  -0.01581  -0.01456  40.40668
   X347      36.77407   0.01637   0.00000   0.01025   0.01030  36.78437
   Y347      48.15022   0.01523   0.00000   0.00829   0.00746  48.15768
   Z347      24.01842  -0.00375   0.00000  -0.00292  -0.00336  24.01506
   X348      37.77563   0.00263   0.00000   0.00468   0.00482  37.78044
   Y348      47.81007   0.00204   0.00000   0.00333   0.00247  47.81254
   Z348      22.54443  -0.00217   0.00000  -0.00450  -0.00488  22.53955
   X349      35.60244  -0.01884   0.00000  -0.01489  -0.01478  35.58766
   Y349      46.78962  -0.01544   0.00000  -0.00582  -0.00671  46.78291
   Z349      24.11291   0.00784   0.00000   0.01215   0.01172  24.12462
   X350      40.87478   0.01027   0.00000   0.00217   0.00312  40.87789
   Y350      24.56644  -0.00793   0.00000  -0.00417  -0.00464  24.56180
   Z350      27.57110   0.00702   0.00000   0.00035   0.00130  27.57241
   X351      39.53307  -0.01617   0.00000  -0.01369  -0.01275  39.52032
   Y351      25.53020   0.01302   0.00000   0.01210   0.01153  25.54173
   Z351      26.85301  -0.00456   0.00000  -0.00056   0.00028  26.85329
   X352      41.40390   0.00135   0.00000   0.00041   0.00148  41.40538
   Y352      23.47040  -0.00403   0.00000  -0.00457  -0.00509  23.46531
   Z352      26.22940  -0.00373   0.00000  -0.00490  -0.00388  26.22552
   X353      19.97441  -0.01911   0.00000  -0.01151  -0.01143  19.96297
   Y353      36.66069  -0.00503   0.00000  -0.00355  -0.00458  36.65611
   Z353      34.84655  -0.02182   0.00000  -0.01896  -0.01958  34.82697
   X354      21.29721   0.01205   0.00000  -0.00035  -0.00034  21.29688
   Y354      36.77407  -0.00246   0.00000  -0.00634  -0.00725  36.76682
   Z354      36.07487   0.01772   0.00000   0.01252   0.01196  36.08683
   X355      20.37125   0.00242   0.00000   0.00332   0.00340  20.37464
   Y355      37.94570   0.00496   0.00000   0.00837   0.00729  37.95299
   Z355      33.63713  -0.00248   0.00000  -0.00354  -0.00421  33.63292
   X356      29.17737  -0.00041   0.00000  -0.00937  -0.00940  29.16797
   Y356      47.07308   0.00112   0.00000   0.00556   0.00453  47.07761
   Z356      26.79632   0.00273   0.00000   0.00528   0.00455  26.80086
   X357      28.66715  -0.00119   0.00000  -0.00155  -0.00169  28.66546
   Y357      48.03684   0.00778   0.00000   0.01100   0.01002  48.04686
   Z357      28.25141   0.01039   0.00000   0.01312   0.01231  28.26372
   X358      27.68449  -0.01195   0.00000  -0.01332  -0.01329  27.67120
   Y358      46.90300   0.00062   0.00000   0.00365   0.00250  46.90550
   Z358      25.81366  -0.00828   0.00000  -0.00742  -0.00822  25.80544
   X359      54.15955   0.00610   0.00000   0.01525   0.01520  54.17475
   Y359      39.53307  -0.00633   0.00000  -0.01104  -0.01054  39.52253
   Z359      34.77096  -0.00235   0.00000  -0.00429  -0.00351  34.76745
   X360      55.33118   0.00686   0.00000   0.00932   0.00920  55.34038
   Y360      39.75984   0.00141   0.00000   0.00181   0.00243  39.76227
   Z360      36.13156   0.00744   0.00000   0.00710   0.00792  36.13948
   X361      55.10441   0.00345   0.00000   0.00507   0.00507  55.10948
   Y361      40.02440   0.00240   0.00000   0.00310   0.00356  40.02796
   Z361      33.29697  -0.00870   0.00000  -0.01166  -0.01086  33.28611
   X362      46.22270  -0.00482   0.00000   0.00316   0.00379  46.22649
   Y362      22.29877  -0.00523   0.00000  -0.00369  -0.00344  22.29533
   Z362      36.96304   0.02101   0.00000   0.01502   0.01632  36.97937
   X363      46.29829  -0.00447   0.00000  -0.00962  -0.00899  46.28930
   Y363      23.52709   0.01433   0.00000   0.01000   0.01019  23.53728
   Z363      35.62134  -0.01219   0.00000  -0.00537  -0.00412  35.61721
   X364      47.58330   0.01175   0.00000   0.00892   0.00962  47.59292
   Y364      21.18383  -0.01313   0.00000  -0.01435  -0.01405  21.16978
   Z364      36.62289  -0.00389   0.00000  -0.00473  -0.00330  36.61959
   X365      36.90635   0.00693   0.00000   0.00011   0.00107  36.90742
   Y365      21.31611  -0.02274   0.00000  -0.01576  -0.01624  21.29987
   Z365      30.70805  -0.00292   0.00000  -0.00243  -0.00149  30.70656
   X366      35.65913  -0.00637   0.00000   0.00140   0.00229  35.66142
   Y366      22.60112   0.01941   0.00000   0.01639   0.01586  22.61698
   Z366      30.82143   0.00003   0.00000  -0.00299  -0.00217  30.81926
   X367      38.45593  -0.00070   0.00000  -0.00457  -0.00367  38.45225
   Y367      22.12869   0.00507   0.00000   0.00388   0.00349  22.13218
   Z367      31.19938   0.00125   0.00000  -0.00029   0.00068  31.20005
   X368      36.32054   0.01436   0.00000   0.01955   0.01942  36.33996
   Y368      25.01997   0.00129   0.00000  -0.00539  -0.00485  25.01512
   Z368      50.98481   0.01908   0.00000   0.01077   0.01149  50.99630
   X369      35.73472  -0.00992   0.00000  -0.01158  -0.01160  35.72312
   Y369      24.24519  -0.00209   0.00000   0.00313   0.00355  24.24874
   Z369      49.47303  -0.01406   0.00000  -0.00627  -0.00553  49.46750
   X370      36.98194  -0.00696   0.00000  -0.01217  -0.01235  36.96959
   Y370      26.62624   0.00189   0.00000   0.00267   0.00320  26.62944
   Z370      50.43679  -0.00559   0.00000  -0.00767  -0.00700  50.42979
   X371      51.92967   0.01361   0.00000   0.01251   0.01310  51.94277
   Y371      34.27963  -0.01083   0.00000  -0.01331  -0.01335  34.26628
   Z371      26.07822  -0.01014   0.00000  -0.00636  -0.00541  26.07281
   X372      52.93123  -0.00328   0.00000  -0.00668  -0.00619  52.92504
   Y372      35.52685   0.00518   0.00000   0.00524   0.00528  35.53213
   Z372      26.92860   0.00271   0.00000  -0.00009   0.00084  26.92944
   X373      50.36120  -0.00704   0.00000  -0.00159  -0.00104  50.36016
   Y373      34.26073   0.00629   0.00000   0.00927   0.00920  34.26994
   Z373      26.98529   0.00456   0.00000  -0.00149  -0.00061  26.98467
   X374      35.31898   0.00472   0.00000  -0.00164  -0.00067  35.31831
   Y374      31.21828   0.00431   0.00000   0.00435   0.00327  31.22155
   Z374      20.56022  -0.01246   0.00000  -0.01494  -0.01458  20.54564
   X375      35.56465  -0.00176   0.00000  -0.00133  -0.00048  35.56417
   Y375      32.52219  -0.00786   0.00000  -0.01162  -0.01262  32.50957
   Z375      21.80744   0.00159   0.00000   0.00096   0.00126  21.80870
   X376      34.09066  -0.00499   0.00000  -0.00354  -0.00255  34.08811
   Y376      30.10334   0.00264   0.00000   0.00879   0.00770  30.11104
   Z376      21.29721   0.00940   0.00000   0.01030   0.01066  21.30787
   X377      49.30295   0.00787   0.00000   0.00216   0.00197  49.30493
   Y377      28.49707   0.00269   0.00000  -0.00269  -0.00168  28.49539
   Z377      48.92501   0.02445   0.00000   0.01907   0.02020  48.94521
   X378      50.55017   0.00068   0.00000   0.00051   0.00039  50.55057
   Y378      27.21206  -0.00264   0.00000  -0.00287  -0.00182  27.21024
   Z378      48.64155  -0.00378   0.00000  -0.00495  -0.00370  48.63785
   X379      48.22581  -0.00478   0.00000   0.00456   0.00444  48.23025
   Y379      28.40258   0.00129   0.00000   0.00493   0.00582  28.40840
   Z379      47.48882  -0.01793   0.00000  -0.01261  -0.01153  47.47729
   X380      44.04952  -0.00691   0.00000  -0.00754  -0.00858  44.04094
   Y380      54.55639   0.00148   0.00000   0.00688   0.00727  54.56367
   Z380      41.61177   0.00973   0.00000   0.00645   0.00600  41.61777
   X381      45.03217   0.00640   0.00000   0.00639   0.00531  45.03748
   Y381      55.99259   0.00863   0.00000   0.00676   0.00718  55.99976
   Z381      41.13934  -0.00484   0.00000  -0.00518  -0.00565  41.13369
   X382      43.50150  -0.00210   0.00000  -0.00047  -0.00140  43.50010
   Y382      53.83830  -0.00646   0.00000  -0.00825  -0.00796  53.83034
   Z382      40.04330  -0.00506   0.00000  -0.00022  -0.00065  40.04264
   X383      44.78651   0.00497   0.00000   0.01295   0.01186  44.79837
   Y383      47.20536   0.00044   0.00000   0.00376   0.00464  47.21000
   Z383      50.36120   0.00652   0.00000   0.00868   0.00865  50.36985
   X384      45.71248   0.00525   0.00000   0.00757   0.00645  45.71893
   Y384      48.54706   0.00810   0.00000   0.00745   0.00833  48.55539
   Z384      49.58641  -0.00830   0.00000  -0.01017  -0.01023  49.57618
   X385      45.93924   0.00508   0.00000   0.01027   0.00915  45.94839
   Y385      46.48726  -0.00389   0.00000  -0.00560  -0.00461  46.48265
   Z385      51.55173   0.00536   0.00000   0.00800   0.00805  51.55978
         Item               Value     Threshold  Converged?
 Maximum Force            0.036393     0.000450     NO 
 RMS     Force            0.010637     0.000300     NO 
 Maximum Displacement     0.029243     0.001800     NO 
 RMS     Displacement     0.008837     0.001200     NO 
 Predicted change in Energy=-7.387934D-02
 GradGradGradGradGradGradGradGradGradGradGradGradGradGradGradGradGradGrad

 Leave Link  103 at Sat May 12 04:25:28 2018, MaxMem= 14763950080 cpu:      2821.1
 (Enter /cm/shared/gaussian/g09.e01/intel64-sandybridge/g09/l9999.exe)
 1\1\GINC-POPLE03\Force\RPBE1PBE\CC-pVDZ\Br1H256O128(1-)\M.PELUSO\12-Ma
 y-2018\0\\#p PBE1PBE/cc-pvDZ force Counterpoise=2 noSymm\\forces on ch
 loride comput - NWATER: 128\\-1,1\Br,20.,20.,20.\O,17.41,21.76,20.58\H
 ,17.5,22.44,21.24\H,18.23,21.26,20.63\O,23.09,20.51,19.14\H,23.64,19.9
 5,19.68\H,22.2,20.16,19.27\O,21.11,23.07,20.31\H,21.85,23.23,19.72\H,2
 0.81,22.2,20.08\O,20.07,17.58,17.76\H,19.31,17.02,17.89\H,19.95,18.3,1
 8.38\O,22.01,18.5,22.18\H,21.44,17.81,22.54\H,21.42,19.05,21.67\O,18.,
 21.78,17.92\H,17.6,22.11,18.72\H,18.63,21.13,18.23\O,17.72,17.54,21.21
 \H,18.33,18.23,20.95\H,17.67,16.97,20.44\O,20.54,21.12,23.84\H,19.89,2
 1.49,23.24\H,21.38,21.23,23.39\O,21.54,19.36,16.07\H,21.19,18.6,16.52\
 H,20.77,19.88,15.85\O,17.17,18.82,17.19\H,17.08,19.78,17.2\H,17.91,18.
 66,16.6\O,23.51,23.07,18.55\H,24.29,22.94,18.02\H,23.29,22.19,18.87\O,
 15.48,19.,22.02\H,15.16,19.61,21.35\H,16.33,18.7,21.69\O,19.72,24.08,2
 2.5\H,20.17,23.97,21.66\H,20.35,23.8,23.16\O,17.86,18.78,24.73\H,18.76
 ,18.6,24.99\H,17.93,19.08,23.82\O,19.53,21.15,15.3\H,18.92,21.09,14.57
 \H,19.07,21.67,15.96\O,24.42,19.38,23.09\H,23.61,19.37,22.57\H,24.28,2
 0.08,23.73\O,23.41,16.22,21.18\H,22.65,15.64,21.3\H,23.09,17.08,21.45\
 O,23.8,20.56,16.5\H,22.92,20.45,16.15\H,23.68,20.55,17.45\O,14.77,21.2
 ,20.52\H,14.38,21.35,19.66\H,15.67,21.48,20.43\O,22.37,16.54,16.67\H,2
 3.22,16.55,17.12\H,21.72,16.63,17.37\O,15.33,17.6,18.73\H,14.51,17.84,
 18.31\H,16.,18.11,18.27\O,20.65,16.27,22.96\H,21.15,15.85,23.66\H,20.5
 5,15.59,22.29\O,24.91,18.3,19.97\H,25.85,18.25,19.82\H,24.78,17.94,20.
 84\O,15.98,22.65,16.23\H,15.36,23.2,16.71\H,16.69,22.5,16.86\O,20.38,1
 8.61,25.79\H,20.89,18.85,25.02\H,21.04,18.36,26.44\O,21.56,24.48,17.22
 \H,21.81,25.4,17.13\H,22.31,24.06,17.64\O,19.04,24.19,16.22\H,18.4,23.
 9,16.87\H,19.85,24.3,16.72\O,22.6,23.77,23.12\H,23.51,23.56,22.92\H,22
 .28,24.24,22.36\O,16.37,15.99,23.29\H,16.74,16.45,22.54\H,16.43,16.63,
 24.01\O,17.54,22.15,24.37\H,18.,22.96,24.6\H,17.8,21.53,25.06\O,17.8,2
 5.51,20.51\H,18.62,25.37,20.99\H,17.11,25.31,21.15\O,25.09,16.62,17.73
 \H,24.67,17.12,18.43\H,25.87,17.13,17.5\O,19.23,14.44,18.96\H,19.21,14
 .12,18.06\H,18.41,14.14,19.34\O,21.16,14.31,20.74\H,21.18,13.4,21.03\H
 ,20.6,14.3,19.97\O,16.17,24.09,18.56\H,15.33,24.03,19.02\H,16.72,24.63
 ,19.12\O,21.47,22.88,14.61\H,20.67,22.37,14.69\H,21.19,23.8,14.67\O,23
 .35,21.43,24.8\H,23.14,22.32,25.11\H,23.09,20.86,25.53\O,23.17,16.63,2
 4.92\H,23.33,17.34,24.3\H,23.44,15.84,24.46\O,23.68,25.16,20.74\H,23.6
 3,25.27,19.79\H,24.18,24.36,20.86\O,23.37,18.08,14.12\H,22.78,18.29,14
 .84\H,24.23,18.38,14.42\O,14.98,15.37,20.38\H,14.98,16.07,19.72\H,15.7
 1,14.8,20.14\O,25.23,23.2,22.4\H,25.58,22.46,21.9\H,25.53,23.03,23.3\O
 ,24.18,22.53,14.77\H,23.28,22.82,14.61\H,24.11,21.84,15.42\O,15.33,18.
 11,24.92\H,16.19,18.44,25.17\H,15.21,18.4,24.02\O,25.54,18.87,15.62\H,
 24.98,19.6,15.87\H,26.22,18.85,16.29\O,26.51,22.35,18.43\H,26.15,21.92
 ,19.21\H,27.43,22.09,18.42\O,21.56,24.21,25.58\H,22.39,24.47,25.98\H,2
 1.73,24.21,24.64\O,20.7,21.18,27.14\H,20.6,21.61,26.29\H,20.,20.53,27.
 17\O,25.56,14.9,20.2\H,24.82,15.51,20.23\H,25.21,14.11,19.78\O,14.73,2
 1.58,24.78\H,14.16,21.79,24.04\H,15.59,21.91,24.53\O,18.7,17.9,13.72\H
 ,17.85,18.25,13.98\H,18.99,18.47,13.01\O,26.42,21.13,21.3\H,26.83,20.2
 6,21.29\H,27.15,21.74,21.4\O,13.64,21.16,18.11\H,13.8,20.85,17.22\H,13
 .26,22.03,18.\O,13.02,17.62,22.26\H,13.96,17.78,22.17\H,12.91,17.3,23.
 16\O,18.12,20.28,27.15\H,18.22,19.52,26.58\H,18.3,19.95,28.03\O,19.7,1
 5.85,25.56\H,20.57,15.94,25.95\H,19.2,16.59,25.9\O,17.69,23.78,13.89\H
 ,18.16,23.97,14.7\H,16.8,24.07,14.06\O,18.27,13.96,24.1\H,17.71,14.46,
 23.5\H,18.73,14.62,24.61\O,15.78,24.88,22.62\H,15.74,24.9,23.58\H,14.8
 7,24.93,22.34\O,12.13,19.63,20.53\H,13.03,19.79,20.28\H,12.18,18.93,21
 .19\O,21.71,13.18,17.23\H,21.99,13.31,16.33\H,22.28,13.75,17.75\O,18.8
 4,24.29,25.86\H,19.79,24.16,25.79\H,18.71,24.58,26.76\O,26.68,18.79,24
 .4\H,27.43,18.72,23.82\H,25.93,18.94,23.82\O,15.25,16.39,15.07\H,15.07
 ,16.74,15.94\H,15.57,15.5,15.22\O,14.45,21.42,14.5\H,14.18,22.12,13.91
 \H,14.94,21.86,15.19\O,19.55,15.36,13.98\H,18.93,16.08,13.9\H,20.38,15
 .72,13.67\O,18.24,13.97,16.19\H,18.42,14.35,15.33\H,17.29,13.98,16.26\
 O,16.08,18.98,13.52\H,16.47,19.85,13.48\H,15.33,19.08,14.1\O,17.76,21.
 23,12.99\H,17.79,22.15,13.25\H,17.92,21.24,12.05\O,24.99,14.88,23.38\H
 ,25.22,15.34,22.58\H,24.39,14.19,23.1\O,21.97,13.88,23.8\H,22.42,13.29
 ,23.19\H,22.33,13.66,24.66\O,17.02,13.14,19.85\H,16.45,12.63,19.27\H,1
 7.37,12.49,20.46\O,21.53,21.48,12.12\H,21.99,21.63,12.94\H,21.41,22.36
 ,11.76\O,17.63,27.97,19.25\H,17.55,27.15,19.74\H,17.75,28.64,19.92\O,2
 0.27,27.4,18.32\H,20.42,28.02,17.61\H,19.34,27.47,18.52\O,26.58,22.62,
 15.71\H,25.77,22.65,15.19\H,26.39,22.01,16.42\O,13.33,17.75,17.05\H,13
 .24,18.22,16.22\H,12.44,17.43,17.24\O,14.81,26.16,16.96\H,14.9,26.85,1
 7.61\H,15.25,25.4,17.36\O,20.46,28.07,20.92\H,20.91,28.92,20.84\H,20.6
 4,27.64,20.08\O,21.6,17.02,12.5\H,20.87,17.63,12.6\H,22.23,17.29,13.16
 \O,24.96,13.69,17.8\H,24.97,14.63,17.62\H,25.85,13.4,17.6\O,27.48,18.5
 6,21.13\H,28.33,18.98,20.97\H,27.63,17.63,21.\O,13.67,24.6,19.61\H,13.
 15,23.81,19.75\H,13.58,25.1,20.42\O,21.94,16.74,27.52\H,22.18,15.85,27
 .79\H,22.49,16.92,26.77\O,27.4,18.54,17.81\H,27.91,19.33,17.94\H,27.95
 ,17.83,18.15\O,23.86,14.66,14.33\H,23.22,14.03,14.65\H,23.5,15.52,14.5
 6\O,24.38,25.88,17.14\H,24.34,26.8,16.89\H,25.13,25.83,17.73\O,14.48,1
 4.08,22.79\H,15.03,14.57,23.4\H,14.56,14.55,21.96\O,11.94,22.39,20.17\
 H,12.14,21.45,20.16\H,11.07,22.46,19.8\O,19.7,27.94,23.64\H,18.85,28.3
 2,23.43\H,19.97,27.5,22.84\O,24.93,26.78,22.77\H,24.49,26.35,22.04\H,2
 4.48,27.62,22.86\O,13.02,19.49,24.98\H,13.5,18.78,25.4\H,13.63,20.23,2
 4.99\O,19.83,19.25,11.59\H,19.26,19.73,10.99\H,20.48,19.89,11.87\O,16.
 18,22.44,27.76\H,16.49,23.34,27.89\H,16.9,22.01,27.3\O,26.75,25.4,18.3
 4\H,26.7,24.45,18.24\H,27.63,25.62,18.04\O,19.26,11.54,22.84\H,20.15,1
 1.24,23.04\H,19.22,12.43,23.21\O,23.64,19.54,11.61\H,23.55,19.42,12.56
 \H,22.89,20.08,11.37\O,19.14,27.31,14.82\H,19.13,26.9,13.96\H,18.63,26
 .71,15.37\O,21.76,11.37,19.27\H,21.74,11.96,18.52\H,22.66,11.4,19.59\O
 ,12.15,15.13,20.25\H,13.04,15.39,20.49\H,12.23,14.83,19.34\O,18.11,26.
 93,25.69\H,17.92,26.01,25.51\H,18.91,27.11,25.19\O,14.44,16.04,26.13\H
 ,14.57,16.88,25.7\H,14.38,16.25,27.07\O,16.15,13.82,25.93\H,15.4,14.41
 ,25.93\H,16.75,14.19,25.28\O,12.56,19.6,15.18\H,13.25,20.16,14.83\H,12
 .03,20.19,15.73\O,12.38,22.86,23.53\H,12.6,23.72,23.89\H,12.44,22.98,2
 2.58\O,28.02,23.36,21.72\H,27.31,23.82,22.16\H,28.62,24.05,21.44\O,14.
 47,20.05,27.47\H,14.55,19.75,26.57\H,15.15,20.71,27.57\O,24.56,19.41,2
 7.33\H,25.44,19.79,27.39\H,23.98,20.13,27.58\O,15.11,14.03,16.26\H,15.
 08,13.58,17.1\H,14.19,14.15,16.01\O,26.58,22.96,24.96\H,26.28,22.19,25
 .44\H,27.48,22.73,24.69\O,24.39,25.45,13.64\H,24.18,25.18,14.54\H,24.5
 2,24.63,13.17\O,17.91,17.09,27.84\H,17.2,16.66,28.31\H,18.71,16.72,28.
 21\O,12.27,23.85,17.53\H,12.89,24.47,17.92\H,11.55,24.4,17.21\O,16.25,
 16.47,12.39\H,15.81,16.45,13.24\H,16.18,17.38,12.11\O,23.87,12.48,22.1
 9\H,24.71,12.4,22.64\H,23.98,11.96,21.39\O,19.46,25.48,12.71\H,19.99,2
 5.3,11.93\H,18.84,24.76,12.76\O,21.63,13.,14.59\H,20.92,13.51,14.21\H,
 21.91,12.42,13.88\O,10.57,19.4,18.44\H,11.27,19.46,19.09\H,10.78,20.08
 ,17.8\O,15.44,24.91,14.18\H,15.17,25.42,14.95\H,14.65,24.82,13.66\O,28
 .66,20.92,18.4\H,29.28,21.04,19.12\H,29.16,21.18,17.62\O,24.46,11.8,19
 .56\H,24.5,12.45,18.85\H,25.18,11.21,19.38\O,19.53,11.28,16.25\H,18.87
 ,11.96,16.31\H,20.35,11.71,16.51\O,19.22,13.24,26.98\H,18.91,12.83,26.
 18\H,19.57,14.09,26.69\O,27.48,18.14,13.8\H,28.01,18.8,14.25\H,26.65,1
 8.13,14.28\O,18.69,16.52,10.88\H,18.82,17.21,11.54\H,18.04,15.93,11.27
 \O,26.09,15.08,25.89\H,26.75,14.4,25.74\H,25.52,15.03,25.13\O,23.31,28
 .87,22.02\H,23.83,29.63,21.77\H,23.02,28.49,21.19\O,23.7,24.98,26.65\H
 ,24.19,25.69,26.24\H,24.31,24.6,27.28\\Version=ES64L-G09RevE.01\HF=-97
 73.3809708\RMSD=2.646e-09\RMSF=1.064e-02\Dipole=11.4407057,14.0463712,
 0.058619\Quadrupole=375.3848755,426.9136085,-802.298484,-558.242771,-7
 79.9520021,-889.6508219\PG=C01 [X(Br1H256O128)]\\@


 I (ERNEST RUTHERFORD) CAME INTO THE ROOM, WHICH WAS HALF DARK, AND PRESENTLY
 SPOTTED LORD KELVIN IN THE AUDIENCE AND REALIZED I WAS IN TROUBLE AT
 THE LAST PART OF MY SPEECH DEALING THE AGE OF THE EARTH, WHERE MY VIEWS
 CONFLICTED WITH HIS.  TO MY RELIEF KELVIN FELL FAST ASLEEP, BUT AS I CAME
 TO THE IMPORTANT POINT, I SAW THE OLD BIRD SIT UP AND COCK A BALEFUL GLANCE
 AT ME! THEN A SUDDEN INSPIRATION CAME AND I SAID LORD KELVIN HAD LIMITED
 THE AGE OF THE EARTH PROVIDED NO NEW SOURCE WAS DISCOVERED. THAT
 PROPHETIC UTTERANCE REFERS TO WHAT WE ARE NOW CONSIDERING TONIGHT, RADIUM!
 BEHOLD!  THE OLD BOY BEAMED UPON ME.
 Job cpu time:       7 days  1 hours 16 minutes 33.3 seconds.
 File lengths (MBytes):  RWF=   7285 Int=      0 D2E=      0 Chk=   2411 Scr=      1
 Normal termination of Gaussian 09 at Sat May 12 04:26:01 2018.
