 Entering Gaussian System, Link 0=/cm/shared/gaussian/g09.e01/intel64-sandybridge/g09/g09
 Initial command:
 /cm/shared/gaussian/g09.e01/intel64-sandybridge/g09/l1.exe "/local/scratch/m.peluso/128_wat/order/Gau-52759.inp" -scrdir="/local/scratch/m.peluso/128_wat/order/"
 Entering Link 1 = /cm/shared/gaussian/g09.e01/intel64-sandybridge/g09/l1.exe PID=     52760.
  
 Copyright (c) 1988,1990,1992,1993,1995,1998,2003,2009,2015,
            Gaussian, Inc.  All Rights Reserved.
  
 This is part of the Gaussian(R) 09 program.  It is based on
 the Gaussian(R) 03 system (copyright 2003, Gaussian, Inc.),
 the Gaussian(R) 98 system (copyright 1998, Gaussian, Inc.),
 the Gaussian(R) 94 system (copyright 1995, Gaussian, Inc.),
 the Gaussian 92(TM) system (copyright 1992, Gaussian, Inc.),
 the Gaussian 90(TM) system (copyright 1990, Gaussian, Inc.),
 the Gaussian 88(TM) system (copyright 1988, Gaussian, Inc.),
 the Gaussian 86(TM) system (copyright 1986, Carnegie Mellon
 University), and the Gaussian 82(TM) system (copyright 1983,
 Carnegie Mellon University). Gaussian is a federally registered
 trademark of Gaussian, Inc.
  
 This software contains proprietary and confidential information,
 including trade secrets, belonging to Gaussian, Inc.
  
 This software is provided under written license and may be
 used, copied, transmitted, or stored only in accord with that
 written license.
  
 The following legend is applicable only to US Government
 contracts under FAR:
  
                    RESTRICTED RIGHTS LEGEND
  
 Use, reproduction and disclosure by the US Government is
 subject to restrictions as set forth in subparagraphs (a)
 and (c) of the Commercial Computer Software - Restricted
 Rights clause in FAR 52.227-19.
  
 Gaussian, Inc.
 340 Quinnipiac St., Bldg. 40, Wallingford CT 06492
  
  
 ---------------------------------------------------------------
 Warning -- This program may not be used in any manner that
 competes with the business of Gaussian, Inc. or will provide
 assistance to any competitor of Gaussian, Inc.  The licensee
 of this program is prohibited from giving any competitor of
 Gaussian, Inc. access to this program.  By using this program,
 the user acknowledges that Gaussian, Inc. is engaged in the
 business of creating and licensing software in the field of
 computational chemistry and represents and warrants to the
 licensee that it is not a competitor of Gaussian, Inc. and that
 it will not use this program in any manner prohibited above.
 ---------------------------------------------------------------
  

 Cite this work as:
 Gaussian 09, Revision E.01,
 M. J. Frisch, G. W. Trucks, H. B. Schlegel, G. E. Scuseria, 
 M. A. Robb, J. R. Cheeseman, G. Scalmani, V. Barone, B. Mennucci, 
 G. A. Petersson, H. Nakatsuji, M. Caricato, X. Li, H. P. Hratchian, 
 A. F. Izmaylov, J. Bloino, G. Zheng, J. L. Sonnenberg, M. Hada, 
 M. Ehara, K. Toyota, R. Fukuda, J. Hasegawa, M. Ishida, T. Nakajima, 
 Y. Honda, O. Kitao, H. Nakai, T. Vreven, J. A. Montgomery, Jr., 
 J. E. Peralta, F. Ogliaro, M. Bearpark, J. J. Heyd, E. Brothers, 
 K. N. Kudin, V. N. Staroverov, T. Keith, R. Kobayashi, J. Normand, 
 K. Raghavachari, A. Rendell, J. C. Burant, S. S. Iyengar, J. Tomasi, 
 M. Cossi, N. Rega, J. M. Millam, M. Klene, J. E. Knox, J. B. Cross, 
 V. Bakken, C. Adamo, J. Jaramillo, R. Gomperts, R. E. Stratmann, 
 O. Yazyev, A. J. Austin, R. Cammi, C. Pomelli, J. W. Ochterski, 
 R. L. Martin, K. Morokuma, V. G. Zakrzewski, G. A. Voth, 
 P. Salvador, J. J. Dannenberg, S. Dapprich, A. D. Daniels, 
 O. Farkas, J. B. Foresman, J. V. Ortiz, J. Cioslowski, 
 and D. J. Fox, Gaussian, Inc., Wallingford CT, 2013.
 
 ******************************************
 Gaussian 09:  ES64L-G09RevE.01 30-Nov-2015
                15-May-2018 
 ******************************************
 %Mem=110GB
 %NProcShared=64
 Will use up to   64 processors via shared memory.
 %chk=snap44.chk
 ----------------------------------------------
 #p PBE1PBE/cc-pvDZ force Counterpoise=2 noSymm
 ----------------------------------------------
 1/10=7,30=1,38=1,62=2/1,3;
 2/12=2,15=1,17=6,18=5,40=1/2;
 1/10=7,30=1,38=1,53=2,62=2,63=101/22;
 3/5=16,11=2,16=1,25=1,30=1,71=1,74=-13/1,2,3;
 4//1;
 5/5=2,38=5/2;
 6/7=2,8=2,9=2,10=2,28=1/1;
 7/7=1,29=1,30=1,33=-1/1,2,3,16;
 1/10=7,30=1,53=2,62=2,63=101/22;
 3/5=7,6=11,11=2,16=1,25=1,30=1,71=1,74=-13,82=7/1,2,3;
 4//1;
 5/5=2,38=5/2;
 6/7=2,8=2,9=2,10=2,28=1/1;
 7/7=1,29=1,30=1,33=-1/1,2,3,16;
 1/10=7,30=1,53=2,62=2,63=101/22(-5);
 7/9=1,29=1,44=-1/16;
 1/10=7,30=1,62=2/3;
 99//99;
 Leave Link    1 at Tue May 15 19:13:21 2018, MaxMem= 14763950080 cpu:        62.2
 (Enter /cm/shared/gaussian/g09.e01/intel64-sandybridge/g09/l101.exe)
 ---------------------------------------
 forces on chloride comput - NWATER: 128
 ---------------------------------------
 Symbolic Z-matrix:
 Charge = -1 Multiplicity = 1 in supermolecule
 Charge = -1 Multiplicity = 1 in fragment      1.
 Charge =  0 Multiplicity = 1 in fragment      2.
 Br(Fragment=1)        20.       20.       20. 
 O(Fragment=2)         17.79     21.62     18.84 
 H(Fragment=2)         18.51     21.05     19.12 
 H(Fragment=2)         17.48     22.03     19.64 
 O(Fragment=2)         17.12     20.44     21.95 
 H(Fragment=2)         16.6      19.7      22.28 
 H(Fragment=2)         17.94     20.04     21.66 
 O(Fragment=2)         20.59     22.04     16.92 
 H(Fragment=2)         19.89     22.69     16.93 
 H(Fragment=2)         20.32     21.4      17.59 
 O(Fragment=2)         21.92     18.28     22.61 
 H(Fragment=2)         21.11     17.92     22.25 
 H(Fragment=2)         22.22     18.9      21.95 
 O(Fragment=2)         19.28     20.43     23.85 
 H(Fragment=2)         18.68     20.39     23.1 
 H(Fragment=2)         19.96     21.05     23.57 
 O(Fragment=2)         17.72     16.57     20.47 
 H(Fragment=2)         18.48     16.88     19.98 
 H(Fragment=2)         17.66     15.64     20.24 
 O(Fragment=2)         23.91     20.23     21.85 
 H(Fragment=2)         23.7      20.95     22.45 
 H(Fragment=2)         23.31     20.34     21.12 
 O(Fragment=2)         16.26     19.73     17.9 
 H(Fragment=2)         16.67     20.55     18.15 
 H(Fragment=2)         16.78     19.05     18.35 
 O(Fragment=2)         16.47     23.93     18.46 
 H(Fragment=2)         16.76     24.42     19.22 
 H(Fragment=2)         17.14     23.26     18.33 
 O(Fragment=2)         20.33     18.17     24.89 
 H(Fragment=2)         21.24     18.48     24.89 
 H(Fragment=2)         19.83     18.9      24.52 
 O(Fragment=2)         15.39     17.33     21.97 
 H(Fragment=2)         16.34     17.33     21.91 
 H(Fragment=2)         15.09     16.93     21.15 
 O(Fragment=2)         23.44     16.02     18.61 
 H(Fragment=2)         22.57     16.18     18.26 
 H(Fragment=2)         23.81     15.34     18.04 
 O(Fragment=2)         17.4      22.35     15.7 
 H(Fragment=2)         16.85     22.2      16.47 
 H(Fragment=2)         17.2      21.62     15.12 
 O(Fragment=2)         16.46     21.3      24.64 
 H(Fragment=2)         17.41     21.29     24.51 
 H(Fragment=2)         16.29     22.13     25.09 
 O(Fragment=2)         15.14     22.82     21.43 
 H(Fragment=2)         15.25     21.93     21.74 
 H(Fragment=2)         14.75     23.29     22.17 
 O(Fragment=2)         23.72     15.62     21.97 
 H(Fragment=2)         23.52     15.76     21.04 
 H(Fragment=2)         23.14     16.22     22.44 
 O(Fragment=2)         20.79     25.81     17.84 
 H(Fragment=2)         21.36     26.37     17.32 
 H(Fragment=2)         21.16     24.93     17.73 
 O(Fragment=2)         22.19     22.06     14.04 
 H(Fragment=2)         22.35     22.28     14.96 
 H(Fragment=2)         22.7      22.71     13.55 
 O(Fragment=2)         26.28     19.93     22.87 
 H(Fragment=2)         27.11     19.47     22.79 
 H(Fragment=2)         25.72     19.56     22.19 
 O(Fragment=2)         21.67     25.08     23.04 
 H(Fragment=2)         22.02     25.5      22.25 
 H(Fragment=2)         21.13     25.76     23.45 
 O(Fragment=2)         13.7      19.41     17.12 
 H(Fragment=2)         14.4      18.94     17.59 
 H(Fragment=2)         14.17     19.95     16.48 
 O(Fragment=2)         13.9      22.83     19.19 
 H(Fragment=2)         14.6      23.08     18.58 
 H(Fragment=2)         14.29     22.94     20.06 
 O(Fragment=2)         16.28     17.86     14.07 
 H(Fragment=2)         16.67     17.98     14.93 
 H(Fragment=2)         16.56     18.62     13.56 
 O(Fragment=2)         25.33     22.9      16.92 
 H(Fragment=2)         25.16     23.21     17.81 
 H(Fragment=2)         25.73     23.65     16.48 
 O(Fragment=2)         19.43     23.17     13.59 
 H(Fragment=2)         19.15     23.7      14.34 
 H(Fragment=2)         19.62     22.31     13.96 
 O(Fragment=2)         18.8      17.64     26.81 
 H(Fragment=2)         19.51     17.87     26.21 
 H(Fragment=2)         18.12     17.27     26.25 
 O(Fragment=2)         13.86     20.69     23.84 
 H(Fragment=2)         13.5      21.52     24.16 
 H(Fragment=2)         14.8      20.76     24.02 
 O(Fragment=2)         17.64     23.89     25.94 
 H(Fragment=2)         18.23     24.02     25.19 
 H(Fragment=2)         17.81     24.64     26.51 
 O(Fragment=2)         25.12     25.64     20.4 
 H(Fragment=2)         24.3      26.04     20.68 
 H(Fragment=2)         25.01     24.71     20.57 
 O(Fragment=2)         14.2      18.06     24.56 
 H(Fragment=2)         14.55     17.67     23.76 
 H(Fragment=2)         13.99     18.96     24.32 
 O(Fragment=2)         17.68     13.32     20.01 
 H(Fragment=2)         17.05     12.99     19.38 
 H(Fragment=2)         17.36     13.01     20.86 
 O(Fragment=2)         16.78     19.94     27.43 
 H(Fragment=2)         17.52     19.45     27.79 
 H(Fragment=2)         17.01     20.11     26.52 
 O(Fragment=2)         25.51     21.21     14.38 
 H(Fragment=2)         25.67     22.       14.89 
 H(Fragment=2)         24.61     20.97     14.57 
 O(Fragment=2)         21.18     12.51     19.08 
 H(Fragment=2)         21.98     13.02     18.95 
 H(Fragment=2)         21.       12.59     20.02 
 O(Fragment=2)         22.99     13.94     16.78 
 H(Fragment=2)         23.48     13.28     16.28 
 H(Fragment=2)         22.16     14.03     16.32 
 O(Fragment=2)         19.45     26.81     23.9 
 H(Fragment=2)         18.71     26.38     23.46 
 H(Fragment=2)         19.04     27.42     24.51 
 O(Fragment=2)         16.94     25.86     23.42 
 H(Fragment=2)         16.46     25.95     22.59 
 H(Fragment=2)         16.3      25.49     24.03 
 O(Fragment=2)         15.88     26.4      20.2 
 H(Fragment=2)         15.18     25.74     20.19 
 H(Fragment=2)         15.55     27.1      19.64 
 O(Fragment=2)         12.04     20.95     18.88 
 H(Fragment=2)         12.58     20.28     18.47 
 H(Fragment=2)         12.66     21.6      19.2 
 O(Fragment=2)         21.2      20.7      11.8 
 H(Fragment=2)         20.31     20.41     11.98 
 H(Fragment=2)         21.52     21.03     12.64 
 O(Fragment=2)         14.44     21.12     14.95 
 H(Fragment=2)         14.84     21.85     14.48 
 H(Fragment=2)         13.5      21.34     14.97 
 O(Fragment=2)         19.94     12.33     16.78 
 H(Fragment=2)         20.51     12.15     17.53 
 H(Fragment=2)         19.21     12.82     17.14 
 O(Fragment=2)         15.92     16.8      26.22 
 H(Fragment=2)         15.34     17.19     25.57 
 H(Fragment=2)         15.58     17.12     27.06 
 O(Fragment=2)         12.04     17.77     22.63 
 H(Fragment=2)         11.77     18.67     22.83 
 H(Fragment=2)         12.78     17.87     22.03 
 O(Fragment=2)         24.5      13.       22.2 
 H(Fragment=2)         24.67     12.86     21.27 
 H(Fragment=2)         24.36     13.94     22.29 
 O(Fragment=2)         27.28     22.7      23.91 
 H(Fragment=2)         28.16     22.39     23.72 
 H(Fragment=2)         26.69     22.04     23.54 
 O(Fragment=2)         17.11     20.02     12.62 
 H(Fragment=2)         16.7      20.87     12.75 
 H(Fragment=2)         16.95     19.82     11.7 
 O(Fragment=2)         22.58     27.43     21.48 
 H(Fragment=2)         23.39     27.83     21.81 
 H(Fragment=2)         21.88     27.93     21.91 
 O(Fragment=2)         14.14     24.19     23.65 
 H(Fragment=2)         14.68     24.18     24.44 
 H(Fragment=2)         13.59     24.97     23.75 
 O(Fragment=2)         19.42     29.01     19.69 
 H(Fragment=2)         19.5      28.06     19.59 
 H(Fragment=2)         20.08     29.24     20.34 
 O(Fragment=2)         22.18     16.05     27.25 
 H(Fragment=2)         22.06     15.56     28.07 
 H(Fragment=2)         21.46     16.68     27.23 
 O(Fragment=2)         13.95     25.14     16.26 
 H(Fragment=2)         14.09     24.82     17.15 
 H(Fragment=2)         13.09     25.56     16.29 
 O(Fragment=2)         20.96     13.74     14.79 
 H(Fragment=2)         20.3      13.8      14.1 
 H(Fragment=2)         20.62     13.07     15.39 
 O(Fragment=2)         19.57     27.74     15.17 
 H(Fragment=2)         20.17     27.45     14.48 
 H(Fragment=2)         19.66     27.07     15.85 
 O(Fragment=2)         16.19     15.42     13.07 
 H(Fragment=2)         16.61     16.05     13.65 
 H(Fragment=2)         16.25     15.81     12.2 
 O(Fragment=2)         15.83     22.69     13.31 
 H(Fragment=2)         15.07     23.23     13.08 
 H(Fragment=2)         16.58     23.14     12.92 
 O(Fragment=2)         11.4      20.12     23.45 
 H(Fragment=2)         12.26     20.5      23.65 
 H(Fragment=2)         10.83     20.42     24.16 
 O(Fragment=2)         22.43     25.07     27.48 
 H(Fragment=2)         21.49     25.22     27.51 
 H(Fragment=2)         22.62     24.86     26.57 
 O(Fragment=2)         17.69     24.67     12.04 
 H(Fragment=2)         18.17     24.09     12.64 
 H(Fragment=2)         18.32     25.34     11.8 
 O(Fragment=2)         24.18     24.07     13.2 
 H(Fragment=2)         24.36     24.81     12.61 
 H(Fragment=2)         24.64     24.29     14.01 
 O(Fragment=2)         10.86     19.57     16.74 
 H(Fragment=2)         11.79     19.56     16.93 
 H(Fragment=2)         10.56     20.44     17.02 
 O(Fragment=2)         15.41     12.63     17.22 
 H(Fragment=2)         14.59     12.77     16.74 
 H(Fragment=2)         16.1      12.82     16.58 
 O(Fragment=2)         15.79     22.46     28.18 
 H(Fragment=2)         16.       21.6      27.83 
 H(Fragment=2)         16.32     23.07     27.66 
 O(Fragment=2)         26.39     25.01     16.1 
 H(Fragment=2)         27.32     24.87     15.91 
 H(Fragment=2)         26.26     25.96     16.01 
 O(Fragment=2)         11.02     24.21     20.76 
 H(Fragment=2)         10.5      23.77     21.43 
 H(Fragment=2)         11.74     23.6      20.57 
 O(Fragment=2)         23.97     19.85     11.34 
 H(Fragment=2)         23.66     18.94     11.38 
 H(Fragment=2)         23.19     20.37     11.54 
 O(Fragment=2)         20.95     25.99     13.2 
 H(Fragment=2)         20.84     25.22     12.64 
 H(Fragment=2)         21.07     26.71     12.58 
 O(Fragment=2)         22.64     12.62     26.05 
 H(Fragment=2)         22.58     13.55     25.82 
 H(Fragment=2)         21.8      12.25     25.78 
 O(Fragment=2)         11.94     15.8      16.33 
 H(Fragment=2)         12.44     15.83     17.15 
 H(Fragment=2)         11.08     15.47     16.58 
 O(Fragment=2)         19.8      12.72     25.57 
 H(Fragment=2)         19.3      11.96     25.28 
 H(Fragment=2)         19.17     13.26     26.05 
 O(Fragment=2)         17.6      29.21     22.25 
 H(Fragment=2)         17.41     28.33     22.59 
 H(Fragment=2)         17.67     29.09     21.31 
 O(Fragment=2)         24.83     14.98     27.22 
 H(Fragment=2)         24.16     15.62     26.99 
 H(Fragment=2)         24.41     14.41     27.87 
 O(Fragment=2)         13.25     16.08     13.89 
 H(Fragment=2)         14.02     16.64     13.78 
 H(Fragment=2)         12.75     16.5      14.58 
 O(Fragment=2)         12.75     15.95     25.86 
 H(Fragment=2)         12.26     15.6      25.11 
 H(Fragment=2)         13.32     16.61     25.47 
 O(Fragment=2)         15.3      26.81     14.29 
 H(Fragment=2)         15.52     26.46     13.43 
 H(Fragment=2)         15.2      26.04     14.85 
 O(Fragment=2)         13.89     26.96     22.87 
 H(Fragment=2)         14.19     27.11     21.98 
 H(Fragment=2)         13.58     27.82     23.17 
 O(Fragment=2)         19.58     18.81     30.01 
 H(Fragment=2)         19.56     18.15     30.71 
 H(Fragment=2)         19.36     18.31     29.22 
 O(Fragment=2)         26.61     27.68     19.37 
 H(Fragment=2)         26.3      26.98     19.94 
 H(Fragment=2)         27.48     27.39     19.08 
 O(Fragment=2)         25.01     27.19     23.42 
 H(Fragment=2)         25.38     27.9      23.95 
 H(Fragment=2)         25.71     26.96     22.82 
 O(Fragment=2)         22.17     29.04     16.15 
 H(Fragment=2)         21.61     28.75     16.88 
 H(Fragment=2)         22.9      29.49     16.57 
 O(Fragment=2)         24.09     26.63     14.57 
 H(Fragment=2)         24.81     27.24     14.38 
 H(Fragment=2)         23.33     27.2      14.67 
 O(Fragment=2)         11.25     23.83     17.29 
 H(Fragment=2)         11.33     23.69     18.23 
 H(Fragment=2)         10.76     23.07     16.97 
 O(Fragment=2)         17.25     13.81     27.09 
 H(Fragment=2)         17.4      14.43     27.8 
 H(Fragment=2)         16.42     14.09     26.7 
 O(Fragment=2)         27.7      18.84     26.86 
 H(Fragment=2)         27.35     19.48     26.24 
 H(Fragment=2)         28.64     18.81     26.66 
 O(Fragment=2)         12.96     13.19     22.28 
 H(Fragment=2)         12.16     12.7      22.45 
 H(Fragment=2)         12.65     14.06     22.01 
 O(Fragment=2)         9.55      21.54     19.82 
 H(Fragment=2)         10.46     21.51     19.52 
 H(Fragment=2)         9.08      20.96     19.21 
 O(Fragment=2)         15.64     11.77     22.78 
 H(Fragment=2)         15.26     11.48     23.6 
 H(Fragment=2)         14.9      12.1      22.27 
 O(Fragment=2)         17.16     28.95     15.56 
 H(Fragment=2)         16.6      28.32     15.1 
 H(Fragment=2)         17.96     28.47     15.75 
 O(Fragment=2)         23.61     10.8      23.52 
 H(Fragment=2)         23.78     11.57     22.96 
 H(Fragment=2)         23.58     11.16     24.41 
 O(Fragment=2)         18.65     18.91     9.81 
 H(Fragment=2)         18.73     18.23     10.48 
 H(Fragment=2)         19.54     19.06     9.51 
 O(Fragment=2)         12.36     22.48     25.66 
 H(Fragment=2)         11.48     22.84     25.54 
 H(Fragment=2)         12.52     22.54     26.6 
 O(Fragment=2)         25.48     23.62     28.03 
 H(Fragment=2)         25.49     22.66     28.06 
 H(Fragment=2)         24.57     23.84     27.81 
 O(Fragment=2)         15.01     28.45     18.95 
 H(Fragment=2)         14.2      28.93     19.15 
 H(Fragment=2)         15.1      28.52     18. 
 O(Fragment=2)         19.72     9.87      19.34 
 H(Fragment=2)         20.1      10.23     18.54 
 H(Fragment=2)         18.78     9.87      19.19 
 O(Fragment=2)         14.59     13.78     26.27 
 H(Fragment=2)         14.49     12.95     25.8 
 H(Fragment=2)         14.16     14.43     25.72 
 O(Fragment=2)         26.42     21.75     11.44 
 H(Fragment=2)         25.85     21.47     12.15 
 H(Fragment=2)         26.48     20.99     10.86 
 O(Fragment=2)         23.64     10.32     20.12 
 H(Fragment=2)         22.69     10.39     20.25 
 H(Fragment=2)         23.86     9.45      20.43 
 O(Fragment=2)         27.96     23.69     26.31 
 H(Fragment=2)         27.77     23.44     25.41 
 H(Fragment=2)         27.16     23.47     26.79 
 O(Fragment=2)         10.94     15.51     23.79 
 H(Fragment=2)         11.22     16.32     23.37 
 H(Fragment=2)         10.49     15.03     23.1 
 O(Fragment=2)         16.95     22.31     10.37 
 H(Fragment=2)         16.93     23.25     10.2 
 H(Fragment=2)         17.88     22.08     10.34 
 O(Fragment=2)         20.27     21.86     9.18 
 H(Fragment=2)         20.35     21.32     9.96 
 H(Fragment=2)         20.86     21.46     8.54 
 O(Fragment=2)         21.53     29.72     22.48 
 H(Fragment=2)         21.74     30.01     23.37 
 H(Fragment=2)         21.42     30.54     21.99 
 O(Fragment=2)         12.39     26.71     20.3 
 H(Fragment=2)         11.9      27.31     19.74 
 H(Fragment=2)         11.76     26.02     20.52 
 O(Fragment=2)         11.61     21.48     14.47 
 H(Fragment=2)         10.75     21.63     14.87 
 H(Fragment=2)         11.62     20.55     14.28 
 O(Fragment=2)         17.2      9.8       21.75 
 H(Fragment=2)         16.72     10.59     22. 
 H(Fragment=2)         17.77     10.08     21.04 
 O(Fragment=2)         17.16     10.15     18.72 
 H(Fragment=2)         17.32     10.43     17.82 
 H(Fragment=2)         16.49     9.47      18.64 
 O(Fragment=2)         19.12     10.31     24.52 
 H(Fragment=2)         18.86     9.4       24.33 
 H(Fragment=2)         19.69     10.55     23.79 
 O(Fragment=2)         14.91     26.33     26.18 
 H(Fragment=2)         13.96     26.23     26.21 
 H(Fragment=2)         15.21     26.05     27.05 
 O(Fragment=2)         26.58     14.43     13.33 
 H(Fragment=2)         26.57     14.69     14.25 
 H(Fragment=2)         26.72     15.24     12.85 
 O(Fragment=2)         13.37     13.09     15. 
 H(Fragment=2)         12.69     12.76     15.59 
 H(Fragment=2)         13.3      14.04     15.07 
 O(Fragment=2)         20.53     13.5      11.99 
 H(Fragment=2)         20.18     12.62     11.84 
 H(Fragment=2)         21.41     13.36     12.33 
 O(Fragment=2)         26.9      13.95     25.88 
 H(Fragment=2)         26.37     14.59     26.35 
 H(Fragment=2)         27.06     14.35     25.02 
 O(Fragment=2)         16.66     30.62     19.45 
 H(Fragment=2)         16.62     30.66     18.5 
 H(Fragment=2)         16.43     29.71     19.66 
 O(Fragment=2)         15.42     12.47     13.06 
 H(Fragment=2)         16.01     13.2      13.23 
 H(Fragment=2)         14.6      12.71     13.5 
 O(Fragment=2)         12.64     23.96     13.14 
 H(Fragment=2)         12.51     23.02     13.26 
 H(Fragment=2)         12.01     24.21     12.47 
 O(Fragment=2)         8.91      19.42     22.07 
 H(Fragment=2)         9.77      19.38     22.5 
 H(Fragment=2)         9.03      20.05     21.36 
 O(Fragment=2)         25.65     17.77     29.29 
 H(Fragment=2)         26.55     17.68     29.61 
 H(Fragment=2)         25.6      17.19     28.54 
 O(Fragment=2)         13.13     11.27     19.45 
 H(Fragment=2)         13.2      11.81     20.24 
 H(Fragment=2)         12.31     10.79     19.55 
 O(Fragment=2)         15.       20.48     30.28 
 H(Fragment=2)         14.87     20.62     29.34 
 H(Fragment=2)         15.62     21.16     30.54 
 O(Fragment=2)         17.01     10.56     15.94 
 H(Fragment=2)         17.       9.63      16.14 
 H(Fragment=2)         16.43     10.65     15.18 
 O(Fragment=2)         17.62     20.81     31.2 
 H(Fragment=2)         17.28     20.24     31.89 
 H(Fragment=2)         18.03     20.22     30.57 
 O(Fragment=2)         13.4      16.89     28.24 
 H(Fragment=2)         13.04     16.52     27.44 
 H(Fragment=2)         13.25     17.83     28.17 
 O(Fragment=2)         14.35     29.8      21.91 
 H(Fragment=2)         14.32     30.41     22.65 
 H(Fragment=2)         15.27     29.55     21.84 
 O(Fragment=2)         25.4      29.36     21.07 
 H(Fragment=2)         24.58     29.82     20.91 
 H(Fragment=2)         25.8      29.27     20.21 
 O(Fragment=2)         20.71     15.48     9.67 
 H(Fragment=2)         21.34     15.15     9.03 
 H(Fragment=2)         20.81     14.92     10.43 
 O(Fragment=2)         12.02     19.37     27.35 
 H(Fragment=2)         11.13     19.05     27.2 
 H(Fragment=2)         11.98     19.8      28.2 
 O(Fragment=2)         19.7      16.2      30.53 
 H(Fragment=2)         20.01     15.53     29.91 
 H(Fragment=2)         19.91     15.84     31.39 
 O(Fragment=2)         14.36     10.06     17.3 
 H(Fragment=2)         13.84     10.4      18.03 
 H(Fragment=2)         15.11     10.66     17.24 
 
 NAtoms=    385 NQM=      385 NQMF=       0 NMMI=      0 NMMIF=      0
                NMic=       0 NMicF=      0.
                    Isotopes and Nuclear Properties:
 (Nuclear quadrupole moments (NQMom) in fm**2, nuclear magnetic moments (NMagM)
  in nuclear magnetons)

  Atom         1           2           3           4           5           6           7           8           9          10
 IAtWgt=          79          16           1           1          16           1           1          16           1           1
 AtmWgt=  78.9183361  15.9949146   1.0078250   1.0078250  15.9949146   1.0078250   1.0078250  15.9949146   1.0078250   1.0078250
 NucSpn=           3           0           1           1           0           1           1           0           1           1
 AtZEff=   0.0000000   0.0000000   0.0000000   0.0000000   0.0000000   0.0000000   0.0000000   0.0000000   0.0000000   0.0000000
 NQMom=   31.3000000   0.0000000   0.0000000   0.0000000   0.0000000   0.0000000   0.0000000   0.0000000   0.0000000   0.0000000
 NMagM=    2.1063990   0.0000000   2.7928460   2.7928460   0.0000000   2.7928460   2.7928460   0.0000000   2.7928460   2.7928460
 AtZNuc=  35.0000000   8.0000000   1.0000000   1.0000000   8.0000000   1.0000000   1.0000000   8.0000000   1.0000000   1.0000000

  Atom        11          12          13          14          15          16          17          18          19          20
 IAtWgt=          16           1           1          16           1           1          16           1           1          16
 AtmWgt=  15.9949146   1.0078250   1.0078250  15.9949146   1.0078250   1.0078250  15.9949146   1.0078250   1.0078250  15.9949146
 NucSpn=           0           1           1           0           1           1           0           1           1           0
 AtZEff=   0.0000000   0.0000000   0.0000000   0.0000000   0.0000000   0.0000000   0.0000000   0.0000000   0.0000000   0.0000000
 NQMom=    0.0000000   0.0000000   0.0000000   0.0000000   0.0000000   0.0000000   0.0000000   0.0000000   0.0000000   0.0000000
 NMagM=    0.0000000   2.7928460   2.7928460   0.0000000   2.7928460   2.7928460   0.0000000   2.7928460   2.7928460   0.0000000
 AtZNuc=   8.0000000   1.0000000   1.0000000   8.0000000   1.0000000   1.0000000   8.0000000   1.0000000   1.0000000   8.0000000

  Atom        21          22          23          24          25          26          27          28          29          30
 IAtWgt=           1           1          16           1           1          16           1           1          16           1
 AtmWgt=   1.0078250   1.0078250  15.9949146   1.0078250   1.0078250  15.9949146   1.0078250   1.0078250  15.9949146   1.0078250
 NucSpn=           1           1           0           1           1           0           1           1           0           1
 AtZEff=   0.0000000   0.0000000   0.0000000   0.0000000   0.0000000   0.0000000   0.0000000   0.0000000   0.0000000   0.0000000
 NQMom=    0.0000000   0.0000000   0.0000000   0.0000000   0.0000000   0.0000000   0.0000000   0.0000000   0.0000000   0.0000000
 NMagM=    2.7928460   2.7928460   0.0000000   2.7928460   2.7928460   0.0000000   2.7928460   2.7928460   0.0000000   2.7928460
 AtZNuc=   1.0000000   1.0000000   8.0000000   1.0000000   1.0000000   8.0000000   1.0000000   1.0000000   8.0000000   1.0000000

  Atom        31          32          33          34          35          36          37          38          39          40
 IAtWgt=           1          16           1           1          16           1           1          16           1           1
 AtmWgt=   1.0078250  15.9949146   1.0078250   1.0078250  15.9949146   1.0078250   1.0078250  15.9949146   1.0078250   1.0078250
 NucSpn=           1           0           1           1           0           1           1           0           1           1
 AtZEff=   0.0000000   0.0000000   0.0000000   0.0000000   0.0000000   0.0000000   0.0000000   0.0000000   0.0000000   0.0000000
 NQMom=    0.0000000   0.0000000   0.0000000   0.0000000   0.0000000   0.0000000   0.0000000   0.0000000   0.0000000   0.0000000
 NMagM=    2.7928460   0.0000000   2.7928460   2.7928460   0.0000000   2.7928460   2.7928460   0.0000000   2.7928460   2.7928460
 AtZNuc=   1.0000000   8.0000000   1.0000000   1.0000000   8.0000000   1.0000000   1.0000000   8.0000000   1.0000000   1.0000000

  Atom        41          42          43          44          45          46          47          48          49          50
 IAtWgt=          16           1           1          16           1           1          16           1           1          16
 AtmWgt=  15.9949146   1.0078250   1.0078250  15.9949146   1.0078250   1.0078250  15.9949146   1.0078250   1.0078250  15.9949146
 NucSpn=           0           1           1           0           1           1           0           1           1           0
 AtZEff=   0.0000000   0.0000000   0.0000000   0.0000000   0.0000000   0.0000000   0.0000000   0.0000000   0.0000000   0.0000000
 NQMom=    0.0000000   0.0000000   0.0000000   0.0000000   0.0000000   0.0000000   0.0000000   0.0000000   0.0000000   0.0000000
 NMagM=    0.0000000   2.7928460   2.7928460   0.0000000   2.7928460   2.7928460   0.0000000   2.7928460   2.7928460   0.0000000
 AtZNuc=   8.0000000   1.0000000   1.0000000   8.0000000   1.0000000   1.0000000   8.0000000   1.0000000   1.0000000   8.0000000

  Atom        51          52          53          54          55          56          57          58          59          60
 IAtWgt=           1           1          16           1           1          16           1           1          16           1
 AtmWgt=   1.0078250   1.0078250  15.9949146   1.0078250   1.0078250  15.9949146   1.0078250   1.0078250  15.9949146   1.0078250
 NucSpn=           1           1           0           1           1           0           1           1           0           1
 AtZEff=   0.0000000   0.0000000   0.0000000   0.0000000   0.0000000   0.0000000   0.0000000   0.0000000   0.0000000   0.0000000
 NQMom=    0.0000000   0.0000000   0.0000000   0.0000000   0.0000000   0.0000000   0.0000000   0.0000000   0.0000000   0.0000000
 NMagM=    2.7928460   2.7928460   0.0000000   2.7928460   2.7928460   0.0000000   2.7928460   2.7928460   0.0000000   2.7928460
 AtZNuc=   1.0000000   1.0000000   8.0000000   1.0000000   1.0000000   8.0000000   1.0000000   1.0000000   8.0000000   1.0000000

  Atom        61          62          63          64          65          66          67          68          69          70
 IAtWgt=           1          16           1           1          16           1           1          16           1           1
 AtmWgt=   1.0078250  15.9949146   1.0078250   1.0078250  15.9949146   1.0078250   1.0078250  15.9949146   1.0078250   1.0078250
 NucSpn=           1           0           1           1           0           1           1           0           1           1
 AtZEff=   0.0000000   0.0000000   0.0000000   0.0000000   0.0000000   0.0000000   0.0000000   0.0000000   0.0000000   0.0000000
 NQMom=    0.0000000   0.0000000   0.0000000   0.0000000   0.0000000   0.0000000   0.0000000   0.0000000   0.0000000   0.0000000
 NMagM=    2.7928460   0.0000000   2.7928460   2.7928460   0.0000000   2.7928460   2.7928460   0.0000000   2.7928460   2.7928460
 AtZNuc=   1.0000000   8.0000000   1.0000000   1.0000000   8.0000000   1.0000000   1.0000000   8.0000000   1.0000000   1.0000000

  Atom        71          72          73          74          75          76          77          78          79          80
 IAtWgt=          16           1           1          16           1           1          16           1           1          16
 AtmWgt=  15.9949146   1.0078250   1.0078250  15.9949146   1.0078250   1.0078250  15.9949146   1.0078250   1.0078250  15.9949146
 NucSpn=           0           1           1           0           1           1           0           1           1           0
 AtZEff=   0.0000000   0.0000000   0.0000000   0.0000000   0.0000000   0.0000000   0.0000000   0.0000000   0.0000000   0.0000000
 NQMom=    0.0000000   0.0000000   0.0000000   0.0000000   0.0000000   0.0000000   0.0000000   0.0000000   0.0000000   0.0000000
 NMagM=    0.0000000   2.7928460   2.7928460   0.0000000   2.7928460   2.7928460   0.0000000   2.7928460   2.7928460   0.0000000
 AtZNuc=   8.0000000   1.0000000   1.0000000   8.0000000   1.0000000   1.0000000   8.0000000   1.0000000   1.0000000   8.0000000

  Atom        81          82          83          84          85          86          87          88          89          90
 IAtWgt=           1           1          16           1           1          16           1           1          16           1
 AtmWgt=   1.0078250   1.0078250  15.9949146   1.0078250   1.0078250  15.9949146   1.0078250   1.0078250  15.9949146   1.0078250
 NucSpn=           1           1           0           1           1           0           1           1           0           1
 AtZEff=   0.0000000   0.0000000   0.0000000   0.0000000   0.0000000   0.0000000   0.0000000   0.0000000   0.0000000   0.0000000
 NQMom=    0.0000000   0.0000000   0.0000000   0.0000000   0.0000000   0.0000000   0.0000000   0.0000000   0.0000000   0.0000000
 NMagM=    2.7928460   2.7928460   0.0000000   2.7928460   2.7928460   0.0000000   2.7928460   2.7928460   0.0000000   2.7928460
 AtZNuc=   1.0000000   1.0000000   8.0000000   1.0000000   1.0000000   8.0000000   1.0000000   1.0000000   8.0000000   1.0000000

  Atom        91          92          93          94          95          96          97          98          99         100
 IAtWgt=           1          16           1           1          16           1           1          16           1           1
 AtmWgt=   1.0078250  15.9949146   1.0078250   1.0078250  15.9949146   1.0078250   1.0078250  15.9949146   1.0078250   1.0078250
 NucSpn=           1           0           1           1           0           1           1           0           1           1
 AtZEff=   0.0000000   0.0000000   0.0000000   0.0000000   0.0000000   0.0000000   0.0000000   0.0000000   0.0000000   0.0000000
 NQMom=    0.0000000   0.0000000   0.0000000   0.0000000   0.0000000   0.0000000   0.0000000   0.0000000   0.0000000   0.0000000
 NMagM=    2.7928460   0.0000000   2.7928460   2.7928460   0.0000000   2.7928460   2.7928460   0.0000000   2.7928460   2.7928460
 AtZNuc=   1.0000000   8.0000000   1.0000000   1.0000000   8.0000000   1.0000000   1.0000000   8.0000000   1.0000000   1.0000000

  Atom       101         102         103         104         105         106         107         108         109         110
 IAtWgt=          16           1           1          16           1           1          16           1           1          16
 AtmWgt=  15.9949146   1.0078250   1.0078250  15.9949146   1.0078250   1.0078250  15.9949146   1.0078250   1.0078250  15.9949146
 NucSpn=           0           1           1           0           1           1           0           1           1           0
 AtZEff=   0.0000000   0.0000000   0.0000000   0.0000000   0.0000000   0.0000000   0.0000000   0.0000000   0.0000000   0.0000000
 NQMom=    0.0000000   0.0000000   0.0000000   0.0000000   0.0000000   0.0000000   0.0000000   0.0000000   0.0000000   0.0000000
 NMagM=    0.0000000   2.7928460   2.7928460   0.0000000   2.7928460   2.7928460   0.0000000   2.7928460   2.7928460   0.0000000
 AtZNuc=   8.0000000   1.0000000   1.0000000   8.0000000   1.0000000   1.0000000   8.0000000   1.0000000   1.0000000   8.0000000

  Atom       111         112         113         114         115         116         117         118         119         120
 IAtWgt=           1           1          16           1           1          16           1           1          16           1
 AtmWgt=   1.0078250   1.0078250  15.9949146   1.0078250   1.0078250  15.9949146   1.0078250   1.0078250  15.9949146   1.0078250
 NucSpn=           1           1           0           1           1           0           1           1           0           1
 AtZEff=   0.0000000   0.0000000   0.0000000   0.0000000   0.0000000   0.0000000   0.0000000   0.0000000   0.0000000   0.0000000
 NQMom=    0.0000000   0.0000000   0.0000000   0.0000000   0.0000000   0.0000000   0.0000000   0.0000000   0.0000000   0.0000000
 NMagM=    2.7928460   2.7928460   0.0000000   2.7928460   2.7928460   0.0000000   2.7928460   2.7928460   0.0000000   2.7928460
 AtZNuc=   1.0000000   1.0000000   8.0000000   1.0000000   1.0000000   8.0000000   1.0000000   1.0000000   8.0000000   1.0000000

  Atom       121         122         123         124         125         126         127         128         129         130
 IAtWgt=           1          16           1           1          16           1           1          16           1           1
 AtmWgt=   1.0078250  15.9949146   1.0078250   1.0078250  15.9949146   1.0078250   1.0078250  15.9949146   1.0078250   1.0078250
 NucSpn=           1           0           1           1           0           1           1           0           1           1
 AtZEff=   0.0000000   0.0000000   0.0000000   0.0000000   0.0000000   0.0000000   0.0000000   0.0000000   0.0000000   0.0000000
 NQMom=    0.0000000   0.0000000   0.0000000   0.0000000   0.0000000   0.0000000   0.0000000   0.0000000   0.0000000   0.0000000
 NMagM=    2.7928460   0.0000000   2.7928460   2.7928460   0.0000000   2.7928460   2.7928460   0.0000000   2.7928460   2.7928460
 AtZNuc=   1.0000000   8.0000000   1.0000000   1.0000000   8.0000000   1.0000000   1.0000000   8.0000000   1.0000000   1.0000000

  Atom       131         132         133         134         135         136         137         138         139         140
 IAtWgt=          16           1           1          16           1           1          16           1           1          16
 AtmWgt=  15.9949146   1.0078250   1.0078250  15.9949146   1.0078250   1.0078250  15.9949146   1.0078250   1.0078250  15.9949146
 NucSpn=           0           1           1           0           1           1           0           1           1           0
 AtZEff=   0.0000000   0.0000000   0.0000000   0.0000000   0.0000000   0.0000000   0.0000000   0.0000000   0.0000000   0.0000000
 NQMom=    0.0000000   0.0000000   0.0000000   0.0000000   0.0000000   0.0000000   0.0000000   0.0000000   0.0000000   0.0000000
 NMagM=    0.0000000   2.7928460   2.7928460   0.0000000   2.7928460   2.7928460   0.0000000   2.7928460   2.7928460   0.0000000
 AtZNuc=   8.0000000   1.0000000   1.0000000   8.0000000   1.0000000   1.0000000   8.0000000   1.0000000   1.0000000   8.0000000

  Atom       141         142         143         144         145         146         147         148         149         150
 IAtWgt=           1           1          16           1           1          16           1           1          16           1
 AtmWgt=   1.0078250   1.0078250  15.9949146   1.0078250   1.0078250  15.9949146   1.0078250   1.0078250  15.9949146   1.0078250
 NucSpn=           1           1           0           1           1           0           1           1           0           1
 AtZEff=   0.0000000   0.0000000   0.0000000   0.0000000   0.0000000   0.0000000   0.0000000   0.0000000   0.0000000   0.0000000
 NQMom=    0.0000000   0.0000000   0.0000000   0.0000000   0.0000000   0.0000000   0.0000000   0.0000000   0.0000000   0.0000000
 NMagM=    2.7928460   2.7928460   0.0000000   2.7928460   2.7928460   0.0000000   2.7928460   2.7928460   0.0000000   2.7928460
 AtZNuc=   1.0000000   1.0000000   8.0000000   1.0000000   1.0000000   8.0000000   1.0000000   1.0000000   8.0000000   1.0000000

  Atom       151         152         153         154         155         156         157         158         159         160
 IAtWgt=           1          16           1           1          16           1           1          16           1           1
 AtmWgt=   1.0078250  15.9949146   1.0078250   1.0078250  15.9949146   1.0078250   1.0078250  15.9949146   1.0078250   1.0078250
 NucSpn=           1           0           1           1           0           1           1           0           1           1
 AtZEff=   0.0000000   0.0000000   0.0000000   0.0000000   0.0000000   0.0000000   0.0000000   0.0000000   0.0000000   0.0000000
 NQMom=    0.0000000   0.0000000   0.0000000   0.0000000   0.0000000   0.0000000   0.0000000   0.0000000   0.0000000   0.0000000
 NMagM=    2.7928460   0.0000000   2.7928460   2.7928460   0.0000000   2.7928460   2.7928460   0.0000000   2.7928460   2.7928460
 AtZNuc=   1.0000000   8.0000000   1.0000000   1.0000000   8.0000000   1.0000000   1.0000000   8.0000000   1.0000000   1.0000000

  Atom       161         162         163         164         165         166         167         168         169         170
 IAtWgt=          16           1           1          16           1           1          16           1           1          16
 AtmWgt=  15.9949146   1.0078250   1.0078250  15.9949146   1.0078250   1.0078250  15.9949146   1.0078250   1.0078250  15.9949146
 NucSpn=           0           1           1           0           1           1           0           1           1           0
 AtZEff=   0.0000000   0.0000000   0.0000000   0.0000000   0.0000000   0.0000000   0.0000000   0.0000000   0.0000000   0.0000000
 NQMom=    0.0000000   0.0000000   0.0000000   0.0000000   0.0000000   0.0000000   0.0000000   0.0000000   0.0000000   0.0000000
 NMagM=    0.0000000   2.7928460   2.7928460   0.0000000   2.7928460   2.7928460   0.0000000   2.7928460   2.7928460   0.0000000
 AtZNuc=   8.0000000   1.0000000   1.0000000   8.0000000   1.0000000   1.0000000   8.0000000   1.0000000   1.0000000   8.0000000

  Atom       171         172         173         174         175         176         177         178         179         180
 IAtWgt=           1           1          16           1           1          16           1           1          16           1
 AtmWgt=   1.0078250   1.0078250  15.9949146   1.0078250   1.0078250  15.9949146   1.0078250   1.0078250  15.9949146   1.0078250
 NucSpn=           1           1           0           1           1           0           1           1           0           1
 AtZEff=   0.0000000   0.0000000   0.0000000   0.0000000   0.0000000   0.0000000   0.0000000   0.0000000   0.0000000   0.0000000
 NQMom=    0.0000000   0.0000000   0.0000000   0.0000000   0.0000000   0.0000000   0.0000000   0.0000000   0.0000000   0.0000000
 NMagM=    2.7928460   2.7928460   0.0000000   2.7928460   2.7928460   0.0000000   2.7928460   2.7928460   0.0000000   2.7928460
 AtZNuc=   1.0000000   1.0000000   8.0000000   1.0000000   1.0000000   8.0000000   1.0000000   1.0000000   8.0000000   1.0000000

  Atom       181         182         183         184         185         186         187         188         189         190
 IAtWgt=           1          16           1           1          16           1           1          16           1           1
 AtmWgt=   1.0078250  15.9949146   1.0078250   1.0078250  15.9949146   1.0078250   1.0078250  15.9949146   1.0078250   1.0078250
 NucSpn=           1           0           1           1           0           1           1           0           1           1
 AtZEff=   0.0000000   0.0000000   0.0000000   0.0000000   0.0000000   0.0000000   0.0000000   0.0000000   0.0000000   0.0000000
 NQMom=    0.0000000   0.0000000   0.0000000   0.0000000   0.0000000   0.0000000   0.0000000   0.0000000   0.0000000   0.0000000
 NMagM=    2.7928460   0.0000000   2.7928460   2.7928460   0.0000000   2.7928460   2.7928460   0.0000000   2.7928460   2.7928460
 AtZNuc=   1.0000000   8.0000000   1.0000000   1.0000000   8.0000000   1.0000000   1.0000000   8.0000000   1.0000000   1.0000000

  Atom       191         192         193         194         195         196         197         198         199         200
 IAtWgt=          16           1           1          16           1           1          16           1           1          16
 AtmWgt=  15.9949146   1.0078250   1.0078250  15.9949146   1.0078250   1.0078250  15.9949146   1.0078250   1.0078250  15.9949146
 NucSpn=           0           1           1           0           1           1           0           1           1           0
 AtZEff=   0.0000000   0.0000000   0.0000000   0.0000000   0.0000000   0.0000000   0.0000000   0.0000000   0.0000000   0.0000000
 NQMom=    0.0000000   0.0000000   0.0000000   0.0000000   0.0000000   0.0000000   0.0000000   0.0000000   0.0000000   0.0000000
 NMagM=    0.0000000   2.7928460   2.7928460   0.0000000   2.7928460   2.7928460   0.0000000   2.7928460   2.7928460   0.0000000
 AtZNuc=   8.0000000   1.0000000   1.0000000   8.0000000   1.0000000   1.0000000   8.0000000   1.0000000   1.0000000   8.0000000

  Atom       201         202         203         204         205         206         207         208         209         210
 IAtWgt=           1           1          16           1           1          16           1           1          16           1
 AtmWgt=   1.0078250   1.0078250  15.9949146   1.0078250   1.0078250  15.9949146   1.0078250   1.0078250  15.9949146   1.0078250
 NucSpn=           1           1           0           1           1           0           1           1           0           1
 AtZEff=   0.0000000   0.0000000   0.0000000   0.0000000   0.0000000   0.0000000   0.0000000   0.0000000   0.0000000   0.0000000
 NQMom=    0.0000000   0.0000000   0.0000000   0.0000000   0.0000000   0.0000000   0.0000000   0.0000000   0.0000000   0.0000000
 NMagM=    2.7928460   2.7928460   0.0000000   2.7928460   2.7928460   0.0000000   2.7928460   2.7928460   0.0000000   2.7928460
 AtZNuc=   1.0000000   1.0000000   8.0000000   1.0000000   1.0000000   8.0000000   1.0000000   1.0000000   8.0000000   1.0000000

  Atom       211         212         213         214         215         216         217         218         219         220
 IAtWgt=           1          16           1           1          16           1           1          16           1           1
 AtmWgt=   1.0078250  15.9949146   1.0078250   1.0078250  15.9949146   1.0078250   1.0078250  15.9949146   1.0078250   1.0078250
 NucSpn=           1           0           1           1           0           1           1           0           1           1
 AtZEff=   0.0000000   0.0000000   0.0000000   0.0000000   0.0000000   0.0000000   0.0000000   0.0000000   0.0000000   0.0000000
 NQMom=    0.0000000   0.0000000   0.0000000   0.0000000   0.0000000   0.0000000   0.0000000   0.0000000   0.0000000   0.0000000
 NMagM=    2.7928460   0.0000000   2.7928460   2.7928460   0.0000000   2.7928460   2.7928460   0.0000000   2.7928460   2.7928460
 AtZNuc=   1.0000000   8.0000000   1.0000000   1.0000000   8.0000000   1.0000000   1.0000000   8.0000000   1.0000000   1.0000000

  Atom       221         222         223         224         225         226         227         228         229         230
 IAtWgt=          16           1           1          16           1           1          16           1           1          16
 AtmWgt=  15.9949146   1.0078250   1.0078250  15.9949146   1.0078250   1.0078250  15.9949146   1.0078250   1.0078250  15.9949146
 NucSpn=           0           1           1           0           1           1           0           1           1           0
 AtZEff=   0.0000000   0.0000000   0.0000000   0.0000000   0.0000000   0.0000000   0.0000000   0.0000000   0.0000000   0.0000000
 NQMom=    0.0000000   0.0000000   0.0000000   0.0000000   0.0000000   0.0000000   0.0000000   0.0000000   0.0000000   0.0000000
 NMagM=    0.0000000   2.7928460   2.7928460   0.0000000   2.7928460   2.7928460   0.0000000   2.7928460   2.7928460   0.0000000
 AtZNuc=   8.0000000   1.0000000   1.0000000   8.0000000   1.0000000   1.0000000   8.0000000   1.0000000   1.0000000   8.0000000

  Atom       231         232         233         234         235         236         237         238         239         240
 IAtWgt=           1           1          16           1           1          16           1           1          16           1
 AtmWgt=   1.0078250   1.0078250  15.9949146   1.0078250   1.0078250  15.9949146   1.0078250   1.0078250  15.9949146   1.0078250
 NucSpn=           1           1           0           1           1           0           1           1           0           1
 AtZEff=   0.0000000   0.0000000   0.0000000   0.0000000   0.0000000   0.0000000   0.0000000   0.0000000   0.0000000   0.0000000
 NQMom=    0.0000000   0.0000000   0.0000000   0.0000000   0.0000000   0.0000000   0.0000000   0.0000000   0.0000000   0.0000000
 NMagM=    2.7928460   2.7928460   0.0000000   2.7928460   2.7928460   0.0000000   2.7928460   2.7928460   0.0000000   2.7928460
 AtZNuc=   1.0000000   1.0000000   8.0000000   1.0000000   1.0000000   8.0000000   1.0000000   1.0000000   8.0000000   1.0000000

  Atom       241         242         243         244         245         246         247         248         249         250
 IAtWgt=           1          16           1           1          16           1           1          16           1           1
 AtmWgt=   1.0078250  15.9949146   1.0078250   1.0078250  15.9949146   1.0078250   1.0078250  15.9949146   1.0078250   1.0078250
 NucSpn=           1           0           1           1           0           1           1           0           1           1
 AtZEff=   0.0000000   0.0000000   0.0000000   0.0000000   0.0000000   0.0000000   0.0000000   0.0000000   0.0000000   0.0000000
 NQMom=    0.0000000   0.0000000   0.0000000   0.0000000   0.0000000   0.0000000   0.0000000   0.0000000   0.0000000   0.0000000
 NMagM=    2.7928460   0.0000000   2.7928460   2.7928460   0.0000000   2.7928460   2.7928460   0.0000000   2.7928460   2.7928460
 AtZNuc=   1.0000000   8.0000000   1.0000000   1.0000000   8.0000000   1.0000000   1.0000000   8.0000000   1.0000000   1.0000000

  Atom       251         252         253         254         255         256         257         258         259         260
 IAtWgt=          16           1           1          16           1           1          16           1           1          16
 AtmWgt=  15.9949146   1.0078250   1.0078250  15.9949146   1.0078250   1.0078250  15.9949146   1.0078250   1.0078250  15.9949146
 NucSpn=           0           1           1           0           1           1           0           1           1           0
 AtZEff=   0.0000000   0.0000000   0.0000000   0.0000000   0.0000000   0.0000000   0.0000000   0.0000000   0.0000000   0.0000000
 NQMom=    0.0000000   0.0000000   0.0000000   0.0000000   0.0000000   0.0000000   0.0000000   0.0000000   0.0000000   0.0000000
 NMagM=    0.0000000   2.7928460   2.7928460   0.0000000   2.7928460   2.7928460   0.0000000   2.7928460   2.7928460   0.0000000
 AtZNuc=   8.0000000   1.0000000   1.0000000   8.0000000   1.0000000   1.0000000   8.0000000   1.0000000   1.0000000   8.0000000

  Atom       261         262         263         264         265         266         267         268         269         270
 IAtWgt=           1           1          16           1           1          16           1           1          16           1
 AtmWgt=   1.0078250   1.0078250  15.9949146   1.0078250   1.0078250  15.9949146   1.0078250   1.0078250  15.9949146   1.0078250
 NucSpn=           1           1           0           1           1           0           1           1           0           1
 AtZEff=   0.0000000   0.0000000   0.0000000   0.0000000   0.0000000   0.0000000   0.0000000   0.0000000   0.0000000   0.0000000
 NQMom=    0.0000000   0.0000000   0.0000000   0.0000000   0.0000000   0.0000000   0.0000000   0.0000000   0.0000000   0.0000000
 NMagM=    2.7928460   2.7928460   0.0000000   2.7928460   2.7928460   0.0000000   2.7928460   2.7928460   0.0000000   2.7928460
 AtZNuc=   1.0000000   1.0000000   8.0000000   1.0000000   1.0000000   8.0000000   1.0000000   1.0000000   8.0000000   1.0000000

  Atom       271         272         273         274         275         276         277         278         279         280
 IAtWgt=           1          16           1           1          16           1           1          16           1           1
 AtmWgt=   1.0078250  15.9949146   1.0078250   1.0078250  15.9949146   1.0078250   1.0078250  15.9949146   1.0078250   1.0078250
 NucSpn=           1           0           1           1           0           1           1           0           1           1
 AtZEff=   0.0000000   0.0000000   0.0000000   0.0000000   0.0000000   0.0000000   0.0000000   0.0000000   0.0000000   0.0000000
 NQMom=    0.0000000   0.0000000   0.0000000   0.0000000   0.0000000   0.0000000   0.0000000   0.0000000   0.0000000   0.0000000
 NMagM=    2.7928460   0.0000000   2.7928460   2.7928460   0.0000000   2.7928460   2.7928460   0.0000000   2.7928460   2.7928460
 AtZNuc=   1.0000000   8.0000000   1.0000000   1.0000000   8.0000000   1.0000000   1.0000000   8.0000000   1.0000000   1.0000000

  Atom       281         282         283         284         285         286         287         288         289         290
 IAtWgt=          16           1           1          16           1           1          16           1           1          16
 AtmWgt=  15.9949146   1.0078250   1.0078250  15.9949146   1.0078250   1.0078250  15.9949146   1.0078250   1.0078250  15.9949146
 NucSpn=           0           1           1           0           1           1           0           1           1           0
 AtZEff=   0.0000000   0.0000000   0.0000000   0.0000000   0.0000000   0.0000000   0.0000000   0.0000000   0.0000000   0.0000000
 NQMom=    0.0000000   0.0000000   0.0000000   0.0000000   0.0000000   0.0000000   0.0000000   0.0000000   0.0000000   0.0000000
 NMagM=    0.0000000   2.7928460   2.7928460   0.0000000   2.7928460   2.7928460   0.0000000   2.7928460   2.7928460   0.0000000
 AtZNuc=   8.0000000   1.0000000   1.0000000   8.0000000   1.0000000   1.0000000   8.0000000   1.0000000   1.0000000   8.0000000

  Atom       291         292         293         294         295         296         297         298         299         300
 IAtWgt=           1           1          16           1           1          16           1           1          16           1
 AtmWgt=   1.0078250   1.0078250  15.9949146   1.0078250   1.0078250  15.9949146   1.0078250   1.0078250  15.9949146   1.0078250
 NucSpn=           1           1           0           1           1           0           1           1           0           1
 AtZEff=   0.0000000   0.0000000   0.0000000   0.0000000   0.0000000   0.0000000   0.0000000   0.0000000   0.0000000   0.0000000
 NQMom=    0.0000000   0.0000000   0.0000000   0.0000000   0.0000000   0.0000000   0.0000000   0.0000000   0.0000000   0.0000000
 NMagM=    2.7928460   2.7928460   0.0000000   2.7928460   2.7928460   0.0000000   2.7928460   2.7928460   0.0000000   2.7928460
 AtZNuc=   1.0000000   1.0000000   8.0000000   1.0000000   1.0000000   8.0000000   1.0000000   1.0000000   8.0000000   1.0000000

  Atom       301         302         303         304         305         306         307         308         309         310
 IAtWgt=           1          16           1           1          16           1           1          16           1           1
 AtmWgt=   1.0078250  15.9949146   1.0078250   1.0078250  15.9949146   1.0078250   1.0078250  15.9949146   1.0078250   1.0078250
 NucSpn=           1           0           1           1           0           1           1           0           1           1
 AtZEff=   0.0000000   0.0000000   0.0000000   0.0000000   0.0000000   0.0000000   0.0000000   0.0000000   0.0000000   0.0000000
 NQMom=    0.0000000   0.0000000   0.0000000   0.0000000   0.0000000   0.0000000   0.0000000   0.0000000   0.0000000   0.0000000
 NMagM=    2.7928460   0.0000000   2.7928460   2.7928460   0.0000000   2.7928460   2.7928460   0.0000000   2.7928460   2.7928460
 AtZNuc=   1.0000000   8.0000000   1.0000000   1.0000000   8.0000000   1.0000000   1.0000000   8.0000000   1.0000000   1.0000000

  Atom       311         312         313         314         315         316         317         318         319         320
 IAtWgt=          16           1           1          16           1           1          16           1           1          16
 AtmWgt=  15.9949146   1.0078250   1.0078250  15.9949146   1.0078250   1.0078250  15.9949146   1.0078250   1.0078250  15.9949146
 NucSpn=           0           1           1           0           1           1           0           1           1           0
 AtZEff=   0.0000000   0.0000000   0.0000000   0.0000000   0.0000000   0.0000000   0.0000000   0.0000000   0.0000000   0.0000000
 NQMom=    0.0000000   0.0000000   0.0000000   0.0000000   0.0000000   0.0000000   0.0000000   0.0000000   0.0000000   0.0000000
 NMagM=    0.0000000   2.7928460   2.7928460   0.0000000   2.7928460   2.7928460   0.0000000   2.7928460   2.7928460   0.0000000
 AtZNuc=   8.0000000   1.0000000   1.0000000   8.0000000   1.0000000   1.0000000   8.0000000   1.0000000   1.0000000   8.0000000

  Atom       321         322         323         324         325         326         327         328         329         330
 IAtWgt=           1           1          16           1           1          16           1           1          16           1
 AtmWgt=   1.0078250   1.0078250  15.9949146   1.0078250   1.0078250  15.9949146   1.0078250   1.0078250  15.9949146   1.0078250
 NucSpn=           1           1           0           1           1           0           1           1           0           1
 AtZEff=   0.0000000   0.0000000   0.0000000   0.0000000   0.0000000   0.0000000   0.0000000   0.0000000   0.0000000   0.0000000
 NQMom=    0.0000000   0.0000000   0.0000000   0.0000000   0.0000000   0.0000000   0.0000000   0.0000000   0.0000000   0.0000000
 NMagM=    2.7928460   2.7928460   0.0000000   2.7928460   2.7928460   0.0000000   2.7928460   2.7928460   0.0000000   2.7928460
 AtZNuc=   1.0000000   1.0000000   8.0000000   1.0000000   1.0000000   8.0000000   1.0000000   1.0000000   8.0000000   1.0000000

  Atom       331         332         333         334         335         336         337         338         339         340
 IAtWgt=           1          16           1           1          16           1           1          16           1           1
 AtmWgt=   1.0078250  15.9949146   1.0078250   1.0078250  15.9949146   1.0078250   1.0078250  15.9949146   1.0078250   1.0078250
 NucSpn=           1           0           1           1           0           1           1           0           1           1
 AtZEff=   0.0000000   0.0000000   0.0000000   0.0000000   0.0000000   0.0000000   0.0000000   0.0000000   0.0000000   0.0000000
 NQMom=    0.0000000   0.0000000   0.0000000   0.0000000   0.0000000   0.0000000   0.0000000   0.0000000   0.0000000   0.0000000
 NMagM=    2.7928460   0.0000000   2.7928460   2.7928460   0.0000000   2.7928460   2.7928460   0.0000000   2.7928460   2.7928460
 AtZNuc=   1.0000000   8.0000000   1.0000000   1.0000000   8.0000000   1.0000000   1.0000000   8.0000000   1.0000000   1.0000000

  Atom       341         342         343         344         345         346         347         348         349         350
 IAtWgt=          16           1           1          16           1           1          16           1           1          16
 AtmWgt=  15.9949146   1.0078250   1.0078250  15.9949146   1.0078250   1.0078250  15.9949146   1.0078250   1.0078250  15.9949146
 NucSpn=           0           1           1           0           1           1           0           1           1           0
 AtZEff=   0.0000000   0.0000000   0.0000000   0.0000000   0.0000000   0.0000000   0.0000000   0.0000000   0.0000000   0.0000000
 NQMom=    0.0000000   0.0000000   0.0000000   0.0000000   0.0000000   0.0000000   0.0000000   0.0000000   0.0000000   0.0000000
 NMagM=    0.0000000   2.7928460   2.7928460   0.0000000   2.7928460   2.7928460   0.0000000   2.7928460   2.7928460   0.0000000
 AtZNuc=   8.0000000   1.0000000   1.0000000   8.0000000   1.0000000   1.0000000   8.0000000   1.0000000   1.0000000   8.0000000

  Atom       351         352         353         354         355         356         357         358         359         360
 IAtWgt=           1           1          16           1           1          16           1           1          16           1
 AtmWgt=   1.0078250   1.0078250  15.9949146   1.0078250   1.0078250  15.9949146   1.0078250   1.0078250  15.9949146   1.0078250
 NucSpn=           1           1           0           1           1           0           1           1           0           1
 AtZEff=   0.0000000   0.0000000   0.0000000   0.0000000   0.0000000   0.0000000   0.0000000   0.0000000   0.0000000   0.0000000
 NQMom=    0.0000000   0.0000000   0.0000000   0.0000000   0.0000000   0.0000000   0.0000000   0.0000000   0.0000000   0.0000000
 NMagM=    2.7928460   2.7928460   0.0000000   2.7928460   2.7928460   0.0000000   2.7928460   2.7928460   0.0000000   2.7928460
 AtZNuc=   1.0000000   1.0000000   8.0000000   1.0000000   1.0000000   8.0000000   1.0000000   1.0000000   8.0000000   1.0000000

  Atom       361         362         363         364         365         366         367         368         369         370
 IAtWgt=           1          16           1           1          16           1           1          16           1           1
 AtmWgt=   1.0078250  15.9949146   1.0078250   1.0078250  15.9949146   1.0078250   1.0078250  15.9949146   1.0078250   1.0078250
 NucSpn=           1           0           1           1           0           1           1           0           1           1
 AtZEff=   0.0000000   0.0000000   0.0000000   0.0000000   0.0000000   0.0000000   0.0000000   0.0000000   0.0000000   0.0000000
 NQMom=    0.0000000   0.0000000   0.0000000   0.0000000   0.0000000   0.0000000   0.0000000   0.0000000   0.0000000   0.0000000
 NMagM=    2.7928460   0.0000000   2.7928460   2.7928460   0.0000000   2.7928460   2.7928460   0.0000000   2.7928460   2.7928460
 AtZNuc=   1.0000000   8.0000000   1.0000000   1.0000000   8.0000000   1.0000000   1.0000000   8.0000000   1.0000000   1.0000000

  Atom       371         372         373         374         375         376         377         378         379         380
 IAtWgt=          16           1           1          16           1           1          16           1           1          16
 AtmWgt=  15.9949146   1.0078250   1.0078250  15.9949146   1.0078250   1.0078250  15.9949146   1.0078250   1.0078250  15.9949146
 NucSpn=           0           1           1           0           1           1           0           1           1           0
 AtZEff=   0.0000000   0.0000000   0.0000000   0.0000000   0.0000000   0.0000000   0.0000000   0.0000000   0.0000000   0.0000000
 NQMom=    0.0000000   0.0000000   0.0000000   0.0000000   0.0000000   0.0000000   0.0000000   0.0000000   0.0000000   0.0000000
 NMagM=    0.0000000   2.7928460   2.7928460   0.0000000   2.7928460   2.7928460   0.0000000   2.7928460   2.7928460   0.0000000
 AtZNuc=   8.0000000   1.0000000   1.0000000   8.0000000   1.0000000   1.0000000   8.0000000   1.0000000   1.0000000   8.0000000

  Atom       381         382         383         384         385
 IAtWgt=           1           1          16           1           1
 AtmWgt=   1.0078250   1.0078250  15.9949146   1.0078250   1.0078250
 NucSpn=           1           1           0           1           1
 AtZEff=   0.0000000   0.0000000   0.0000000   0.0000000   0.0000000
 NQMom=    0.0000000   0.0000000   0.0000000   0.0000000   0.0000000
 NMagM=    2.7928460   2.7928460   0.0000000   2.7928460   2.7928460
 AtZNuc=   1.0000000   1.0000000   8.0000000   1.0000000   1.0000000
 Leave Link  101 at Tue May 15 19:13:23 2018, MaxMem= 14763950080 cpu:       121.3
 (Enter /cm/shared/gaussian/g09.e01/intel64-sandybridge/g09/l103.exe)

 GradGradGradGradGradGradGradGradGradGradGradGradGradGradGradGradGradGrad
 Berny optimization.
 Initialization pass.
 Trust Radius=3.00D-01 FncErr=1.00D-07 GrdErr=1.00D-07
 Number of steps in this run=      2 maximum allowed number of steps=      2.
 GradGradGradGradGradGradGradGradGradGradGradGradGradGradGradGradGradGrad

 Leave Link  103 at Tue May 15 19:13:23 2018, MaxMem= 14763950080 cpu:         4.2
 (Enter /cm/shared/gaussian/g09.e01/intel64-sandybridge/g09/l202.exe)
 Symmetry turned off by external request.
 Stoichiometry    BrH256O128(1-)
 Framework group  C1[X(BrH256O128)]
 Deg. of freedom  1149
 Full point group                 C1      NOp   1
                          Input orientation:                          
 ---------------------------------------------------------------------
 Center     Atomic      Atomic             Coordinates (Angstroms)
 Number     Number       Type             X           Y           Z
 ---------------------------------------------------------------------
      1         35           0       20.000000   20.000000   20.000000
      2          8           0       17.790000   21.620000   18.840000
      3          1           0       18.510000   21.050000   19.120000
      4          1           0       17.480000   22.030000   19.640000
      5          8           0       17.120000   20.440000   21.950000
      6          1           0       16.600000   19.700000   22.280000
      7          1           0       17.940000   20.040000   21.660000
      8          8           0       20.590000   22.040000   16.920000
      9          1           0       19.890000   22.690000   16.930000
     10          1           0       20.320000   21.400000   17.590000
     11          8           0       21.920000   18.280000   22.610000
     12          1           0       21.110000   17.920000   22.250000
     13          1           0       22.220000   18.900000   21.950000
     14          8           0       19.280000   20.430000   23.850000
     15          1           0       18.680000   20.390000   23.100000
     16          1           0       19.960000   21.050000   23.570000
     17          8           0       17.720000   16.570000   20.470000
     18          1           0       18.480000   16.880000   19.980000
     19          1           0       17.660000   15.640000   20.240000
     20          8           0       23.910000   20.230000   21.850000
     21          1           0       23.700000   20.950000   22.450000
     22          1           0       23.310000   20.340000   21.120000
     23          8           0       16.260000   19.730000   17.900000
     24          1           0       16.670000   20.550000   18.150000
     25          1           0       16.780000   19.050000   18.350000
     26          8           0       16.470000   23.930000   18.460000
     27          1           0       16.760000   24.420000   19.220000
     28          1           0       17.140000   23.260000   18.330000
     29          8           0       20.330000   18.170000   24.890000
     30          1           0       21.240000   18.480000   24.890000
     31          1           0       19.830000   18.900000   24.520000
     32          8           0       15.390000   17.330000   21.970000
     33          1           0       16.340000   17.330000   21.910000
     34          1           0       15.090000   16.930000   21.150000
     35          8           0       23.440000   16.020000   18.610000
     36          1           0       22.570000   16.180000   18.260000
     37          1           0       23.810000   15.340000   18.040000
     38          8           0       17.400000   22.350000   15.700000
     39          1           0       16.850000   22.200000   16.470000
     40          1           0       17.200000   21.620000   15.120000
     41          8           0       16.460000   21.300000   24.640000
     42          1           0       17.410000   21.290000   24.510000
     43          1           0       16.290000   22.130000   25.090000
     44          8           0       15.140000   22.820000   21.430000
     45          1           0       15.250000   21.930000   21.740000
     46          1           0       14.750000   23.290000   22.170000
     47          8           0       23.720000   15.620000   21.970000
     48          1           0       23.520000   15.760000   21.040000
     49          1           0       23.140000   16.220000   22.440000
     50          8           0       20.790000   25.810000   17.840000
     51          1           0       21.360000   26.370000   17.320000
     52          1           0       21.160000   24.930000   17.730000
     53          8           0       22.190000   22.060000   14.040000
     54          1           0       22.350000   22.280000   14.960000
     55          1           0       22.700000   22.710000   13.550000
     56          8           0       26.280000   19.930000   22.870000
     57          1           0       27.110000   19.470000   22.790000
     58          1           0       25.720000   19.560000   22.190000
     59          8           0       21.670000   25.080000   23.040000
     60          1           0       22.020000   25.500000   22.250000
     61          1           0       21.130000   25.760000   23.450000
     62          8           0       13.700000   19.410000   17.120000
     63          1           0       14.400000   18.940000   17.590000
     64          1           0       14.170000   19.950000   16.480000
     65          8           0       13.900000   22.830000   19.190000
     66          1           0       14.600000   23.080000   18.580000
     67          1           0       14.290000   22.940000   20.060000
     68          8           0       16.280000   17.860000   14.070000
     69          1           0       16.670000   17.980000   14.930000
     70          1           0       16.560000   18.620000   13.560000
     71          8           0       25.330000   22.900000   16.920000
     72          1           0       25.160000   23.210000   17.810000
     73          1           0       25.730000   23.650000   16.480000
     74          8           0       19.430000   23.170000   13.590000
     75          1           0       19.150000   23.700000   14.340000
     76          1           0       19.620000   22.310000   13.960000
     77          8           0       18.800000   17.640000   26.810000
     78          1           0       19.510000   17.870000   26.210000
     79          1           0       18.120000   17.270000   26.250000
     80          8           0       13.860000   20.690000   23.840000
     81          1           0       13.500000   21.520000   24.160000
     82          1           0       14.800000   20.760000   24.020000
     83          8           0       17.640000   23.890000   25.940000
     84          1           0       18.230000   24.020000   25.190000
     85          1           0       17.810000   24.640000   26.510000
     86          8           0       25.120000   25.640000   20.400000
     87          1           0       24.300000   26.040000   20.680000
     88          1           0       25.010000   24.710000   20.570000
     89          8           0       14.200000   18.060000   24.560000
     90          1           0       14.550000   17.670000   23.760000
     91          1           0       13.990000   18.960000   24.320000
     92          8           0       17.680000   13.320000   20.010000
     93          1           0       17.050000   12.990000   19.380000
     94          1           0       17.360000   13.010000   20.860000
     95          8           0       16.780000   19.940000   27.430000
     96          1           0       17.520000   19.450000   27.790000
     97          1           0       17.010000   20.110000   26.520000
     98          8           0       25.510000   21.210000   14.380000
     99          1           0       25.670000   22.000000   14.890000
    100          1           0       24.610000   20.970000   14.570000
    101          8           0       21.180000   12.510000   19.080000
    102          1           0       21.980000   13.020000   18.950000
    103          1           0       21.000000   12.590000   20.020000
    104          8           0       22.990000   13.940000   16.780000
    105          1           0       23.480000   13.280000   16.280000
    106          1           0       22.160000   14.030000   16.320000
    107          8           0       19.450000   26.810000   23.900000
    108          1           0       18.710000   26.380000   23.460000
    109          1           0       19.040000   27.420000   24.510000
    110          8           0       16.940000   25.860000   23.420000
    111          1           0       16.460000   25.950000   22.590000
    112          1           0       16.300000   25.490000   24.030000
    113          8           0       15.880000   26.400000   20.200000
    114          1           0       15.180000   25.740000   20.190000
    115          1           0       15.550000   27.100000   19.640000
    116          8           0       12.040000   20.950000   18.880000
    117          1           0       12.580000   20.280000   18.470000
    118          1           0       12.660000   21.600000   19.200000
    119          8           0       21.200000   20.700000   11.800000
    120          1           0       20.310000   20.410000   11.980000
    121          1           0       21.520000   21.030000   12.640000
    122          8           0       14.440000   21.120000   14.950000
    123          1           0       14.840000   21.850000   14.480000
    124          1           0       13.500000   21.340000   14.970000
    125          8           0       19.940000   12.330000   16.780000
    126          1           0       20.510000   12.150000   17.530000
    127          1           0       19.210000   12.820000   17.140000
    128          8           0       15.920000   16.800000   26.220000
    129          1           0       15.340000   17.190000   25.570000
    130          1           0       15.580000   17.120000   27.060000
    131          8           0       12.040000   17.770000   22.630000
    132          1           0       11.770000   18.670000   22.830000
    133          1           0       12.780000   17.870000   22.030000
    134          8           0       24.500000   13.000000   22.200000
    135          1           0       24.670000   12.860000   21.270000
    136          1           0       24.360000   13.940000   22.290000
    137          8           0       27.280000   22.700000   23.910000
    138          1           0       28.160000   22.390000   23.720000
    139          1           0       26.690000   22.040000   23.540000
    140          8           0       17.110000   20.020000   12.620000
    141          1           0       16.700000   20.870000   12.750000
    142          1           0       16.950000   19.820000   11.700000
    143          8           0       22.580000   27.430000   21.480000
    144          1           0       23.390000   27.830000   21.810000
    145          1           0       21.880000   27.930000   21.910000
    146          8           0       14.140000   24.190000   23.650000
    147          1           0       14.680000   24.180000   24.440000
    148          1           0       13.590000   24.970000   23.750000
    149          8           0       19.420000   29.010000   19.690000
    150          1           0       19.500000   28.060000   19.590000
    151          1           0       20.080000   29.240000   20.340000
    152          8           0       22.180000   16.050000   27.250000
    153          1           0       22.060000   15.560000   28.070000
    154          1           0       21.460000   16.680000   27.230000
    155          8           0       13.950000   25.140000   16.260000
    156          1           0       14.090000   24.820000   17.150000
    157          1           0       13.090000   25.560000   16.290000
    158          8           0       20.960000   13.740000   14.790000
    159          1           0       20.300000   13.800000   14.100000
    160          1           0       20.620000   13.070000   15.390000
    161          8           0       19.570000   27.740000   15.170000
    162          1           0       20.170000   27.450000   14.480000
    163          1           0       19.660000   27.070000   15.850000
    164          8           0       16.190000   15.420000   13.070000
    165          1           0       16.610000   16.050000   13.650000
    166          1           0       16.250000   15.810000   12.200000
    167          8           0       15.830000   22.690000   13.310000
    168          1           0       15.070000   23.230000   13.080000
    169          1           0       16.580000   23.140000   12.920000
    170          8           0       11.400000   20.120000   23.450000
    171          1           0       12.260000   20.500000   23.650000
    172          1           0       10.830000   20.420000   24.160000
    173          8           0       22.430000   25.070000   27.480000
    174          1           0       21.490000   25.220000   27.510000
    175          1           0       22.620000   24.860000   26.570000
    176          8           0       17.690000   24.670000   12.040000
    177          1           0       18.170000   24.090000   12.640000
    178          1           0       18.320000   25.340000   11.800000
    179          8           0       24.180000   24.070000   13.200000
    180          1           0       24.360000   24.810000   12.610000
    181          1           0       24.640000   24.290000   14.010000
    182          8           0       10.860000   19.570000   16.740000
    183          1           0       11.790000   19.560000   16.930000
    184          1           0       10.560000   20.440000   17.020000
    185          8           0       15.410000   12.630000   17.220000
    186          1           0       14.590000   12.770000   16.740000
    187          1           0       16.100000   12.820000   16.580000
    188          8           0       15.790000   22.460000   28.180000
    189          1           0       16.000000   21.600000   27.830000
    190          1           0       16.320000   23.070000   27.660000
    191          8           0       26.390000   25.010000   16.100000
    192          1           0       27.320000   24.870000   15.910000
    193          1           0       26.260000   25.960000   16.010000
    194          8           0       11.020000   24.210000   20.760000
    195          1           0       10.500000   23.770000   21.430000
    196          1           0       11.740000   23.600000   20.570000
    197          8           0       23.970000   19.850000   11.340000
    198          1           0       23.660000   18.940000   11.380000
    199          1           0       23.190000   20.370000   11.540000
    200          8           0       20.950000   25.990000   13.200000
    201          1           0       20.840000   25.220000   12.640000
    202          1           0       21.070000   26.710000   12.580000
    203          8           0       22.640000   12.620000   26.050000
    204          1           0       22.580000   13.550000   25.820000
    205          1           0       21.800000   12.250000   25.780000
    206          8           0       11.940000   15.800000   16.330000
    207          1           0       12.440000   15.830000   17.150000
[...]
   Y335      26.36168  -0.01122   0.00000  -0.00614  -0.00540  26.35628
   Z335      48.90611  -0.00725   0.00000  -0.00278  -0.00251  48.90360
   X336      49.83208  -0.01241   0.00000  -0.01217  -0.01141  49.82067
   Y336      27.57110   0.00570   0.00000  -0.00620  -0.00549  27.56561
   Z336      49.79428   0.00561   0.00000   0.00050   0.00076  49.79504
   X337      51.13599  -0.00277   0.00000  -0.00503  -0.00426  51.13173
   Y337      27.11757   0.00057   0.00000  -0.00002   0.00071  27.11828
   Z337      47.28095  -0.00103   0.00000  -0.00386  -0.00359  47.27735
   X338      31.48284   0.00284   0.00000   0.00328   0.00253  31.48536
   Y338      57.86341   0.01052   0.00000   0.01248   0.01210  57.87551
   Z338      36.75517   0.01973   0.00000   0.01479   0.01464  36.76981
   X339      31.40725   0.00175   0.00000   0.00617   0.00541  31.41266
   Y339      57.93900  -0.00438   0.00000  -0.00511  -0.00552  57.93348
   Z339      34.95993  -0.01355   0.00000  -0.00516  -0.00531  34.95463
   X340      31.04820  -0.00311   0.00000  -0.00413  -0.00480  31.04340
   Y340      56.14376  -0.00162   0.00000   0.00290   0.00250  56.14627
   Z340      37.15202  -0.00808   0.00000  -0.01300  -0.01312  37.13890
   X341      29.13958   0.00381   0.00000   0.00727   0.00819  29.14777
   Y341      23.56488  -0.02181   0.00000  -0.01902  -0.01969  23.54520
   Z341      24.67982  -0.00311   0.00000   0.00572   0.00606  24.68588
   X342      30.25452   0.00260   0.00000  -0.00590  -0.00505  30.24947
   Y342      24.94438   0.01761   0.00000   0.01819   0.01758  24.96196
   Z342      25.00108   0.00059   0.00000  -0.00462  -0.00429  24.99678
   X343      27.59000  -0.00504   0.00000  -0.00122  -0.00033  27.58968
   Y343      24.01842   0.00395   0.00000   0.00226   0.00153  24.01995
   Z343      25.51130   0.00519   0.00000   0.00337   0.00371  25.51501
   X344      23.88614   0.01735   0.00000   0.01889   0.01874  23.90488
   Y344      45.27784   0.00860   0.00000   0.00404   0.00311  45.28095
   Z344      24.83100   0.00580   0.00000  -0.00037  -0.00033  24.83067
   X345      23.64047  -0.00838   0.00000  -0.01269  -0.01276  23.62772
   Y345      43.50150  -0.01161   0.00000  -0.00594  -0.00687  43.49462
   Z345      25.05777   0.00453   0.00000   0.00883   0.00890  25.06667
   X346      22.69561  -0.00664   0.00000  -0.00094  -0.00111  22.69450
   Y346      45.75027   0.00070   0.00000  -0.00003  -0.00104  45.74923
   Z346      23.56488  -0.00846   0.00000  -0.00474  -0.00471  23.56018
   X347      16.83746  -0.00905   0.00000  -0.00916  -0.00887  16.82859
   Y347      36.69848  -0.01061   0.00000  -0.00402  -0.00505  36.69343
   Z347      41.70626   0.00971   0.00000   0.00466   0.00484  41.71109
   X348      18.46262   0.00242   0.00000   0.00086   0.00116  18.46378
   Y348      36.62289   0.00231   0.00000   0.00310   0.00215  36.62505
   Z348      42.51884  -0.00469   0.00000  -0.00873  -0.00855  42.51028
   X349      17.06423   0.00767   0.00000   0.00965   0.00989  17.07412
   Y349      37.88901   0.01155   0.00000   0.01052   0.00948  37.89848
   Z349      40.36455  -0.00819   0.00000  -0.00284  -0.00268  40.36187
   X350      48.47148  -0.00818   0.00000  -0.00940  -0.00893  48.46255
   Y350      33.58043   0.01214   0.00000   0.00395   0.00467  33.58510
   Z350      55.35008   0.01556   0.00000   0.01092   0.01110  55.36118
   X351      50.17223   0.00436   0.00000   0.00234   0.00282  50.17505
   Y351      33.41036  -0.00141   0.00000  -0.00070   0.00011  33.41047
   Z351      55.95479  -0.00386   0.00000  -0.00755  -0.00738  55.94741
   X352      48.37699   0.00319   0.00000   0.00440   0.00492  48.38191
   Y352      32.48439  -0.01232   0.00000  -0.00877  -0.00807  32.47632
   Z352      53.93278  -0.01383   0.00000  -0.00814  -0.00795  53.92483
   X353      24.81210   0.00228   0.00000  -0.00592  -0.00488  24.80723
   Y353      21.29721   0.00309   0.00000   0.00702   0.00631  21.30352
   Z353      36.75517  -0.00565   0.00000  -0.00356  -0.00317  36.75200
   X354      24.94438   0.00091   0.00000   0.00088   0.00188  24.94627
   Y354      22.31767   0.00472   0.00000   0.00528   0.00460  22.32227
   Z354      38.24806   0.00672   0.00000   0.00626   0.00663  38.25469
   X355      23.26253  -0.00878   0.00000  -0.00939  -0.00829  23.25424
   Y355      20.39014  -0.00437   0.00000  -0.00323  -0.00402  20.38613
   Z355      36.94415   0.00417   0.00000   0.00686   0.00726  36.95141
   X356      28.34589  -0.01866   0.00000  -0.02283  -0.02261  28.32329
   Y356      38.70159  -0.01119   0.00000  -0.00290  -0.00315  38.69844
   Z356      57.22091   0.00374   0.00000   0.00597   0.00610  57.22701
   X357      28.10023   0.00467   0.00000   0.00762   0.00783  28.10805
   Y357      38.96615   0.00242   0.00000   0.00174   0.00145  38.96761
   Z357      55.44456  -0.00233   0.00000  -0.00107  -0.00094  55.44362
   X358      29.51752   0.01340   0.00000   0.01346   0.01362  29.53114
   Y358      39.98660   0.00547   0.00000  -0.00488  -0.00506  39.98154
   Z358      57.71224  -0.00281   0.00000  -0.00807  -0.00796  57.70428
   X359      32.14424   0.00964   0.00000   0.00900   0.01010  32.15434
   Y359      19.95551   0.01129   0.00000   0.00427   0.00382  19.95933
   Z359      30.12223   0.00203   0.00000  -0.00314  -0.00275  30.11949
   X360      32.12534  -0.00261   0.00000  -0.00486  -0.00366  32.12168
   Y360      18.19806  -0.01626   0.00000  -0.01377  -0.01421  18.18385
   Z360      30.50018  -0.00309   0.00000  -0.00938  -0.00896  30.49122
   X361      31.04820  -0.00666   0.00000  -0.00668  -0.00559  31.04261
   Y361      20.12558   0.00352   0.00000   0.00784   0.00731  20.13290
   Z361      28.68604  -0.00663   0.00000  -0.00422  -0.00383  28.68221
   X362      33.29697  -0.00334   0.00000   0.00110   0.00129  33.29827
   Y362      39.32520   0.02220   0.00000   0.01719   0.01721  39.34241
   Z362      58.95946   0.00787   0.00000   0.00577   0.00588  58.96533
   X363      32.65447  -0.00211   0.00000  -0.00228  -0.00204  32.65243
   Y363      38.24806  -0.00757   0.00000  -0.00670  -0.00669  38.24137
   Z363      60.26337   0.00066   0.00000  -0.00388  -0.00375  60.25962
   X364      34.07176   0.00952   0.00000   0.00887   0.00912  34.08088
   Y364      38.21026  -0.01345   0.00000  -0.00825  -0.00821  38.20206
   Z364      57.76893  -0.00750   0.00000  -0.00009   0.00003  57.76896
   X365      25.32233   0.01726   0.00000   0.01710   0.01765  25.33998
   Y365      31.91747  -0.00078   0.00000   0.00192   0.00147  31.91895
   Z365      53.36587   0.02610   0.00000   0.01968   0.01991  53.38578
   X366      24.64203  -0.00924   0.00000  -0.00575  -0.00517  24.63686
   Y366      31.21828  -0.00806   0.00000  -0.00697  -0.00748  31.21080
   Z366      51.85409  -0.01367   0.00000   0.00069   0.00093  51.85501
   X367      25.03887  -0.00510   0.00000  -0.00697  -0.00651  25.03236
   Y367      33.69382   0.00917   0.00000   0.00704   0.00658  33.70039
   Z367      53.23359  -0.00651   0.00000  -0.00896  -0.00875  53.22483
   X368      27.11757  -0.01784   0.00000  -0.01047  -0.01114  27.10643
   Y368      56.31384  -0.00661   0.00000  -0.01133  -0.01186  56.30198
   Z368      41.40390  -0.00414   0.00000  -0.00038  -0.00050  41.40340
   X369      27.06088   0.00416   0.00000   0.00574   0.00501  27.06589
   Y369      57.46657   0.00405   0.00000   0.00378   0.00327  57.46984
   Z369      42.80230   0.00176   0.00000  -0.00296  -0.00309  42.79920
   X370      28.85612   0.01731   0.00000   0.01423   0.01358  28.86970
   Y370      55.84141   0.00116   0.00000   0.00616   0.00571  55.84712
   Z370      41.27162   0.00371   0.00000   0.00648   0.00636  41.27798
   X371      47.99904  -0.00230   0.00000  -0.00160  -0.00223  47.99681
   Y371      55.48236   0.00177   0.00000   0.00571   0.00618  55.48854
   Z371      39.81653   0.02170   0.00000   0.01642   0.01628  39.83281
   X372      46.44947  -0.00972   0.00000  -0.00992  -0.01060  46.43887
   Y372      56.35163   0.00490   0.00000   0.00434   0.00473  56.35636
   Z372      39.51417  -0.00224   0.00000  -0.00199  -0.00214  39.51203
   X373      48.75493   0.00924   0.00000   0.00791   0.00729  48.76222
   Y373      55.31228  -0.00955   0.00000  -0.01737  -0.01688  55.29540
   Z373      38.19137  -0.01432   0.00000  -0.00349  -0.00362  38.18774
   X374      39.13623  -0.00715   0.00000  -0.00390  -0.00327  39.13296
   Y374      29.25296   0.01934   0.00000   0.01531   0.01504  29.26800
   Z374      18.27365  -0.01132   0.00000  -0.00422  -0.00397  18.26968
   X375      40.32676   0.00453   0.00000   0.00214   0.00280  40.32956
   Y375      28.62935  -0.00414   0.00000  -0.00344  -0.00367  28.62568
   Z375      17.06423  -0.00239   0.00000  -0.00049  -0.00023  17.06399
   X376      39.32520  -0.00015   0.00000  -0.00571  -0.00502  39.32018
   Y376      28.19471  -0.01573   0.00000  -0.01228  -0.01252  28.18220
   Z376      19.70984   0.01597   0.00000   0.00864   0.00891  19.71875
   X377      22.71451   0.00949   0.00000   0.00530   0.00561  22.72012
   Y377      36.60400   0.00344   0.00000   0.01195   0.01134  36.61534
   Z377      51.68401  -0.01231   0.00000  -0.01060  -0.01044  51.67357
   X378      21.03265  -0.00569   0.00000  -0.00060  -0.00025  21.03240
   Y378      35.99928  -0.00573   0.00000  -0.00800  -0.00869  35.99059
   Z378      51.40055   0.00098   0.00000   0.00226   0.00244  51.40299
   X379      22.63892  -0.00212   0.00000  -0.00217  -0.00190  22.63702
   Y379      37.41658   0.00438   0.00000   0.00208   0.00149  37.41807
   Z379      53.29028   0.01249   0.00000   0.01026   0.01042  53.30070
   X380      37.22760  -0.00207   0.00000  -0.00343  -0.00281  37.22480
   Y380      30.61356  -0.00078   0.00000  -0.00497  -0.00478  30.60879
   Z380      57.69334  -0.00408   0.00000   0.00077   0.00100  57.69434
   X381      37.81342  -0.00111   0.00000  -0.00234  -0.00166  37.81176
   Y381      29.34745  -0.00006   0.00000  -0.00096  -0.00076  29.34669
   Z381      56.52171  -0.00037   0.00000  -0.00158  -0.00133  56.52038
   X382      37.62445   0.00258   0.00000   0.00269   0.00335  37.62780
   Y382      29.93326  -0.00668   0.00000  -0.01005  -0.00981  29.92345
   Z382      59.31850   0.00761   0.00000   0.00658   0.00682  59.32532
   X383      27.13647   0.00092   0.00000   0.00257   0.00373  27.14019
   Y383      19.01064  -0.02078   0.00000  -0.02083  -0.02148  18.98916
   Z383      32.69226  -0.01212   0.00000  -0.00902  -0.00861  32.68365
   X384      26.15381   0.00376   0.00000   0.01194   0.01306  26.16687
   Y384      19.65315   0.00765   0.00000   0.00625   0.00557  19.65872
   Z384      34.07176   0.00815   0.00000   0.00348   0.00388  34.07565
   X385      28.55376  -0.00010   0.00000  -0.00856  -0.00746  28.54630
   Y385      20.14448   0.01082   0.00000   0.01173   0.01114  20.15562
   Z385      32.57888   0.00164   0.00000  -0.00034   0.00005  32.57893
         Item               Value     Threshold  Converged?
 Maximum Force            0.038825     0.000450     NO 
 RMS     Force            0.009544     0.000300     NO 
 Maximum Displacement     0.039549     0.001800     NO 
 RMS     Displacement     0.008823     0.001200     NO 
 Predicted change in Energy=-6.475441D-02
 GradGradGradGradGradGradGradGradGradGradGradGradGradGradGradGradGradGrad

 Leave Link  103 at Tue May 15 21:01:07 2018, MaxMem= 14763950080 cpu:      3030.2
 (Enter /cm/shared/gaussian/g09.e01/intel64-sandybridge/g09/l9999.exe)
 1\1\GINC-POPLE03\Force\RPBE1PBE\CC-pVDZ\Br1H256O128(1-)\M.PELUSO\15-Ma
 y-2018\0\\#p PBE1PBE/cc-pvDZ force Counterpoise=2 noSymm\\forces on ch
 loride comput - NWATER: 128\\-1,1\Br,20.,20.,20.\O,17.79,21.62,18.84\H
 ,18.51,21.05,19.12\H,17.48,22.03,19.64\O,17.12,20.44,21.95\H,16.6,19.7
 ,22.28\H,17.94,20.04,21.66\O,20.59,22.04,16.92\H,19.89,22.69,16.93\H,2
 0.32,21.4,17.59\O,21.92,18.28,22.61\H,21.11,17.92,22.25\H,22.22,18.9,2
 1.95\O,19.28,20.43,23.85\H,18.68,20.39,23.1\H,19.96,21.05,23.57\O,17.7
 2,16.57,20.47\H,18.48,16.88,19.98\H,17.66,15.64,20.24\O,23.91,20.23,21
 .85\H,23.7,20.95,22.45\H,23.31,20.34,21.12\O,16.26,19.73,17.9\H,16.67,
 20.55,18.15\H,16.78,19.05,18.35\O,16.47,23.93,18.46\H,16.76,24.42,19.2
 2\H,17.14,23.26,18.33\O,20.33,18.17,24.89\H,21.24,18.48,24.89\H,19.83,
 18.9,24.52\O,15.39,17.33,21.97\H,16.34,17.33,21.91\H,15.09,16.93,21.15
 \O,23.44,16.02,18.61\H,22.57,16.18,18.26\H,23.81,15.34,18.04\O,17.4,22
 .35,15.7\H,16.85,22.2,16.47\H,17.2,21.62,15.12\O,16.46,21.3,24.64\H,17
 .41,21.29,24.51\H,16.29,22.13,25.09\O,15.14,22.82,21.43\H,15.25,21.93,
 21.74\H,14.75,23.29,22.17\O,23.72,15.62,21.97\H,23.52,15.76,21.04\H,23
 .14,16.22,22.44\O,20.79,25.81,17.84\H,21.36,26.37,17.32\H,21.16,24.93,
 17.73\O,22.19,22.06,14.04\H,22.35,22.28,14.96\H,22.7,22.71,13.55\O,26.
 28,19.93,22.87\H,27.11,19.47,22.79\H,25.72,19.56,22.19\O,21.67,25.08,2
 3.04\H,22.02,25.5,22.25\H,21.13,25.76,23.45\O,13.7,19.41,17.12\H,14.4,
 18.94,17.59\H,14.17,19.95,16.48\O,13.9,22.83,19.19\H,14.6,23.08,18.58\
 H,14.29,22.94,20.06\O,16.28,17.86,14.07\H,16.67,17.98,14.93\H,16.56,18
 .62,13.56\O,25.33,22.9,16.92\H,25.16,23.21,17.81\H,25.73,23.65,16.48\O
 ,19.43,23.17,13.59\H,19.15,23.7,14.34\H,19.62,22.31,13.96\O,18.8,17.64
 ,26.81\H,19.51,17.87,26.21\H,18.12,17.27,26.25\O,13.86,20.69,23.84\H,1
 3.5,21.52,24.16\H,14.8,20.76,24.02\O,17.64,23.89,25.94\H,18.23,24.02,2
 5.19\H,17.81,24.64,26.51\O,25.12,25.64,20.4\H,24.3,26.04,20.68\H,25.01
 ,24.71,20.57\O,14.2,18.06,24.56\H,14.55,17.67,23.76\H,13.99,18.96,24.3
 2\O,17.68,13.32,20.01\H,17.05,12.99,19.38\H,17.36,13.01,20.86\O,16.78,
 19.94,27.43\H,17.52,19.45,27.79\H,17.01,20.11,26.52\O,25.51,21.21,14.3
 8\H,25.67,22.,14.89\H,24.61,20.97,14.57\O,21.18,12.51,19.08\H,21.98,13
 .02,18.95\H,21.,12.59,20.02\O,22.99,13.94,16.78\H,23.48,13.28,16.28\H,
 22.16,14.03,16.32\O,19.45,26.81,23.9\H,18.71,26.38,23.46\H,19.04,27.42
 ,24.51\O,16.94,25.86,23.42\H,16.46,25.95,22.59\H,16.3,25.49,24.03\O,15
 .88,26.4,20.2\H,15.18,25.74,20.19\H,15.55,27.1,19.64\O,12.04,20.95,18.
 88\H,12.58,20.28,18.47\H,12.66,21.6,19.2\O,21.2,20.7,11.8\H,20.31,20.4
 1,11.98\H,21.52,21.03,12.64\O,14.44,21.12,14.95\H,14.84,21.85,14.48\H,
 13.5,21.34,14.97\O,19.94,12.33,16.78\H,20.51,12.15,17.53\H,19.21,12.82
 ,17.14\O,15.92,16.8,26.22\H,15.34,17.19,25.57\H,15.58,17.12,27.06\O,12
 .04,17.77,22.63\H,11.77,18.67,22.83\H,12.78,17.87,22.03\O,24.5,13.,22.
 2\H,24.67,12.86,21.27\H,24.36,13.94,22.29\O,27.28,22.7,23.91\H,28.16,2
 2.39,23.72\H,26.69,22.04,23.54\O,17.11,20.02,12.62\H,16.7,20.87,12.75\
 H,16.95,19.82,11.7\O,22.58,27.43,21.48\H,23.39,27.83,21.81\H,21.88,27.
 93,21.91\O,14.14,24.19,23.65\H,14.68,24.18,24.44\H,13.59,24.97,23.75\O
 ,19.42,29.01,19.69\H,19.5,28.06,19.59\H,20.08,29.24,20.34\O,22.18,16.0
 5,27.25\H,22.06,15.56,28.07\H,21.46,16.68,27.23\O,13.95,25.14,16.26\H,
 14.09,24.82,17.15\H,13.09,25.56,16.29\O,20.96,13.74,14.79\H,20.3,13.8,
 14.1\H,20.62,13.07,15.39\O,19.57,27.74,15.17\H,20.17,27.45,14.48\H,19.
 66,27.07,15.85\O,16.19,15.42,13.07\H,16.61,16.05,13.65\H,16.25,15.81,1
 2.2\O,15.83,22.69,13.31\H,15.07,23.23,13.08\H,16.58,23.14,12.92\O,11.4
 ,20.12,23.45\H,12.26,20.5,23.65\H,10.83,20.42,24.16\O,22.43,25.07,27.4
 8\H,21.49,25.22,27.51\H,22.62,24.86,26.57\O,17.69,24.67,12.04\H,18.17,
 24.09,12.64\H,18.32,25.34,11.8\O,24.18,24.07,13.2\H,24.36,24.81,12.61\
 H,24.64,24.29,14.01\O,10.86,19.57,16.74\H,11.79,19.56,16.93\H,10.56,20
 .44,17.02\O,15.41,12.63,17.22\H,14.59,12.77,16.74\H,16.1,12.82,16.58\O
 ,15.79,22.46,28.18\H,16.,21.6,27.83\H,16.32,23.07,27.66\O,26.39,25.01,
 16.1\H,27.32,24.87,15.91\H,26.26,25.96,16.01\O,11.02,24.21,20.76\H,10.
 5,23.77,21.43\H,11.74,23.6,20.57\O,23.97,19.85,11.34\H,23.66,18.94,11.
 38\H,23.19,20.37,11.54\O,20.95,25.99,13.2\H,20.84,25.22,12.64\H,21.07,
 26.71,12.58\O,22.64,12.62,26.05\H,22.58,13.55,25.82\H,21.8,12.25,25.78
 \O,11.94,15.8,16.33\H,12.44,15.83,17.15\H,11.08,15.47,16.58\O,19.8,12.
 72,25.57\H,19.3,11.96,25.28\H,19.17,13.26,26.05\O,17.6,29.21,22.25\H,1
 7.41,28.33,22.59\H,17.67,29.09,21.31\O,24.83,14.98,27.22\H,24.16,15.62
 ,26.99\H,24.41,14.41,27.87\O,13.25,16.08,13.89\H,14.02,16.64,13.78\H,1
 2.75,16.5,14.58\O,12.75,15.95,25.86\H,12.26,15.6,25.11\H,13.32,16.61,2
 5.47\O,15.3,26.81,14.29\H,15.52,26.46,13.43\H,15.2,26.04,14.85\O,13.89
 ,26.96,22.87\H,14.19,27.11,21.98\H,13.58,27.82,23.17\O,19.58,18.81,30.
 01\H,19.56,18.15,30.71\H,19.36,18.31,29.22\O,26.61,27.68,19.37\H,26.3,
 26.98,19.94\H,27.48,27.39,19.08\O,25.01,27.19,23.42\H,25.38,27.9,23.95
 \H,25.71,26.96,22.82\O,22.17,29.04,16.15\H,21.61,28.75,16.88\H,22.9,29
 .49,16.57\O,24.09,26.63,14.57\H,24.81,27.24,14.38\H,23.33,27.2,14.67\O
 ,11.25,23.83,17.29\H,11.33,23.69,18.23\H,10.76,23.07,16.97\O,17.25,13.
 81,27.09\H,17.4,14.43,27.8\H,16.42,14.09,26.7\O,27.7,18.84,26.86\H,27.
 35,19.48,26.24\H,28.64,18.81,26.66\O,12.96,13.19,22.28\H,12.16,12.7,22
 .45\H,12.65,14.06,22.01\O,9.55,21.54,19.82\H,10.46,21.51,19.52\H,9.08,
 20.96,19.21\O,15.64,11.77,22.78\H,15.26,11.48,23.6\H,14.9,12.1,22.27\O
 ,17.16,28.95,15.56\H,16.6,28.32,15.1\H,17.96,28.47,15.75\O,23.61,10.8,
 23.52\H,23.78,11.57,22.96\H,23.58,11.16,24.41\O,18.65,18.91,9.81\H,18.
 73,18.23,10.48\H,19.54,19.06,9.51\O,12.36,22.48,25.66\H,11.48,22.84,25
 .54\H,12.52,22.54,26.6\O,25.48,23.62,28.03\H,25.49,22.66,28.06\H,24.57
 ,23.84,27.81\O,15.01,28.45,18.95\H,14.2,28.93,19.15\H,15.1,28.52,18.\O
 ,19.72,9.87,19.34\H,20.1,10.23,18.54\H,18.78,9.87,19.19\O,14.59,13.78,
 26.27\H,14.49,12.95,25.8\H,14.16,14.43,25.72\O,26.42,21.75,11.44\H,25.
 85,21.47,12.15\H,26.48,20.99,10.86\O,23.64,10.32,20.12\H,22.69,10.39,2
 0.25\H,23.86,9.45,20.43\O,27.96,23.69,26.31\H,27.77,23.44,25.41\H,27.1
 6,23.47,26.79\O,10.94,15.51,23.79\H,11.22,16.32,23.37\H,10.49,15.03,23
 .1\O,16.95,22.31,10.37\H,16.93,23.25,10.2\H,17.88,22.08,10.34\O,20.27,
 21.86,9.18\H,20.35,21.32,9.96\H,20.86,21.46,8.54\O,21.53,29.72,22.48\H
 ,21.74,30.01,23.37\H,21.42,30.54,21.99\O,12.39,26.71,20.3\H,11.9,27.31
 ,19.74\H,11.76,26.02,20.52\O,11.61,21.48,14.47\H,10.75,21.63,14.87\H,1
 1.62,20.55,14.28\O,17.2,9.8,21.75\H,16.72,10.59,22.\H,17.77,10.08,21.0
 4\O,17.16,10.15,18.72\H,17.32,10.43,17.82\H,16.49,9.47,18.64\O,19.12,1
 0.31,24.52\H,18.86,9.4,24.33\H,19.69,10.55,23.79\O,14.91,26.33,26.18\H
 ,13.96,26.23,26.21\H,15.21,26.05,27.05\O,26.58,14.43,13.33\H,26.57,14.
 69,14.25\H,26.72,15.24,12.85\O,13.37,13.09,15.\H,12.69,12.76,15.59\H,1
 3.3,14.04,15.07\O,20.53,13.5,11.99\H,20.18,12.62,11.84\H,21.41,13.36,1
 2.33\O,26.9,13.95,25.88\H,26.37,14.59,26.35\H,27.06,14.35,25.02\O,16.6
 6,30.62,19.45\H,16.62,30.66,18.5\H,16.43,29.71,19.66\O,15.42,12.47,13.
 06\H,16.01,13.2,13.23\H,14.6,12.71,13.5\O,12.64,23.96,13.14\H,12.51,23
 .02,13.26\H,12.01,24.21,12.47\O,8.91,19.42,22.07\H,9.77,19.38,22.5\H,9
 .03,20.05,21.36\O,25.65,17.77,29.29\H,26.55,17.68,29.61\H,25.6,17.19,2
 8.54\O,13.13,11.27,19.45\H,13.2,11.81,20.24\H,12.31,10.79,19.55\O,15.,
 20.48,30.28\H,14.87,20.62,29.34\H,15.62,21.16,30.54\O,17.01,10.56,15.9
 4\H,17.,9.63,16.14\H,16.43,10.65,15.18\O,17.62,20.81,31.2\H,17.28,20.2
 4,31.89\H,18.03,20.22,30.57\O,13.4,16.89,28.24\H,13.04,16.52,27.44\H,1
 3.25,17.83,28.17\O,14.35,29.8,21.91\H,14.32,30.41,22.65\H,15.27,29.55,
 21.84\O,25.4,29.36,21.07\H,24.58,29.82,20.91\H,25.8,29.27,20.21\O,20.7
 1,15.48,9.67\H,21.34,15.15,9.03\H,20.81,14.92,10.43\O,12.02,19.37,27.3
 5\H,11.13,19.05,27.2\H,11.98,19.8,28.2\O,19.7,16.2,30.53\H,20.01,15.53
 ,29.91\H,19.91,15.84,31.39\O,14.36,10.06,17.3\H,13.84,10.4,18.03\H,15.
 11,10.66,17.24\\Version=ES64L-G09RevE.01\HF=-9772.8849256\RMSD=1.233e-
 09\RMSF=9.544e-03\Dipole=-7.15179,10.0901061,-5.1635837\Quadrupole=-22
 5.2540874,751.1362219,-525.8821344,-1148.682498,-1902.8236793,-1180.27
 04223\PG=C01 [X(Br1H256O128)]\\@


 THE LENGTH OF A MEETING IS PROPORTIONAL TO THE
 SQUARE OF THE PARTICIPANTS.
 Job cpu time:       4 days 17 hours  0 minutes 26.5 seconds.
 File lengths (MBytes):  RWF=   7285 Int=      0 D2E=      0 Chk=   2411 Scr=      1
 Normal termination of Gaussian 09 at Tue May 15 21:01:50 2018.
