 Entering Gaussian System, Link 0=/cm/shared/gaussian/g09.e01/intel64-sandybridge/g09/g09
 Initial command:
 /cm/shared/gaussian/g09.e01/intel64-sandybridge/g09/l1.exe "/local/scratch/m.peluso/128_wat/order/Gau-27920.inp" -scrdir="/local/scratch/m.peluso/128_wat/order/"
 Entering Link 1 = /cm/shared/gaussian/g09.e01/intel64-sandybridge/g09/l1.exe PID=     27921.
  
 Copyright (c) 1988,1990,1992,1993,1995,1998,2003,2009,2015,
            Gaussian, Inc.  All Rights Reserved.
  
 This is part of the Gaussian(R) 09 program.  It is based on
 the Gaussian(R) 03 system (copyright 2003, Gaussian, Inc.),
 the Gaussian(R) 98 system (copyright 1998, Gaussian, Inc.),
 the Gaussian(R) 94 system (copyright 1995, Gaussian, Inc.),
 the Gaussian 92(TM) system (copyright 1992, Gaussian, Inc.),
 the Gaussian 90(TM) system (copyright 1990, Gaussian, Inc.),
 the Gaussian 88(TM) system (copyright 1988, Gaussian, Inc.),
 the Gaussian 86(TM) system (copyright 1986, Carnegie Mellon
 University), and the Gaussian 82(TM) system (copyright 1983,
 Carnegie Mellon University). Gaussian is a federally registered
 trademark of Gaussian, Inc.
  
 This software contains proprietary and confidential information,
 including trade secrets, belonging to Gaussian, Inc.
  
 This software is provided under written license and may be
 used, copied, transmitted, or stored only in accord with that
 written license.
  
 The following legend is applicable only to US Government
 contracts under FAR:
  
                    RESTRICTED RIGHTS LEGEND
  
 Use, reproduction and disclosure by the US Government is
 subject to restrictions as set forth in subparagraphs (a)
 and (c) of the Commercial Computer Software - Restricted
 Rights clause in FAR 52.227-19.
  
 Gaussian, Inc.
 340 Quinnipiac St., Bldg. 40, Wallingford CT 06492
  
  
 ---------------------------------------------------------------
 Warning -- This program may not be used in any manner that
 competes with the business of Gaussian, Inc. or will provide
 assistance to any competitor of Gaussian, Inc.  The licensee
 of this program is prohibited from giving any competitor of
 Gaussian, Inc. access to this program.  By using this program,
 the user acknowledges that Gaussian, Inc. is engaged in the
 business of creating and licensing software in the field of
 computational chemistry and represents and warrants to the
 licensee that it is not a competitor of Gaussian, Inc. and that
 it will not use this program in any manner prohibited above.
 ---------------------------------------------------------------
  

 Cite this work as:
 Gaussian 09, Revision E.01,
 M. J. Frisch, G. W. Trucks, H. B. Schlegel, G. E. Scuseria, 
 M. A. Robb, J. R. Cheeseman, G. Scalmani, V. Barone, B. Mennucci, 
 G. A. Petersson, H. Nakatsuji, M. Caricato, X. Li, H. P. Hratchian, 
 A. F. Izmaylov, J. Bloino, G. Zheng, J. L. Sonnenberg, M. Hada, 
 M. Ehara, K. Toyota, R. Fukuda, J. Hasegawa, M. Ishida, T. Nakajima, 
 Y. Honda, O. Kitao, H. Nakai, T. Vreven, J. A. Montgomery, Jr., 
 J. E. Peralta, F. Ogliaro, M. Bearpark, J. J. Heyd, E. Brothers, 
 K. N. Kudin, V. N. Staroverov, T. Keith, R. Kobayashi, J. Normand, 
 K. Raghavachari, A. Rendell, J. C. Burant, S. S. Iyengar, J. Tomasi, 
 M. Cossi, N. Rega, J. M. Millam, M. Klene, J. E. Knox, J. B. Cross, 
 V. Bakken, C. Adamo, J. Jaramillo, R. Gomperts, R. E. Stratmann, 
 O. Yazyev, A. J. Austin, R. Cammi, C. Pomelli, J. W. Ochterski, 
 R. L. Martin, K. Morokuma, V. G. Zakrzewski, G. A. Voth, 
 P. Salvador, J. J. Dannenberg, S. Dapprich, A. D. Daniels, 
 O. Farkas, J. B. Foresman, J. V. Ortiz, J. Cioslowski, 
 and D. J. Fox, Gaussian, Inc., Wallingford CT, 2013.
 
 ******************************************
 Gaussian 09:  ES64L-G09RevE.01 30-Nov-2015
                12-May-2018 
 ******************************************
 %Mem=110GB
 %NProcShared=64
 Will use up to   64 processors via shared memory.
 %chk=snap48.chk
 ----------------------------------------------
 #p PBE1PBE/cc-pvDZ force Counterpoise=2 noSymm
 ----------------------------------------------
 1/10=7,30=1,38=1,62=2/1,3;
 2/12=2,15=1,17=6,18=5,40=1/2;
 1/10=7,30=1,38=1,53=2,62=2,63=101/22;
 3/5=16,11=2,16=1,25=1,30=1,71=1,74=-13/1,2,3;
 4//1;
 5/5=2,38=5/2;
 6/7=2,8=2,9=2,10=2,28=1/1;
 7/7=1,29=1,30=1,33=-1/1,2,3,16;
 1/10=7,30=1,53=2,62=2,63=101/22;
 3/5=7,6=11,11=2,16=1,25=1,30=1,71=1,74=-13,82=7/1,2,3;
 4//1;
 5/5=2,38=5/2;
 6/7=2,8=2,9=2,10=2,28=1/1;
 7/7=1,29=1,30=1,33=-1/1,2,3,16;
 1/10=7,30=1,53=2,62=2,63=101/22(-5);
 7/9=1,29=1,44=-1/16;
 1/10=7,30=1,62=2/3;
 99//99;
 Leave Link    1 at Sat May 12 17:26:36 2018, MaxMem= 14763950080 cpu:         4.4
 (Enter /cm/shared/gaussian/g09.e01/intel64-sandybridge/g09/l101.exe)
 ---------------------------------------
 forces on chloride comput - NWATER: 128
 ---------------------------------------
 Symbolic Z-matrix:
 Charge = -1 Multiplicity = 1 in supermolecule
 Charge = -1 Multiplicity = 1 in fragment      1.
 Charge =  0 Multiplicity = 1 in fragment      2.
 Br(Fragment=1)        20.       20.       20. 
 O(Fragment=2)         18.       17.48     20.34 
 H(Fragment=2)         18.58     18.17     20.02 
 H(Fragment=2)         17.91     17.66     21.27 
 O(Fragment=2)         18.93     22.94     20.81 
 H(Fragment=2)         18.16     22.5      21.16 
 H(Fragment=2)         19.51     22.23     20.53 
 O(Fragment=2)         21.69     22.42     21.8 
 H(Fragment=2)         20.98     22.08     21.25 
 H(Fragment=2)         22.06     21.64     22.21 
 O(Fragment=2)         20.22     21.       16.7 
 H(Fragment=2)         20.52     21.14     17.6 
 H(Fragment=2)         19.47     20.41     16.79 
 O(Fragment=2)         15.65     20.34     21. 
 H(Fragment=2)         16.51     20.58     21.37 
 H(Fragment=2)         15.2      19.89     21.72 
 O(Fragment=2)         15.45     17.92     18.98 
 H(Fragment=2)         16.39     17.91     19.13 
 H(Fragment=2)         15.07     17.7      19.83 
 O(Fragment=2)         19.99     16.05     23.38 
 H(Fragment=2)         19.15     16.27     22.99 
 H(Fragment=2)         20.53     16.83     23.23 
 O(Fragment=2)         22.47     24.67     20.37 
 H(Fragment=2)         21.87     24.59     19.63 
 H(Fragment=2)         22.39     23.84     20.84 
 O(Fragment=2)         17.24     17.93     23.29 
 H(Fragment=2)         16.35     18.01     22.94 
 H(Fragment=2)         17.11     17.83     24.24 
 O(Fragment=2)         19.28     25.39     22.12 
 H(Fragment=2)         19.61     24.65     21.6 
 H(Fragment=2)         18.4      25.12     22.4 
 O(Fragment=2)         26.06     19.79     19.31 
 H(Fragment=2)         25.88     19.03     18.76 
 H(Fragment=2)         25.22     19.98     19.73 
 O(Fragment=2)         17.15     24.54     18. 
 H(Fragment=2)         16.49     24.66     17.33 
 H(Fragment=2)         17.97     24.48     17.52 
 O(Fragment=2)         14.52     23.1      19.55 
 H(Fragment=2)         15.19     23.78     19.53 
 H(Fragment=2)         14.94     22.35     19.97 
 O(Fragment=2)         14.95     21.55     16.63 
 H(Fragment=2)         14.       21.63     16.72 
 H(Fragment=2)         15.3      21.92     17.44 
 O(Fragment=2)         20.6      21.29     13.62 
 H(Fragment=2)         19.79     20.82     13.81 
 H(Fragment=2)         20.97     21.49     14.48 
 O(Fragment=2)         22.69     21.74     25.26 
 H(Fragment=2)         22.43     20.85     25.51 
 H(Fragment=2)         23.57     21.64     24.91 
 O(Fragment=2)         18.33     21.98     26.13 
 H(Fragment=2)         18.97     22.5      25.63 
 H(Fragment=2)         17.72     21.66     25.46 
 O(Fragment=2)         16.93     25.93     20.31 
 H(Fragment=2)         16.99     25.34     19.56 
 H(Fragment=2)         17.65     26.55     20.18 
 O(Fragment=2)         14.19     18.73     16.55 
 H(Fragment=2)         14.58     18.58     17.41 
 H(Fragment=2)         13.61     19.48     16.68 
 O(Fragment=2)         16.31     21.77     14.34 
 H(Fragment=2)         15.82     21.24     13.71 
 H(Fragment=2)         16.21     21.3      15.17 
 O(Fragment=2)         15.35     24.23     21.91 
 H(Fragment=2)         15.96     24.07     22.63 
 H(Fragment=2)         15.81     24.84     21.33 
 O(Fragment=2)         21.12     19.3      26.38 
 H(Fragment=2)         21.32     18.73     27.12 
 H(Fragment=2)         20.17     19.23     26.27 
 O(Fragment=2)         15.53     16.28     15.82 
 H(Fragment=2)         15.94     16.47     16.67 
 H(Fragment=2)         15.25     17.13     15.48 
 O(Fragment=2)         16.11     23.19     24.64 
 H(Fragment=2)         15.61     22.65     24.04 
 H(Fragment=2)         15.86     22.88     25.51 
 O(Fragment=2)         18.47     15.6      25.55 
 H(Fragment=2)         19.15     15.72     24.88 
 H(Fragment=2)         18.04     14.77     25.31 
 O(Fragment=2)         18.37     24.5      15.49 
 H(Fragment=2)         17.91     25.34     15.44 
 H(Fragment=2)         18.29     24.14     14.61 
 O(Fragment=2)         16.57     14.39     22.3 
 H(Fragment=2)         16.02     15.11     21.97 
 H(Fragment=2)         16.85     13.92     21.52 
 O(Fragment=2)         20.37     23.86     25.61 
 H(Fragment=2)         20.7      24.74     25.41 
 H(Fragment=2)         21.16     23.32     25.7 
 O(Fragment=2)         17.36     18.04     25.86 
 H(Fragment=2)         17.21     18.17     26.8 
 H(Fragment=2)         17.7      17.15     25.79 
 O(Fragment=2)         14.42     20.82     23.85 
 H(Fragment=2)         14.34     20.57     24.77 
 H(Fragment=2)         13.54     21.08     23.58 
 O(Fragment=2)         13.46     17.66     20.96 
 H(Fragment=2)         13.34     18.1      21.8 
 H(Fragment=2)         12.58     17.45     20.67 
 O(Fragment=2)         24.26     26.16     18.25 
 H(Fragment=2)         24.19     25.26     17.92 
 H(Fragment=2)         24.73     26.08     19.08 
 O(Fragment=2)         23.44     19.93     13.05 
 H(Fragment=2)         23.73     20.13     13.95 
 H(Fragment=2)         22.51     20.16     13.04 
 O(Fragment=2)         14.25     17.85     23.93 
 H(Fragment=2)         13.64     17.33     24.46 
 H(Fragment=2)         14.68     18.43     24.56 
 O(Fragment=2)         20.49     13.22     23.77 
 H(Fragment=2)         20.67     13.35     22.84 
 H(Fragment=2)         20.12     14.05     24.06 
 O(Fragment=2)         24.51     15.13     24.87 
 H(Fragment=2)         24.88     14.3      24.56 
 H(Fragment=2)         24.02     15.47     24.12 
 O(Fragment=2)         24.56     26.71     20.85 
 H(Fragment=2)         25.18     26.13     21.28 
 H(Fragment=2)         23.72     26.25     20.89 
 O(Fragment=2)         12.11     21.31     20.33 
 H(Fragment=2)         12.86     21.44     20.91 
 H(Fragment=2)         11.35     21.5      20.89 
 O(Fragment=2)         12.39     20.91     17.64 
 H(Fragment=2)         12.77     21.16     18.49 
 H(Fragment=2)         12.01     20.04     17.8 
 O(Fragment=2)         23.09     25.5      24.12 
 H(Fragment=2)         23.23     25.72     25.04 
 H(Fragment=2)         22.29     25.97     23.88 
 O(Fragment=2)         19.76     23.62     12.64 
 H(Fragment=2)         19.74     22.7      12.9 
 H(Fragment=2)         20.59     23.95     13. 
 O(Fragment=2)         26.31     24.58     19.46 
 H(Fragment=2)         26.82     24.78     18.68 
 H(Fragment=2)         26.65     23.74     19.76 
 O(Fragment=2)         20.45     28.17     22.01 
 H(Fragment=2)         19.81     28.13     22.72 
 H(Fragment=2)         20.94     27.35     22.08 
 O(Fragment=2)         26.31     25.42     22.69 
 H(Fragment=2)         26.3      25.98     23.47 
 H(Fragment=2)         25.58     24.81     22.83 
 O(Fragment=2)         22.36     24.37     13.16 
 H(Fragment=2)         22.79     24.55     14. 
 H(Fragment=2)         23.08     24.34     12.52 
 O(Fragment=2)         21.01     27.19     14.81 
 H(Fragment=2)         21.26     27.6      15.63 
 H(Fragment=2)         20.75     26.3      15.05 
 O(Fragment=2)         21.72     28.22     17.62 
 H(Fragment=2)         22.29     27.47     17.76 
 H(Fragment=2)         20.83     27.86     17.58 
 O(Fragment=2)         12.74     16.01     17.33 
 H(Fragment=2)         12.43     16.59     16.63 
 H(Fragment=2)         13.64     15.8      17.08 
 O(Fragment=2)         18.88     27.68     16.96 
 H(Fragment=2)         17.98     28.01     16.95 
 H(Fragment=2)         19.13     27.63     16.04 
 O(Fragment=2)         15.85     26.21     16.18 
 H(Fragment=2)         15.27     26.88     16.53 
 H(Fragment=2)         15.27     25.59     15.74 
 O(Fragment=2)         12.83     14.43     19.73 
 H(Fragment=2)         13.59     14.1      20.21 
 H(Fragment=2)         13.03     15.35     19.58 
 O(Fragment=2)         15.27     22.02     27.26 
 H(Fragment=2)         16.1      21.54     27.27 
 H(Fragment=2)         15.36     22.67     27.95 
 O(Fragment=2)         14.36     19.68     26.51 
 H(Fragment=2)         15.09     19.15     26.85 
 H(Fragment=2)         14.47     20.53     26.92 
 O(Fragment=2)         12.09     25.09     19.6 
 H(Fragment=2)         12.14     25.26     20.54 
 H(Fragment=2)         12.62     24.3      19.47 
 O(Fragment=2)         12.67     25.3      22.15 
 H(Fragment=2)         12.12     25.72     22.81 
 H(Fragment=2)         13.47     25.05     22.63 
 O(Fragment=2)         19.59     27.32     25.65 
 H(Fragment=2)         18.93     27.63     26.27 
 H(Fragment=2)         19.11     27.22     24.82 
 O(Fragment=2)         13.74     24.6      15.13 
 H(Fragment=2)         12.9      24.8      14.72 
 H(Fragment=2)         13.89     23.67     14.92 
 O(Fragment=2)         24.48     27.26     15.56 
 H(Fragment=2)         25.15     26.97     14.94 
 H(Fragment=2)         24.46     26.57     16.23 
 O(Fragment=2)         19.34     12.22     14.53 
 H(Fragment=2)         20.11     12.74     14.77 
 H(Fragment=2)         18.81     12.19     15.33 
 O(Fragment=2)         19.53     14.31     28.15 
 H(Fragment=2)         18.84     13.65     28.07 
 H(Fragment=2)         19.41     14.87     27.38 
 O(Fragment=2)         12.66     22.74     25.32 
 H(Fragment=2)         12.8      23.11     26.19 
 H(Fragment=2)         13.05     23.37     24.71 
 O(Fragment=2)         15.31     14.87     12.93 
 H(Fragment=2)         15.42     15.04     13.86 
 H(Fragment=2)         15.31     13.91     12.85 
 O(Fragment=2)         24.27     16.79     27.48 
 H(Fragment=2)         24.98     17.05     28.07 
 H(Fragment=2)         24.46     15.88     27.27 
 O(Fragment=2)         15.14     25.52     26.24 
 H(Fragment=2)         15.08     26.4      26.62 
 H(Fragment=2)         16.01     25.21     26.48 
 O(Fragment=2)         18.37     26.61     12.92 
 H(Fragment=2)         17.52     26.61     12.47 
 H(Fragment=2)         18.69     25.71     12.83 
 O(Fragment=2)         10.01     18.7      20.53 
 H(Fragment=2)         10.77     19.22     20.78 
 H(Fragment=2)         10.05     17.93     21.1 
 O(Fragment=2)         27.81     21.57     14.51 
 H(Fragment=2)         27.41     21.35     13.67 
 H(Fragment=2)         27.81     20.74     15. 
 O(Fragment=2)         24.81     17.95     11.42 
 H(Fragment=2)         24.19     18.59     11.77 
 H(Fragment=2)         24.35     17.12     11.47 
 O(Fragment=2)         11.27     23.38     16.89 
 H(Fragment=2)         11.74     23.72     17.65 
 H(Fragment=2)         11.46     22.45     16.9 
 O(Fragment=2)         21.64     25.08     28.61 
 H(Fragment=2)         21.95     25.       27.7 
 H(Fragment=2)         21.55     26.02     28.74 
 O(Fragment=2)         14.1      20.15     12.26 
 H(Fragment=2)         14.62     19.34     12.25 
 H(Fragment=2)         13.46     20.03     11.56 
 O(Fragment=2)         15.74     23.32     11.08 
 H(Fragment=2)         15.14     22.64     10.79 
 H(Fragment=2)         16.25     22.9      11.78 
 O(Fragment=2)         18.64     30.01     20.99 
 H(Fragment=2)         19.41     29.46     20.85 
 H(Fragment=2)         18.9      30.62     21.68 
 O(Fragment=2)         16.07     28.95     17.96 
 H(Fragment=2)         16.05     28.59     18.85 
 H(Fragment=2)         15.17     28.89     17.65 
 O(Fragment=2)         17.11     21.93     29.34 
 H(Fragment=2)         17.43     21.67     30.21 
 H(Fragment=2)         17.82     22.45     28.96 
 O(Fragment=2)         21.75     10.69     24.46 
 H(Fragment=2)         21.85     10.89     25.39 
 H(Fragment=2)         21.39     11.49     24.09 
 O(Fragment=2)         23.37     14.43     13.02 
 H(Fragment=2)         24.27     14.19     13.23 
 H(Fragment=2)         23.45     15.12     12.36 
 O(Fragment=2)         16.95     11.09     16. 
 H(Fragment=2)         16.48     11.75     15.49 
 H(Fragment=2)         17.01     11.47     16.88 
 O(Fragment=2)         16.36     17.07     11.64 
 H(Fragment=2)         17.15     16.66     11.28 
 H(Fragment=2)         15.93     16.37     12.13 
 O(Fragment=2)         16.1      17.55     28.41 
 H(Fragment=2)         15.76     18.15     29.08 
 H(Fragment=2)         16.4      16.79     28.91 
 O(Fragment=2)         15.91     13.74     26.18 
 H(Fragment=2)         15.43     14.16     26.89 
 H(Fragment=2)         15.28     13.68     25.46 
 O(Fragment=2)         15.28     11.36     22.92 
 H(Fragment=2)         16.15     11.75     23.03 
 H(Fragment=2)         14.7      12.1      22.74 
 O(Fragment=2)         18.97     9.88      18.21 
 H(Fragment=2)         18.77     9.34      17.44 
 H(Fragment=2)         19.52     10.59     17.86 
 O(Fragment=2)         22.26     13.57     28. 
 H(Fragment=2)         21.31     13.67     28.04 
 H(Fragment=2)         22.55     14.27     27.42 
 O(Fragment=2)         21.28     22.31     10.11 
 H(Fragment=2)         21.96     21.76     10.5 
 H(Fragment=2)         21.1      22.97     10.78 
 O(Fragment=2)         21.61     30.35     20.13 
 H(Fragment=2)         22.11     29.89     19.46 
 H(Fragment=2)         21.23     29.65     20.67 
 O(Fragment=2)         24.47     29.49     20.16 
 H(Fragment=2)         24.27     29.76     19.26 
 H(Fragment=2)         24.73     28.57     20.09 
 O(Fragment=2)         11.23     17.2      15.57 
 H(Fragment=2)         11.82     17.72     15.03 
 H(Fragment=2)         10.49     17.78     15.75 
 O(Fragment=2)         10.63     21.56     22.59 
 H(Fragment=2)         10.71     22.52     22.61 
 H(Fragment=2)         10.3      21.33     23.46 
 O(Fragment=2)         12.32     17.53     25.82 
 H(Fragment=2)         13.       17.39     26.48 
 H(Fragment=2)         12.11     18.46     25.88 
 O(Fragment=2)         10.83     16.59     22.08 
 H(Fragment=2)         10.71     15.78     21.59 
 H(Fragment=2)         10.76     16.33     23. 
 O(Fragment=2)         25.66     28.81     23.06 
 H(Fragment=2)         25.31     28.21     22.4 
 H(Fragment=2)         25.08     29.57     23.01 
 O(Fragment=2)         11.29     20.48     26.08 
 H(Fragment=2)         11.83     21.21     25.76 
 H(Fragment=2)         10.55     20.9      26.51 
 O(Fragment=2)         27.9      25.63     17.29 
 H(Fragment=2)         28.44     25.3      16.57 
 H(Fragment=2)         28.5      26.16     17.82 
 O(Fragment=2)         9.23      20.04     18.42 
 H(Fragment=2)         9.98      20.63     18.43 
 H(Fragment=2)         9.29      19.57     19.25 
 O(Fragment=2)         22.04     10.21     17.83 
 H(Fragment=2)         22.03     9.77      16.98 
 H(Fragment=2)         21.86     9.52      18.46 
 O(Fragment=2)         23.89     28.       25.95 
 H(Fragment=2)         23.74     28.12     25.01 
 H(Fragment=2)         23.2      28.53     26.36 
 O(Fragment=2)         20.       25.86     10.66 
 H(Fragment=2)         19.82     26.5      11.35 
 H(Fragment=2)         19.8      25.02     11.06 
 O(Fragment=2)         23.91     9.92      22.51 
 H(Fragment=2)         23.32     10.6      22.82 
 H(Fragment=2)         24.7      10.39     22.23 
 O(Fragment=2)         23.36     30.38     17.83 
 H(Fragment=2)         22.66     29.84     17.48 
 H(Fragment=2)         23.06     31.28     17.7 
 O(Fragment=2)         10.16     14.27     20.42 
 H(Fragment=2)         9.56      14.09     19.7 
 H(Fragment=2)         11.       14.46     20. 
 O(Fragment=2)         23.43     30.3      22.62 
 H(Fragment=2)         23.85     30.2      21.77 
 H(Fragment=2)         22.55     29.96     22.5 
 O(Fragment=2)         11.55     19.03     13.52 
 H(Fragment=2)         11.12     19.66     14.1 
 H(Fragment=2)         12.11     19.56     12.96 
 O(Fragment=2)         24.87     23.87     11.42 
 H(Fragment=2)         25.64     23.44     11.04 
 H(Fragment=2)         25.19     24.72     11.72 
 O(Fragment=2)         21.15     28.87     12.72 
 H(Fragment=2)         21.91     29.25     13.15 
 H(Fragment=2)         20.81     28.24     13.36 
 O(Fragment=2)         16.95     11.57     27.1 
 H(Fragment=2)         16.97     11.83     28.02 
 H(Fragment=2)         16.74     12.38     26.63 
 O(Fragment=2)         26.32     26.41     25.65 
 H(Fragment=2)         26.71     25.97     26.4 
 H(Fragment=2)         25.64     26.97     26.03 
 O(Fragment=2)         16.08     18.45     9.46 
 H(Fragment=2)         15.87     18.07     10.32 
 H(Fragment=2)         17.03     18.33     9.38 
 O(Fragment=2)         16.02     26.23     11.66 
 H(Fragment=2)         16.02     25.27     11.58 
 H(Fragment=2)         15.17     26.5      11.31 
 O(Fragment=2)         15.56     10.01     20.31 
 H(Fragment=2)         16.26     9.59      20.81 
 H(Fragment=2)         15.92     10.11     19.43 
 O(Fragment=2)         13.34     13.27     25.13 
 H(Fragment=2)         12.67     13.22     25.82 
 H(Fragment=2)         12.83     13.3      24.31 
 O(Fragment=2)         12.22     13.09     22.62 
 H(Fragment=2)         11.66     13.29     21.86 
 H(Fragment=2)         12.25     12.13     22.64 
 O(Fragment=2)         22.34     30.2      15.15 
 H(Fragment=2)         21.44     30.23     15.46 
 H(Fragment=2)         22.64     29.31     15.34 
 O(Fragment=2)         12.68     23.14     12.79 
 H(Fragment=2)         11.74     23.32     12.76 
 H(Fragment=2)         12.95     23.1      11.87 
 O(Fragment=2)         18.78     15.65     10.24 
 H(Fragment=2)         18.45     15.33     9.4 
 H(Fragment=2)         19.7      15.86     10.07 
 O(Fragment=2)         25.75     29.51     16.43 
 H(Fragment=2)         25.4      28.62     16.47 
 H(Fragment=2)         25.03     30.07     16.73 
 O(Fragment=2)         17.8      31.34     18.32 
 H(Fragment=2)         16.89     31.25     18.04 
 H(Fragment=2)         18.       30.51     18.75 
 O(Fragment=2)         18.77     9.37      21.26 
 H(Fragment=2)         18.6      9.12      20.35 
 H(Fragment=2)         19.71     9.27      21.37 
 O(Fragment=2)         25.7      10.64     17.84 
 H(Fragment=2)         24.81     10.64     17.49 
 H(Fragment=2)         26.21     11.14     17.21 
 O(Fragment=2)         28.96     19.97     26.63 
 H(Fragment=2)         28.75     19.09     26.32 
 H(Fragment=2)         29.9      20.06     26.47 
 O(Fragment=2)         18.29     29.33     14.66 
 H(Fragment=2)         18.56     28.83     13.88 
 H(Fragment=2)         17.33     29.26     14.66 
 O(Fragment=2)         9.84      14.78     16.99 
 H(Fragment=2)         9.4       15.38     16.38 
 H(Fragment=2)         10.61     15.27     17.28 
 O(Fragment=2)         30.03     23.78     17.53 
 H(Fragment=2)         30.27     22.89     17.78 
 H(Fragment=2)         30.29     24.32     18.28 
 O(Fragment=2)         26.09     10.98     20.84 
 H(Fragment=2)         26.37     11.09     19.93 
 H(Fragment=2)         25.71     10.1      20.87 
 O(Fragment=2)         17.74     13.15     10.68 
 H(Fragment=2)         16.84     13.18     11.02 
 H(Fragment=2)         18.19     13.86     11.15 
 O(Fragment=2)         11.03     25.28     14.82 
 H(Fragment=2)         11.19     24.62     15.49 
 H(Fragment=2)         10.09     25.21     14.63 
 O(Fragment=2)         10.07     16.17     24.9 
 H(Fragment=2)         10.97     16.48     25.04 
 H(Fragment=2)         9.53      16.8      25.37 
 O(Fragment=2)         13.64     28.32     16.67 
 H(Fragment=2)         13.09     27.72     16.16 
 H(Fragment=2)         14.01     28.92     16.02 
 
 NAtoms=    385 NQM=      385 NQMF=       0 NMMI=      0 NMMIF=      0
                NMic=       0 NMicF=      0.
                    Isotopes and Nuclear Properties:
 (Nuclear quadrupole moments (NQMom) in fm**2, nuclear magnetic moments (NMagM)
  in nuclear magnetons)

  Atom         1           2           3           4           5           6           7           8           9          10
 IAtWgt=          79          16           1           1          16           1           1          16           1           1
 AtmWgt=  78.9183361  15.9949146   1.0078250   1.0078250  15.9949146   1.0078250   1.0078250  15.9949146   1.0078250   1.0078250
 NucSpn=           3           0           1           1           0           1           1           0           1           1
 AtZEff=   0.0000000   0.0000000   0.0000000   0.0000000   0.0000000   0.0000000   0.0000000   0.0000000   0.0000000   0.0000000
 NQMom=   31.3000000   0.0000000   0.0000000   0.0000000   0.0000000   0.0000000   0.0000000   0.0000000   0.0000000   0.0000000
 NMagM=    2.1063990   0.0000000   2.7928460   2.7928460   0.0000000   2.7928460   2.7928460   0.0000000   2.7928460   2.7928460
 AtZNuc=  35.0000000   8.0000000   1.0000000   1.0000000   8.0000000   1.0000000   1.0000000   8.0000000   1.0000000   1.0000000

  Atom        11          12          13          14          15          16          17          18          19          20
 IAtWgt=          16           1           1          16           1           1          16           1           1          16
 AtmWgt=  15.9949146   1.0078250   1.0078250  15.9949146   1.0078250   1.0078250  15.9949146   1.0078250   1.0078250  15.9949146
 NucSpn=           0           1           1           0           1           1           0           1           1           0
 AtZEff=   0.0000000   0.0000000   0.0000000   0.0000000   0.0000000   0.0000000   0.0000000   0.0000000   0.0000000   0.0000000
 NQMom=    0.0000000   0.0000000   0.0000000   0.0000000   0.0000000   0.0000000   0.0000000   0.0000000   0.0000000   0.0000000
 NMagM=    0.0000000   2.7928460   2.7928460   0.0000000   2.7928460   2.7928460   0.0000000   2.7928460   2.7928460   0.0000000
 AtZNuc=   8.0000000   1.0000000   1.0000000   8.0000000   1.0000000   1.0000000   8.0000000   1.0000000   1.0000000   8.0000000

  Atom        21          22          23          24          25          26          27          28          29          30
 IAtWgt=           1           1          16           1           1          16           1           1          16           1
 AtmWgt=   1.0078250   1.0078250  15.9949146   1.0078250   1.0078250  15.9949146   1.0078250   1.0078250  15.9949146   1.0078250
 NucSpn=           1           1           0           1           1           0           1           1           0           1
 AtZEff=   0.0000000   0.0000000   0.0000000   0.0000000   0.0000000   0.0000000   0.0000000   0.0000000   0.0000000   0.0000000
 NQMom=    0.0000000   0.0000000   0.0000000   0.0000000   0.0000000   0.0000000   0.0000000   0.0000000   0.0000000   0.0000000
 NMagM=    2.7928460   2.7928460   0.0000000   2.7928460   2.7928460   0.0000000   2.7928460   2.7928460   0.0000000   2.7928460
 AtZNuc=   1.0000000   1.0000000   8.0000000   1.0000000   1.0000000   8.0000000   1.0000000   1.0000000   8.0000000   1.0000000

  Atom        31          32          33          34          35          36          37          38          39          40
 IAtWgt=           1          16           1           1          16           1           1          16           1           1
 AtmWgt=   1.0078250  15.9949146   1.0078250   1.0078250  15.9949146   1.0078250   1.0078250  15.9949146   1.0078250   1.0078250
 NucSpn=           1           0           1           1           0           1           1           0           1           1
 AtZEff=   0.0000000   0.0000000   0.0000000   0.0000000   0.0000000   0.0000000   0.0000000   0.0000000   0.0000000   0.0000000
 NQMom=    0.0000000   0.0000000   0.0000000   0.0000000   0.0000000   0.0000000   0.0000000   0.0000000   0.0000000   0.0000000
 NMagM=    2.7928460   0.0000000   2.7928460   2.7928460   0.0000000   2.7928460   2.7928460   0.0000000   2.7928460   2.7928460
 AtZNuc=   1.0000000   8.0000000   1.0000000   1.0000000   8.0000000   1.0000000   1.0000000   8.0000000   1.0000000   1.0000000

  Atom        41          42          43          44          45          46          47          48          49          50
 IAtWgt=          16           1           1          16           1           1          16           1           1          16
 AtmWgt=  15.9949146   1.0078250   1.0078250  15.9949146   1.0078250   1.0078250  15.9949146   1.0078250   1.0078250  15.9949146
 NucSpn=           0           1           1           0           1           1           0           1           1           0
 AtZEff=   0.0000000   0.0000000   0.0000000   0.0000000   0.0000000   0.0000000   0.0000000   0.0000000   0.0000000   0.0000000
 NQMom=    0.0000000   0.0000000   0.0000000   0.0000000   0.0000000   0.0000000   0.0000000   0.0000000   0.0000000   0.0000000
 NMagM=    0.0000000   2.7928460   2.7928460   0.0000000   2.7928460   2.7928460   0.0000000   2.7928460   2.7928460   0.0000000
 AtZNuc=   8.0000000   1.0000000   1.0000000   8.0000000   1.0000000   1.0000000   8.0000000   1.0000000   1.0000000   8.0000000

  Atom        51          52          53          54          55          56          57          58          59          60
 IAtWgt=           1           1          16           1           1          16           1           1          16           1
 AtmWgt=   1.0078250   1.0078250  15.9949146   1.0078250   1.0078250  15.9949146   1.0078250   1.0078250  15.9949146   1.0078250
 NucSpn=           1           1           0           1           1           0           1           1           0           1
 AtZEff=   0.0000000   0.0000000   0.0000000   0.0000000   0.0000000   0.0000000   0.0000000   0.0000000   0.0000000   0.0000000
 NQMom=    0.0000000   0.0000000   0.0000000   0.0000000   0.0000000   0.0000000   0.0000000   0.0000000   0.0000000   0.0000000
 NMagM=    2.7928460   2.7928460   0.0000000   2.7928460   2.7928460   0.0000000   2.7928460   2.7928460   0.0000000   2.7928460
 AtZNuc=   1.0000000   1.0000000   8.0000000   1.0000000   1.0000000   8.0000000   1.0000000   1.0000000   8.0000000   1.0000000

  Atom        61          62          63          64          65          66          67          68          69          70
 IAtWgt=           1          16           1           1          16           1           1          16           1           1
 AtmWgt=   1.0078250  15.9949146   1.0078250   1.0078250  15.9949146   1.0078250   1.0078250  15.9949146   1.0078250   1.0078250
 NucSpn=           1           0           1           1           0           1           1           0           1           1
 AtZEff=   0.0000000   0.0000000   0.0000000   0.0000000   0.0000000   0.0000000   0.0000000   0.0000000   0.0000000   0.0000000
 NQMom=    0.0000000   0.0000000   0.0000000   0.0000000   0.0000000   0.0000000   0.0000000   0.0000000   0.0000000   0.0000000
 NMagM=    2.7928460   0.0000000   2.7928460   2.7928460   0.0000000   2.7928460   2.7928460   0.0000000   2.7928460   2.7928460
 AtZNuc=   1.0000000   8.0000000   1.0000000   1.0000000   8.0000000   1.0000000   1.0000000   8.0000000   1.0000000   1.0000000

  Atom        71          72          73          74          75          76          77          78          79          80
 IAtWgt=          16           1           1          16           1           1          16           1           1          16
 AtmWgt=  15.9949146   1.0078250   1.0078250  15.9949146   1.0078250   1.0078250  15.9949146   1.0078250   1.0078250  15.9949146
 NucSpn=           0           1           1           0           1           1           0           1           1           0
 AtZEff=   0.0000000   0.0000000   0.0000000   0.0000000   0.0000000   0.0000000   0.0000000   0.0000000   0.0000000   0.0000000
 NQMom=    0.0000000   0.0000000   0.0000000   0.0000000   0.0000000   0.0000000   0.0000000   0.0000000   0.0000000   0.0000000
 NMagM=    0.0000000   2.7928460   2.7928460   0.0000000   2.7928460   2.7928460   0.0000000   2.7928460   2.7928460   0.0000000
 AtZNuc=   8.0000000   1.0000000   1.0000000   8.0000000   1.0000000   1.0000000   8.0000000   1.0000000   1.0000000   8.0000000

  Atom        81          82          83          84          85          86          87          88          89          90
 IAtWgt=           1           1          16           1           1          16           1           1          16           1
 AtmWgt=   1.0078250   1.0078250  15.9949146   1.0078250   1.0078250  15.9949146   1.0078250   1.0078250  15.9949146   1.0078250
 NucSpn=           1           1           0           1           1           0           1           1           0           1
 AtZEff=   0.0000000   0.0000000   0.0000000   0.0000000   0.0000000   0.0000000   0.0000000   0.0000000   0.0000000   0.0000000
 NQMom=    0.0000000   0.0000000   0.0000000   0.0000000   0.0000000   0.0000000   0.0000000   0.0000000   0.0000000   0.0000000
 NMagM=    2.7928460   2.7928460   0.0000000   2.7928460   2.7928460   0.0000000   2.7928460   2.7928460   0.0000000   2.7928460
 AtZNuc=   1.0000000   1.0000000   8.0000000   1.0000000   1.0000000   8.0000000   1.0000000   1.0000000   8.0000000   1.0000000

  Atom        91          92          93          94          95          96          97          98          99         100
 IAtWgt=           1          16           1           1          16           1           1          16           1           1
 AtmWgt=   1.0078250  15.9949146   1.0078250   1.0078250  15.9949146   1.0078250   1.0078250  15.9949146   1.0078250   1.0078250
 NucSpn=           1           0           1           1           0           1           1           0           1           1
 AtZEff=   0.0000000   0.0000000   0.0000000   0.0000000   0.0000000   0.0000000   0.0000000   0.0000000   0.0000000   0.0000000
 NQMom=    0.0000000   0.0000000   0.0000000   0.0000000   0.0000000   0.0000000   0.0000000   0.0000000   0.0000000   0.0000000
 NMagM=    2.7928460   0.0000000   2.7928460   2.7928460   0.0000000   2.7928460   2.7928460   0.0000000   2.7928460   2.7928460
 AtZNuc=   1.0000000   8.0000000   1.0000000   1.0000000   8.0000000   1.0000000   1.0000000   8.0000000   1.0000000   1.0000000

  Atom       101         102         103         104         105         106         107         108         109         110
 IAtWgt=          16           1           1          16           1           1          16           1           1          16
 AtmWgt=  15.9949146   1.0078250   1.0078250  15.9949146   1.0078250   1.0078250  15.9949146   1.0078250   1.0078250  15.9949146
 NucSpn=           0           1           1           0           1           1           0           1           1           0
 AtZEff=   0.0000000   0.0000000   0.0000000   0.0000000   0.0000000   0.0000000   0.0000000   0.0000000   0.0000000   0.0000000
 NQMom=    0.0000000   0.0000000   0.0000000   0.0000000   0.0000000   0.0000000   0.0000000   0.0000000   0.0000000   0.0000000
 NMagM=    0.0000000   2.7928460   2.7928460   0.0000000   2.7928460   2.7928460   0.0000000   2.7928460   2.7928460   0.0000000
 AtZNuc=   8.0000000   1.0000000   1.0000000   8.0000000   1.0000000   1.0000000   8.0000000   1.0000000   1.0000000   8.0000000

  Atom       111         112         113         114         115         116         117         118         119         120
 IAtWgt=           1           1          16           1           1          16           1           1          16           1
 AtmWgt=   1.0078250   1.0078250  15.9949146   1.0078250   1.0078250  15.9949146   1.0078250   1.0078250  15.9949146   1.0078250
 NucSpn=           1           1           0           1           1           0           1           1           0           1
 AtZEff=   0.0000000   0.0000000   0.0000000   0.0000000   0.0000000   0.0000000   0.0000000   0.0000000   0.0000000   0.0000000
 NQMom=    0.0000000   0.0000000   0.0000000   0.0000000   0.0000000   0.0000000   0.0000000   0.0000000   0.0000000   0.0000000
 NMagM=    2.7928460   2.7928460   0.0000000   2.7928460   2.7928460   0.0000000   2.7928460   2.7928460   0.0000000   2.7928460
 AtZNuc=   1.0000000   1.0000000   8.0000000   1.0000000   1.0000000   8.0000000   1.0000000   1.0000000   8.0000000   1.0000000

  Atom       121         122         123         124         125         126         127         128         129         130
 IAtWgt=           1          16           1           1          16           1           1          16           1           1
 AtmWgt=   1.0078250  15.9949146   1.0078250   1.0078250  15.9949146   1.0078250   1.0078250  15.9949146   1.0078250   1.0078250
 NucSpn=           1           0           1           1           0           1           1           0           1           1
 AtZEff=   0.0000000   0.0000000   0.0000000   0.0000000   0.0000000   0.0000000   0.0000000   0.0000000   0.0000000   0.0000000
 NQMom=    0.0000000   0.0000000   0.0000000   0.0000000   0.0000000   0.0000000   0.0000000   0.0000000   0.0000000   0.0000000
 NMagM=    2.7928460   0.0000000   2.7928460   2.7928460   0.0000000   2.7928460   2.7928460   0.0000000   2.7928460   2.7928460
 AtZNuc=   1.0000000   8.0000000   1.0000000   1.0000000   8.0000000   1.0000000   1.0000000   8.0000000   1.0000000   1.0000000

  Atom       131         132         133         134         135         136         137         138         139         140
 IAtWgt=          16           1           1          16           1           1          16           1           1          16
 AtmWgt=  15.9949146   1.0078250   1.0078250  15.9949146   1.0078250   1.0078250  15.9949146   1.0078250   1.0078250  15.9949146
 NucSpn=           0           1           1           0           1           1           0           1           1           0
 AtZEff=   0.0000000   0.0000000   0.0000000   0.0000000   0.0000000   0.0000000   0.0000000   0.0000000   0.0000000   0.0000000
 NQMom=    0.0000000   0.0000000   0.0000000   0.0000000   0.0000000   0.0000000   0.0000000   0.0000000   0.0000000   0.0000000
 NMagM=    0.0000000   2.7928460   2.7928460   0.0000000   2.7928460   2.7928460   0.0000000   2.7928460   2.7928460   0.0000000
 AtZNuc=   8.0000000   1.0000000   1.0000000   8.0000000   1.0000000   1.0000000   8.0000000   1.0000000   1.0000000   8.0000000

  Atom       141         142         143         144         145         146         147         148         149         150
 IAtWgt=           1           1          16           1           1          16           1           1          16           1
 AtmWgt=   1.0078250   1.0078250  15.9949146   1.0078250   1.0078250  15.9949146   1.0078250   1.0078250  15.9949146   1.0078250
 NucSpn=           1           1           0           1           1           0           1           1           0           1
 AtZEff=   0.0000000   0.0000000   0.0000000   0.0000000   0.0000000   0.0000000   0.0000000   0.0000000   0.0000000   0.0000000
 NQMom=    0.0000000   0.0000000   0.0000000   0.0000000   0.0000000   0.0000000   0.0000000   0.0000000   0.0000000   0.0000000
 NMagM=    2.7928460   2.7928460   0.0000000   2.7928460   2.7928460   0.0000000   2.7928460   2.7928460   0.0000000   2.7928460
 AtZNuc=   1.0000000   1.0000000   8.0000000   1.0000000   1.0000000   8.0000000   1.0000000   1.0000000   8.0000000   1.0000000

  Atom       151         152         153         154         155         156         157         158         159         160
 IAtWgt=           1          16           1           1          16           1           1          16           1           1
 AtmWgt=   1.0078250  15.9949146   1.0078250   1.0078250  15.9949146   1.0078250   1.0078250  15.9949146   1.0078250   1.0078250
 NucSpn=           1           0           1           1           0           1           1           0           1           1
 AtZEff=   0.0000000   0.0000000   0.0000000   0.0000000   0.0000000   0.0000000   0.0000000   0.0000000   0.0000000   0.0000000
 NQMom=    0.0000000   0.0000000   0.0000000   0.0000000   0.0000000   0.0000000   0.0000000   0.0000000   0.0000000   0.0000000
 NMagM=    2.7928460   0.0000000   2.7928460   2.7928460   0.0000000   2.7928460   2.7928460   0.0000000   2.7928460   2.7928460
 AtZNuc=   1.0000000   8.0000000   1.0000000   1.0000000   8.0000000   1.0000000   1.0000000   8.0000000   1.0000000   1.0000000

  Atom       161         162         163         164         165         166         167         168         169         170
 IAtWgt=          16           1           1          16           1           1          16           1           1          16
 AtmWgt=  15.9949146   1.0078250   1.0078250  15.9949146   1.0078250   1.0078250  15.9949146   1.0078250   1.0078250  15.9949146
 NucSpn=           0           1           1           0           1           1           0           1           1           0
 AtZEff=   0.0000000   0.0000000   0.0000000   0.0000000   0.0000000   0.0000000   0.0000000   0.0000000   0.0000000   0.0000000
 NQMom=    0.0000000   0.0000000   0.0000000   0.0000000   0.0000000   0.0000000   0.0000000   0.0000000   0.0000000   0.0000000
 NMagM=    0.0000000   2.7928460   2.7928460   0.0000000   2.7928460   2.7928460   0.0000000   2.7928460   2.7928460   0.0000000
 AtZNuc=   8.0000000   1.0000000   1.0000000   8.0000000   1.0000000   1.0000000   8.0000000   1.0000000   1.0000000   8.0000000

  Atom       171         172         173         174         175         176         177         178         179         180
 IAtWgt=           1           1          16           1           1          16           1           1          16           1
 AtmWgt=   1.0078250   1.0078250  15.9949146   1.0078250   1.0078250  15.9949146   1.0078250   1.0078250  15.9949146   1.0078250
 NucSpn=           1           1           0           1           1           0           1           1           0           1
 AtZEff=   0.0000000   0.0000000   0.0000000   0.0000000   0.0000000   0.0000000   0.0000000   0.0000000   0.0000000   0.0000000
 NQMom=    0.0000000   0.0000000   0.0000000   0.0000000   0.0000000   0.0000000   0.0000000   0.0000000   0.0000000   0.0000000
 NMagM=    2.7928460   2.7928460   0.0000000   2.7928460   2.7928460   0.0000000   2.7928460   2.7928460   0.0000000   2.7928460
 AtZNuc=   1.0000000   1.0000000   8.0000000   1.0000000   1.0000000   8.0000000   1.0000000   1.0000000   8.0000000   1.0000000

  Atom       181         182         183         184         185         186         187         188         189         190
 IAtWgt=           1          16           1           1          16           1           1          16           1           1
 AtmWgt=   1.0078250  15.9949146   1.0078250   1.0078250  15.9949146   1.0078250   1.0078250  15.9949146   1.0078250   1.0078250
 NucSpn=           1           0           1           1           0           1           1           0           1           1
 AtZEff=   0.0000000   0.0000000   0.0000000   0.0000000   0.0000000   0.0000000   0.0000000   0.0000000   0.0000000   0.0000000
 NQMom=    0.0000000   0.0000000   0.0000000   0.0000000   0.0000000   0.0000000   0.0000000   0.0000000   0.0000000   0.0000000
 NMagM=    2.7928460   0.0000000   2.7928460   2.7928460   0.0000000   2.7928460   2.7928460   0.0000000   2.7928460   2.7928460
 AtZNuc=   1.0000000   8.0000000   1.0000000   1.0000000   8.0000000   1.0000000   1.0000000   8.0000000   1.0000000   1.0000000

  Atom       191         192         193         194         195         196         197         198         199         200
 IAtWgt=          16           1           1          16           1           1          16           1           1          16
 AtmWgt=  15.9949146   1.0078250   1.0078250  15.9949146   1.0078250   1.0078250  15.9949146   1.0078250   1.0078250  15.9949146
 NucSpn=           0           1           1           0           1           1           0           1           1           0
 AtZEff=   0.0000000   0.0000000   0.0000000   0.0000000   0.0000000   0.0000000   0.0000000   0.0000000   0.0000000   0.0000000
 NQMom=    0.0000000   0.0000000   0.0000000   0.0000000   0.0000000   0.0000000   0.0000000   0.0000000   0.0000000   0.0000000
 NMagM=    0.0000000   2.7928460   2.7928460   0.0000000   2.7928460   2.7928460   0.0000000   2.7928460   2.7928460   0.0000000
 AtZNuc=   8.0000000   1.0000000   1.0000000   8.0000000   1.0000000   1.0000000   8.0000000   1.0000000   1.0000000   8.0000000

  Atom       201         202         203         204         205         206         207         208         209         210
 IAtWgt=           1           1          16           1           1          16           1           1          16           1
 AtmWgt=   1.0078250   1.0078250  15.9949146   1.0078250   1.0078250  15.9949146   1.0078250   1.0078250  15.9949146   1.0078250
 NucSpn=           1           1           0           1           1           0           1           1           0           1
 AtZEff=   0.0000000   0.0000000   0.0000000   0.0000000   0.0000000   0.0000000   0.0000000   0.0000000   0.0000000   0.0000000
 NQMom=    0.0000000   0.0000000   0.0000000   0.0000000   0.0000000   0.0000000   0.0000000   0.0000000   0.0000000   0.0000000
 NMagM=    2.7928460   2.7928460   0.0000000   2.7928460   2.7928460   0.0000000   2.7928460   2.7928460   0.0000000   2.7928460
 AtZNuc=   1.0000000   1.0000000   8.0000000   1.0000000   1.0000000   8.0000000   1.0000000   1.0000000   8.0000000   1.0000000

  Atom       211         212         213         214         215         216         217         218         219         220
 IAtWgt=           1          16           1           1          16           1           1          16           1           1
 AtmWgt=   1.0078250  15.9949146   1.0078250   1.0078250  15.9949146   1.0078250   1.0078250  15.9949146   1.0078250   1.0078250
 NucSpn=           1           0           1           1           0           1           1           0           1           1
 AtZEff=   0.0000000   0.0000000   0.0000000   0.0000000   0.0000000   0.0000000   0.0000000   0.0000000   0.0000000   0.0000000
 NQMom=    0.0000000   0.0000000   0.0000000   0.0000000   0.0000000   0.0000000   0.0000000   0.0000000   0.0000000   0.0000000
 NMagM=    2.7928460   0.0000000   2.7928460   2.7928460   0.0000000   2.7928460   2.7928460   0.0000000   2.7928460   2.7928460
 AtZNuc=   1.0000000   8.0000000   1.0000000   1.0000000   8.0000000   1.0000000   1.0000000   8.0000000   1.0000000   1.0000000

  Atom       221         222         223         224         225         226         227         228         229         230
 IAtWgt=          16           1           1          16           1           1          16           1           1          16
 AtmWgt=  15.9949146   1.0078250   1.0078250  15.9949146   1.0078250   1.0078250  15.9949146   1.0078250   1.0078250  15.9949146
 NucSpn=           0           1           1           0           1           1           0           1           1           0
 AtZEff=   0.0000000   0.0000000   0.0000000   0.0000000   0.0000000   0.0000000   0.0000000   0.0000000   0.0000000   0.0000000
 NQMom=    0.0000000   0.0000000   0.0000000   0.0000000   0.0000000   0.0000000   0.0000000   0.0000000   0.0000000   0.0000000
 NMagM=    0.0000000   2.7928460   2.7928460   0.0000000   2.7928460   2.7928460   0.0000000   2.7928460   2.7928460   0.0000000
 AtZNuc=   8.0000000   1.0000000   1.0000000   8.0000000   1.0000000   1.0000000   8.0000000   1.0000000   1.0000000   8.0000000

  Atom       231         232         233         234         235         236         237         238         239         240
 IAtWgt=           1           1          16           1           1          16           1           1          16           1
 AtmWgt=   1.0078250   1.0078250  15.9949146   1.0078250   1.0078250  15.9949146   1.0078250   1.0078250  15.9949146   1.0078250
 NucSpn=           1           1           0           1           1           0           1           1           0           1
 AtZEff=   0.0000000   0.0000000   0.0000000   0.0000000   0.0000000   0.0000000   0.0000000   0.0000000   0.0000000   0.0000000
 NQMom=    0.0000000   0.0000000   0.0000000   0.0000000   0.0000000   0.0000000   0.0000000   0.0000000   0.0000000   0.0000000
 NMagM=    2.7928460   2.7928460   0.0000000   2.7928460   2.7928460   0.0000000   2.7928460   2.7928460   0.0000000   2.7928460
 AtZNuc=   1.0000000   1.0000000   8.0000000   1.0000000   1.0000000   8.0000000   1.0000000   1.0000000   8.0000000   1.0000000

  Atom       241         242         243         244         245         246         247         248         249         250
 IAtWgt=           1          16           1           1          16           1           1          16           1           1
 AtmWgt=   1.0078250  15.9949146   1.0078250   1.0078250  15.9949146   1.0078250   1.0078250  15.9949146   1.0078250   1.0078250
 NucSpn=           1           0           1           1           0           1           1           0           1           1
 AtZEff=   0.0000000   0.0000000   0.0000000   0.0000000   0.0000000   0.0000000   0.0000000   0.0000000   0.0000000   0.0000000
 NQMom=    0.0000000   0.0000000   0.0000000   0.0000000   0.0000000   0.0000000   0.0000000   0.0000000   0.0000000   0.0000000
 NMagM=    2.7928460   0.0000000   2.7928460   2.7928460   0.0000000   2.7928460   2.7928460   0.0000000   2.7928460   2.7928460
 AtZNuc=   1.0000000   8.0000000   1.0000000   1.0000000   8.0000000   1.0000000   1.0000000   8.0000000   1.0000000   1.0000000

  Atom       251         252         253         254         255         256         257         258         259         260
 IAtWgt=          16           1           1          16           1           1          16           1           1          16
 AtmWgt=  15.9949146   1.0078250   1.0078250  15.9949146   1.0078250   1.0078250  15.9949146   1.0078250   1.0078250  15.9949146
 NucSpn=           0           1           1           0           1           1           0           1           1           0
 AtZEff=   0.0000000   0.0000000   0.0000000   0.0000000   0.0000000   0.0000000   0.0000000   0.0000000   0.0000000   0.0000000
 NQMom=    0.0000000   0.0000000   0.0000000   0.0000000   0.0000000   0.0000000   0.0000000   0.0000000   0.0000000   0.0000000
 NMagM=    0.0000000   2.7928460   2.7928460   0.0000000   2.7928460   2.7928460   0.0000000   2.7928460   2.7928460   0.0000000
 AtZNuc=   8.0000000   1.0000000   1.0000000   8.0000000   1.0000000   1.0000000   8.0000000   1.0000000   1.0000000   8.0000000

  Atom       261         262         263         264         265         266         267         268         269         270
 IAtWgt=           1           1          16           1           1          16           1           1          16           1
 AtmWgt=   1.0078250   1.0078250  15.9949146   1.0078250   1.0078250  15.9949146   1.0078250   1.0078250  15.9949146   1.0078250
 NucSpn=           1           1           0           1           1           0           1           1           0           1
 AtZEff=   0.0000000   0.0000000   0.0000000   0.0000000   0.0000000   0.0000000   0.0000000   0.0000000   0.0000000   0.0000000
 NQMom=    0.0000000   0.0000000   0.0000000   0.0000000   0.0000000   0.0000000   0.0000000   0.0000000   0.0000000   0.0000000
 NMagM=    2.7928460   2.7928460   0.0000000   2.7928460   2.7928460   0.0000000   2.7928460   2.7928460   0.0000000   2.7928460
 AtZNuc=   1.0000000   1.0000000   8.0000000   1.0000000   1.0000000   8.0000000   1.0000000   1.0000000   8.0000000   1.0000000

  Atom       271         272         273         274         275         276         277         278         279         280
 IAtWgt=           1          16           1           1          16           1           1          16           1           1
 AtmWgt=   1.0078250  15.9949146   1.0078250   1.0078250  15.9949146   1.0078250   1.0078250  15.9949146   1.0078250   1.0078250
 NucSpn=           1           0           1           1           0           1           1           0           1           1
 AtZEff=   0.0000000   0.0000000   0.0000000   0.0000000   0.0000000   0.0000000   0.0000000   0.0000000   0.0000000   0.0000000
 NQMom=    0.0000000   0.0000000   0.0000000   0.0000000   0.0000000   0.0000000   0.0000000   0.0000000   0.0000000   0.0000000
 NMagM=    2.7928460   0.0000000   2.7928460   2.7928460   0.0000000   2.7928460   2.7928460   0.0000000   2.7928460   2.7928460
 AtZNuc=   1.0000000   8.0000000   1.0000000   1.0000000   8.0000000   1.0000000   1.0000000   8.0000000   1.0000000   1.0000000

  Atom       281         282         283         284         285         286         287         288         289         290
 IAtWgt=          16           1           1          16           1           1          16           1           1          16
 AtmWgt=  15.9949146   1.0078250   1.0078250  15.9949146   1.0078250   1.0078250  15.9949146   1.0078250   1.0078250  15.9949146
 NucSpn=           0           1           1           0           1           1           0           1           1           0
 AtZEff=   0.0000000   0.0000000   0.0000000   0.0000000   0.0000000   0.0000000   0.0000000   0.0000000   0.0000000   0.0000000
 NQMom=    0.0000000   0.0000000   0.0000000   0.0000000   0.0000000   0.0000000   0.0000000   0.0000000   0.0000000   0.0000000
 NMagM=    0.0000000   2.7928460   2.7928460   0.0000000   2.7928460   2.7928460   0.0000000   2.7928460   2.7928460   0.0000000
 AtZNuc=   8.0000000   1.0000000   1.0000000   8.0000000   1.0000000   1.0000000   8.0000000   1.0000000   1.0000000   8.0000000

  Atom       291         292         293         294         295         296         297         298         299         300
 IAtWgt=           1           1          16           1           1          16           1           1          16           1
 AtmWgt=   1.0078250   1.0078250  15.9949146   1.0078250   1.0078250  15.9949146   1.0078250   1.0078250  15.9949146   1.0078250
 NucSpn=           1           1           0           1           1           0           1           1           0           1
 AtZEff=   0.0000000   0.0000000   0.0000000   0.0000000   0.0000000   0.0000000   0.0000000   0.0000000   0.0000000   0.0000000
 NQMom=    0.0000000   0.0000000   0.0000000   0.0000000   0.0000000   0.0000000   0.0000000   0.0000000   0.0000000   0.0000000
 NMagM=    2.7928460   2.7928460   0.0000000   2.7928460   2.7928460   0.0000000   2.7928460   2.7928460   0.0000000   2.7928460
 AtZNuc=   1.0000000   1.0000000   8.0000000   1.0000000   1.0000000   8.0000000   1.0000000   1.0000000   8.0000000   1.0000000

  Atom       301         302         303         304         305         306         307         308         309         310
 IAtWgt=           1          16           1           1          16           1           1          16           1           1
 AtmWgt=   1.0078250  15.9949146   1.0078250   1.0078250  15.9949146   1.0078250   1.0078250  15.9949146   1.0078250   1.0078250
 NucSpn=           1           0           1           1           0           1           1           0           1           1
 AtZEff=   0.0000000   0.0000000   0.0000000   0.0000000   0.0000000   0.0000000   0.0000000   0.0000000   0.0000000   0.0000000
 NQMom=    0.0000000   0.0000000   0.0000000   0.0000000   0.0000000   0.0000000   0.0000000   0.0000000   0.0000000   0.0000000
 NMagM=    2.7928460   0.0000000   2.7928460   2.7928460   0.0000000   2.7928460   2.7928460   0.0000000   2.7928460   2.7928460
 AtZNuc=   1.0000000   8.0000000   1.0000000   1.0000000   8.0000000   1.0000000   1.0000000   8.0000000   1.0000000   1.0000000

  Atom       311         312         313         314         315         316         317         318         319         320
 IAtWgt=          16           1           1          16           1           1          16           1           1          16
 AtmWgt=  15.9949146   1.0078250   1.0078250  15.9949146   1.0078250   1.0078250  15.9949146   1.0078250   1.0078250  15.9949146
 NucSpn=           0           1           1           0           1           1           0           1           1           0
 AtZEff=   0.0000000   0.0000000   0.0000000   0.0000000   0.0000000   0.0000000   0.0000000   0.0000000   0.0000000   0.0000000
 NQMom=    0.0000000   0.0000000   0.0000000   0.0000000   0.0000000   0.0000000   0.0000000   0.0000000   0.0000000   0.0000000
 NMagM=    0.0000000   2.7928460   2.7928460   0.0000000   2.7928460   2.7928460   0.0000000   2.7928460   2.7928460   0.0000000
 AtZNuc=   8.0000000   1.0000000   1.0000000   8.0000000   1.0000000   1.0000000   8.0000000   1.0000000   1.0000000   8.0000000

  Atom       321         322         323         324         325         326         327         328         329         330
 IAtWgt=           1           1          16           1           1          16           1           1          16           1
 AtmWgt=   1.0078250   1.0078250  15.9949146   1.0078250   1.0078250  15.9949146   1.0078250   1.0078250  15.9949146   1.0078250
 NucSpn=           1           1           0           1           1           0           1           1           0           1
 AtZEff=   0.0000000   0.0000000   0.0000000   0.0000000   0.0000000   0.0000000   0.0000000   0.0000000   0.0000000   0.0000000
 NQMom=    0.0000000   0.0000000   0.0000000   0.0000000   0.0000000   0.0000000   0.0000000   0.0000000   0.0000000   0.0000000
 NMagM=    2.7928460   2.7928460   0.0000000   2.7928460   2.7928460   0.0000000   2.7928460   2.7928460   0.0000000   2.7928460
 AtZNuc=   1.0000000   1.0000000   8.0000000   1.0000000   1.0000000   8.0000000   1.0000000   1.0000000   8.0000000   1.0000000

  Atom       331         332         333         334         335         336         337         338         339         340
 IAtWgt=           1          16           1           1          16           1           1          16           1           1
 AtmWgt=   1.0078250  15.9949146   1.0078250   1.0078250  15.9949146   1.0078250   1.0078250  15.9949146   1.0078250   1.0078250
 NucSpn=           1           0           1           1           0           1           1           0           1           1
 AtZEff=   0.0000000   0.0000000   0.0000000   0.0000000   0.0000000   0.0000000   0.0000000   0.0000000   0.0000000   0.0000000
 NQMom=    0.0000000   0.0000000   0.0000000   0.0000000   0.0000000   0.0000000   0.0000000   0.0000000   0.0000000   0.0000000
 NMagM=    2.7928460   0.0000000   2.7928460   2.7928460   0.0000000   2.7928460   2.7928460   0.0000000   2.7928460   2.7928460
 AtZNuc=   1.0000000   8.0000000   1.0000000   1.0000000   8.0000000   1.0000000   1.0000000   8.0000000   1.0000000   1.0000000

  Atom       341         342         343         344         345         346         347         348         349         350
 IAtWgt=          16           1           1          16           1           1          16           1           1          16
 AtmWgt=  15.9949146   1.0078250   1.0078250  15.9949146   1.0078250   1.0078250  15.9949146   1.0078250   1.0078250  15.9949146
 NucSpn=           0           1           1           0           1           1           0           1           1           0
 AtZEff=   0.0000000   0.0000000   0.0000000   0.0000000   0.0000000   0.0000000   0.0000000   0.0000000   0.0000000   0.0000000
 NQMom=    0.0000000   0.0000000   0.0000000   0.0000000   0.0000000   0.0000000   0.0000000   0.0000000   0.0000000   0.0000000
 NMagM=    0.0000000   2.7928460   2.7928460   0.0000000   2.7928460   2.7928460   0.0000000   2.7928460   2.7928460   0.0000000
 AtZNuc=   8.0000000   1.0000000   1.0000000   8.0000000   1.0000000   1.0000000   8.0000000   1.0000000   1.0000000   8.0000000

  Atom       351         352         353         354         355         356         357         358         359         360
 IAtWgt=           1           1          16           1           1          16           1           1          16           1
 AtmWgt=   1.0078250   1.0078250  15.9949146   1.0078250   1.0078250  15.9949146   1.0078250   1.0078250  15.9949146   1.0078250
 NucSpn=           1           1           0           1           1           0           1           1           0           1
 AtZEff=   0.0000000   0.0000000   0.0000000   0.0000000   0.0000000   0.0000000   0.0000000   0.0000000   0.0000000   0.0000000
 NQMom=    0.0000000   0.0000000   0.0000000   0.0000000   0.0000000   0.0000000   0.0000000   0.0000000   0.0000000   0.0000000
 NMagM=    2.7928460   2.7928460   0.0000000   2.7928460   2.7928460   0.0000000   2.7928460   2.7928460   0.0000000   2.7928460
 AtZNuc=   1.0000000   1.0000000   8.0000000   1.0000000   1.0000000   8.0000000   1.0000000   1.0000000   8.0000000   1.0000000

  Atom       361         362         363         364         365         366         367         368         369         370
 IAtWgt=           1          16           1           1          16           1           1          16           1           1
 AtmWgt=   1.0078250  15.9949146   1.0078250   1.0078250  15.9949146   1.0078250   1.0078250  15.9949146   1.0078250   1.0078250
 NucSpn=           1           0           1           1           0           1           1           0           1           1
 AtZEff=   0.0000000   0.0000000   0.0000000   0.0000000   0.0000000   0.0000000   0.0000000   0.0000000   0.0000000   0.0000000
 NQMom=    0.0000000   0.0000000   0.0000000   0.0000000   0.0000000   0.0000000   0.0000000   0.0000000   0.0000000   0.0000000
 NMagM=    2.7928460   0.0000000   2.7928460   2.7928460   0.0000000   2.7928460   2.7928460   0.0000000   2.7928460   2.7928460
 AtZNuc=   1.0000000   8.0000000   1.0000000   1.0000000   8.0000000   1.0000000   1.0000000   8.0000000   1.0000000   1.0000000

  Atom       371         372         373         374         375         376         377         378         379         380
 IAtWgt=          16           1           1          16           1           1          16           1           1          16
 AtmWgt=  15.9949146   1.0078250   1.0078250  15.9949146   1.0078250   1.0078250  15.9949146   1.0078250   1.0078250  15.9949146
 NucSpn=           0           1           1           0           1           1           0           1           1           0
 AtZEff=   0.0000000   0.0000000   0.0000000   0.0000000   0.0000000   0.0000000   0.0000000   0.0000000   0.0000000   0.0000000
 NQMom=    0.0000000   0.0000000   0.0000000   0.0000000   0.0000000   0.0000000   0.0000000   0.0000000   0.0000000   0.0000000
 NMagM=    0.0000000   2.7928460   2.7928460   0.0000000   2.7928460   2.7928460   0.0000000   2.7928460   2.7928460   0.0000000
 AtZNuc=   8.0000000   1.0000000   1.0000000   8.0000000   1.0000000   1.0000000   8.0000000   1.0000000   1.0000000   8.0000000

  Atom       381         382         383         384         385
 IAtWgt=           1           1          16           1           1
 AtmWgt=   1.0078250   1.0078250  15.9949146   1.0078250   1.0078250
 NucSpn=           1           1           0           1           1
 AtZEff=   0.0000000   0.0000000   0.0000000   0.0000000   0.0000000
 NQMom=    0.0000000   0.0000000   0.0000000   0.0000000   0.0000000
 NMagM=    2.7928460   2.7928460   0.0000000   2.7928460   2.7928460
 AtZNuc=   1.0000000   1.0000000   8.0000000   1.0000000   1.0000000
 Leave Link  101 at Sat May 12 17:26:39 2018, MaxMem= 14763950080 cpu:       200.8
 (Enter /cm/shared/gaussian/g09.e01/intel64-sandybridge/g09/l103.exe)

 GradGradGradGradGradGradGradGradGradGradGradGradGradGradGradGradGradGrad
 Berny optimization.
 Initialization pass.
 Trust Radius=3.00D-01 FncErr=1.00D-07 GrdErr=1.00D-07
 Number of steps in this run=      2 maximum allowed number of steps=      2.
 GradGradGradGradGradGradGradGradGradGradGradGradGradGradGradGradGradGrad

 Leave Link  103 at Sat May 12 17:26:59 2018, MaxMem= 14763950080 cpu:         3.7
 (Enter /cm/shared/gaussian/g09.e01/intel64-sandybridge/g09/l202.exe)
 Symmetry turned off by external request.
 Stoichiometry    BrH256O128(1-)
 Framework group  C1[X(BrH256O128)]
 Deg. of freedom  1149
 Full point group                 C1      NOp   1
                          Input orientation:                          
 ---------------------------------------------------------------------
 Center     Atomic      Atomic             Coordinates (Angstroms)
 Number     Number       Type             X           Y           Z
 ---------------------------------------------------------------------
      1         35           0       20.000000   20.000000   20.000000
      2          8           0       18.000000   17.480000   20.340000
      3          1           0       18.580000   18.170000   20.020000
      4          1           0       17.910000   17.660000   21.270000
      5          8           0       18.930000   22.940000   20.810000
      6          1           0       18.160000   22.500000   21.160000
      7          1           0       19.510000   22.230000   20.530000
      8          8           0       21.690000   22.420000   21.800000
      9          1           0       20.980000   22.080000   21.250000
     10          1           0       22.060000   21.640000   22.210000
     11          8           0       20.220000   21.000000   16.700000
     12          1           0       20.520000   21.140000   17.600000
     13          1           0       19.470000   20.410000   16.790000
     14          8           0       15.650000   20.340000   21.000000
     15          1           0       16.510000   20.580000   21.370000
     16          1           0       15.200000   19.890000   21.720000
     17          8           0       15.450000   17.920000   18.980000
     18          1           0       16.390000   17.910000   19.130000
     19          1           0       15.070000   17.700000   19.830000
     20          8           0       19.990000   16.050000   23.380000
     21          1           0       19.150000   16.270000   22.990000
     22          1           0       20.530000   16.830000   23.230000
     23          8           0       22.470000   24.670000   20.370000
     24          1           0       21.870000   24.590000   19.630000
     25          1           0       22.390000   23.840000   20.840000
     26          8           0       17.240000   17.930000   23.290000
     27          1           0       16.350000   18.010000   22.940000
     28          1           0       17.110000   17.830000   24.240000
     29          8           0       19.280000   25.390000   22.120000
     30          1           0       19.610000   24.650000   21.600000
     31          1           0       18.400000   25.120000   22.400000
     32          8           0       26.060000   19.790000   19.310000
     33          1           0       25.880000   19.030000   18.760000
     34          1           0       25.220000   19.980000   19.730000
     35          8           0       17.150000   24.540000   18.000000
     36          1           0       16.490000   24.660000   17.330000
     37          1           0       17.970000   24.480000   17.520000
     38          8           0       14.520000   23.100000   19.550000
     39          1           0       15.190000   23.780000   19.530000
     40          1           0       14.940000   22.350000   19.970000
     41          8           0       14.950000   21.550000   16.630000
     42          1           0       14.000000   21.630000   16.720000
     43          1           0       15.300000   21.920000   17.440000
     44          8           0       20.600000   21.290000   13.620000
     45          1           0       19.790000   20.820000   13.810000
     46          1           0       20.970000   21.490000   14.480000
     47          8           0       22.690000   21.740000   25.260000
     48          1           0       22.430000   20.850000   25.510000
     49          1           0       23.570000   21.640000   24.910000
     50          8           0       18.330000   21.980000   26.130000
     51          1           0       18.970000   22.500000   25.630000
     52          1           0       17.720000   21.660000   25.460000
     53          8           0       16.930000   25.930000   20.310000
     54          1           0       16.990000   25.340000   19.560000
     55          1           0       17.650000   26.550000   20.180000
     56          8           0       14.190000   18.730000   16.550000
     57          1           0       14.580000   18.580000   17.410000
     58          1           0       13.610000   19.480000   16.680000
     59          8           0       16.310000   21.770000   14.340000
     60          1           0       15.820000   21.240000   13.710000
     61          1           0       16.210000   21.300000   15.170000
     62          8           0       15.350000   24.230000   21.910000
     63          1           0       15.960000   24.070000   22.630000
     64          1           0       15.810000   24.840000   21.330000
     65          8           0       21.120000   19.300000   26.380000
     66          1           0       21.320000   18.730000   27.120000
     67          1           0       20.170000   19.230000   26.270000
     68          8           0       15.530000   16.280000   15.820000
     69          1           0       15.940000   16.470000   16.670000
     70          1           0       15.250000   17.130000   15.480000
     71          8           0       16.110000   23.190000   24.640000
     72          1           0       15.610000   22.650000   24.040000
     73          1           0       15.860000   22.880000   25.510000
     74          8           0       18.470000   15.600000   25.550000
     75          1           0       19.150000   15.720000   24.880000
     76          1           0       18.040000   14.770000   25.310000
     77          8           0       18.370000   24.500000   15.490000
     78          1           0       17.910000   25.340000   15.440000
     79          1           0       18.290000   24.140000   14.610000
     80          8           0       16.570000   14.390000   22.300000
     81          1           0       16.020000   15.110000   21.970000
     82          1           0       16.850000   13.920000   21.520000
     83          8           0       20.370000   23.860000   25.610000
     84          1           0       20.700000   24.740000   25.410000
     85          1           0       21.160000   23.320000   25.700000
     86          8           0       17.360000   18.040000   25.860000
     87          1           0       17.210000   18.170000   26.800000
     88          1           0       17.700000   17.150000   25.790000
     89          8           0       14.420000   20.820000   23.850000
     90          1           0       14.340000   20.570000   24.770000
     91          1           0       13.540000   21.080000   23.580000
     92          8           0       13.460000   17.660000   20.960000
     93          1           0       13.340000   18.100000   21.800000
     94          1           0       12.580000   17.450000   20.670000
     95          8           0       24.260000   26.160000   18.250000
     96          1           0       24.190000   25.260000   17.920000
     97          1           0       24.730000   26.080000   19.080000
     98          8           0       23.440000   19.930000   13.050000
     99          1           0       23.730000   20.130000   13.950000
    100          1           0       22.510000   20.160000   13.040000
    101          8           0       14.250000   17.850000   23.930000
    102          1           0       13.640000   17.330000   24.460000
    103          1           0       14.680000   18.430000   24.560000
    104          8           0       20.490000   13.220000   23.770000
    105          1           0       20.670000   13.350000   22.840000
    106          1           0       20.120000   14.050000   24.060000
    107          8           0       24.510000   15.130000   24.870000
    108          1           0       24.880000   14.300000   24.560000
    109          1           0       24.020000   15.470000   24.120000
    110          8           0       24.560000   26.710000   20.850000
    111          1           0       25.180000   26.130000   21.280000
    112          1           0       23.720000   26.250000   20.890000
    113          8           0       12.110000   21.310000   20.330000
    114          1           0       12.860000   21.440000   20.910000
    115          1           0       11.350000   21.500000   20.890000
    116          8           0       12.390000   20.910000   17.640000
    117          1           0       12.770000   21.160000   18.490000
    118          1           0       12.010000   20.040000   17.800000
    119          8           0       23.090000   25.500000   24.120000
    120          1           0       23.230000   25.720000   25.040000
    121          1           0       22.290000   25.970000   23.880000
    122          8           0       19.760000   23.620000   12.640000
    123          1           0       19.740000   22.700000   12.900000
    124          1           0       20.590000   23.950000   13.000000
    125          8           0       26.310000   24.580000   19.460000
    126          1           0       26.820000   24.780000   18.680000
    127          1           0       26.650000   23.740000   19.760000
    128          8           0       20.450000   28.170000   22.010000
    129          1           0       19.810000   28.130000   22.720000
    130          1           0       20.940000   27.350000   22.080000
    131          8           0       26.310000   25.420000   22.690000
    132          1           0       26.300000   25.980000   23.470000
    133          1           0       25.580000   24.810000   22.830000
    134          8           0       22.360000   24.370000   13.160000
    135          1           0       22.790000   24.550000   14.000000
    136          1           0       23.080000   24.340000   12.520000
    137          8           0       21.010000   27.190000   14.810000
    138          1           0       21.260000   27.600000   15.630000
    139          1           0       20.750000   26.300000   15.050000
    140          8           0       21.720000   28.220000   17.620000
    141          1           0       22.290000   27.470000   17.760000
    142          1           0       20.830000   27.860000   17.580000
    143          8           0       12.740000   16.010000   17.330000
    144          1           0       12.430000   16.590000   16.630000
    145          1           0       13.640000   15.800000   17.080000
    146          8           0       18.880000   27.680000   16.960000
    147          1           0       17.980000   28.010000   16.950000
    148          1           0       19.130000   27.630000   16.040000
    149          8           0       15.850000   26.210000   16.180000
    150          1           0       15.270000   26.880000   16.530000
    151          1           0       15.270000   25.590000   15.740000
    152          8           0       12.830000   14.430000   19.730000
    153          1           0       13.590000   14.100000   20.210000
    154          1           0       13.030000   15.350000   19.580000
    155          8           0       15.270000   22.020000   27.260000
    156          1           0       16.100000   21.540000   27.270000
    157          1           0       15.360000   22.670000   27.950000
    158          8           0       14.360000   19.680000   26.510000
    159          1           0       15.090000   19.150000   26.850000
    160          1           0       14.470000   20.530000   26.920000
    161          8           0       12.090000   25.090000   19.600000
    162          1           0       12.140000   25.260000   20.540000
    163          1           0       12.620000   24.300000   19.470000
    164          8           0       12.670000   25.300000   22.150000
    165          1           0       12.120000   25.720000   22.810000
    166          1           0       13.470000   25.050000   22.630000
    167          8           0       19.590000   27.320000   25.650000
    168          1           0       18.930000   27.630000   26.270000
    169          1           0       19.110000   27.220000   24.820000
    170          8           0       13.740000   24.600000   15.130000
    171          1           0       12.900000   24.800000   14.720000
    172          1           0       13.890000   23.670000   14.920000
    173          8           0       24.480000   27.260000   15.560000
    174          1           0       25.150000   26.970000   14.940000
    175          1           0       24.460000   26.570000   16.230000
    176          8           0       19.340000   12.220000   14.530000
    177          1           0       20.110000   12.740000   14.770000
    178          1           0       18.810000   12.190000   15.330000
    179          8           0       19.530000   14.310000   28.150000
    180          1           0       18.840000   13.650000   28.070000
    181          1           0       19.410000   14.870000   27.380000
    182          8           0       12.660000   22.740000   25.320000
    183          1           0       12.800000   23.110000   26.190000
    184          1           0       13.050000   23.370000   24.710000
    185          8           0       15.310000   14.870000   12.930000
    186          1           0       15.420000   15.040000   13.860000
    187          1           0       15.310000   13.910000   12.850000
    188          8           0       24.270000   16.790000   27.480000
    189          1           0       24.980000   17.050000   28.070000
    190          1           0       24.460000   15.880000   27.270000
    191          8           0       15.140000   25.520000   26.240000
    192          1           0       15.080000   26.400000   26.620000
    193          1           0       16.010000   25.210000   26.480000
    194          8           0       18.370000   26.610000   12.920000
    195          1           0       17.520000   26.610000   12.470000
    196          1           0       18.690000   25.710000   12.830000
    197          8           0       10.010000   18.700000   20.530000
    198          1           0       10.770000   19.220000   20.780000
    199          1           0       10.050000   17.930000   21.100000
    200          8           0       27.810000   21.570000   14.510000
    201          1           0       27.410000   21.350000   13.670000
    202          1           0       27.810000   20.740000   15.000000
    203          8           0       24.810000   17.950000   11.420000
    204          1           0       24.190000   18.590000   11.770000
    205          1           0       24.350000   17.120000   11.470000
    206          8           0       11.270000   23.380000   16.890000
    207          1           0       11.740000   23.720000   17.650000
[...]
   Y335      24.73652   0.00008   0.00000  -0.00300  -0.00352  24.73300
   Z335      42.74561   0.00321   0.00000  -0.00064  -0.00128  42.74432
   X336      22.03421  -0.00608   0.00000  -0.00720  -0.00649  22.02772
   Y336      25.11446   0.00410   0.00000   0.00697   0.00644  25.12090
   Z336      41.30941  -0.00424   0.00000   0.00007  -0.00059  41.30882
   X337      23.14915  -0.00070   0.00000  -0.00222  -0.00146  23.14768
   Y337      22.92238  -0.00702   0.00000  -0.00867  -0.00918  22.91320
   Z337      42.78340  -0.00185   0.00000  -0.00382  -0.00449  42.77891
   X338      42.21648   0.01213   0.00000   0.00759   0.00747  42.22396
   Y338      57.06973   0.00844   0.00000   0.00530   0.00555  57.07528
   Z338      28.62935  -0.00767   0.00000  -0.00569  -0.00571  28.62365
   X339      40.51573  -0.01536   0.00000  -0.01208  -0.01221  40.50352
   Y339      57.12642  -0.00336   0.00000  -0.00656  -0.00637  57.12005
   Z339      29.21517   0.00119   0.00000  -0.00538  -0.00542  29.20974
   X340      42.78340   0.00396   0.00000   0.00647   0.00640  42.78980
   Y340      55.38787  -0.00722   0.00000  -0.00414  -0.00389  55.38399
   Z340      28.98840   0.00265   0.00000   0.00271   0.00268  28.99108
   X341      23.96173   0.00463   0.00000   0.00032   0.00068  23.96240
   Y341      43.72826  -0.00663   0.00000  -0.01226  -0.01253  43.71574
   Z341      24.16960   0.00611   0.00000   0.00634   0.00592  24.17552
   X342      22.18538  -0.00670   0.00000  -0.00448  -0.00413  22.18126
   Y342      44.06841   0.00443   0.00000   0.00795   0.00762  44.07604
   Z342      24.11291  -0.00022   0.00000   0.00087   0.00044  24.11334
   X343      24.47195   0.00238   0.00000   0.00381   0.00419  24.47614
   Y343      43.65267   0.00254   0.00000   0.00589   0.00566  43.65833
   Z343      22.43105  -0.00284   0.00000   0.00076   0.00035  22.43140
   X344      35.48906  -0.00438   0.00000  -0.00659  -0.00573  35.48333
   Y344      29.57421   0.00768   0.00000   0.01330   0.01344  29.58765
   Z344      19.35080   0.01105   0.00000   0.00790   0.00747  19.35827
   X345      34.86545  -0.00421   0.00000  -0.00521  -0.00431  34.86113
   Y345      28.96950  -0.00633   0.00000  -0.00880  -0.00866  28.96084
   Z345      17.76343  -0.00629   0.00000   0.00093   0.00049  17.76391
   X346      37.22760   0.00559   0.00000   0.00266   0.00351  37.23112
   Y346      29.97106   0.00228   0.00000   0.00309   0.00329  29.97434
   Z346      19.02954  -0.00089   0.00000   0.00098   0.00058  19.03012
   X347      48.66045   0.01916   0.00000   0.01962   0.01951  48.67996
   Y347      55.76582   0.01150   0.00000   0.01058   0.01099  55.77681
   Z347      31.04820  -0.00140   0.00000   0.00344   0.00349  31.05169
   X348      47.99904  -0.00831   0.00000  -0.00674  -0.00680  47.99224
   Y348      54.08396  -0.00605   0.00000   0.00320   0.00359  54.08755
   Z348      31.12379  -0.00155   0.00000  -0.00589  -0.00586  31.11793
   X349      47.29985  -0.00798   0.00000  -0.00616  -0.00631  47.29354
   Y349      56.82406  -0.00138   0.00000  -0.00598  -0.00561  56.81846
   Z349      31.61512   0.00292   0.00000   0.00224   0.00229  31.61741
   X350      33.63713   0.00682   0.00000   0.00553   0.00527  33.64239
   Y350      59.22402   0.01674   0.00000   0.01581   0.01572  59.23974
   Z350      34.61978  -0.00401   0.00000  -0.00295  -0.00305  34.61673
   X351      31.91747  -0.00523   0.00000  -0.00134  -0.00158  31.91589
   Y351      59.05394  -0.00853   0.00000  -0.01409  -0.01423  59.03972
   Z351      34.09066  -0.00059   0.00000   0.00029   0.00016  34.09082
   X352      34.01507   0.00000   0.00000   0.00013  -0.00009  34.01498
   Y352      57.65554  -0.00646   0.00000   0.00248   0.00239  57.65793
   Z352      35.43236   0.00575   0.00000   0.00552   0.00541  35.43777
   X353      35.47016  -0.01814   0.00000  -0.01675  -0.01580  35.45436
   Y353      17.70673   0.00274   0.00000  -0.00025  -0.00035  17.70638
   Z353      40.17558   0.00576   0.00000   0.00390   0.00333  40.17891
   X354      35.14891   0.00512   0.00000   0.00935   0.01034  35.15925
   Y354      17.23430   0.00157   0.00000   0.00659   0.00650  17.24080
   Z354      38.45593  -0.00950   0.00000  -0.01107  -0.01165  38.44428
   X355      37.24650   0.01196   0.00000   0.00226   0.00322  37.24972
   Y355      17.51776  -0.00180   0.00000  -0.00052  -0.00057  17.51719
   Z355      40.38345   0.00088   0.00000   0.00255   0.00201  40.38545
   X356      48.56596   0.00648   0.00000   0.00516   0.00613  48.57209
   Y356      20.10669  -0.00740   0.00000  -0.00600  -0.00562  20.10107
   Z356      33.71271   0.01381   0.00000   0.00995   0.00959  33.72230
   X357      46.88411  -0.01106   0.00000  -0.00909  -0.00811  46.87599
   Y357      20.10669   0.00160   0.00000   0.00234   0.00268  20.10936
   Z357      33.05131  -0.00039   0.00000   0.00728   0.00689  33.05820
   X358      49.52972   0.00451   0.00000   0.00098   0.00193  49.53165
   Y358      21.05155   0.00639   0.00000   0.00386   0.00429  21.05584
   Z358      32.52219  -0.00963   0.00000  -0.00779  -0.00813  32.51406
   X359      54.72647  -0.00624   0.00000  -0.00486  -0.00466  54.72181
   Y359      37.73783   0.00845   0.00000   0.00517   0.00555  37.74338
   Z359      50.32341   0.00554   0.00000   0.00526   0.00518  50.32859
   X360      54.32963   0.00013   0.00000   0.00100   0.00126  54.33089
   Y360      36.07487  -0.00732   0.00000  -0.00445  -0.00408  36.07080
   Z360      49.73759  -0.00342   0.00000  -0.00287  -0.00297  49.73462
   X361      56.50281   0.00598   0.00000   0.00300   0.00320  56.50601
   Y361      37.90791  -0.00120   0.00000  -0.00200  -0.00157  37.90634
   Z361      50.02105  -0.00210   0.00000  -0.00213  -0.00219  50.01886
   X362      34.56309   0.00251   0.00000   0.00375   0.00369  34.56679
   Y362      55.42567   0.00254   0.00000   0.00141   0.00143  55.42709
   Z362      27.70339   0.00263   0.00000  -0.00002  -0.00016  27.70322
   X363      35.07332   0.00071   0.00000   0.00082   0.00082  35.07413
   Y363      54.48080  -0.00355   0.00000  -0.00444  -0.00439  54.47641
   Z363      26.22940  -0.00407   0.00000  -0.00368  -0.00382  26.22558
   X364      32.74895  -0.00034   0.00000   0.00197   0.00192  32.75087
   Y364      55.29339  -0.00265   0.00000  -0.00505  -0.00509  55.28830
   Z364      27.70339  -0.00115   0.00000  -0.00159  -0.00176  27.70163
   X365      18.59491  -0.01221   0.00000  -0.01239  -0.01164  18.58326
   Y365      27.93015  -0.00908   0.00000  -0.00310  -0.00363  27.92652
   Z365      32.10645   0.00474   0.00000   0.01457   0.01390  32.12035
   X366      17.76343   0.00293   0.00000   0.00601   0.00673  17.77016
   Y366      29.06399   0.00199   0.00000   0.00096   0.00042  29.06440
   Z366      30.95371  -0.00073   0.00000   0.00069   0.00002  30.95374
   X367      20.04999   0.01440   0.00000   0.01555   0.01625  20.06625
   Y367      28.85612   0.00501   0.00000  -0.00085  -0.00134  28.85478
   Z367      32.65447  -0.00197   0.00000  -0.00880  -0.00944  32.64503
   X368      56.74848  -0.00191   0.00000   0.00210   0.00230  56.75078
   Y368      44.93769   0.00791   0.00000   0.00526   0.00591  44.94359
   Z368      33.12690  -0.00887   0.00000  -0.00844  -0.00841  33.11849
   X369      57.20201   0.00222   0.00000   0.00042   0.00067  57.20268
   Y369      43.25583  -0.00792   0.00000  -0.00485  -0.00420  43.25163
   Z369      33.59933   0.00343   0.00000   0.00206   0.00208  33.60141
   X370      57.23980   0.00095   0.00000  -0.00028  -0.00013  57.23967
   Y370      45.95814  -0.00033   0.00000  -0.00305  -0.00241  45.95573
   Z370      34.54419   0.00479   0.00000   0.00483   0.00488  34.54907
   X371      49.30295   0.00350   0.00000   0.00607   0.00694  49.30990
   Y371      20.74919   0.00638   0.00000   0.00099   0.00133  20.75052
   Z371      39.38189   0.01466   0.00000   0.01300   0.01265  39.39455
   X372      49.83208  -0.00530   0.00000  -0.01515  -0.01427  49.81781
   Y372      20.95706  -0.00277   0.00000  -0.00377  -0.00339  20.95367
   Z372      37.66224  -0.01051   0.00000  -0.00731  -0.00765  37.65459
   X373      48.58486  -0.00022   0.00000   0.00207   0.00299  48.58785
   Y373      19.08623  -0.00774   0.00000  -0.00733  -0.00701  19.07922
   Z373      39.43858  -0.00917   0.00000  -0.01573  -0.01611  39.42248
   X374      33.52374  -0.00250   0.00000  -0.00332  -0.00233  33.52142
   Y374      24.84990  -0.00700   0.00000  -0.00786  -0.00779  24.84211
   Z374      20.18228  -0.00338   0.00000  -0.00115  -0.00166  20.18062
   X375      31.82299  -0.00025   0.00000  -0.00170  -0.00071  31.82227
   Y375      24.90659   0.00214   0.00000   0.00392   0.00394  24.91053
   Z375      20.82478   0.00071   0.00000   0.00139   0.00086  20.82564
   X376      34.37412   0.00145   0.00000  -0.00071   0.00023  34.37435
   Y376      26.19160   0.00419   0.00000   0.00229   0.00238  26.19399
   Z376      21.07045   0.00044   0.00000  -0.00366  -0.00414  21.06631
   X377      20.84368   0.00141   0.00000   0.00496   0.00515  20.84883
   Y377      47.77228   0.01654   0.00000   0.00484   0.00442  47.77670
   Z377      28.00574  -0.02017   0.00000  -0.01245  -0.01286  27.99288
   X378      21.14604  -0.00133   0.00000  -0.00724  -0.00704  21.13900
   Y378      46.52506  -0.01899   0.00000  -0.01157  -0.01199  46.51307
   Z378      29.27186   0.02350   0.00000   0.02242   0.02200  29.29386
   X379      19.06734  -0.00045   0.00000   0.00095   0.00114  19.06847
   Y379      47.64000  -0.00086   0.00000   0.00073   0.00027  47.64026
   Z379      27.64669   0.00122   0.00000   0.00130   0.00087  27.64756
   X380      19.02954   0.00035   0.00000   0.00302   0.00349  19.03303
   Y380      30.55687  -0.01606   0.00000  -0.01106  -0.01175  30.54512
   Z380      47.05418  -0.01339   0.00000  -0.01294  -0.01357  47.04061
   X381      20.73030   0.00740   0.00000   0.00454   0.00499  20.73528
   Y381      31.14269   0.00502   0.00000   0.00402   0.00338  31.14607
   Z381      47.31874   0.01165   0.00000   0.02192   0.02131  47.34006
   X382      18.00909  -0.00408   0.00000  -0.00076  -0.00034  18.00875
   Y382      31.74740   0.00873   0.00000   0.00400   0.00327  31.75067
   Z382      47.94235   0.00319   0.00000  -0.00389  -0.00452  47.93783
   X383      25.77586   0.00299   0.00000   0.00357   0.00353  25.77939
   Y383      53.51704   0.00201   0.00000   0.00373   0.00343  53.52047
   Z383      31.50173   0.00732   0.00000   0.00270   0.00242  31.50416
   X384      24.73652  -0.00386   0.00000  -0.00239  -0.00238  24.73413
   Y384      52.38321  -0.00565   0.00000  -0.00583  -0.00615  52.37706
   Z384      30.53797  -0.00178   0.00000   0.00315   0.00285  30.54082
   X385      26.47506  -0.00023   0.00000  -0.00343  -0.00349  26.47157
   Y385      54.65088   0.00288   0.00000   0.00132   0.00106  54.65194
   Z385      30.27341  -0.00985   0.00000  -0.01452  -0.01477  30.25864
         Item               Value     Threshold  Converged?
 Maximum Force            0.036366     0.000450     NO 
 RMS     Force            0.008944     0.000300     NO 
 Maximum Displacement     0.033868     0.001800     NO 
 RMS     Displacement     0.008821     0.001200     NO 
 Predicted change in Energy=-5.975226D-02
 GradGradGradGradGradGradGradGradGradGradGradGradGradGradGradGradGradGrad

 Leave Link  103 at Sat May 12 19:11:45 2018, MaxMem= 14763950080 cpu:      3655.9
 (Enter /cm/shared/gaussian/g09.e01/intel64-sandybridge/g09/l9999.exe)
 1\1\GINC-POPLE03\Force\RPBE1PBE\CC-pVDZ\Br1H256O128(1-)\M.PELUSO\12-Ma
 y-2018\0\\#p PBE1PBE/cc-pvDZ force Counterpoise=2 noSymm\\forces on ch
 loride comput - NWATER: 128\\-1,1\Br,20.,20.,20.\O,18.,17.48,20.34\H,1
 8.58,18.17,20.02\H,17.91,17.66,21.27\O,18.93,22.94,20.81\H,18.16,22.5,
 21.16\H,19.51,22.23,20.53\O,21.69,22.42,21.8\H,20.98,22.08,21.25\H,22.
 06,21.64,22.21\O,20.22,21.,16.7\H,20.52,21.14,17.6\H,19.47,20.41,16.79
 \O,15.65,20.34,21.\H,16.51,20.58,21.37\H,15.2,19.89,21.72\O,15.45,17.9
 2,18.98\H,16.39,17.91,19.13\H,15.07,17.7,19.83\O,19.99,16.05,23.38\H,1
 9.15,16.27,22.99\H,20.53,16.83,23.23\O,22.47,24.67,20.37\H,21.87,24.59
 ,19.63\H,22.39,23.84,20.84\O,17.24,17.93,23.29\H,16.35,18.01,22.94\H,1
 7.11,17.83,24.24\O,19.28,25.39,22.12\H,19.61,24.65,21.6\H,18.4,25.12,2
 2.4\O,26.06,19.79,19.31\H,25.88,19.03,18.76\H,25.22,19.98,19.73\O,17.1
 5,24.54,18.\H,16.49,24.66,17.33\H,17.97,24.48,17.52\O,14.52,23.1,19.55
 \H,15.19,23.78,19.53\H,14.94,22.35,19.97\O,14.95,21.55,16.63\H,14.,21.
 63,16.72\H,15.3,21.92,17.44\O,20.6,21.29,13.62\H,19.79,20.82,13.81\H,2
 0.97,21.49,14.48\O,22.69,21.74,25.26\H,22.43,20.85,25.51\H,23.57,21.64
 ,24.91\O,18.33,21.98,26.13\H,18.97,22.5,25.63\H,17.72,21.66,25.46\O,16
 .93,25.93,20.31\H,16.99,25.34,19.56\H,17.65,26.55,20.18\O,14.19,18.73,
 16.55\H,14.58,18.58,17.41\H,13.61,19.48,16.68\O,16.31,21.77,14.34\H,15
 .82,21.24,13.71\H,16.21,21.3,15.17\O,15.35,24.23,21.91\H,15.96,24.07,2
 2.63\H,15.81,24.84,21.33\O,21.12,19.3,26.38\H,21.32,18.73,27.12\H,20.1
 7,19.23,26.27\O,15.53,16.28,15.82\H,15.94,16.47,16.67\H,15.25,17.13,15
 .48\O,16.11,23.19,24.64\H,15.61,22.65,24.04\H,15.86,22.88,25.51\O,18.4
 7,15.6,25.55\H,19.15,15.72,24.88\H,18.04,14.77,25.31\O,18.37,24.5,15.4
 9\H,17.91,25.34,15.44\H,18.29,24.14,14.61\O,16.57,14.39,22.3\H,16.02,1
 5.11,21.97\H,16.85,13.92,21.52\O,20.37,23.86,25.61\H,20.7,24.74,25.41\
 H,21.16,23.32,25.7\O,17.36,18.04,25.86\H,17.21,18.17,26.8\H,17.7,17.15
 ,25.79\O,14.42,20.82,23.85\H,14.34,20.57,24.77\H,13.54,21.08,23.58\O,1
 3.46,17.66,20.96\H,13.34,18.1,21.8\H,12.58,17.45,20.67\O,24.26,26.16,1
 8.25\H,24.19,25.26,17.92\H,24.73,26.08,19.08\O,23.44,19.93,13.05\H,23.
 73,20.13,13.95\H,22.51,20.16,13.04\O,14.25,17.85,23.93\H,13.64,17.33,2
 4.46\H,14.68,18.43,24.56\O,20.49,13.22,23.77\H,20.67,13.35,22.84\H,20.
 12,14.05,24.06\O,24.51,15.13,24.87\H,24.88,14.3,24.56\H,24.02,15.47,24
 .12\O,24.56,26.71,20.85\H,25.18,26.13,21.28\H,23.72,26.25,20.89\O,12.1
 1,21.31,20.33\H,12.86,21.44,20.91\H,11.35,21.5,20.89\O,12.39,20.91,17.
 64\H,12.77,21.16,18.49\H,12.01,20.04,17.8\O,23.09,25.5,24.12\H,23.23,2
 5.72,25.04\H,22.29,25.97,23.88\O,19.76,23.62,12.64\H,19.74,22.7,12.9\H
 ,20.59,23.95,13.\O,26.31,24.58,19.46\H,26.82,24.78,18.68\H,26.65,23.74
 ,19.76\O,20.45,28.17,22.01\H,19.81,28.13,22.72\H,20.94,27.35,22.08\O,2
 6.31,25.42,22.69\H,26.3,25.98,23.47\H,25.58,24.81,22.83\O,22.36,24.37,
 13.16\H,22.79,24.55,14.\H,23.08,24.34,12.52\O,21.01,27.19,14.81\H,21.2
 6,27.6,15.63\H,20.75,26.3,15.05\O,21.72,28.22,17.62\H,22.29,27.47,17.7
 6\H,20.83,27.86,17.58\O,12.74,16.01,17.33\H,12.43,16.59,16.63\H,13.64,
 15.8,17.08\O,18.88,27.68,16.96\H,17.98,28.01,16.95\H,19.13,27.63,16.04
 \O,15.85,26.21,16.18\H,15.27,26.88,16.53\H,15.27,25.59,15.74\O,12.83,1
 4.43,19.73\H,13.59,14.1,20.21\H,13.03,15.35,19.58\O,15.27,22.02,27.26\
 H,16.1,21.54,27.27\H,15.36,22.67,27.95\O,14.36,19.68,26.51\H,15.09,19.
 15,26.85\H,14.47,20.53,26.92\O,12.09,25.09,19.6\H,12.14,25.26,20.54\H,
 12.62,24.3,19.47\O,12.67,25.3,22.15\H,12.12,25.72,22.81\H,13.47,25.05,
 22.63\O,19.59,27.32,25.65\H,18.93,27.63,26.27\H,19.11,27.22,24.82\O,13
 .74,24.6,15.13\H,12.9,24.8,14.72\H,13.89,23.67,14.92\O,24.48,27.26,15.
 56\H,25.15,26.97,14.94\H,24.46,26.57,16.23\O,19.34,12.22,14.53\H,20.11
 ,12.74,14.77\H,18.81,12.19,15.33\O,19.53,14.31,28.15\H,18.84,13.65,28.
 07\H,19.41,14.87,27.38\O,12.66,22.74,25.32\H,12.8,23.11,26.19\H,13.05,
 23.37,24.71\O,15.31,14.87,12.93\H,15.42,15.04,13.86\H,15.31,13.91,12.8
 5\O,24.27,16.79,27.48\H,24.98,17.05,28.07\H,24.46,15.88,27.27\O,15.14,
 25.52,26.24\H,15.08,26.4,26.62\H,16.01,25.21,26.48\O,18.37,26.61,12.92
 \H,17.52,26.61,12.47\H,18.69,25.71,12.83\O,10.01,18.7,20.53\H,10.77,19
 .22,20.78\H,10.05,17.93,21.1\O,27.81,21.57,14.51\H,27.41,21.35,13.67\H
 ,27.81,20.74,15.\O,24.81,17.95,11.42\H,24.19,18.59,11.77\H,24.35,17.12
 ,11.47\O,11.27,23.38,16.89\H,11.74,23.72,17.65\H,11.46,22.45,16.9\O,21
 .64,25.08,28.61\H,21.95,25.,27.7\H,21.55,26.02,28.74\O,14.1,20.15,12.2
 6\H,14.62,19.34,12.25\H,13.46,20.03,11.56\O,15.74,23.32,11.08\H,15.14,
 22.64,10.79\H,16.25,22.9,11.78\O,18.64,30.01,20.99\H,19.41,29.46,20.85
 \H,18.9,30.62,21.68\O,16.07,28.95,17.96\H,16.05,28.59,18.85\H,15.17,28
 .89,17.65\O,17.11,21.93,29.34\H,17.43,21.67,30.21\H,17.82,22.45,28.96\
 O,21.75,10.69,24.46\H,21.85,10.89,25.39\H,21.39,11.49,24.09\O,23.37,14
 .43,13.02\H,24.27,14.19,13.23\H,23.45,15.12,12.36\O,16.95,11.09,16.\H,
 16.48,11.75,15.49\H,17.01,11.47,16.88\O,16.36,17.07,11.64\H,17.15,16.6
 6,11.28\H,15.93,16.37,12.13\O,16.1,17.55,28.41\H,15.76,18.15,29.08\H,1
 6.4,16.79,28.91\O,15.91,13.74,26.18\H,15.43,14.16,26.89\H,15.28,13.68,
 25.46\O,15.28,11.36,22.92\H,16.15,11.75,23.03\H,14.7,12.1,22.74\O,18.9
 7,9.88,18.21\H,18.77,9.34,17.44\H,19.52,10.59,17.86\O,22.26,13.57,28.\
 H,21.31,13.67,28.04\H,22.55,14.27,27.42\O,21.28,22.31,10.11\H,21.96,21
 .76,10.5\H,21.1,22.97,10.78\O,21.61,30.35,20.13\H,22.11,29.89,19.46\H,
 21.23,29.65,20.67\O,24.47,29.49,20.16\H,24.27,29.76,19.26\H,24.73,28.5
 7,20.09\O,11.23,17.2,15.57\H,11.82,17.72,15.03\H,10.49,17.78,15.75\O,1
 0.63,21.56,22.59\H,10.71,22.52,22.61\H,10.3,21.33,23.46\O,12.32,17.53,
 25.82\H,13.,17.39,26.48\H,12.11,18.46,25.88\O,10.83,16.59,22.08\H,10.7
 1,15.78,21.59\H,10.76,16.33,23.\O,25.66,28.81,23.06\H,25.31,28.21,22.4
 \H,25.08,29.57,23.01\O,11.29,20.48,26.08\H,11.83,21.21,25.76\H,10.55,2
 0.9,26.51\O,27.9,25.63,17.29\H,28.44,25.3,16.57\H,28.5,26.16,17.82\O,9
 .23,20.04,18.42\H,9.98,20.63,18.43\H,9.29,19.57,19.25\O,22.04,10.21,17
 .83\H,22.03,9.77,16.98\H,21.86,9.52,18.46\O,23.89,28.,25.95\H,23.74,28
 .12,25.01\H,23.2,28.53,26.36\O,20.,25.86,10.66\H,19.82,26.5,11.35\H,19
 .8,25.02,11.06\O,23.91,9.92,22.51\H,23.32,10.6,22.82\H,24.7,10.39,22.2
 3\O,23.36,30.38,17.83\H,22.66,29.84,17.48\H,23.06,31.28,17.7\O,10.16,1
 4.27,20.42\H,9.56,14.09,19.7\H,11.,14.46,20.\O,23.43,30.3,22.62\H,23.8
 5,30.2,21.77\H,22.55,29.96,22.5\O,11.55,19.03,13.52\H,11.12,19.66,14.1
 \H,12.11,19.56,12.96\O,24.87,23.87,11.42\H,25.64,23.44,11.04\H,25.19,2
 4.72,11.72\O,21.15,28.87,12.72\H,21.91,29.25,13.15\H,20.81,28.24,13.36
 \O,16.95,11.57,27.1\H,16.97,11.83,28.02\H,16.74,12.38,26.63\O,26.32,26
 .41,25.65\H,26.71,25.97,26.4\H,25.64,26.97,26.03\O,16.08,18.45,9.46\H,
 15.87,18.07,10.32\H,17.03,18.33,9.38\O,16.02,26.23,11.66\H,16.02,25.27
 ,11.58\H,15.17,26.5,11.31\O,15.56,10.01,20.31\H,16.26,9.59,20.81\H,15.
 92,10.11,19.43\O,13.34,13.27,25.13\H,12.67,13.22,25.82\H,12.83,13.3,24
 .31\O,12.22,13.09,22.62\H,11.66,13.29,21.86\H,12.25,12.13,22.64\O,22.3
 4,30.2,15.15\H,21.44,30.23,15.46\H,22.64,29.31,15.34\O,12.68,23.14,12.
 79\H,11.74,23.32,12.76\H,12.95,23.1,11.87\O,18.78,15.65,10.24\H,18.45,
 15.33,9.4\H,19.7,15.86,10.07\O,25.75,29.51,16.43\H,25.4,28.62,16.47\H,
 25.03,30.07,16.73\O,17.8,31.34,18.32\H,16.89,31.25,18.04\H,18.,30.51,1
 8.75\O,18.77,9.37,21.26\H,18.6,9.12,20.35\H,19.71,9.27,21.37\O,25.7,10
 .64,17.84\H,24.81,10.64,17.49\H,26.21,11.14,17.21\O,28.96,19.97,26.63\
 H,28.75,19.09,26.32\H,29.9,20.06,26.47\O,18.29,29.33,14.66\H,18.56,28.
 83,13.88\H,17.33,29.26,14.66\O,9.84,14.78,16.99\H,9.4,15.38,16.38\H,10
 .61,15.27,17.28\O,30.03,23.78,17.53\H,30.27,22.89,17.78\H,30.29,24.32,
 18.28\O,26.09,10.98,20.84\H,26.37,11.09,19.93\H,25.71,10.1,20.87\O,17.
 74,13.15,10.68\H,16.84,13.18,11.02\H,18.19,13.86,11.15\O,11.03,25.28,1
 4.82\H,11.19,24.62,15.49\H,10.09,25.21,14.63\O,10.07,16.17,24.9\H,10.9
 7,16.48,25.04\H,9.53,16.8,25.37\O,13.64,28.32,16.67\H,13.09,27.72,16.1
 6\H,14.01,28.92,16.02\\Version=ES64L-G09RevE.01\HF=-9772.8938428\RMSD=
 1.044e-09\RMSF=8.944e-03\Dipole=-6.0211057,-6.4322498,10.3783763\Quadr
 upole=-79.6951447,-883.8914986,963.5866433,-2021.1725038,-1255.7398965
 ,-1105.26896\PG=C01 [X(Br1H256O128)]\\@


 Time has a wonderful way of weeding out the trivial.
                                -- Richard Ben Sapir
 Job cpu time:       4 days 13 hours 37 minutes 32.1 seconds.
 File lengths (MBytes):  RWF=   7285 Int=      0 D2E=      0 Chk=   2411 Scr=      1
 Normal termination of Gaussian 09 at Sat May 12 19:12:22 2018.
