 Entering Gaussian System, Link 0=/cm/shared/gaussian/g09.e01/intel64-sandybridge/g09/g09
 Initial command:
 /cm/shared/gaussian/g09.e01/intel64-sandybridge/g09/l1.exe "/local/scratch/m.peluso/128_wat/order/Gau-27562.inp" -scrdir="/local/scratch/m.peluso/128_wat/order/"
 Entering Link 1 = /cm/shared/gaussian/g09.e01/intel64-sandybridge/g09/l1.exe PID=     27563.
  
 Copyright (c) 1988,1990,1992,1993,1995,1998,2003,2009,2015,
            Gaussian, Inc.  All Rights Reserved.
  
 This is part of the Gaussian(R) 09 program.  It is based on
 the Gaussian(R) 03 system (copyright 2003, Gaussian, Inc.),
 the Gaussian(R) 98 system (copyright 1998, Gaussian, Inc.),
 the Gaussian(R) 94 system (copyright 1995, Gaussian, Inc.),
 the Gaussian 92(TM) system (copyright 1992, Gaussian, Inc.),
 the Gaussian 90(TM) system (copyright 1990, Gaussian, Inc.),
 the Gaussian 88(TM) system (copyright 1988, Gaussian, Inc.),
 the Gaussian 86(TM) system (copyright 1986, Carnegie Mellon
 University), and the Gaussian 82(TM) system (copyright 1983,
 Carnegie Mellon University). Gaussian is a federally registered
 trademark of Gaussian, Inc.
  
 This software contains proprietary and confidential information,
 including trade secrets, belonging to Gaussian, Inc.
  
 This software is provided under written license and may be
 used, copied, transmitted, or stored only in accord with that
 written license.
  
 The following legend is applicable only to US Government
 contracts under FAR:
  
                    RESTRICTED RIGHTS LEGEND
  
 Use, reproduction and disclosure by the US Government is
 subject to restrictions as set forth in subparagraphs (a)
 and (c) of the Commercial Computer Software - Restricted
 Rights clause in FAR 52.227-19.
  
 Gaussian, Inc.
 340 Quinnipiac St., Bldg. 40, Wallingford CT 06492
  
  
 ---------------------------------------------------------------
 Warning -- This program may not be used in any manner that
 competes with the business of Gaussian, Inc. or will provide
 assistance to any competitor of Gaussian, Inc.  The licensee
 of this program is prohibited from giving any competitor of
 Gaussian, Inc. access to this program.  By using this program,
 the user acknowledges that Gaussian, Inc. is engaged in the
 business of creating and licensing software in the field of
 computational chemistry and represents and warrants to the
 licensee that it is not a competitor of Gaussian, Inc. and that
 it will not use this program in any manner prohibited above.
 ---------------------------------------------------------------
  

 Cite this work as:
 Gaussian 09, Revision E.01,
 M. J. Frisch, G. W. Trucks, H. B. Schlegel, G. E. Scuseria, 
 M. A. Robb, J. R. Cheeseman, G. Scalmani, V. Barone, B. Mennucci, 
 G. A. Petersson, H. Nakatsuji, M. Caricato, X. Li, H. P. Hratchian, 
 A. F. Izmaylov, J. Bloino, G. Zheng, J. L. Sonnenberg, M. Hada, 
 M. Ehara, K. Toyota, R. Fukuda, J. Hasegawa, M. Ishida, T. Nakajima, 
 Y. Honda, O. Kitao, H. Nakai, T. Vreven, J. A. Montgomery, Jr., 
 J. E. Peralta, F. Ogliaro, M. Bearpark, J. J. Heyd, E. Brothers, 
 K. N. Kudin, V. N. Staroverov, T. Keith, R. Kobayashi, J. Normand, 
 K. Raghavachari, A. Rendell, J. C. Burant, S. S. Iyengar, J. Tomasi, 
 M. Cossi, N. Rega, J. M. Millam, M. Klene, J. E. Knox, J. B. Cross, 
 V. Bakken, C. Adamo, J. Jaramillo, R. Gomperts, R. E. Stratmann, 
 O. Yazyev, A. J. Austin, R. Cammi, C. Pomelli, J. W. Ochterski, 
 R. L. Martin, K. Morokuma, V. G. Zakrzewski, G. A. Voth, 
 P. Salvador, J. J. Dannenberg, S. Dapprich, A. D. Daniels, 
 O. Farkas, J. B. Foresman, J. V. Ortiz, J. Cioslowski, 
 and D. J. Fox, Gaussian, Inc., Wallingford CT, 2013.
 
 ******************************************
 Gaussian 09:  ES64L-G09RevE.01 30-Nov-2015
                17-May-2018 
 ******************************************
 %Mem=110GB
 %NProcShared=64
 Will use up to   64 processors via shared memory.
 %chk=snap4.chk
 ----------------------------------------------
 #p PBE1PBE/cc-pvDZ force Counterpoise=2 noSymm
 ----------------------------------------------
 1/10=7,30=1,38=1,62=2/1,3;
 2/12=2,15=1,17=6,18=5,40=1/2;
 1/10=7,30=1,38=1,53=2,62=2,63=101/22;
 3/5=16,11=2,16=1,25=1,30=1,71=1,74=-13/1,2,3;
 4//1;
 5/5=2,38=5/2;
 6/7=2,8=2,9=2,10=2,28=1/1;
 7/7=1,29=1,30=1,33=-1/1,2,3,16;
 1/10=7,30=1,53=2,62=2,63=101/22;
 3/5=7,6=11,11=2,16=1,25=1,30=1,71=1,74=-13,82=7/1,2,3;
 4//1;
 5/5=2,38=5/2;
 6/7=2,8=2,9=2,10=2,28=1/1;
 7/7=1,29=1,30=1,33=-1/1,2,3,16;
 1/10=7,30=1,53=2,62=2,63=101/22(-5);
 7/9=1,29=1,44=-1/16;
 1/10=7,30=1,62=2/3;
 99//99;
 Leave Link    1 at Thu May 17 08:01:24 2018, MaxMem= 14763950080 cpu:         6.3
 (Enter /cm/shared/gaussian/g09.e01/intel64-sandybridge/g09/l101.exe)
 ---------------------------------------
 forces on chloride comput - NWATER: 128
 ---------------------------------------
 Symbolic Z-matrix:
 Charge = -1 Multiplicity = 1 in supermolecule
 Charge = -1 Multiplicity = 1 in fragment      1.
 Charge =  0 Multiplicity = 1 in fragment      2.
 Br(Fragment=1)        20.       20.       20. 
 O(Fragment=2)         21.03     21.01     17.14 
 H(Fragment=2)         21.98     20.87     17.15 
 H(Fragment=2)         20.72     20.58     17.94 
 O(Fragment=2)         17.53     20.39     21.94 
 H(Fragment=2)         17.97     20.95     22.58 
 H(Fragment=2)         18.25     19.96     21.47 
 O(Fragment=2)         17.72     18.32     18.43 
 H(Fragment=2)         18.37     18.76     18.97 
 H(Fragment=2)         17.93     18.58     17.53 
 O(Fragment=2)         21.82     17.8      18.6 
 H(Fragment=2)         21.54     18.53     19.14 
 H(Fragment=2)         22.71     17.62     18.89 
 O(Fragment=2)         23.08     20.76     20.66 
 H(Fragment=2)         22.21     20.68     20.28 
 H(Fragment=2)         23.29     21.7      20.58 
 O(Fragment=2)         20.04     17.27     21.79 
 H(Fragment=2)         20.89     16.95     21.48 
 H(Fragment=2)         19.81     17.97     21.18 
 O(Fragment=2)         18.66     23.07     20.37 
 H(Fragment=2)         19.16     22.38     20.81 
 H(Fragment=2)         18.63     22.8      19.46 
 O(Fragment=2)         21.1      21.82     22.55 
 H(Fragment=2)         21.22     20.95     22.17 
 H(Fragment=2)         20.26     21.78     23. 
 O(Fragment=2)         16.21     20.92     19.34 
 H(Fragment=2)         16.92     20.69     19.94 
 H(Fragment=2)         16.03     20.1      18.86 
 O(Fragment=2)         21.68     23.15     19.82 
 H(Fragment=2)         20.8      23.11     19.44 
 H(Fragment=2)         21.53     23.38     20.74 
 O(Fragment=2)         17.89     22.33     17.91 
 H(Fragment=2)         17.36     21.7      18.39 
 H(Fragment=2)         17.27     22.98     17.58 
 O(Fragment=2)         20.4      23.81     16.99 
 H(Fragment=2)         20.63     22.9      17.19 
 H(Fragment=2)         20.92     24.02     16.21 
 O(Fragment=2)         18.81     21.71     23.94 
 H(Fragment=2)         18.55     22.63     23.9 
 H(Fragment=2)         18.93     21.54     24.88 
 O(Fragment=2)         24.92     18.7      20.46 
 H(Fragment=2)         24.47     18.34     21.22 
 H(Fragment=2)         24.49     19.54     20.3 
 O(Fragment=2)         18.72     21.87     15.23 
 H(Fragment=2)         18.71     22.07     16.17 
 H(Fragment=2)         19.65     21.89     14.99 
 O(Fragment=2)         18.15     15.61     17.25 
 H(Fragment=2)         18.34     16.44     17.67 
 H(Fragment=2)         18.24     14.96     17.95 
 O(Fragment=2)         15.66     18.95     23.37 
 H(Fragment=2)         15.18     19.76     23.55 
 H(Fragment=2)         16.45     19.24     22.91 
 O(Fragment=2)         21.48     14.87     18.89 
 H(Fragment=2)         22.33     14.48     19.09 
 H(Fragment=2)         21.69     15.76     18.59 
 O(Fragment=2)         18.99     25.6      21.09 
 H(Fragment=2)         18.88     24.67     20.88 
 H(Fragment=2)         18.11     25.96     21.06 
 O(Fragment=2)         19.42     15.63     23.87 
 H(Fragment=2)         18.48     15.45     23.87 
 H(Fragment=2)         19.56     16.18     23.09 
 O(Fragment=2)         18.1      19.36     14.87 
 H(Fragment=2)         18.18     20.23     15.26 
 H(Fragment=2)         18.93     18.93     15.06 
 O(Fragment=2)         21.07     15.54     16.01 
 H(Fragment=2)         20.97     16.25     16.65 
 H(Fragment=2)         20.29     15.       16.13 
 O(Fragment=2)         20.75     18.4      15.19 
 H(Fragment=2)         21.25     17.59     15.15 
 H(Fragment=2)         21.26     19.02     14.66 
 O(Fragment=2)         15.52     16.09     19.36 
 H(Fragment=2)         16.       15.94     18.55 
 H(Fragment=2)         16.02     16.77     19.81 
 O(Fragment=2)         25.76     21.61     19.7 
 H(Fragment=2)         24.88     21.55     19.32 
 H(Fragment=2)         25.71     22.37     20.28 
 O(Fragment=2)         23.37     22.66     24.29 
 H(Fragment=2)         23.81     21.85     24.04 
 H(Fragment=2)         22.56     22.67     23.78 
 O(Fragment=2)         23.26     25.02     18.22 
 H(Fragment=2)         23.22     25.72     18.86 
 H(Fragment=2)         22.54     24.44     18.45 
 O(Fragment=2)         14.04     21.52     21.07 
 H(Fragment=2)         14.86     21.5      20.58 
 H(Fragment=2)         14.31     21.46     21.99 
 O(Fragment=2)         24.06     17.68     22.99 
 H(Fragment=2)         24.58     17.52     23.78 
 H(Fragment=2)         23.39     17.       22.99 
 O(Fragment=2)         21.5      22.11     14.28 
 H(Fragment=2)         21.67     21.35     14.84 
 H(Fragment=2)         22.35     22.3      13.87 
 O(Fragment=2)         19.76     14.25     20.86 
 H(Fragment=2)         20.47     14.43     20.23 
 H(Fragment=2)         19.47     13.37     20.65 
 O(Fragment=2)         22.17     15.62     23.24 
 H(Fragment=2)         22.22     15.61     24.19 
 H(Fragment=2)         21.25     15.47     23.04 
 O(Fragment=2)         24.82     19.98     17.1 
 H(Fragment=2)         24.47     19.17     16.71 
 H(Fragment=2)         25.73     19.78     17.31 
 O(Fragment=2)         21.72     24.93     22.11 
 H(Fragment=2)         22.02     25.41     22.88 
 H(Fragment=2)         21.04     25.5      21.73 
 O(Fragment=2)         18.71     26.       17.78 
 H(Fragment=2)         19.23     25.23     18.01 
 H(Fragment=2)         19.3      26.54     17.25 
 O(Fragment=2)         18.7      24.62     23.9 
 H(Fragment=2)         17.84     25.04     23.87 
 H(Fragment=2)         19.05     24.73     23.01 
 O(Fragment=2)         16.92     16.28     23.65 
 H(Fragment=2)         16.14     15.75     23.86 
 H(Fragment=2)         16.6      17.18     23.64 
 O(Fragment=2)         18.77     17.94     26.09 
 H(Fragment=2)         18.77     17.22     26.72 
 H(Fragment=2)         19.02     17.53     25.26 
 O(Fragment=2)         24.95     24.5      20.55 
 H(Fragment=2)         25.       25.42     20.82 
 H(Fragment=2)         24.09     24.21     20.85 
 O(Fragment=2)         14.05     18.74     17.33 
 H(Fragment=2)         13.88     19.68     17.23 
 H(Fragment=2)         14.93     18.61     17. 
 O(Fragment=2)         15.87     24.06     17.19 
 H(Fragment=2)         15.36     24.27     17.97 
 H(Fragment=2)         15.32     24.33     16.46 
 O(Fragment=2)         26.1      21.41     22.9 
 H(Fragment=2)         26.76     21.48     23.59 
 H(Fragment=2)         25.77     20.52     22.96 
 O(Fragment=2)         13.26     18.74     20.1 
 H(Fragment=2)         13.65     18.62     19.23 
 H(Fragment=2)         12.4      19.11     19.93 
 O(Fragment=2)         24.9      22.3      14.79 
 H(Fragment=2)         25.48     22.86     15.31 
 H(Fragment=2)         24.47     21.74     15.44 
 O(Fragment=2)         25.4      23.81     17.26 
 H(Fragment=2)         24.61     24.15     17.69 
 H(Fragment=2)         25.8      23.24     17.91 
 O(Fragment=2)         26.6      16.96     18.8 
 H(Fragment=2)         26.33     17.63     19.42 
 H(Fragment=2)         25.87     16.87     18.19 
 O(Fragment=2)         13.61     21.37     17.82 
 H(Fragment=2)         12.96     22.       17.52 
 H(Fragment=2)         13.42     21.24     18.75 
 O(Fragment=2)         18.5      20.76     26.7 
 H(Fragment=2)         18.69     19.82     26.71 
 H(Fragment=2)         19.03     21.12     27.41 
 O(Fragment=2)         24.98     16.3      17.03 
 H(Fragment=2)         25.53     16.53     16.28 
 H(Fragment=2)         24.42     15.6      16.72 
 O(Fragment=2)         17.       14.97     14.97 
 H(Fragment=2)         17.63     14.49     14.43 
 H(Fragment=2)         17.48     15.2      15.76 
 O(Fragment=2)         15.03     18.97     14.5 
 H(Fragment=2)         14.92     18.08     14.16 
 H(Fragment=2)         15.97     19.13     14.45 
 O(Fragment=2)         18.9      23.52     13.16 
 H(Fragment=2)         18.67     22.95     13.88 
 H(Fragment=2)         19.03     24.38     13.56 
 O(Fragment=2)         22.98     19.81     13.75 
 H(Fragment=2)         22.66     20.04     12.88 
 H(Fragment=2)         23.89     19.55     13.61 
 O(Fragment=2)         20.04     23.44     26.31 
 H(Fragment=2)         19.12     23.4      26.02 
 H(Fragment=2)         20.35     24.29     26. 
 O(Fragment=2)         17.57     17.63     13. 
 H(Fragment=2)         17.86     16.84     13.44 
 H(Fragment=2)         17.83     18.34     13.58 
 O(Fragment=2)         27.6      19.74     20.48 
 H(Fragment=2)         26.99     20.37     20.09 
 H(Fragment=2)         27.03     19.16     21. 
 O(Fragment=2)         18.19     25.61     14.88 
 H(Fragment=2)         17.26     25.4      14.73 
 H(Fragment=2)         18.35     25.39     15.79 
 O(Fragment=2)         15.3      14.12     21.35 
 H(Fragment=2)         15.11     14.95     20.91 
 H(Fragment=2)         15.73     13.58     20.68 
 O(Fragment=2)         20.15     12.79     17.41 
 H(Fragment=2)         20.88     13.32     17.74 
 H(Fragment=2)         20.4      11.89     17.61 
 O(Fragment=2)         15.96     21.81     26.25 
 H(Fragment=2)         16.85     21.46     26.21 
 H(Fragment=2)         15.74     21.77     27.18 
 O(Fragment=2)         15.62     18.64     26.61 
 H(Fragment=2)         15.5      17.82     26.12 
 H(Fragment=2)         16.24     19.14     26.09 
 O(Fragment=2)         23.56     13.61     19.63 
 H(Fragment=2)         23.45     12.74     20. 
 H(Fragment=2)         24.45     13.87     19.89 
 O(Fragment=2)         21.23     27.4      17.1 
 H(Fragment=2)         21.71     28.17     17.42 
 H(Fragment=2)         21.72     26.66     17.45 
 O(Fragment=2)         23.64     21.4      26.88 
 H(Fragment=2)         23.65     21.96     26.11 
 H(Fragment=2)         22.89     21.7      27.39 
 O(Fragment=2)         21.69     25.12     14.93 
 H(Fragment=2)         21.38     24.5      14.26 
 H(Fragment=2)         21.31     25.96     14.68 
 O(Fragment=2)         25.76     24.26     23.77 
 H(Fragment=2)         25.36     25.05     23.4 
 H(Fragment=2)         25.03     23.69     23.99 
 O(Fragment=2)         12.74     18.95     23.02 
 H(Fragment=2)         13.03     18.55     22.19 
 H(Fragment=2)         13.46     18.77     23.63 
 O(Fragment=2)         19.42     15.02     13.58 
 H(Fragment=2)         19.85     14.42     12.98 
 H(Fragment=2)         20.13     15.55     13.95 
 O(Fragment=2)         23.28     14.58     14.73 
 H(Fragment=2)         23.21     13.62     14.73 
 H(Fragment=2)         22.45     14.87     15.09 
 O(Fragment=2)         22.46     17.48     27.64 
 H(Fragment=2)         21.96     17.76     28.41 
 H(Fragment=2)         22.12     18.02     26.93 
 O(Fragment=2)         24.08     13.59     22.71 
 H(Fragment=2)         23.71     14.28     23.25 
 H(Fragment=2)         24.74     14.03     22.17 
 O(Fragment=2)         13.88     21.41     24.89 
 H(Fragment=2)         13.51     20.97     25.66 
 H(Fragment=2)         14.75     21.7      25.18 
 O(Fragment=2)         13.46     14.65     18.87 
 H(Fragment=2)         13.59     14.07     18.12 
 H(Fragment=2)         14.29     15.11     18.97 
 O(Fragment=2)         11.95     22.94     19.94 
 H(Fragment=2)         12.78     22.5      20.13 
 H(Fragment=2)         11.85     23.58     20.64 
 O(Fragment=2)         16.84     27.6      18.59 
 H(Fragment=2)         16.02     27.25     18.24 
 H(Fragment=2)         17.52     27.04     18.22 
 O(Fragment=2)         21.33     12.34     23.25 
 H(Fragment=2)         22.14     12.82     23.08 
 H(Fragment=2)         20.72     12.65     22.59 
 O(Fragment=2)         25.68     19.67     25.91 
 H(Fragment=2)         25.67     18.89     25.36 
 H(Fragment=2)         24.79     19.73     26.26 
 O(Fragment=2)         16.5      26.98     21.28 
 H(Fragment=2)         15.57     26.81     21.45 
 H(Fragment=2)         16.5      27.47     20.46 
 O(Fragment=2)         20.17     21.42     11.58 
 H(Fragment=2)         21.01     21.01     11.78 
 H(Fragment=2)         20.       21.99     12.33 
 O(Fragment=2)         19.07     13.08     25.39 
 H(Fragment=2)         18.96     13.98     25.09 
 H(Fragment=2)         19.79     12.74     24.86 
 O(Fragment=2)         17.55     12.55     16.51 
 H(Fragment=2)         17.21     12.64     17.4 
 H(Fragment=2)         18.39     13.01     16.54 
 O(Fragment=2)         27.4      18.35     23.27 
 H(Fragment=2)         27.14     17.66     22.67 
 H(Fragment=2)         27.61     17.9      24.08 
 O(Fragment=2)         23.21     27.54     19.41 
 H(Fragment=2)         23.92     28.12     19.68 
 H(Fragment=2)         22.61     27.54     20.16 
 O(Fragment=2)         24.76     25.4      15.16 
 H(Fragment=2)         24.97     24.91     15.96 
 H(Fragment=2)         23.85     25.16     14.96 
 O(Fragment=2)         27.95     24.26     19.77 
 H(Fragment=2)         27.12     23.81     19.9 
 H(Fragment=2)         27.9      25.03     20.34 
 O(Fragment=2)         19.74     28.72     19.42 
 H(Fragment=2)         19.29     28.58     18.58 
 H(Fragment=2)         20.43     28.06     19.44 
 O(Fragment=2)         16.48     12.59     19.15 
 H(Fragment=2)         16.04     11.76     18.96 
 H(Fragment=2)         17.29     12.34     19.6 
 O(Fragment=2)         22.93     15.3      25.96 
 H(Fragment=2)         22.77     15.78     26.77 
 H(Fragment=2)         22.93     14.38     26.22 
 O(Fragment=2)         26.2      14.43     20.32 
 H(Fragment=2)         26.49     15.1      19.7 
 H(Fragment=2)         26.76     13.68     20.13 
 O(Fragment=2)         25.62     17.08     25.16 
 H(Fragment=2)         25.28     16.58     25.9 
 H(Fragment=2)         26.26     16.5      24.75 
 O(Fragment=2)         12.05     16.41     21.27 
 H(Fragment=2)         11.3      15.96     20.89 
 H(Fragment=2)         12.42     16.93     20.56 
 O(Fragment=2)         20.93     17.1      11.62 
 H(Fragment=2)         20.25     17.21     12.28 
 H(Fragment=2)         20.46     16.78     10.84 
 O(Fragment=2)         20.72     22.26     28.61 
 H(Fragment=2)         20.45     22.64     27.78 
 H(Fragment=2)         20.01     22.48     29.22 
 O(Fragment=2)         18.68     11.83     20.35 
 H(Fragment=2)         19.03     10.98     20.08 
 H(Fragment=2)         18.49     11.73     21.28 
 O(Fragment=2)         26.29     26.37     18.02 
 H(Fragment=2)         25.77     27.09     17.67 
 H(Fragment=2)         25.74     25.6      17.9 
 O(Fragment=2)         16.       24.2      13.02 
 H(Fragment=2)         15.21     24.32     13.55 
 H(Fragment=2)         16.4      23.4      13.35 
 O(Fragment=2)         21.89     27.87     21.88 
 H(Fragment=2)         22.16     27.55     22.75 
 H(Fragment=2)         21.73     28.8      22.01 
 O(Fragment=2)         16.06     25.81     24.47 
 H(Fragment=2)         16.26     26.59     24.98 
 H(Fragment=2)         15.55     26.14     23.73 
 O(Fragment=2)         14.83     15.87     13.76 
 H(Fragment=2)         14.12     15.46     14.25 
 H(Fragment=2)         15.63     15.59     14.21 
 O(Fragment=2)         20.73     25.94     26.07 
 H(Fragment=2)         20.07     26.61     26.23 
 H(Fragment=2)         20.91     25.56     26.94 
 O(Fragment=2)         11.23     21.1      22.18 
 H(Fragment=2)         11.83     20.59     22.72 
 H(Fragment=2)         11.8      21.67     21.67 
 O(Fragment=2)         11.91     16.54     17.49 
 H(Fragment=2)         12.39     17.32     17.21 
 H(Fragment=2)         12.5      16.11     18.12 
 O(Fragment=2)         12.47     20.24     14.39 
 H(Fragment=2)         12.06     19.6      14.97 
 H(Fragment=2)         13.41     20.13     14.54 
 O(Fragment=2)         17.       25.35     27.2 
 H(Fragment=2)         17.5      26.16     27.26 
 H(Fragment=2)         17.1      25.06     26.3 
 O(Fragment=2)         14.49     15.58     24.92 
 H(Fragment=2)         13.65     15.26     24.58 
 H(Fragment=2)         14.45     15.4      25.86 
 O(Fragment=2)         23.74     16.52     12.75 
 H(Fragment=2)         23.66     15.8      13.38 
 H(Fragment=2)         22.85     16.67     12.44 
 O(Fragment=2)         14.8      13.66     16.8 
 H(Fragment=2)         15.29     13.45     16.01 
 H(Fragment=2)         15.26     13.19     17.5 
 O(Fragment=2)         15.89     12.2      23.57 
 H(Fragment=2)         15.85     13.05     23.12 
 H(Fragment=2)         16.45     11.66     23.01 
 O(Fragment=2)         14.14     26.09     22.2 
 H(Fragment=2)         13.61     26.77     22.62 
 H(Fragment=2)         13.51     25.46     21.88 
 O(Fragment=2)         13.06     14.11     22.77 
 H(Fragment=2)         12.43     14.73     22.41 
 H(Fragment=2)         13.87     14.27     22.27 
 O(Fragment=2)         26.44     16.95     14.89 
 H(Fragment=2)         26.4      17.66     14.24 
 H(Fragment=2)         26.32     16.15     14.37 
 O(Fragment=2)         25.7      19.88     13.24 
 H(Fragment=2)         26.45     19.64     12.7 
 H(Fragment=2)         25.61     20.83     13.11 
 O(Fragment=2)         28.28     22.18     17.74 
 H(Fragment=2)         28.31     22.76     18.5 
 H(Fragment=2)         28.02     22.74     17.01 
 O(Fragment=2)         22.85     27.33     24.31 
 H(Fragment=2)         22.43     26.88     25.04 
 H(Fragment=2)         23.46     27.94     24.72 
 O(Fragment=2)         17.54     29.37     21.14 
 H(Fragment=2)         16.71     28.97     21.41 
 H(Fragment=2)         18.04     28.65     20.77 
 O(Fragment=2)         18.69     15.51     27.58 
 H(Fragment=2)         18.12     14.74     27.59 
 H(Fragment=2)         18.38     16.05     28.31 
 O(Fragment=2)         29.7      18.38     19.76 
 H(Fragment=2)         29.86     18.93     18.99 
 H(Fragment=2)         28.87     18.7      20.11 
 O(Fragment=2)         16.82     22.33     11.06 
 H(Fragment=2)         16.34     21.59     11.45 
 H(Fragment=2)         17.47     22.57     11.73 
 O(Fragment=2)         24.59     24.14     12.35 
 H(Fragment=2)         24.35     24.19     13.27 
 H(Fragment=2)         24.5      23.21     12.12 
 O(Fragment=2)         25.32     27.1      22.03 
 H(Fragment=2)         26.1      27.45     21.61 
 H(Fragment=2)         24.75     27.86     22.15 
 O(Fragment=2)         13.24     25.28     25.1 
 H(Fragment=2)         13.39     24.57     25.72 
 H(Fragment=2)         13.81     25.07     24.36 
 O(Fragment=2)         22.4      19.22     11.06 
 H(Fragment=2)         23.01     19.06     10.34 
 H(Fragment=2)         21.95     18.39     11.19 
 O(Fragment=2)         28.39     24.07     23.31 
 H(Fragment=2)         28.72     23.18     23.49 
 H(Fragment=2)         27.46     24.02     23.5 
 O(Fragment=2)         29.18     16.01     18.53 
 H(Fragment=2)         29.75     16.42     19.17 
 H(Fragment=2)         28.36     16.5      18.58 
 O(Fragment=2)         14.03     24.96     15.07 
 H(Fragment=2)         13.55     25.68     14.65 
 H(Fragment=2)         13.71     24.17     14.64 
 O(Fragment=2)         27.9      15.8      22.18 
 H(Fragment=2)         28.       15.34     21.35 
 H(Fragment=2)         28.62     15.47     22.72 
 O(Fragment=2)         15.18     20.23     11.68 
 H(Fragment=2)         14.66     19.76     12.34 
 H(Fragment=2)         14.76     20.02     10.85 
 O(Fragment=2)         21.81     10.79     20.03 
 H(Fragment=2)         22.34     10.28     20.64 
 H(Fragment=2)         20.96     10.34     20.01 
 
 NAtoms=    385 NQM=      385 NQMF=       0 NMMI=      0 NMMIF=      0
                NMic=       0 NMicF=      0.
                    Isotopes and Nuclear Properties:
 (Nuclear quadrupole moments (NQMom) in fm**2, nuclear magnetic moments (NMagM)
  in nuclear magnetons)

  Atom         1           2           3           4           5           6           7           8           9          10
 IAtWgt=          79          16           1           1          16           1           1          16           1           1
 AtmWgt=  78.9183361  15.9949146   1.0078250   1.0078250  15.9949146   1.0078250   1.0078250  15.9949146   1.0078250   1.0078250
 NucSpn=           3           0           1           1           0           1           1           0           1           1
 AtZEff=   0.0000000   0.0000000   0.0000000   0.0000000   0.0000000   0.0000000   0.0000000   0.0000000   0.0000000   0.0000000
 NQMom=   31.3000000   0.0000000   0.0000000   0.0000000   0.0000000   0.0000000   0.0000000   0.0000000   0.0000000   0.0000000
 NMagM=    2.1063990   0.0000000   2.7928460   2.7928460   0.0000000   2.7928460   2.7928460   0.0000000   2.7928460   2.7928460
 AtZNuc=  35.0000000   8.0000000   1.0000000   1.0000000   8.0000000   1.0000000   1.0000000   8.0000000   1.0000000   1.0000000

  Atom        11          12          13          14          15          16          17          18          19          20
 IAtWgt=          16           1           1          16           1           1          16           1           1          16
 AtmWgt=  15.9949146   1.0078250   1.0078250  15.9949146   1.0078250   1.0078250  15.9949146   1.0078250   1.0078250  15.9949146
 NucSpn=           0           1           1           0           1           1           0           1           1           0
 AtZEff=   0.0000000   0.0000000   0.0000000   0.0000000   0.0000000   0.0000000   0.0000000   0.0000000   0.0000000   0.0000000
 NQMom=    0.0000000   0.0000000   0.0000000   0.0000000   0.0000000   0.0000000   0.0000000   0.0000000   0.0000000   0.0000000
 NMagM=    0.0000000   2.7928460   2.7928460   0.0000000   2.7928460   2.7928460   0.0000000   2.7928460   2.7928460   0.0000000
 AtZNuc=   8.0000000   1.0000000   1.0000000   8.0000000   1.0000000   1.0000000   8.0000000   1.0000000   1.0000000   8.0000000

  Atom        21          22          23          24          25          26          27          28          29          30
 IAtWgt=           1           1          16           1           1          16           1           1          16           1
 AtmWgt=   1.0078250   1.0078250  15.9949146   1.0078250   1.0078250  15.9949146   1.0078250   1.0078250  15.9949146   1.0078250
 NucSpn=           1           1           0           1           1           0           1           1           0           1
 AtZEff=   0.0000000   0.0000000   0.0000000   0.0000000   0.0000000   0.0000000   0.0000000   0.0000000   0.0000000   0.0000000
 NQMom=    0.0000000   0.0000000   0.0000000   0.0000000   0.0000000   0.0000000   0.0000000   0.0000000   0.0000000   0.0000000
 NMagM=    2.7928460   2.7928460   0.0000000   2.7928460   2.7928460   0.0000000   2.7928460   2.7928460   0.0000000   2.7928460
 AtZNuc=   1.0000000   1.0000000   8.0000000   1.0000000   1.0000000   8.0000000   1.0000000   1.0000000   8.0000000   1.0000000

  Atom        31          32          33          34          35          36          37          38          39          40
 IAtWgt=           1          16           1           1          16           1           1          16           1           1
 AtmWgt=   1.0078250  15.9949146   1.0078250   1.0078250  15.9949146   1.0078250   1.0078250  15.9949146   1.0078250   1.0078250
 NucSpn=           1           0           1           1           0           1           1           0           1           1
 AtZEff=   0.0000000   0.0000000   0.0000000   0.0000000   0.0000000   0.0000000   0.0000000   0.0000000   0.0000000   0.0000000
 NQMom=    0.0000000   0.0000000   0.0000000   0.0000000   0.0000000   0.0000000   0.0000000   0.0000000   0.0000000   0.0000000
 NMagM=    2.7928460   0.0000000   2.7928460   2.7928460   0.0000000   2.7928460   2.7928460   0.0000000   2.7928460   2.7928460
 AtZNuc=   1.0000000   8.0000000   1.0000000   1.0000000   8.0000000   1.0000000   1.0000000   8.0000000   1.0000000   1.0000000

  Atom        41          42          43          44          45          46          47          48          49          50
 IAtWgt=          16           1           1          16           1           1          16           1           1          16
 AtmWgt=  15.9949146   1.0078250   1.0078250  15.9949146   1.0078250   1.0078250  15.9949146   1.0078250   1.0078250  15.9949146
 NucSpn=           0           1           1           0           1           1           0           1           1           0
 AtZEff=   0.0000000   0.0000000   0.0000000   0.0000000   0.0000000   0.0000000   0.0000000   0.0000000   0.0000000   0.0000000
 NQMom=    0.0000000   0.0000000   0.0000000   0.0000000   0.0000000   0.0000000   0.0000000   0.0000000   0.0000000   0.0000000
 NMagM=    0.0000000   2.7928460   2.7928460   0.0000000   2.7928460   2.7928460   0.0000000   2.7928460   2.7928460   0.0000000
 AtZNuc=   8.0000000   1.0000000   1.0000000   8.0000000   1.0000000   1.0000000   8.0000000   1.0000000   1.0000000   8.0000000

  Atom        51          52          53          54          55          56          57          58          59          60
 IAtWgt=           1           1          16           1           1          16           1           1          16           1
 AtmWgt=   1.0078250   1.0078250  15.9949146   1.0078250   1.0078250  15.9949146   1.0078250   1.0078250  15.9949146   1.0078250
 NucSpn=           1           1           0           1           1           0           1           1           0           1
 AtZEff=   0.0000000   0.0000000   0.0000000   0.0000000   0.0000000   0.0000000   0.0000000   0.0000000   0.0000000   0.0000000
 NQMom=    0.0000000   0.0000000   0.0000000   0.0000000   0.0000000   0.0000000   0.0000000   0.0000000   0.0000000   0.0000000
 NMagM=    2.7928460   2.7928460   0.0000000   2.7928460   2.7928460   0.0000000   2.7928460   2.7928460   0.0000000   2.7928460
 AtZNuc=   1.0000000   1.0000000   8.0000000   1.0000000   1.0000000   8.0000000   1.0000000   1.0000000   8.0000000   1.0000000

  Atom        61          62          63          64          65          66          67          68          69          70
 IAtWgt=           1          16           1           1          16           1           1          16           1           1
 AtmWgt=   1.0078250  15.9949146   1.0078250   1.0078250  15.9949146   1.0078250   1.0078250  15.9949146   1.0078250   1.0078250
 NucSpn=           1           0           1           1           0           1           1           0           1           1
 AtZEff=   0.0000000   0.0000000   0.0000000   0.0000000   0.0000000   0.0000000   0.0000000   0.0000000   0.0000000   0.0000000
 NQMom=    0.0000000   0.0000000   0.0000000   0.0000000   0.0000000   0.0000000   0.0000000   0.0000000   0.0000000   0.0000000
 NMagM=    2.7928460   0.0000000   2.7928460   2.7928460   0.0000000   2.7928460   2.7928460   0.0000000   2.7928460   2.7928460
 AtZNuc=   1.0000000   8.0000000   1.0000000   1.0000000   8.0000000   1.0000000   1.0000000   8.0000000   1.0000000   1.0000000

  Atom        71          72          73          74          75          76          77          78          79          80
 IAtWgt=          16           1           1          16           1           1          16           1           1          16
 AtmWgt=  15.9949146   1.0078250   1.0078250  15.9949146   1.0078250   1.0078250  15.9949146   1.0078250   1.0078250  15.9949146
 NucSpn=           0           1           1           0           1           1           0           1           1           0
 AtZEff=   0.0000000   0.0000000   0.0000000   0.0000000   0.0000000   0.0000000   0.0000000   0.0000000   0.0000000   0.0000000
 NQMom=    0.0000000   0.0000000   0.0000000   0.0000000   0.0000000   0.0000000   0.0000000   0.0000000   0.0000000   0.0000000
 NMagM=    0.0000000   2.7928460   2.7928460   0.0000000   2.7928460   2.7928460   0.0000000   2.7928460   2.7928460   0.0000000
 AtZNuc=   8.0000000   1.0000000   1.0000000   8.0000000   1.0000000   1.0000000   8.0000000   1.0000000   1.0000000   8.0000000

  Atom        81          82          83          84          85          86          87          88          89          90
 IAtWgt=           1           1          16           1           1          16           1           1          16           1
 AtmWgt=   1.0078250   1.0078250  15.9949146   1.0078250   1.0078250  15.9949146   1.0078250   1.0078250  15.9949146   1.0078250
 NucSpn=           1           1           0           1           1           0           1           1           0           1
 AtZEff=   0.0000000   0.0000000   0.0000000   0.0000000   0.0000000   0.0000000   0.0000000   0.0000000   0.0000000   0.0000000
 NQMom=    0.0000000   0.0000000   0.0000000   0.0000000   0.0000000   0.0000000   0.0000000   0.0000000   0.0000000   0.0000000
 NMagM=    2.7928460   2.7928460   0.0000000   2.7928460   2.7928460   0.0000000   2.7928460   2.7928460   0.0000000   2.7928460
 AtZNuc=   1.0000000   1.0000000   8.0000000   1.0000000   1.0000000   8.0000000   1.0000000   1.0000000   8.0000000   1.0000000

  Atom        91          92          93          94          95          96          97          98          99         100
 IAtWgt=           1          16           1           1          16           1           1          16           1           1
 AtmWgt=   1.0078250  15.9949146   1.0078250   1.0078250  15.9949146   1.0078250   1.0078250  15.9949146   1.0078250   1.0078250
 NucSpn=           1           0           1           1           0           1           1           0           1           1
 AtZEff=   0.0000000   0.0000000   0.0000000   0.0000000   0.0000000   0.0000000   0.0000000   0.0000000   0.0000000   0.0000000
 NQMom=    0.0000000   0.0000000   0.0000000   0.0000000   0.0000000   0.0000000   0.0000000   0.0000000   0.0000000   0.0000000
 NMagM=    2.7928460   0.0000000   2.7928460   2.7928460   0.0000000   2.7928460   2.7928460   0.0000000   2.7928460   2.7928460
 AtZNuc=   1.0000000   8.0000000   1.0000000   1.0000000   8.0000000   1.0000000   1.0000000   8.0000000   1.0000000   1.0000000

  Atom       101         102         103         104         105         106         107         108         109         110
 IAtWgt=          16           1           1          16           1           1          16           1           1          16
 AtmWgt=  15.9949146   1.0078250   1.0078250  15.9949146   1.0078250   1.0078250  15.9949146   1.0078250   1.0078250  15.9949146
 NucSpn=           0           1           1           0           1           1           0           1           1           0
 AtZEff=   0.0000000   0.0000000   0.0000000   0.0000000   0.0000000   0.0000000   0.0000000   0.0000000   0.0000000   0.0000000
 NQMom=    0.0000000   0.0000000   0.0000000   0.0000000   0.0000000   0.0000000   0.0000000   0.0000000   0.0000000   0.0000000
 NMagM=    0.0000000   2.7928460   2.7928460   0.0000000   2.7928460   2.7928460   0.0000000   2.7928460   2.7928460   0.0000000
 AtZNuc=   8.0000000   1.0000000   1.0000000   8.0000000   1.0000000   1.0000000   8.0000000   1.0000000   1.0000000   8.0000000

  Atom       111         112         113         114         115         116         117         118         119         120
 IAtWgt=           1           1          16           1           1          16           1           1          16           1
 AtmWgt=   1.0078250   1.0078250  15.9949146   1.0078250   1.0078250  15.9949146   1.0078250   1.0078250  15.9949146   1.0078250
 NucSpn=           1           1           0           1           1           0           1           1           0           1
 AtZEff=   0.0000000   0.0000000   0.0000000   0.0000000   0.0000000   0.0000000   0.0000000   0.0000000   0.0000000   0.0000000
 NQMom=    0.0000000   0.0000000   0.0000000   0.0000000   0.0000000   0.0000000   0.0000000   0.0000000   0.0000000   0.0000000
 NMagM=    2.7928460   2.7928460   0.0000000   2.7928460   2.7928460   0.0000000   2.7928460   2.7928460   0.0000000   2.7928460
 AtZNuc=   1.0000000   1.0000000   8.0000000   1.0000000   1.0000000   8.0000000   1.0000000   1.0000000   8.0000000   1.0000000

  Atom       121         122         123         124         125         126         127         128         129         130
 IAtWgt=           1          16           1           1          16           1           1          16           1           1
 AtmWgt=   1.0078250  15.9949146   1.0078250   1.0078250  15.9949146   1.0078250   1.0078250  15.9949146   1.0078250   1.0078250
 NucSpn=           1           0           1           1           0           1           1           0           1           1
 AtZEff=   0.0000000   0.0000000   0.0000000   0.0000000   0.0000000   0.0000000   0.0000000   0.0000000   0.0000000   0.0000000
 NQMom=    0.0000000   0.0000000   0.0000000   0.0000000   0.0000000   0.0000000   0.0000000   0.0000000   0.0000000   0.0000000
 NMagM=    2.7928460   0.0000000   2.7928460   2.7928460   0.0000000   2.7928460   2.7928460   0.0000000   2.7928460   2.7928460
 AtZNuc=   1.0000000   8.0000000   1.0000000   1.0000000   8.0000000   1.0000000   1.0000000   8.0000000   1.0000000   1.0000000

  Atom       131         132         133         134         135         136         137         138         139         140
 IAtWgt=          16           1           1          16           1           1          16           1           1          16
 AtmWgt=  15.9949146   1.0078250   1.0078250  15.9949146   1.0078250   1.0078250  15.9949146   1.0078250   1.0078250  15.9949146
 NucSpn=           0           1           1           0           1           1           0           1           1           0
 AtZEff=   0.0000000   0.0000000   0.0000000   0.0000000   0.0000000   0.0000000   0.0000000   0.0000000   0.0000000   0.0000000
 NQMom=    0.0000000   0.0000000   0.0000000   0.0000000   0.0000000   0.0000000   0.0000000   0.0000000   0.0000000   0.0000000
 NMagM=    0.0000000   2.7928460   2.7928460   0.0000000   2.7928460   2.7928460   0.0000000   2.7928460   2.7928460   0.0000000
 AtZNuc=   8.0000000   1.0000000   1.0000000   8.0000000   1.0000000   1.0000000   8.0000000   1.0000000   1.0000000   8.0000000

  Atom       141         142         143         144         145         146         147         148         149         150
 IAtWgt=           1           1          16           1           1          16           1           1          16           1
 AtmWgt=   1.0078250   1.0078250  15.9949146   1.0078250   1.0078250  15.9949146   1.0078250   1.0078250  15.9949146   1.0078250
 NucSpn=           1           1           0           1           1           0           1           1           0           1
 AtZEff=   0.0000000   0.0000000   0.0000000   0.0000000   0.0000000   0.0000000   0.0000000   0.0000000   0.0000000   0.0000000
 NQMom=    0.0000000   0.0000000   0.0000000   0.0000000   0.0000000   0.0000000   0.0000000   0.0000000   0.0000000   0.0000000
 NMagM=    2.7928460   2.7928460   0.0000000   2.7928460   2.7928460   0.0000000   2.7928460   2.7928460   0.0000000   2.7928460
 AtZNuc=   1.0000000   1.0000000   8.0000000   1.0000000   1.0000000   8.0000000   1.0000000   1.0000000   8.0000000   1.0000000

  Atom       151         152         153         154         155         156         157         158         159         160
 IAtWgt=           1          16           1           1          16           1           1          16           1           1
 AtmWgt=   1.0078250  15.9949146   1.0078250   1.0078250  15.9949146   1.0078250   1.0078250  15.9949146   1.0078250   1.0078250
 NucSpn=           1           0           1           1           0           1           1           0           1           1
 AtZEff=   0.0000000   0.0000000   0.0000000   0.0000000   0.0000000   0.0000000   0.0000000   0.0000000   0.0000000   0.0000000
 NQMom=    0.0000000   0.0000000   0.0000000   0.0000000   0.0000000   0.0000000   0.0000000   0.0000000   0.0000000   0.0000000
 NMagM=    2.7928460   0.0000000   2.7928460   2.7928460   0.0000000   2.7928460   2.7928460   0.0000000   2.7928460   2.7928460
 AtZNuc=   1.0000000   8.0000000   1.0000000   1.0000000   8.0000000   1.0000000   1.0000000   8.0000000   1.0000000   1.0000000

  Atom       161         162         163         164         165         166         167         168         169         170
 IAtWgt=          16           1           1          16           1           1          16           1           1          16
 AtmWgt=  15.9949146   1.0078250   1.0078250  15.9949146   1.0078250   1.0078250  15.9949146   1.0078250   1.0078250  15.9949146
 NucSpn=           0           1           1           0           1           1           0           1           1           0
 AtZEff=   0.0000000   0.0000000   0.0000000   0.0000000   0.0000000   0.0000000   0.0000000   0.0000000   0.0000000   0.0000000
 NQMom=    0.0000000   0.0000000   0.0000000   0.0000000   0.0000000   0.0000000   0.0000000   0.0000000   0.0000000   0.0000000
 NMagM=    0.0000000   2.7928460   2.7928460   0.0000000   2.7928460   2.7928460   0.0000000   2.7928460   2.7928460   0.0000000
 AtZNuc=   8.0000000   1.0000000   1.0000000   8.0000000   1.0000000   1.0000000   8.0000000   1.0000000   1.0000000   8.0000000

  Atom       171         172         173         174         175         176         177         178         179         180
 IAtWgt=           1           1          16           1           1          16           1           1          16           1
 AtmWgt=   1.0078250   1.0078250  15.9949146   1.0078250   1.0078250  15.9949146   1.0078250   1.0078250  15.9949146   1.0078250
 NucSpn=           1           1           0           1           1           0           1           1           0           1
 AtZEff=   0.0000000   0.0000000   0.0000000   0.0000000   0.0000000   0.0000000   0.0000000   0.0000000   0.0000000   0.0000000
 NQMom=    0.0000000   0.0000000   0.0000000   0.0000000   0.0000000   0.0000000   0.0000000   0.0000000   0.0000000   0.0000000
 NMagM=    2.7928460   2.7928460   0.0000000   2.7928460   2.7928460   0.0000000   2.7928460   2.7928460   0.0000000   2.7928460
 AtZNuc=   1.0000000   1.0000000   8.0000000   1.0000000   1.0000000   8.0000000   1.0000000   1.0000000   8.0000000   1.0000000

  Atom       181         182         183         184         185         186         187         188         189         190
 IAtWgt=           1          16           1           1          16           1           1          16           1           1
 AtmWgt=   1.0078250  15.9949146   1.0078250   1.0078250  15.9949146   1.0078250   1.0078250  15.9949146   1.0078250   1.0078250
 NucSpn=           1           0           1           1           0           1           1           0           1           1
 AtZEff=   0.0000000   0.0000000   0.0000000   0.0000000   0.0000000   0.0000000   0.0000000   0.0000000   0.0000000   0.0000000
 NQMom=    0.0000000   0.0000000   0.0000000   0.0000000   0.0000000   0.0000000   0.0000000   0.0000000   0.0000000   0.0000000
 NMagM=    2.7928460   0.0000000   2.7928460   2.7928460   0.0000000   2.7928460   2.7928460   0.0000000   2.7928460   2.7928460
 AtZNuc=   1.0000000   8.0000000   1.0000000   1.0000000   8.0000000   1.0000000   1.0000000   8.0000000   1.0000000   1.0000000

  Atom       191         192         193         194         195         196         197         198         199         200
 IAtWgt=          16           1           1          16           1           1          16           1           1          16
 AtmWgt=  15.9949146   1.0078250   1.0078250  15.9949146   1.0078250   1.0078250  15.9949146   1.0078250   1.0078250  15.9949146
 NucSpn=           0           1           1           0           1           1           0           1           1           0
 AtZEff=   0.0000000   0.0000000   0.0000000   0.0000000   0.0000000   0.0000000   0.0000000   0.0000000   0.0000000   0.0000000
 NQMom=    0.0000000   0.0000000   0.0000000   0.0000000   0.0000000   0.0000000   0.0000000   0.0000000   0.0000000   0.0000000
 NMagM=    0.0000000   2.7928460   2.7928460   0.0000000   2.7928460   2.7928460   0.0000000   2.7928460   2.7928460   0.0000000
 AtZNuc=   8.0000000   1.0000000   1.0000000   8.0000000   1.0000000   1.0000000   8.0000000   1.0000000   1.0000000   8.0000000

  Atom       201         202         203         204         205         206         207         208         209         210
 IAtWgt=           1           1          16           1           1          16           1           1          16           1
 AtmWgt=   1.0078250   1.0078250  15.9949146   1.0078250   1.0078250  15.9949146   1.0078250   1.0078250  15.9949146   1.0078250
 NucSpn=           1           1           0           1           1           0           1           1           0           1
 AtZEff=   0.0000000   0.0000000   0.0000000   0.0000000   0.0000000   0.0000000   0.0000000   0.0000000   0.0000000   0.0000000
 NQMom=    0.0000000   0.0000000   0.0000000   0.0000000   0.0000000   0.0000000   0.0000000   0.0000000   0.0000000   0.0000000
 NMagM=    2.7928460   2.7928460   0.0000000   2.7928460   2.7928460   0.0000000   2.7928460   2.7928460   0.0000000   2.7928460
 AtZNuc=   1.0000000   1.0000000   8.0000000   1.0000000   1.0000000   8.0000000   1.0000000   1.0000000   8.0000000   1.0000000

  Atom       211         212         213         214         215         216         217         218         219         220
 IAtWgt=           1          16           1           1          16           1           1          16           1           1
 AtmWgt=   1.0078250  15.9949146   1.0078250   1.0078250  15.9949146   1.0078250   1.0078250  15.9949146   1.0078250   1.0078250
 NucSpn=           1           0           1           1           0           1           1           0           1           1
 AtZEff=   0.0000000   0.0000000   0.0000000   0.0000000   0.0000000   0.0000000   0.0000000   0.0000000   0.0000000   0.0000000
 NQMom=    0.0000000   0.0000000   0.0000000   0.0000000   0.0000000   0.0000000   0.0000000   0.0000000   0.0000000   0.0000000
 NMagM=    2.7928460   0.0000000   2.7928460   2.7928460   0.0000000   2.7928460   2.7928460   0.0000000   2.7928460   2.7928460
 AtZNuc=   1.0000000   8.0000000   1.0000000   1.0000000   8.0000000   1.0000000   1.0000000   8.0000000   1.0000000   1.0000000

  Atom       221         222         223         224         225         226         227         228         229         230
 IAtWgt=          16           1           1          16           1           1          16           1           1          16
 AtmWgt=  15.9949146   1.0078250   1.0078250  15.9949146   1.0078250   1.0078250  15.9949146   1.0078250   1.0078250  15.9949146
 NucSpn=           0           1           1           0           1           1           0           1           1           0
 AtZEff=   0.0000000   0.0000000   0.0000000   0.0000000   0.0000000   0.0000000   0.0000000   0.0000000   0.0000000   0.0000000
 NQMom=    0.0000000   0.0000000   0.0000000   0.0000000   0.0000000   0.0000000   0.0000000   0.0000000   0.0000000   0.0000000
 NMagM=    0.0000000   2.7928460   2.7928460   0.0000000   2.7928460   2.7928460   0.0000000   2.7928460   2.7928460   0.0000000
 AtZNuc=   8.0000000   1.0000000   1.0000000   8.0000000   1.0000000   1.0000000   8.0000000   1.0000000   1.0000000   8.0000000

  Atom       231         232         233         234         235         236         237         238         239         240
 IAtWgt=           1           1          16           1           1          16           1           1          16           1
 AtmWgt=   1.0078250   1.0078250  15.9949146   1.0078250   1.0078250  15.9949146   1.0078250   1.0078250  15.9949146   1.0078250
 NucSpn=           1           1           0           1           1           0           1           1           0           1
 AtZEff=   0.0000000   0.0000000   0.0000000   0.0000000   0.0000000   0.0000000   0.0000000   0.0000000   0.0000000   0.0000000
 NQMom=    0.0000000   0.0000000   0.0000000   0.0000000   0.0000000   0.0000000   0.0000000   0.0000000   0.0000000   0.0000000
 NMagM=    2.7928460   2.7928460   0.0000000   2.7928460   2.7928460   0.0000000   2.7928460   2.7928460   0.0000000   2.7928460
 AtZNuc=   1.0000000   1.0000000   8.0000000   1.0000000   1.0000000   8.0000000   1.0000000   1.0000000   8.0000000   1.0000000

  Atom       241         242         243         244         245         246         247         248         249         250
 IAtWgt=           1          16           1           1          16           1           1          16           1           1
 AtmWgt=   1.0078250  15.9949146   1.0078250   1.0078250  15.9949146   1.0078250   1.0078250  15.9949146   1.0078250   1.0078250
 NucSpn=           1           0           1           1           0           1           1           0           1           1
 AtZEff=   0.0000000   0.0000000   0.0000000   0.0000000   0.0000000   0.0000000   0.0000000   0.0000000   0.0000000   0.0000000
 NQMom=    0.0000000   0.0000000   0.0000000   0.0000000   0.0000000   0.0000000   0.0000000   0.0000000   0.0000000   0.0000000
 NMagM=    2.7928460   0.0000000   2.7928460   2.7928460   0.0000000   2.7928460   2.7928460   0.0000000   2.7928460   2.7928460
 AtZNuc=   1.0000000   8.0000000   1.0000000   1.0000000   8.0000000   1.0000000   1.0000000   8.0000000   1.0000000   1.0000000

  Atom       251         252         253         254         255         256         257         258         259         260
 IAtWgt=          16           1           1          16           1           1          16           1           1          16
 AtmWgt=  15.9949146   1.0078250   1.0078250  15.9949146   1.0078250   1.0078250  15.9949146   1.0078250   1.0078250  15.9949146
 NucSpn=           0           1           1           0           1           1           0           1           1           0
 AtZEff=   0.0000000   0.0000000   0.0000000   0.0000000   0.0000000   0.0000000   0.0000000   0.0000000   0.0000000   0.0000000
 NQMom=    0.0000000   0.0000000   0.0000000   0.0000000   0.0000000   0.0000000   0.0000000   0.0000000   0.0000000   0.0000000
 NMagM=    0.0000000   2.7928460   2.7928460   0.0000000   2.7928460   2.7928460   0.0000000   2.7928460   2.7928460   0.0000000
 AtZNuc=   8.0000000   1.0000000   1.0000000   8.0000000   1.0000000   1.0000000   8.0000000   1.0000000   1.0000000   8.0000000

  Atom       261         262         263         264         265         266         267         268         269         270
 IAtWgt=           1           1          16           1           1          16           1           1          16           1
 AtmWgt=   1.0078250   1.0078250  15.9949146   1.0078250   1.0078250  15.9949146   1.0078250   1.0078250  15.9949146   1.0078250
 NucSpn=           1           1           0           1           1           0           1           1           0           1
 AtZEff=   0.0000000   0.0000000   0.0000000   0.0000000   0.0000000   0.0000000   0.0000000   0.0000000   0.0000000   0.0000000
 NQMom=    0.0000000   0.0000000   0.0000000   0.0000000   0.0000000   0.0000000   0.0000000   0.0000000   0.0000000   0.0000000
 NMagM=    2.7928460   2.7928460   0.0000000   2.7928460   2.7928460   0.0000000   2.7928460   2.7928460   0.0000000   2.7928460
 AtZNuc=   1.0000000   1.0000000   8.0000000   1.0000000   1.0000000   8.0000000   1.0000000   1.0000000   8.0000000   1.0000000

  Atom       271         272         273         274         275         276         277         278         279         280
 IAtWgt=           1          16           1           1          16           1           1          16           1           1
 AtmWgt=   1.0078250  15.9949146   1.0078250   1.0078250  15.9949146   1.0078250   1.0078250  15.9949146   1.0078250   1.0078250
 NucSpn=           1           0           1           1           0           1           1           0           1           1
 AtZEff=   0.0000000   0.0000000   0.0000000   0.0000000   0.0000000   0.0000000   0.0000000   0.0000000   0.0000000   0.0000000
 NQMom=    0.0000000   0.0000000   0.0000000   0.0000000   0.0000000   0.0000000   0.0000000   0.0000000   0.0000000   0.0000000
 NMagM=    2.7928460   0.0000000   2.7928460   2.7928460   0.0000000   2.7928460   2.7928460   0.0000000   2.7928460   2.7928460
 AtZNuc=   1.0000000   8.0000000   1.0000000   1.0000000   8.0000000   1.0000000   1.0000000   8.0000000   1.0000000   1.0000000

  Atom       281         282         283         284         285         286         287         288         289         290
 IAtWgt=          16           1           1          16           1           1          16           1           1          16
 AtmWgt=  15.9949146   1.0078250   1.0078250  15.9949146   1.0078250   1.0078250  15.9949146   1.0078250   1.0078250  15.9949146
 NucSpn=           0           1           1           0           1           1           0           1           1           0
 AtZEff=   0.0000000   0.0000000   0.0000000   0.0000000   0.0000000   0.0000000   0.0000000   0.0000000   0.0000000   0.0000000
 NQMom=    0.0000000   0.0000000   0.0000000   0.0000000   0.0000000   0.0000000   0.0000000   0.0000000   0.0000000   0.0000000
 NMagM=    0.0000000   2.7928460   2.7928460   0.0000000   2.7928460   2.7928460   0.0000000   2.7928460   2.7928460   0.0000000
 AtZNuc=   8.0000000   1.0000000   1.0000000   8.0000000   1.0000000   1.0000000   8.0000000   1.0000000   1.0000000   8.0000000

  Atom       291         292         293         294         295         296         297         298         299         300
 IAtWgt=           1           1          16           1           1          16           1           1          16           1
 AtmWgt=   1.0078250   1.0078250  15.9949146   1.0078250   1.0078250  15.9949146   1.0078250   1.0078250  15.9949146   1.0078250
 NucSpn=           1           1           0           1           1           0           1           1           0           1
 AtZEff=   0.0000000   0.0000000   0.0000000   0.0000000   0.0000000   0.0000000   0.0000000   0.0000000   0.0000000   0.0000000
 NQMom=    0.0000000   0.0000000   0.0000000   0.0000000   0.0000000   0.0000000   0.0000000   0.0000000   0.0000000   0.0000000
 NMagM=    2.7928460   2.7928460   0.0000000   2.7928460   2.7928460   0.0000000   2.7928460   2.7928460   0.0000000   2.7928460
 AtZNuc=   1.0000000   1.0000000   8.0000000   1.0000000   1.0000000   8.0000000   1.0000000   1.0000000   8.0000000   1.0000000

  Atom       301         302         303         304         305         306         307         308         309         310
 IAtWgt=           1          16           1           1          16           1           1          16           1           1
 AtmWgt=   1.0078250  15.9949146   1.0078250   1.0078250  15.9949146   1.0078250   1.0078250  15.9949146   1.0078250   1.0078250
 NucSpn=           1           0           1           1           0           1           1           0           1           1
 AtZEff=   0.0000000   0.0000000   0.0000000   0.0000000   0.0000000   0.0000000   0.0000000   0.0000000   0.0000000   0.0000000
 NQMom=    0.0000000   0.0000000   0.0000000   0.0000000   0.0000000   0.0000000   0.0000000   0.0000000   0.0000000   0.0000000
 NMagM=    2.7928460   0.0000000   2.7928460   2.7928460   0.0000000   2.7928460   2.7928460   0.0000000   2.7928460   2.7928460
 AtZNuc=   1.0000000   8.0000000   1.0000000   1.0000000   8.0000000   1.0000000   1.0000000   8.0000000   1.0000000   1.0000000

  Atom       311         312         313         314         315         316         317         318         319         320
 IAtWgt=          16           1           1          16           1           1          16           1           1          16
 AtmWgt=  15.9949146   1.0078250   1.0078250  15.9949146   1.0078250   1.0078250  15.9949146   1.0078250   1.0078250  15.9949146
 NucSpn=           0           1           1           0           1           1           0           1           1           0
 AtZEff=   0.0000000   0.0000000   0.0000000   0.0000000   0.0000000   0.0000000   0.0000000   0.0000000   0.0000000   0.0000000
 NQMom=    0.0000000   0.0000000   0.0000000   0.0000000   0.0000000   0.0000000   0.0000000   0.0000000   0.0000000   0.0000000
 NMagM=    0.0000000   2.7928460   2.7928460   0.0000000   2.7928460   2.7928460   0.0000000   2.7928460   2.7928460   0.0000000
 AtZNuc=   8.0000000   1.0000000   1.0000000   8.0000000   1.0000000   1.0000000   8.0000000   1.0000000   1.0000000   8.0000000

  Atom       321         322         323         324         325         326         327         328         329         330
 IAtWgt=           1           1          16           1           1          16           1           1          16           1
 AtmWgt=   1.0078250   1.0078250  15.9949146   1.0078250   1.0078250  15.9949146   1.0078250   1.0078250  15.9949146   1.0078250
 NucSpn=           1           1           0           1           1           0           1           1           0           1
 AtZEff=   0.0000000   0.0000000   0.0000000   0.0000000   0.0000000   0.0000000   0.0000000   0.0000000   0.0000000   0.0000000
 NQMom=    0.0000000   0.0000000   0.0000000   0.0000000   0.0000000   0.0000000   0.0000000   0.0000000   0.0000000   0.0000000
 NMagM=    2.7928460   2.7928460   0.0000000   2.7928460   2.7928460   0.0000000   2.7928460   2.7928460   0.0000000   2.7928460
 AtZNuc=   1.0000000   1.0000000   8.0000000   1.0000000   1.0000000   8.0000000   1.0000000   1.0000000   8.0000000   1.0000000

  Atom       331         332         333         334         335         336         337         338         339         340
 IAtWgt=           1          16           1           1          16           1           1          16           1           1
 AtmWgt=   1.0078250  15.9949146   1.0078250   1.0078250  15.9949146   1.0078250   1.0078250  15.9949146   1.0078250   1.0078250
 NucSpn=           1           0           1           1           0           1           1           0           1           1
 AtZEff=   0.0000000   0.0000000   0.0000000   0.0000000   0.0000000   0.0000000   0.0000000   0.0000000   0.0000000   0.0000000
 NQMom=    0.0000000   0.0000000   0.0000000   0.0000000   0.0000000   0.0000000   0.0000000   0.0000000   0.0000000   0.0000000
 NMagM=    2.7928460   0.0000000   2.7928460   2.7928460   0.0000000   2.7928460   2.7928460   0.0000000   2.7928460   2.7928460
 AtZNuc=   1.0000000   8.0000000   1.0000000   1.0000000   8.0000000   1.0000000   1.0000000   8.0000000   1.0000000   1.0000000

  Atom       341         342         343         344         345         346         347         348         349         350
 IAtWgt=          16           1           1          16           1           1          16           1           1          16
 AtmWgt=  15.9949146   1.0078250   1.0078250  15.9949146   1.0078250   1.0078250  15.9949146   1.0078250   1.0078250  15.9949146
 NucSpn=           0           1           1           0           1           1           0           1           1           0
 AtZEff=   0.0000000   0.0000000   0.0000000   0.0000000   0.0000000   0.0000000   0.0000000   0.0000000   0.0000000   0.0000000
 NQMom=    0.0000000   0.0000000   0.0000000   0.0000000   0.0000000   0.0000000   0.0000000   0.0000000   0.0000000   0.0000000
 NMagM=    0.0000000   2.7928460   2.7928460   0.0000000   2.7928460   2.7928460   0.0000000   2.7928460   2.7928460   0.0000000
 AtZNuc=   8.0000000   1.0000000   1.0000000   8.0000000   1.0000000   1.0000000   8.0000000   1.0000000   1.0000000   8.0000000

  Atom       351         352         353         354         355         356         357         358         359         360
 IAtWgt=           1           1          16           1           1          16           1           1          16           1
 AtmWgt=   1.0078250   1.0078250  15.9949146   1.0078250   1.0078250  15.9949146   1.0078250   1.0078250  15.9949146   1.0078250
 NucSpn=           1           1           0           1           1           0           1           1           0           1
 AtZEff=   0.0000000   0.0000000   0.0000000   0.0000000   0.0000000   0.0000000   0.0000000   0.0000000   0.0000000   0.0000000
 NQMom=    0.0000000   0.0000000   0.0000000   0.0000000   0.0000000   0.0000000   0.0000000   0.0000000   0.0000000   0.0000000
 NMagM=    2.7928460   2.7928460   0.0000000   2.7928460   2.7928460   0.0000000   2.7928460   2.7928460   0.0000000   2.7928460
 AtZNuc=   1.0000000   1.0000000   8.0000000   1.0000000   1.0000000   8.0000000   1.0000000   1.0000000   8.0000000   1.0000000

  Atom       361         362         363         364         365         366         367         368         369         370
 IAtWgt=           1          16           1           1          16           1           1          16           1           1
 AtmWgt=   1.0078250  15.9949146   1.0078250   1.0078250  15.9949146   1.0078250   1.0078250  15.9949146   1.0078250   1.0078250
 NucSpn=           1           0           1           1           0           1           1           0           1           1
 AtZEff=   0.0000000   0.0000000   0.0000000   0.0000000   0.0000000   0.0000000   0.0000000   0.0000000   0.0000000   0.0000000
 NQMom=    0.0000000   0.0000000   0.0000000   0.0000000   0.0000000   0.0000000   0.0000000   0.0000000   0.0000000   0.0000000
 NMagM=    2.7928460   0.0000000   2.7928460   2.7928460   0.0000000   2.7928460   2.7928460   0.0000000   2.7928460   2.7928460
 AtZNuc=   1.0000000   8.0000000   1.0000000   1.0000000   8.0000000   1.0000000   1.0000000   8.0000000   1.0000000   1.0000000

  Atom       371         372         373         374         375         376         377         378         379         380
 IAtWgt=          16           1           1          16           1           1          16           1           1          16
 AtmWgt=  15.9949146   1.0078250   1.0078250  15.9949146   1.0078250   1.0078250  15.9949146   1.0078250   1.0078250  15.9949146
 NucSpn=           0           1           1           0           1           1           0           1           1           0
 AtZEff=   0.0000000   0.0000000   0.0000000   0.0000000   0.0000000   0.0000000   0.0000000   0.0000000   0.0000000   0.0000000
 NQMom=    0.0000000   0.0000000   0.0000000   0.0000000   0.0000000   0.0000000   0.0000000   0.0000000   0.0000000   0.0000000
 NMagM=    0.0000000   2.7928460   2.7928460   0.0000000   2.7928460   2.7928460   0.0000000   2.7928460   2.7928460   0.0000000
 AtZNuc=   8.0000000   1.0000000   1.0000000   8.0000000   1.0000000   1.0000000   8.0000000   1.0000000   1.0000000   8.0000000

  Atom       381         382         383         384         385
 IAtWgt=           1           1          16           1           1
 AtmWgt=   1.0078250   1.0078250  15.9949146   1.0078250   1.0078250
 NucSpn=           1           1           0           1           1
 AtZEff=   0.0000000   0.0000000   0.0000000   0.0000000   0.0000000
 NQMom=    0.0000000   0.0000000   0.0000000   0.0000000   0.0000000
 NMagM=    2.7928460   2.7928460   0.0000000   2.7928460   2.7928460
 AtZNuc=   1.0000000   1.0000000   8.0000000   1.0000000   1.0000000
 Leave Link  101 at Thu May 17 08:01:24 2018, MaxMem= 14763950080 cpu:        33.3
 (Enter /cm/shared/gaussian/g09.e01/intel64-sandybridge/g09/l103.exe)

 GradGradGradGradGradGradGradGradGradGradGradGradGradGradGradGradGradGrad
 Berny optimization.
 Initialization pass.
 Trust Radius=3.00D-01 FncErr=1.00D-07 GrdErr=1.00D-07
 Number of steps in this run=      2 maximum allowed number of steps=      2.
 GradGradGradGradGradGradGradGradGradGradGradGradGradGradGradGradGradGrad

 Leave Link  103 at Thu May 17 08:01:25 2018, MaxMem= 14763950080 cpu:         3.6
 (Enter /cm/shared/gaussian/g09.e01/intel64-sandybridge/g09/l202.exe)
 Symmetry turned off by external request.
 Stoichiometry    BrH256O128(1-)
 Framework group  C1[X(BrH256O128)]
 Deg. of freedom  1149
 Full point group                 C1      NOp   1
                          Input orientation:                          
 ---------------------------------------------------------------------
 Center     Atomic      Atomic             Coordinates (Angstroms)
 Number     Number       Type             X           Y           Z
 ---------------------------------------------------------------------
      1         35           0       20.000000   20.000000   20.000000
      2          8           0       21.030000   21.010000   17.140000
      3          1           0       21.980000   20.870000   17.150000
      4          1           0       20.720000   20.580000   17.940000
      5          8           0       17.530000   20.390000   21.940000
      6          1           0       17.970000   20.950000   22.580000
      7          1           0       18.250000   19.960000   21.470000
      8          8           0       17.720000   18.320000   18.430000
      9          1           0       18.370000   18.760000   18.970000
     10          1           0       17.930000   18.580000   17.530000
     11          8           0       21.820000   17.800000   18.600000
     12          1           0       21.540000   18.530000   19.140000
     13          1           0       22.710000   17.620000   18.890000
     14          8           0       23.080000   20.760000   20.660000
     15          1           0       22.210000   20.680000   20.280000
     16          1           0       23.290000   21.700000   20.580000
     17          8           0       20.040000   17.270000   21.790000
     18          1           0       20.890000   16.950000   21.480000
     19          1           0       19.810000   17.970000   21.180000
     20          8           0       18.660000   23.070000   20.370000
     21          1           0       19.160000   22.380000   20.810000
     22          1           0       18.630000   22.800000   19.460000
     23          8           0       21.100000   21.820000   22.550000
     24          1           0       21.220000   20.950000   22.170000
     25          1           0       20.260000   21.780000   23.000000
     26          8           0       16.210000   20.920000   19.340000
     27          1           0       16.920000   20.690000   19.940000
     28          1           0       16.030000   20.100000   18.860000
     29          8           0       21.680000   23.150000   19.820000
     30          1           0       20.800000   23.110000   19.440000
     31          1           0       21.530000   23.380000   20.740000
     32          8           0       17.890000   22.330000   17.910000
     33          1           0       17.360000   21.700000   18.390000
     34          1           0       17.270000   22.980000   17.580000
     35          8           0       20.400000   23.810000   16.990000
     36          1           0       20.630000   22.900000   17.190000
     37          1           0       20.920000   24.020000   16.210000
     38          8           0       18.810000   21.710000   23.940000
     39          1           0       18.550000   22.630000   23.900000
     40          1           0       18.930000   21.540000   24.880000
     41          8           0       24.920000   18.700000   20.460000
     42          1           0       24.470000   18.340000   21.220000
     43          1           0       24.490000   19.540000   20.300000
     44          8           0       18.720000   21.870000   15.230000
     45          1           0       18.710000   22.070000   16.170000
     46          1           0       19.650000   21.890000   14.990000
     47          8           0       18.150000   15.610000   17.250000
     48          1           0       18.340000   16.440000   17.670000
     49          1           0       18.240000   14.960000   17.950000
     50          8           0       15.660000   18.950000   23.370000
     51          1           0       15.180000   19.760000   23.550000
     52          1           0       16.450000   19.240000   22.910000
     53          8           0       21.480000   14.870000   18.890000
     54          1           0       22.330000   14.480000   19.090000
     55          1           0       21.690000   15.760000   18.590000
     56          8           0       18.990000   25.600000   21.090000
     57          1           0       18.880000   24.670000   20.880000
     58          1           0       18.110000   25.960000   21.060000
     59          8           0       19.420000   15.630000   23.870000
     60          1           0       18.480000   15.450000   23.870000
     61          1           0       19.560000   16.180000   23.090000
     62          8           0       18.100000   19.360000   14.870000
     63          1           0       18.180000   20.230000   15.260000
     64          1           0       18.930000   18.930000   15.060000
     65          8           0       21.070000   15.540000   16.010000
     66          1           0       20.970000   16.250000   16.650000
     67          1           0       20.290000   15.000000   16.130000
     68          8           0       20.750000   18.400000   15.190000
     69          1           0       21.250000   17.590000   15.150000
     70          1           0       21.260000   19.020000   14.660000
     71          8           0       15.520000   16.090000   19.360000
     72          1           0       16.000000   15.940000   18.550000
     73          1           0       16.020000   16.770000   19.810000
     74          8           0       25.760000   21.610000   19.700000
     75          1           0       24.880000   21.550000   19.320000
     76          1           0       25.710000   22.370000   20.280000
     77          8           0       23.370000   22.660000   24.290000
     78          1           0       23.810000   21.850000   24.040000
     79          1           0       22.560000   22.670000   23.780000
     80          8           0       23.260000   25.020000   18.220000
     81          1           0       23.220000   25.720000   18.860000
     82          1           0       22.540000   24.440000   18.450000
     83          8           0       14.040000   21.520000   21.070000
     84          1           0       14.860000   21.500000   20.580000
     85          1           0       14.310000   21.460000   21.990000
     86          8           0       24.060000   17.680000   22.990000
     87          1           0       24.580000   17.520000   23.780000
     88          1           0       23.390000   17.000000   22.990000
     89          8           0       21.500000   22.110000   14.280000
     90          1           0       21.670000   21.350000   14.840000
     91          1           0       22.350000   22.300000   13.870000
     92          8           0       19.760000   14.250000   20.860000
     93          1           0       20.470000   14.430000   20.230000
     94          1           0       19.470000   13.370000   20.650000
     95          8           0       22.170000   15.620000   23.240000
     96          1           0       22.220000   15.610000   24.190000
     97          1           0       21.250000   15.470000   23.040000
     98          8           0       24.820000   19.980000   17.100000
     99          1           0       24.470000   19.170000   16.710000
    100          1           0       25.730000   19.780000   17.310000
    101          8           0       21.720000   24.930000   22.110000
    102          1           0       22.020000   25.410000   22.880000
    103          1           0       21.040000   25.500000   21.730000
    104          8           0       18.710000   26.000000   17.780000
    105          1           0       19.230000   25.230000   18.010000
    106          1           0       19.300000   26.540000   17.250000
    107          8           0       18.700000   24.620000   23.900000
    108          1           0       17.840000   25.040000   23.870000
    109          1           0       19.050000   24.730000   23.010000
    110          8           0       16.920000   16.280000   23.650000
    111          1           0       16.140000   15.750000   23.860000
    112          1           0       16.600000   17.180000   23.640000
    113          8           0       18.770000   17.940000   26.090000
    114          1           0       18.770000   17.220000   26.720000
    115          1           0       19.020000   17.530000   25.260000
    116          8           0       24.950000   24.500000   20.550000
    117          1           0       25.000000   25.420000   20.820000
    118          1           0       24.090000   24.210000   20.850000
    119          8           0       14.050000   18.740000   17.330000
    120          1           0       13.880000   19.680000   17.230000
    121          1           0       14.930000   18.610000   17.000000
    122          8           0       15.870000   24.060000   17.190000
    123          1           0       15.360000   24.270000   17.970000
    124          1           0       15.320000   24.330000   16.460000
    125          8           0       26.100000   21.410000   22.900000
    126          1           0       26.760000   21.480000   23.590000
    127          1           0       25.770000   20.520000   22.960000
    128          8           0       13.260000   18.740000   20.100000
    129          1           0       13.650000   18.620000   19.230000
    130          1           0       12.400000   19.110000   19.930000
    131          8           0       24.900000   22.300000   14.790000
    132          1           0       25.480000   22.860000   15.310000
    133          1           0       24.470000   21.740000   15.440000
    134          8           0       25.400000   23.810000   17.260000
    135          1           0       24.610000   24.150000   17.690000
    136          1           0       25.800000   23.240000   17.910000
    137          8           0       26.600000   16.960000   18.800000
    138          1           0       26.330000   17.630000   19.420000
    139          1           0       25.870000   16.870000   18.190000
    140          8           0       13.610000   21.370000   17.820000
    141          1           0       12.960000   22.000000   17.520000
    142          1           0       13.420000   21.240000   18.750000
    143          8           0       18.500000   20.760000   26.700000
    144          1           0       18.690000   19.820000   26.710000
    145          1           0       19.030000   21.120000   27.410000
    146          8           0       24.980000   16.300000   17.030000
    147          1           0       25.530000   16.530000   16.280000
    148          1           0       24.420000   15.600000   16.720000
    149          8           0       17.000000   14.970000   14.970000
    150          1           0       17.630000   14.490000   14.430000
    151          1           0       17.480000   15.200000   15.760000
    152          8           0       15.030000   18.970000   14.500000
    153          1           0       14.920000   18.080000   14.160000
    154          1           0       15.970000   19.130000   14.450000
    155          8           0       18.900000   23.520000   13.160000
    156          1           0       18.670000   22.950000   13.880000
    157          1           0       19.030000   24.380000   13.560000
    158          8           0       22.980000   19.810000   13.750000
    159          1           0       22.660000   20.040000   12.880000
    160          1           0       23.890000   19.550000   13.610000
    161          8           0       20.040000   23.440000   26.310000
    162          1           0       19.120000   23.400000   26.020000
    163          1           0       20.350000   24.290000   26.000000
    164          8           0       17.570000   17.630000   13.000000
    165          1           0       17.860000   16.840000   13.440000
    166          1           0       17.830000   18.340000   13.580000
    167          8           0       27.600000   19.740000   20.480000
    168          1           0       26.990000   20.370000   20.090000
    169          1           0       27.030000   19.160000   21.000000
    170          8           0       18.190000   25.610000   14.880000
    171          1           0       17.260000   25.400000   14.730000
    172          1           0       18.350000   25.390000   15.790000
    173          8           0       15.300000   14.120000   21.350000
    174          1           0       15.110000   14.950000   20.910000
    175          1           0       15.730000   13.580000   20.680000
    176          8           0       20.150000   12.790000   17.410000
    177          1           0       20.880000   13.320000   17.740000
    178          1           0       20.400000   11.890000   17.610000
    179          8           0       15.960000   21.810000   26.250000
    180          1           0       16.850000   21.460000   26.210000
    181          1           0       15.740000   21.770000   27.180000
    182          8           0       15.620000   18.640000   26.610000
    183          1           0       15.500000   17.820000   26.120000
    184          1           0       16.240000   19.140000   26.090000
    185          8           0       23.560000   13.610000   19.630000
    186          1           0       23.450000   12.740000   20.000000
    187          1           0       24.450000   13.870000   19.890000
    188          8           0       21.230000   27.400000   17.100000
    189          1           0       21.710000   28.170000   17.420000
    190          1           0       21.720000   26.660000   17.450000
    191          8           0       23.640000   21.400000   26.880000
    192          1           0       23.650000   21.960000   26.110000
    193          1           0       22.890000   21.700000   27.390000
    194          8           0       21.690000   25.120000   14.930000
    195          1           0       21.380000   24.500000   14.260000
    196          1           0       21.310000   25.960000   14.680000
    197          8           0       25.760000   24.260000   23.770000
    198          1           0       25.360000   25.050000   23.400000
    199          1           0       25.030000   23.690000   23.990000
    200          8           0       12.740000   18.950000   23.020000
    201          1           0       13.030000   18.550000   22.190000
    202          1           0       13.460000   18.770000   23.630000
    203          8           0       19.420000   15.020000   13.580000
    204          1           0       19.850000   14.420000   12.980000
    205          1           0       20.130000   15.550000   13.950000
    206          8           0       23.280000   14.580000   14.730000
    207          1           0       23.210000   13.620000   14.730000
[...]
   X337      48.39589  -0.00024   0.00000   0.00093   0.00039  48.39627
   Y337      39.36300   0.00826   0.00000   0.00702   0.00631  39.36930
   Z337      24.77431   0.00990   0.00000   0.01932   0.01869  24.79300
   X338      53.44146  -0.00187   0.00000  -0.00654  -0.00643  53.43503
   Y338      41.91413  -0.01917   0.00000  -0.01279  -0.01369  41.90044
   Z338      33.52374  -0.00512   0.00000  -0.00097  -0.00193  33.52181
   X339      53.49815   0.00350   0.00000   0.00639   0.00665  53.50480
   Y339      43.01017   0.01267   0.00000   0.01085   0.00996  43.02013
   Z339      34.95993   0.00752   0.00000   0.00198   0.00101  34.96094
   X340      52.95013  -0.00071   0.00000   0.00137   0.00146  52.95159
   Y340      42.97237   0.00905   0.00000   0.00920   0.00832  42.98069
   Z340      32.14424  -0.00295   0.00000   0.00082  -0.00011  32.14413
   X341      43.18024   0.00072   0.00000  -0.00213  -0.00076  43.17948
   Y341      51.64622  -0.00049   0.00000  -0.00200  -0.00225  51.64397
   Z341      45.93924  -0.01036   0.00000  -0.00144  -0.00187  45.93738
   X342      42.38656  -0.01087   0.00000  -0.01304  -0.01164  42.37492
   Y342      50.79584  -0.00968   0.00000  -0.00936  -0.00956  50.78628
   Z342      47.31874   0.01185   0.00000   0.00912   0.00875  47.32750
   X343      44.33298   0.00789   0.00000   0.00686   0.00833  44.34131
   Y343      52.79895   0.00467   0.00000   0.00210   0.00179  52.80074
   Z343      46.71403   0.00316   0.00000   0.00202   0.00152  46.71555
   X344      33.14580  -0.00693   0.00000  -0.00372  -0.00251  33.14329
   Y344      55.50126   0.02758   0.00000   0.02582   0.02604  55.52729
   Z344      39.94881   0.00840   0.00000   0.00512   0.00526  39.95407
   X345      31.57732   0.00515   0.00000   0.00885   0.01005  31.58738
   Y345      54.74537  -0.00351   0.00000  -0.00363  -0.00332  54.74205
   Z345      40.45904   0.00240   0.00000   0.00474   0.00498  40.46402
   X346      34.09066   0.01166   0.00000   0.00921   0.01031  34.10097
   Y346      54.14065  -0.00764   0.00000   0.00693   0.00710  54.14775
   Z346      39.24961  -0.00696   0.00000  -0.00335  -0.00325  39.24636
   X347      35.31898   0.00969   0.00000   0.00695   0.00752  35.32650
   Y347      29.30965   0.00862   0.00000   0.00734   0.00756  29.31721
   Z347      52.11865  -0.00030   0.00000   0.00303   0.00327  52.12192
   X348      34.24184  -0.00381   0.00000   0.00052   0.00101  34.24284
   Y348      27.85456  -0.00687   0.00000  -0.00311  -0.00284  27.85173
   Z348      52.13754  -0.00397   0.00000  -0.00823  -0.00791  52.12964
   X349      34.73317  -0.00486   0.00000  -0.00738  -0.00668  34.72648
   Y349      30.33010  -0.00134   0.00000  -0.00423  -0.00397  30.32614
   Z349      53.49815   0.00772   0.00000   0.01066   0.01092  53.50907
   X350      56.12487   0.02977   0.00000   0.02440   0.02437  56.14923
   Y350      34.73317  -0.01874   0.00000  -0.01304  -0.01405  34.71912
   Z350      37.34099  -0.00063   0.00000   0.00428   0.00323  37.34422
   X351      56.42722  -0.00382   0.00000  -0.00367  -0.00374  56.42348
   Y351      35.77252   0.00297   0.00000   0.00026  -0.00078  35.77174
   Z351      35.88590  -0.00209   0.00000   0.00071  -0.00037  35.88553
   X352      54.55639  -0.01521   0.00000  -0.00117  -0.00114  54.55526
   Y352      35.33788   0.01596   0.00000   0.01608   0.01516  35.35304
   Z352      38.00239   0.00247   0.00000  -0.00235  -0.00331  37.99908
   X353      31.78519   0.00227   0.00000   0.00323   0.00261  31.78780
   Y353      42.19758   0.00314   0.00000   0.00129   0.00141  42.19899
   Z353      20.90037  -0.00379   0.00000  -0.00412  -0.00378  20.89659
   X354      30.87813  -0.00205   0.00000   0.00002  -0.00064  30.87749
   Y354      40.79919  -0.00400   0.00000  -0.00251  -0.00233  40.79686
   Z354      21.63736   0.00169   0.00000   0.00052   0.00093  21.63830
   X355      33.01352   0.00501   0.00000   0.00806   0.00753  33.02104
   Y355      42.65112   0.00275   0.00000   0.00424   0.00431  42.65543
   Z355      22.16649  -0.00325   0.00000  -0.00716  -0.00690  22.15959
   X356      46.46837  -0.00017   0.00000  -0.00552  -0.00583  46.46254
   Y356      45.61799   0.00094   0.00000   0.00283   0.00220  45.62019
   Z356      23.33812  -0.02000   0.00000  -0.01413  -0.01469  23.32342
   X357      46.01483   0.00455   0.00000   0.01369   0.01349  46.02833
   Y357      45.71248  -0.00134   0.00000  -0.00136  -0.00194  45.71053
   Z357      25.07667   0.01647   0.00000   0.01097   0.01043  25.08709
   X358      46.29829  -0.00113   0.00000  -0.00141  -0.00183  46.29646
   Y358      43.86054  -0.00059   0.00000  -0.00144  -0.00206  43.85848
   Z358      22.90348   0.00437   0.00000   0.00635   0.00580  22.90928
   X359      47.84787  -0.00794   0.00000  -0.00626  -0.00518  47.84269
   Y359      51.21158  -0.01235   0.00000  -0.00772  -0.00825  51.20333
   Z359      41.63067   0.00408   0.00000   0.00150   0.00080  41.63147
   X360      49.32185   0.01307   0.00000   0.00865   0.00972  49.33157
   Y360      51.87298   0.00460   0.00000   0.00162   0.00100  51.87398
   Z360      40.83698  -0.00580   0.00000  -0.00217  -0.00296  40.83402
   X361      46.77072  -0.00686   0.00000  -0.00886  -0.00768  46.76304
   Y361      52.64777   0.00385   0.00000   0.00061   0.00014  52.64791
   Z361      41.85743  -0.00035   0.00000  -0.00100  -0.00164  41.85579
   X362      25.01997  -0.01093   0.00000  -0.01207  -0.01081  25.00916
   Y362      47.77228   0.01449   0.00000   0.00834   0.00905  47.78133
   Z362      47.43213  -0.00366   0.00000  -0.00468  -0.00398  47.42814
   X363      25.30343   0.00374   0.00000   0.00165   0.00290  25.30633
   Y363      46.43057  -0.00977   0.00000  -0.00571  -0.00501  46.42556
   Z363      48.60376   0.00374   0.00000  -0.00153  -0.00084  48.60292
   X364      26.09712   0.00619   0.00000   0.00487   0.00602  26.10314
   Y364      47.37543  -0.00582   0.00000  -0.00676  -0.00612  47.36932
   Z364      46.03373  -0.00093   0.00000   0.00259   0.00323  46.03696
   X365      42.32987   0.01133   0.00000   0.01096   0.01003  42.33989
   Y365      36.32054   0.02605   0.00000   0.02036   0.01993  36.34047
   Z365      20.90037   0.00050   0.00000   0.00162   0.00138  20.90175
   X366      43.48260   0.00467   0.00000   0.00689   0.00586  43.48846
   Y366      36.01818   0.00081   0.00000   0.00333   0.00283  36.02101
   Z366      19.53977  -0.00354   0.00000  -0.00321  -0.00351  19.53626
   X367      41.47949  -0.01391   0.00000  -0.01120  -0.01220  41.46729
   Y367      34.75206  -0.01434   0.00000   0.00030  -0.00008  34.75199
   Z367      21.14604   0.00521   0.00000   0.00623   0.00606  21.15209
   X368      53.64932   0.03006   0.00000   0.01793   0.01886  53.66819
   Y368      45.48571  -0.00008   0.00000   0.00288   0.00207  45.48777
   Z368      44.04952  -0.00417   0.00000   0.00036  -0.00064  44.04888
   X369      54.27293  -0.00175   0.00000  -0.00070   0.00017  54.27310
   Y369      43.80385   0.00280   0.00000   0.00100   0.00015  43.80401
   Z369      44.38967  -0.00305   0.00000  -0.00423  -0.00525  44.38442
   X370      51.89188  -0.02501   0.00000  -0.01405  -0.01311  51.87877
   Y370      45.39122  -0.00111   0.00000   0.00141   0.00068  45.39190
   Z370      44.40856   0.00372   0.00000   0.00043  -0.00046  44.40810
   X371      55.14221   0.00372   0.00000   0.00003  -0.00038  55.14183
   Y371      30.25452  -0.03552   0.00000  -0.03446  -0.03543  30.21908
   Z371      35.01663  -0.01239   0.00000   0.00112   0.00017  35.01679
   X372      56.21935   0.00350   0.00000  -0.00333  -0.00362  56.21573
   Y372      31.02930   0.01891   0.00000   0.02143   0.02040  31.04971
   Z372      36.22605   0.00953   0.00000   0.00108   0.00005  36.22610
   X373      53.59263  -0.00998   0.00000  -0.00062  -0.00098  53.59166
   Y373      31.18048   0.01228   0.00000   0.00803   0.00714  31.18762
   Z373      35.11111   0.00189   0.00000  -0.00112  -0.00199  35.10912
   X374      26.51286   0.00657   0.00000   0.00285   0.00294  26.51580
   Y374      47.16756   0.00341   0.00000  -0.00245  -0.00199  47.16558
   Z374      28.47817   0.00994   0.00000   0.00668   0.00730  28.48547
   X375      25.60579  -0.00078   0.00000   0.00188   0.00199  25.60778
   Y375      48.52817   0.00216   0.00000   0.00018   0.00069  48.52885
   Z375      27.68449  -0.00179   0.00000  -0.00053   0.00012  27.68461
   X376      25.90815  -0.00980   0.00000  -0.01225  -0.01230  25.89585
   Y376      45.67468  -0.01076   0.00000  -0.00864  -0.00814  45.66654
   Z376      27.66559  -0.00464   0.00000  -0.00169  -0.00103  27.66456
   X377      52.72336  -0.00627   0.00000  -0.00597  -0.00599  52.71737
   Y377      29.85767   0.00572   0.00000   0.00157   0.00078  29.85845
   Z377      41.91413   0.01312   0.00000   0.01245   0.01164  41.92577
   X378      52.91233  -0.00092   0.00000  -0.00382  -0.00398  52.90836
   Y378      28.98840  -0.00311   0.00000   0.00333   0.00251  28.99091
   Z378      40.34565  -0.01229   0.00000  -0.00724  -0.00805  40.33760
   X379      54.08396   0.00655   0.00000   0.00873   0.00874  54.09270
   Y379      29.23406   0.00026   0.00000   0.00270   0.00185  29.23591
   Z379      42.93458   0.00098   0.00000   0.00052  -0.00036  42.93422
   X380      28.68604   0.00198   0.00000  -0.00055  -0.00131  28.68473
   Y380      38.22916   0.00138   0.00000  -0.00112  -0.00082  38.22834
   Z380      22.07200   0.00747   0.00000   0.00460   0.00517  22.07717
   X381      27.70339   0.00070   0.00000   0.00267   0.00194  27.70532
   Y381      37.34099  -0.00240   0.00000  -0.00360  -0.00324  37.33775
   Z381      23.31922   0.00644   0.00000   0.00908   0.00970  23.32892
   X382      27.89236  -0.00399   0.00000  -0.00219  -0.00307  27.88929
   Y382      37.83232  -0.00244   0.00000  -0.00254  -0.00222  37.83010
   Z382      20.50353  -0.00915   0.00000  -0.00680  -0.00619  20.49734
   X383      41.21493  -0.00380   0.00000   0.00130   0.00055  41.21547
   Y383      20.39014   0.00992   0.00000   0.00746   0.00724  20.39738
   Z383      37.85121  -0.01157   0.00000  -0.00978  -0.00981  37.84140
   X384      42.21648   0.00262   0.00000  -0.00090  -0.00163  42.21485
   Y384      19.42638  -0.00566   0.00000  -0.00088  -0.00114  19.42524
   Z384      39.00395   0.00922   0.00000   0.00721   0.00713  39.01108
   X385      39.60866   0.00406   0.00000   0.00706   0.00626  39.61492
   Y385      19.53977  -0.00324   0.00000  -0.00413  -0.00426  19.53551
   Z385      37.81342   0.00293   0.00000   0.00367   0.00374  37.81716
         Item               Value     Threshold  Converged?
 Maximum Force            0.042007     0.000450     NO 
 RMS     Force            0.010284     0.000300     NO 
 Maximum Displacement     0.035434     0.001800     NO 
 RMS     Displacement     0.008835     0.001200     NO 
 Predicted change in Energy=-7.171088D-02
 GradGradGradGradGradGradGradGradGradGradGradGradGradGradGradGradGradGrad

 Leave Link  103 at Thu May 17 10:56:16 2018, MaxMem= 14763950080 cpu:      3066.8
 (Enter /cm/shared/gaussian/g09.e01/intel64-sandybridge/g09/l9999.exe)
 1\1\GINC-POPLE03\Force\RPBE1PBE\CC-pVDZ\Br1H256O128(1-)\M.PELUSO\17-Ma
 y-2018\0\\#p PBE1PBE/cc-pvDZ force Counterpoise=2 noSymm\\forces on ch
 loride comput - NWATER: 128\\-1,1\Br,20.,20.,20.\O,21.03,21.01,17.14\H
 ,21.98,20.87,17.15\H,20.72,20.58,17.94\O,17.53,20.39,21.94\H,17.97,20.
 95,22.58\H,18.25,19.96,21.47\O,17.72,18.32,18.43\H,18.37,18.76,18.97\H
 ,17.93,18.58,17.53\O,21.82,17.8,18.6\H,21.54,18.53,19.14\H,22.71,17.62
 ,18.89\O,23.08,20.76,20.66\H,22.21,20.68,20.28\H,23.29,21.7,20.58\O,20
 .04,17.27,21.79\H,20.89,16.95,21.48\H,19.81,17.97,21.18\O,18.66,23.07,
 20.37\H,19.16,22.38,20.81\H,18.63,22.8,19.46\O,21.1,21.82,22.55\H,21.2
 2,20.95,22.17\H,20.26,21.78,23.\O,16.21,20.92,19.34\H,16.92,20.69,19.9
 4\H,16.03,20.1,18.86\O,21.68,23.15,19.82\H,20.8,23.11,19.44\H,21.53,23
 .38,20.74\O,17.89,22.33,17.91\H,17.36,21.7,18.39\H,17.27,22.98,17.58\O
 ,20.4,23.81,16.99\H,20.63,22.9,17.19\H,20.92,24.02,16.21\O,18.81,21.71
 ,23.94\H,18.55,22.63,23.9\H,18.93,21.54,24.88\O,24.92,18.7,20.46\H,24.
 47,18.34,21.22\H,24.49,19.54,20.3\O,18.72,21.87,15.23\H,18.71,22.07,16
 .17\H,19.65,21.89,14.99\O,18.15,15.61,17.25\H,18.34,16.44,17.67\H,18.2
 4,14.96,17.95\O,15.66,18.95,23.37\H,15.18,19.76,23.55\H,16.45,19.24,22
 .91\O,21.48,14.87,18.89\H,22.33,14.48,19.09\H,21.69,15.76,18.59\O,18.9
 9,25.6,21.09\H,18.88,24.67,20.88\H,18.11,25.96,21.06\O,19.42,15.63,23.
 87\H,18.48,15.45,23.87\H,19.56,16.18,23.09\O,18.1,19.36,14.87\H,18.18,
 20.23,15.26\H,18.93,18.93,15.06\O,21.07,15.54,16.01\H,20.97,16.25,16.6
 5\H,20.29,15.,16.13\O,20.75,18.4,15.19\H,21.25,17.59,15.15\H,21.26,19.
 02,14.66\O,15.52,16.09,19.36\H,16.,15.94,18.55\H,16.02,16.77,19.81\O,2
 5.76,21.61,19.7\H,24.88,21.55,19.32\H,25.71,22.37,20.28\O,23.37,22.66,
 24.29\H,23.81,21.85,24.04\H,22.56,22.67,23.78\O,23.26,25.02,18.22\H,23
 .22,25.72,18.86\H,22.54,24.44,18.45\O,14.04,21.52,21.07\H,14.86,21.5,2
 0.58\H,14.31,21.46,21.99\O,24.06,17.68,22.99\H,24.58,17.52,23.78\H,23.
 39,17.,22.99\O,21.5,22.11,14.28\H,21.67,21.35,14.84\H,22.35,22.3,13.87
 \O,19.76,14.25,20.86\H,20.47,14.43,20.23\H,19.47,13.37,20.65\O,22.17,1
 5.62,23.24\H,22.22,15.61,24.19\H,21.25,15.47,23.04\O,24.82,19.98,17.1\
 H,24.47,19.17,16.71\H,25.73,19.78,17.31\O,21.72,24.93,22.11\H,22.02,25
 .41,22.88\H,21.04,25.5,21.73\O,18.71,26.,17.78\H,19.23,25.23,18.01\H,1
 9.3,26.54,17.25\O,18.7,24.62,23.9\H,17.84,25.04,23.87\H,19.05,24.73,23
 .01\O,16.92,16.28,23.65\H,16.14,15.75,23.86\H,16.6,17.18,23.64\O,18.77
 ,17.94,26.09\H,18.77,17.22,26.72\H,19.02,17.53,25.26\O,24.95,24.5,20.5
 5\H,25.,25.42,20.82\H,24.09,24.21,20.85\O,14.05,18.74,17.33\H,13.88,19
 .68,17.23\H,14.93,18.61,17.\O,15.87,24.06,17.19\H,15.36,24.27,17.97\H,
 15.32,24.33,16.46\O,26.1,21.41,22.9\H,26.76,21.48,23.59\H,25.77,20.52,
 22.96\O,13.26,18.74,20.1\H,13.65,18.62,19.23\H,12.4,19.11,19.93\O,24.9
 ,22.3,14.79\H,25.48,22.86,15.31\H,24.47,21.74,15.44\O,25.4,23.81,17.26
 \H,24.61,24.15,17.69\H,25.8,23.24,17.91\O,26.6,16.96,18.8\H,26.33,17.6
 3,19.42\H,25.87,16.87,18.19\O,13.61,21.37,17.82\H,12.96,22.,17.52\H,13
 .42,21.24,18.75\O,18.5,20.76,26.7\H,18.69,19.82,26.71\H,19.03,21.12,27
 .41\O,24.98,16.3,17.03\H,25.53,16.53,16.28\H,24.42,15.6,16.72\O,17.,14
 .97,14.97\H,17.63,14.49,14.43\H,17.48,15.2,15.76\O,15.03,18.97,14.5\H,
 14.92,18.08,14.16\H,15.97,19.13,14.45\O,18.9,23.52,13.16\H,18.67,22.95
 ,13.88\H,19.03,24.38,13.56\O,22.98,19.81,13.75\H,22.66,20.04,12.88\H,2
 3.89,19.55,13.61\O,20.04,23.44,26.31\H,19.12,23.4,26.02\H,20.35,24.29,
 26.\O,17.57,17.63,13.\H,17.86,16.84,13.44\H,17.83,18.34,13.58\O,27.6,1
 9.74,20.48\H,26.99,20.37,20.09\H,27.03,19.16,21.\O,18.19,25.61,14.88\H
 ,17.26,25.4,14.73\H,18.35,25.39,15.79\O,15.3,14.12,21.35\H,15.11,14.95
 ,20.91\H,15.73,13.58,20.68\O,20.15,12.79,17.41\H,20.88,13.32,17.74\H,2
 0.4,11.89,17.61\O,15.96,21.81,26.25\H,16.85,21.46,26.21\H,15.74,21.77,
 27.18\O,15.62,18.64,26.61\H,15.5,17.82,26.12\H,16.24,19.14,26.09\O,23.
 56,13.61,19.63\H,23.45,12.74,20.\H,24.45,13.87,19.89\O,21.23,27.4,17.1
 \H,21.71,28.17,17.42\H,21.72,26.66,17.45\O,23.64,21.4,26.88\H,23.65,21
 .96,26.11\H,22.89,21.7,27.39\O,21.69,25.12,14.93\H,21.38,24.5,14.26\H,
 21.31,25.96,14.68\O,25.76,24.26,23.77\H,25.36,25.05,23.4\H,25.03,23.69
 ,23.99\O,12.74,18.95,23.02\H,13.03,18.55,22.19\H,13.46,18.77,23.63\O,1
 9.42,15.02,13.58\H,19.85,14.42,12.98\H,20.13,15.55,13.95\O,23.28,14.58
 ,14.73\H,23.21,13.62,14.73\H,22.45,14.87,15.09\O,22.46,17.48,27.64\H,2
 1.96,17.76,28.41\H,22.12,18.02,26.93\O,24.08,13.59,22.71\H,23.71,14.28
 ,23.25\H,24.74,14.03,22.17\O,13.88,21.41,24.89\H,13.51,20.97,25.66\H,1
 4.75,21.7,25.18\O,13.46,14.65,18.87\H,13.59,14.07,18.12\H,14.29,15.11,
 18.97\O,11.95,22.94,19.94\H,12.78,22.5,20.13\H,11.85,23.58,20.64\O,16.
 84,27.6,18.59\H,16.02,27.25,18.24\H,17.52,27.04,18.22\O,21.33,12.34,23
 .25\H,22.14,12.82,23.08\H,20.72,12.65,22.59\O,25.68,19.67,25.91\H,25.6
 7,18.89,25.36\H,24.79,19.73,26.26\O,16.5,26.98,21.28\H,15.57,26.81,21.
 45\H,16.5,27.47,20.46\O,20.17,21.42,11.58\H,21.01,21.01,11.78\H,20.,21
 .99,12.33\O,19.07,13.08,25.39\H,18.96,13.98,25.09\H,19.79,12.74,24.86\
 O,17.55,12.55,16.51\H,17.21,12.64,17.4\H,18.39,13.01,16.54\O,27.4,18.3
 5,23.27\H,27.14,17.66,22.67\H,27.61,17.9,24.08\O,23.21,27.54,19.41\H,2
 3.92,28.12,19.68\H,22.61,27.54,20.16\O,24.76,25.4,15.16\H,24.97,24.91,
 15.96\H,23.85,25.16,14.96\O,27.95,24.26,19.77\H,27.12,23.81,19.9\H,27.
 9,25.03,20.34\O,19.74,28.72,19.42\H,19.29,28.58,18.58\H,20.43,28.06,19
 .44\O,16.48,12.59,19.15\H,16.04,11.76,18.96\H,17.29,12.34,19.6\O,22.93
 ,15.3,25.96\H,22.77,15.78,26.77\H,22.93,14.38,26.22\O,26.2,14.43,20.32
 \H,26.49,15.1,19.7\H,26.76,13.68,20.13\O,25.62,17.08,25.16\H,25.28,16.
 58,25.9\H,26.26,16.5,24.75\O,12.05,16.41,21.27\H,11.3,15.96,20.89\H,12
 .42,16.93,20.56\O,20.93,17.1,11.62\H,20.25,17.21,12.28\H,20.46,16.78,1
 0.84\O,20.72,22.26,28.61\H,20.45,22.64,27.78\H,20.01,22.48,29.22\O,18.
 68,11.83,20.35\H,19.03,10.98,20.08\H,18.49,11.73,21.28\O,26.29,26.37,1
 8.02\H,25.77,27.09,17.67\H,25.74,25.6,17.9\O,16.,24.2,13.02\H,15.21,24
 .32,13.55\H,16.4,23.4,13.35\O,21.89,27.87,21.88\H,22.16,27.55,22.75\H,
 21.73,28.8,22.01\O,16.06,25.81,24.47\H,16.26,26.59,24.98\H,15.55,26.14
 ,23.73\O,14.83,15.87,13.76\H,14.12,15.46,14.25\H,15.63,15.59,14.21\O,2
 0.73,25.94,26.07\H,20.07,26.61,26.23\H,20.91,25.56,26.94\O,11.23,21.1,
 22.18\H,11.83,20.59,22.72\H,11.8,21.67,21.67\O,11.91,16.54,17.49\H,12.
 39,17.32,17.21\H,12.5,16.11,18.12\O,12.47,20.24,14.39\H,12.06,19.6,14.
 97\H,13.41,20.13,14.54\O,17.,25.35,27.2\H,17.5,26.16,27.26\H,17.1,25.0
 6,26.3\O,14.49,15.58,24.92\H,13.65,15.26,24.58\H,14.45,15.4,25.86\O,23
 .74,16.52,12.75\H,23.66,15.8,13.38\H,22.85,16.67,12.44\O,14.8,13.66,16
 .8\H,15.29,13.45,16.01\H,15.26,13.19,17.5\O,15.89,12.2,23.57\H,15.85,1
 3.05,23.12\H,16.45,11.66,23.01\O,14.14,26.09,22.2\H,13.61,26.77,22.62\
 H,13.51,25.46,21.88\O,13.06,14.11,22.77\H,12.43,14.73,22.41\H,13.87,14
 .27,22.27\O,26.44,16.95,14.89\H,26.4,17.66,14.24\H,26.32,16.15,14.37\O
 ,25.7,19.88,13.24\H,26.45,19.64,12.7\H,25.61,20.83,13.11\O,28.28,22.18
 ,17.74\H,28.31,22.76,18.5\H,28.02,22.74,17.01\O,22.85,27.33,24.31\H,22
 .43,26.88,25.04\H,23.46,27.94,24.72\O,17.54,29.37,21.14\H,16.71,28.97,
 21.41\H,18.04,28.65,20.77\O,18.69,15.51,27.58\H,18.12,14.74,27.59\H,18
 .38,16.05,28.31\O,29.7,18.38,19.76\H,29.86,18.93,18.99\H,28.87,18.7,20
 .11\O,16.82,22.33,11.06\H,16.34,21.59,11.45\H,17.47,22.57,11.73\O,24.5
 9,24.14,12.35\H,24.35,24.19,13.27\H,24.5,23.21,12.12\O,25.32,27.1,22.0
 3\H,26.1,27.45,21.61\H,24.75,27.86,22.15\O,13.24,25.28,25.1\H,13.39,24
 .57,25.72\H,13.81,25.07,24.36\O,22.4,19.22,11.06\H,23.01,19.06,10.34\H
 ,21.95,18.39,11.19\O,28.39,24.07,23.31\H,28.72,23.18,23.49\H,27.46,24.
 02,23.5\O,29.18,16.01,18.53\H,29.75,16.42,19.17\H,28.36,16.5,18.58\O,1
 4.03,24.96,15.07\H,13.55,25.68,14.65\H,13.71,24.17,14.64\O,27.9,15.8,2
 2.18\H,28.,15.34,21.35\H,28.62,15.47,22.72\O,15.18,20.23,11.68\H,14.66
 ,19.76,12.34\H,14.76,20.02,10.85\O,21.81,10.79,20.03\H,22.34,10.28,20.
 64\H,20.96,10.34,20.01\\Version=ES64L-G09RevE.01\HF=-9773.3078269\RMSD
 =4.223e-10\RMSF=1.028e-02\Dipole=1.1876293,-2.5555575,8.0712092\Quadru
 pole=-308.4310517,-174.729836,483.1608877,-1603.3875058,-1082.9813986,
 -1071.0722477\PG=C01 [X(Br1H256O128)]\\@


      HUMANKIND PERIODICALLY GOES THROUGH A SPEEDUP OF ITS AFFAIRS, 
      THEREBY EXPERIENCING THE RACE BETWEEN THE RENEWABLE VITALITY
      OF THE LIVING, AND THE BECKONING VITIATION OF DECADENCE.
      IN THIS PERIODIC RACE, ANY PAUSE BECOMES A LUXURY.
      ONLY THEN CAN ONE REFLECT THAT ALL IS PERMITTED;
      ALL IS POSSIBLE.

                              -- THE APOCRYPHA OF MUAD'DIB
                                 CHILDREN OF DUNE, BY FRANK HERBERT
 Job cpu time:       7 days 15 hours 37 minutes 18.3 seconds.
 File lengths (MBytes):  RWF=   7285 Int=      0 D2E=      0 Chk=   2411 Scr=      1
 Normal termination of Gaussian 09 at Thu May 17 10:57:01 2018.
