 Entering Gaussian System, Link 0=/cm/shared/gaussian/g09.e01/intel64-sandybridge/g09/g09
 Initial command:
 /cm/shared/gaussian/g09.e01/intel64-sandybridge/g09/l1.exe "/local/scratch/m.peluso/128_wat/order/Gau-2672.inp" -scrdir="/local/scratch/m.peluso/128_wat/order/"
 Entering Link 1 = /cm/shared/gaussian/g09.e01/intel64-sandybridge/g09/l1.exe PID=      2673.
  
 Copyright (c) 1988,1990,1992,1993,1995,1998,2003,2009,2015,
            Gaussian, Inc.  All Rights Reserved.
  
 This is part of the Gaussian(R) 09 program.  It is based on
 the Gaussian(R) 03 system (copyright 2003, Gaussian, Inc.),
 the Gaussian(R) 98 system (copyright 1998, Gaussian, Inc.),
 the Gaussian(R) 94 system (copyright 1995, Gaussian, Inc.),
 the Gaussian 92(TM) system (copyright 1992, Gaussian, Inc.),
 the Gaussian 90(TM) system (copyright 1990, Gaussian, Inc.),
 the Gaussian 88(TM) system (copyright 1988, Gaussian, Inc.),
 the Gaussian 86(TM) system (copyright 1986, Carnegie Mellon
 University), and the Gaussian 82(TM) system (copyright 1983,
 Carnegie Mellon University). Gaussian is a federally registered
 trademark of Gaussian, Inc.
  
 This software contains proprietary and confidential information,
 including trade secrets, belonging to Gaussian, Inc.
  
 This software is provided under written license and may be
 used, copied, transmitted, or stored only in accord with that
 written license.
  
 The following legend is applicable only to US Government
 contracts under FAR:
  
                    RESTRICTED RIGHTS LEGEND
  
 Use, reproduction and disclosure by the US Government is
 subject to restrictions as set forth in subparagraphs (a)
 and (c) of the Commercial Computer Software - Restricted
 Rights clause in FAR 52.227-19.
  
 Gaussian, Inc.
 340 Quinnipiac St., Bldg. 40, Wallingford CT 06492
  
  
 ---------------------------------------------------------------
 Warning -- This program may not be used in any manner that
 competes with the business of Gaussian, Inc. or will provide
 assistance to any competitor of Gaussian, Inc.  The licensee
 of this program is prohibited from giving any competitor of
 Gaussian, Inc. access to this program.  By using this program,
 the user acknowledges that Gaussian, Inc. is engaged in the
 business of creating and licensing software in the field of
 computational chemistry and represents and warrants to the
 licensee that it is not a competitor of Gaussian, Inc. and that
 it will not use this program in any manner prohibited above.
 ---------------------------------------------------------------
  

 Cite this work as:
 Gaussian 09, Revision E.01,
 M. J. Frisch, G. W. Trucks, H. B. Schlegel, G. E. Scuseria, 
 M. A. Robb, J. R. Cheeseman, G. Scalmani, V. Barone, B. Mennucci, 
 G. A. Petersson, H. Nakatsuji, M. Caricato, X. Li, H. P. Hratchian, 
 A. F. Izmaylov, J. Bloino, G. Zheng, J. L. Sonnenberg, M. Hada, 
 M. Ehara, K. Toyota, R. Fukuda, J. Hasegawa, M. Ishida, T. Nakajima, 
 Y. Honda, O. Kitao, H. Nakai, T. Vreven, J. A. Montgomery, Jr., 
 J. E. Peralta, F. Ogliaro, M. Bearpark, J. J. Heyd, E. Brothers, 
 K. N. Kudin, V. N. Staroverov, T. Keith, R. Kobayashi, J. Normand, 
 K. Raghavachari, A. Rendell, J. C. Burant, S. S. Iyengar, J. Tomasi, 
 M. Cossi, N. Rega, J. M. Millam, M. Klene, J. E. Knox, J. B. Cross, 
 V. Bakken, C. Adamo, J. Jaramillo, R. Gomperts, R. E. Stratmann, 
 O. Yazyev, A. J. Austin, R. Cammi, C. Pomelli, J. W. Ochterski, 
 R. L. Martin, K. Morokuma, V. G. Zakrzewski, G. A. Voth, 
 P. Salvador, J. J. Dannenberg, S. Dapprich, A. D. Daniels, 
 O. Farkas, J. B. Foresman, J. V. Ortiz, J. Cioslowski, 
 and D. J. Fox, Gaussian, Inc., Wallingford CT, 2013.
 
 ******************************************
 Gaussian 09:  ES64L-G09RevE.01 30-Nov-2015
                12-May-2018 
 ******************************************
 %Mem=110GB
 %NProcShared=64
 Will use up to   64 processors via shared memory.
 %chk=snap16.chk
 ----------------------------------------------
 #p PBE1PBE/cc-pvDZ force Counterpoise=2 noSymm
 ----------------------------------------------
 1/10=7,30=1,38=1,62=2/1,3;
 2/12=2,15=1,17=6,18=5,40=1/2;
 1/10=7,30=1,38=1,53=2,62=2,63=101/22;
 3/5=16,11=2,16=1,25=1,30=1,71=1,74=-13/1,2,3;
 4//1;
 5/5=2,38=5/2;
 6/7=2,8=2,9=2,10=2,28=1/1;
 7/7=1,29=1,30=1,33=-1/1,2,3,16;
 1/10=7,30=1,53=2,62=2,63=101/22;
 3/5=7,6=11,11=2,16=1,25=1,30=1,71=1,74=-13,82=7/1,2,3;
 4//1;
 5/5=2,38=5/2;
 6/7=2,8=2,9=2,10=2,28=1/1;
 7/7=1,29=1,30=1,33=-1/1,2,3,16;
 1/10=7,30=1,53=2,62=2,63=101/22(-5);
 7/9=1,29=1,44=-1/16;
 1/10=7,30=1,62=2/3;
 99//99;
 Leave Link    1 at Sat May 12 12:04:39 2018, MaxMem= 14763950080 cpu:         6.1
 (Enter /cm/shared/gaussian/g09.e01/intel64-sandybridge/g09/l101.exe)
 ---------------------------------------
 forces on chloride comput - NWATER: 128
 ---------------------------------------
 Symbolic Z-matrix:
 Charge = -1 Multiplicity = 1 in supermolecule
 Charge = -1 Multiplicity = 1 in fragment      1.
 Charge =  0 Multiplicity = 1 in fragment      2.
 Br(Fragment=1)        20.       20.       20. 
 O(Fragment=2)         19.7      20.28     16.97 
 H(Fragment=2)         20.03     20.17     17.86 
 H(Fragment=2)         19.03     19.6      16.89 
 O(Fragment=2)         18.4      18.23     22.03 
 H(Fragment=2)         18.88     18.91     21.56 
 H(Fragment=2)         17.74     18.71     22.53 
 O(Fragment=2)         19.61     16.89     19.65 
 H(Fragment=2)         19.86     17.78     19.9 
 H(Fragment=2)         19.05     16.58     20.36 
 O(Fragment=2)         16.81     20.67     20.37 
 H(Fragment=2)         17.74     20.66     20.15 
 H(Fragment=2)         16.78     20.52     21.31 
 O(Fragment=2)         21.42     22.43     21.85 
 H(Fragment=2)         21.1      21.64     21.41 
 H(Fragment=2)         20.85     22.52     22.61 
 O(Fragment=2)         23.3      19.31     19.23 
 H(Fragment=2)         22.36     19.2      19.35 
 H(Fragment=2)         23.54     20.02     19.83 
 O(Fragment=2)         21.56     22.7      18.36 
 H(Fragment=2)         21.19     22.05     18.96 
 H(Fragment=2)         22.48     22.45     18.27 
 O(Fragment=2)         17.91     23.02     17.94 
 H(Fragment=2)         18.58     22.38     18.16 
 H(Fragment=2)         18.05     23.22     17.01 
 O(Fragment=2)         18.32     17.83     17.17 
 H(Fragment=2)         17.45     17.99     17.52 
 H(Fragment=2)         18.84     17.54     17.93 
 O(Fragment=2)         16.13     19.01     18.46 
 H(Fragment=2)         15.21     18.95     18.68 
 H(Fragment=2)         16.51     19.56     19.14 
 O(Fragment=2)         22.8      18.89     23.04 
 H(Fragment=2)         22.34     19.48     23.63 
 H(Fragment=2)         23.2      19.46     22.39 
 O(Fragment=2)         23.99     20.96     21.62 
 H(Fragment=2)         24.82     21.27     21.27 
 H(Fragment=2)         23.37     21.67     21.46 
 O(Fragment=2)         20.6      22.36     15.59 
 H(Fragment=2)         21.17     22.8      16.22 
 H(Fragment=2)         20.23     21.62     16.07 
 O(Fragment=2)         21.64     16.31     23.29 
 H(Fragment=2)         21.39     16.68     24.14 
 H(Fragment=2)         21.92     17.07     22.78 
 O(Fragment=2)         15.79     17.29     22.04 
 H(Fragment=2)         15.41     16.8      21.31 
 H(Fragment=2)         16.68     17.5      21.74 
 O(Fragment=2)         16.68     20.09     23.19 
 H(Fragment=2)         16.26     19.84     24.01 
 H(Fragment=2)         16.58     21.04     23.15 
 O(Fragment=2)         17.24     24.39     20.34 
 H(Fragment=2)         16.56     24.97     20.01 
 H(Fragment=2)         17.46     23.83     19.59 
 O(Fragment=2)         17.07     22.75     22.89 
 H(Fragment=2)         16.48     23.35     23.36 
 H(Fragment=2)         17.4      23.27     22.15 
 O(Fragment=2)         15.08     21.84     18.05 
 H(Fragment=2)         15.64     21.54     18.77 
 H(Fragment=2)         15.66     22.38     17.51 
 O(Fragment=2)         19.31     21.77     24.42 
 H(Fragment=2)         19.       21.14     25.06 
 H(Fragment=2)         18.51     22.12     24.03 
 O(Fragment=2)         22.99     24.38     20.9 
 H(Fragment=2)         22.41     24.73     20.22 
 H(Fragment=2)         22.41     23.89     21.48 
 O(Fragment=2)         22.73     19.53     15.18 
 H(Fragment=2)         23.44     19.99     14.73 
 H(Fragment=2)         23.03     19.44     16.08 
 O(Fragment=2)         19.44     14.99     22. 
 H(Fragment=2)         20.36     15.24     21.88 
 H(Fragment=2)         19.21     15.36     22.85 
 O(Fragment=2)         25.47     17.64     19.04 
 H(Fragment=2)         24.73     18.24     18.92 
 H(Fragment=2)         26.23     18.22     19.11 
 O(Fragment=2)         21.93     22.62     24.97 
 H(Fragment=2)         21.04     22.44     24.67 
 H(Fragment=2)         21.87     23.46     25.43 
 O(Fragment=2)         17.21     17.66     14.8 
 H(Fragment=2)         17.63     17.76     15.66 
 H(Fragment=2)         16.43     18.2      14.85 
 O(Fragment=2)         21.75     25.58     18.73 
 H(Fragment=2)         21.2      26.09     18.13 
 H(Fragment=2)         21.99     24.81     18.23 
 O(Fragment=2)         24.29     22.75     17.93 
 H(Fragment=2)         24.63     21.89     17.7 
 H(Fragment=2)         24.8      23.01     18.7 
 O(Fragment=2)         20.02     14.       18.47 
 H(Fragment=2)         19.36     14.48     18.96 
 H(Fragment=2)         20.84     14.46     18.65 
 O(Fragment=2)         26.03     18.59     21.72 
 H(Fragment=2)         25.53     18.32     20.95 
 H(Fragment=2)         26.35     19.47     21.5 
 O(Fragment=2)         14.22     22.85     21.73 
 H(Fragment=2)         13.92     21.97     21.53 
 H(Fragment=2)         15.14     22.75     21.95 
 O(Fragment=2)         17.98     26.35     18.1 
 H(Fragment=2)         18.43     25.56     18.42 
 H(Fragment=2)         18.62     26.77     17.52 
 O(Fragment=2)         18.4      26.29     21.92 
 H(Fragment=2)         18.13     25.55     21.38 
 H(Fragment=2)         18.33     27.05     21.34 
 O(Fragment=2)         18.28     23.89     15.26 
 H(Fragment=2)         19.15     23.49     15.15 
 H(Fragment=2)         17.88     23.84     14.4 
 O(Fragment=2)         20.27     17.73     25.68 
 H(Fragment=2)         20.97     18.28     26.05 
 H(Fragment=2)         19.47     18.06     26.09 
 O(Fragment=2)         25.       18.83     24.89 
 H(Fragment=2)         24.31     18.87     24.23 
 H(Fragment=2)         25.47     18.01     24.71 
 O(Fragment=2)         25.63     23.53     20.51 
 H(Fragment=2)         24.78     23.84     20.83 
 H(Fragment=2)         26.1      24.34     20.28 
 O(Fragment=2)         24.22     23.87     23.9 
 H(Fragment=2)         23.34     23.48     23.91 
 H(Fragment=2)         24.8      23.16     24.18 
 O(Fragment=2)         21.53     17.81     13.52 
 H(Fragment=2)         21.72     18.49     14.16 
 H(Fragment=2)         22.33     17.28     13.48 
 O(Fragment=2)         22.97     24.64     16.19 
 H(Fragment=2)         23.2      25.57     16.2 
 H(Fragment=2)         23.51     24.25     16.88 
 O(Fragment=2)         18.8      15.59     25.13 
 H(Fragment=2)         17.87     15.8      25.18 
 H(Fragment=2)         19.24     16.43     25.29 
 O(Fragment=2)         23.76     14.55     22.62 
 H(Fragment=2)         23.33     14.03     21.94 
 H(Fragment=2)         23.06     15.11     22.96 
 O(Fragment=2)         21.79     22.1      13.08 
 H(Fragment=2)         21.57     21.94     14. 
 H(Fragment=2)         21.8      21.23     12.68 
 O(Fragment=2)         15.89     16.12     24.71 
 H(Fragment=2)         16.11     16.38     23.82 
 H(Fragment=2)         15.71     15.18     24.66 
 O(Fragment=2)         13.78     18.08     19.32 
 H(Fragment=2)         13.8      17.16     19.58 
 H(Fragment=2)         13.18     18.5      19.95 
 O(Fragment=2)         18.2      15.04     15.13 
 H(Fragment=2)         17.76     15.13     15.97 
 H(Fragment=2)         17.87     15.77     14.6 
 O(Fragment=2)         17.61     20.68     26.26 
 H(Fragment=2)         16.72     20.37     26.08 
 H(Fragment=2)         17.91     20.14     26.99 
 O(Fragment=2)         21.34     26.75     23.06 
 H(Fragment=2)         21.57     27.26     22.29 
 H(Fragment=2)         20.62     26.19     22.78 
 O(Fragment=2)         25.73     20.78     16.33 
 H(Fragment=2)         26.6      20.4      16.49 
 H(Fragment=2)         25.73     20.98     15.39 
 O(Fragment=2)         26.88     21.12     20.86 
 H(Fragment=2)         26.55     22.02     20.96 
 H(Fragment=2)         27.36     21.13     20.03 
 O(Fragment=2)         25.44     21.73     24.87 
 H(Fragment=2)         25.04     21.58     25.73 
 H(Fragment=2)         25.28     20.92     24.39 
 O(Fragment=2)         15.6      24.26     15.79 
 H(Fragment=2)         16.55     24.32     15.73 
 H(Fragment=2)         15.33     23.87     14.96 
 O(Fragment=2)         25.78     15.68     17.07 
 H(Fragment=2)         25.48     16.32     17.71 
 H(Fragment=2)         26.27     16.19     16.43 
 O(Fragment=2)         18.75     18.04     12.72 
 H(Fragment=2)         19.53     17.93     13.27 
 H(Fragment=2)         18.01     17.97     13.32 
 O(Fragment=2)         22.82     18.93     26.39 
 H(Fragment=2)         23.05     19.73     26.87 
 H(Fragment=2)         23.64     18.66     25.98 
 O(Fragment=2)         18.95     12.2      21.09 
 H(Fragment=2)         18.9      13.13     21.29 
 H(Fragment=2)         19.4      12.16     20.24 
 O(Fragment=2)         22.08     13.21     20.89 
 H(Fragment=2)         22.03     12.98     19.96 
 H(Fragment=2)         21.75     12.44     21.35 
 O(Fragment=2)         23.48     21.52     26.9 
 H(Fragment=2)         23.81     22.23     27.45 
 H(Fragment=2)         22.99     21.96     26.21 
 O(Fragment=2)         13.23     19.83     16.56 
 H(Fragment=2)         13.53     20.64     16.98 
 H(Fragment=2)         13.33     19.16     17.24 
 O(Fragment=2)         26.14     16.38     23.06 
 H(Fragment=2)         26.11     17.19     22.55 
 H(Fragment=2)         25.23     16.21     23.31 
 O(Fragment=2)         26.17     23.94     16.38 
 H(Fragment=2)         25.34     23.68     16.78 
 H(Fragment=2)         26.32     24.83     16.7 
 O(Fragment=2)         20.18     27.93     19.73 
 H(Fragment=2)         19.59     28.16     19.02 
 H(Fragment=2)         20.7      27.21     19.39 
 O(Fragment=2)         17.95     23.36     27.03 
 H(Fragment=2)         18.17     23.97     26.33 
 H(Fragment=2)         18.09     22.49     26.65 
 O(Fragment=2)         20.72     13.19     15.79 
 H(Fragment=2)         20.06     13.86     15.95 
 H(Fragment=2)         21.26     13.18     16.57 
 O(Fragment=2)         13.46     20.12     24.16 
 H(Fragment=2)         12.56     20.11     24.49 
 H(Fragment=2)         13.37     19.91     23.23 
 O(Fragment=2)         23.43     13.93     17.47 
 H(Fragment=2)         23.45     13.14     16.93 
 H(Fragment=2)         23.87     13.66     18.29 
 O(Fragment=2)         23.21     27.66     19.33 
 H(Fragment=2)         23.74     27.52     20.12 
 H(Fragment=2)         22.9      26.79     19.09 
 O(Fragment=2)         12.48     22.9      17.79 
 H(Fragment=2)         13.43     22.83     17.91 
 H(Fragment=2)         12.3      23.83     17.88 
 O(Fragment=2)         14.57     18.68     14.43 
 H(Fragment=2)         13.74     18.51     13.97 
 H(Fragment=2)         14.31     19.11     15.24 
 O(Fragment=2)         15.6      24.4      24.45 
 H(Fragment=2)         15.32     24.02     25.28 
 H(Fragment=2)         15.35     25.32     24.5 
 O(Fragment=2)         15.13     19.46     25.95 
 H(Fragment=2)         14.6      20.07     25.42 
 H(Fragment=2)         14.71     18.61     25.82 
 O(Fragment=2)         13.96     15.3      20.01 
 H(Fragment=2)         14.37     14.66     20.59 
 H(Fragment=2)         13.05     15.       19.93 
 O(Fragment=2)         15.07     25.99     19.12 
 H(Fragment=2)         15.79     26.25     18.55 
 H(Fragment=2)         14.96     26.73     19.72 
 O(Fragment=2)         18.12     12.33     17.27 
 H(Fragment=2)         18.91     12.82     17.48 
 H(Fragment=2)         17.44     12.7      17.83 
 O(Fragment=2)         15.49     14.76     16.2 
 H(Fragment=2)         14.63     14.94     16.56 
 H(Fragment=2)         15.39     14.89     15.26 
 O(Fragment=2)         24.01     26.45     24.08 
 H(Fragment=2)         24.11     25.53     23.85 
 H(Fragment=2)         23.06     26.56     24.18 
 O(Fragment=2)         20.24     13.36     25.65 
 H(Fragment=2)         19.92     13.26     26.54 
 H(Fragment=2)         19.82     14.15     25.32 
 O(Fragment=2)         17.9      26.75     14.74 
 H(Fragment=2)         18.09     26.85     13.81 
 H(Fragment=2)         18.27     25.9      14.98 
 O(Fragment=2)         20.37     27.15     16.57 
 H(Fragment=2)         20.79     28.01     16.53 
 H(Fragment=2)         20.38     26.83     15.67 
 O(Fragment=2)         18.74     20.84     12.11 
 H(Fragment=2)         19.65     20.78     11.82 
 H(Fragment=2)         18.45     19.93     12.14 
 O(Fragment=2)         13.08     15.86     17.02 
 H(Fragment=2)         12.6      16.5      16.48 
 H(Fragment=2)         13.14     16.27     17.88 
 O(Fragment=2)         17.47     12.77     23.98 
 H(Fragment=2)         18.05     12.83     23.22 
 H(Fragment=2)         18.06     12.72     24.73 
 O(Fragment=2)         23.49     24.49     13.02 
 H(Fragment=2)         22.92     23.88     13.49 
 H(Fragment=2)         22.98     24.75     12.25 
 O(Fragment=2)         21.84     19.77     11.69 
 H(Fragment=2)         21.53     18.96     12.08 
 H(Fragment=2)         22.09     19.53     10.79 
 O(Fragment=2)         13.03     25.44     21.78 
 H(Fragment=2)         12.74     25.43     20.86 
 H(Fragment=2)         13.6      24.68     21.85 
 O(Fragment=2)         26.35     14.03     21.41 
 H(Fragment=2)         25.86     14.64     21.96 
 H(Fragment=2)         27.24     14.38     21.39 
 O(Fragment=2)         11.99     20.29     21.73 
 H(Fragment=2)         11.5      19.48     21.84 
 H(Fragment=2)         11.75     20.6      20.85 
 O(Fragment=2)         12.95     17.07     23.43 
 H(Fragment=2)         13.11     17.81     24.02 
 H(Fragment=2)         13.59     16.41     23.69 
 O(Fragment=2)         24.77     21.06     13.36 
 H(Fragment=2)         24.35     21.02     12.51 
 H(Fragment=2)         24.98     21.98     13.48 
 O(Fragment=2)         18.94     18.99     28.15 
 H(Fragment=2)         18.38     18.22     28.19 
 H(Fragment=2)         19.58     18.86     28.85 
 O(Fragment=2)         21.67     24.91     26.49 
 H(Fragment=2)         22.41     25.49     26.64 
 H(Fragment=2)         21.15     24.94     27.29 
 O(Fragment=2)         16.1      27.26     23.88 
 H(Fragment=2)         16.38     28.08     24.28 
 H(Fragment=2)         16.91     26.83     23.61 
 O(Fragment=2)         24.34     14.32     14.6 
 H(Fragment=2)         24.26     15.17     14.18 
 H(Fragment=2)         24.41     14.52     15.54 
 O(Fragment=2)         19.08     27.87     24.63 
 H(Fragment=2)         19.48     27.74     25.49 
 H(Fragment=2)         19.55     27.26     24.06 
 O(Fragment=2)         20.41     24.16     12.02 
 H(Fragment=2)         20.72     23.34     12.39 
 H(Fragment=2)         19.46     24.05     11.97 
 O(Fragment=2)         20.29     15.51     12.07 
 H(Fragment=2)         21.11     16.       12.08 
 H(Fragment=2)         19.69     16.05     12.59 
 O(Fragment=2)         16.86     17.15     27.58 
 H(Fragment=2)         16.14     17.45     27.02 
 H(Fragment=2)         16.87     16.2      27.47 
 O(Fragment=2)         15.65     12.42     18.07 
 H(Fragment=2)         15.68     13.21     17.53 
 H(Fragment=2)         14.72     12.27     18.21 
 O(Fragment=2)         11.7      17.56     21.17 
 H(Fragment=2)         11.01     16.89     21.19 
 H(Fragment=2)         12.18     17.44     21.98 
 O(Fragment=2)         11.72     22.96     23.42 
 H(Fragment=2)         11.11     23.01     22.68 
 H(Fragment=2)         12.56     22.72     23.03 
 O(Fragment=2)         21.23     26.49     13.93 
 H(Fragment=2)         22.1      26.84     14.14 
 H(Fragment=2)         21.39     25.57     13.71 
 O(Fragment=2)         22.96     14.05     25.78 
 H(Fragment=2)         22.       14.08     25.79 
 H(Fragment=2)         23.18     13.62     24.96 
 O(Fragment=2)         24.97     16.09     25.99 
 H(Fragment=2)         25.16     16.07     26.93 
 H(Fragment=2)         24.31     15.42     25.86 
 O(Fragment=2)         22.09     15.91     28.24 
 H(Fragment=2)         22.98     15.6      28.09 
 H(Fragment=2)         22.       16.67     27.67 
 O(Fragment=2)         26.98     19.46     26.52 
 H(Fragment=2)         26.25     19.51     25.9 
 H(Fragment=2)         27.75     19.71     26. 
 O(Fragment=2)         28.46     21.12     18.68 
 H(Fragment=2)         28.47     22.03     18.39 
 H(Fragment=2)         29.38     20.91     18.85 
 O(Fragment=2)         29.18     19.46     21.84 
 H(Fragment=2)         28.45     20.09     21.8 
 H(Fragment=2)         29.9      19.97     22.23 
 O(Fragment=2)         13.12     25.58     17.13 
 H(Fragment=2)         13.74     24.99     16.7 
 H(Fragment=2)         13.55     25.81     17.96 
 O(Fragment=2)         11.16     21.12     19.32 
 H(Fragment=2)         11.61     21.81     18.84 
 H(Fragment=2)         10.23     21.33     19.26 
 O(Fragment=2)         24.72     27.83     21.76 
 H(Fragment=2)         24.66     28.54     22.39 
 H(Fragment=2)         24.52     27.04     22.26 
 O(Fragment=2)         26.44     13.27     18.79 
 H(Fragment=2)         26.37     13.49     19.72 
 H(Fragment=2)         26.2      14.07     18.33 
 O(Fragment=2)         26.95     17.09     14.81 
 H(Fragment=2)         26.35     17.64     14.32 
 H(Fragment=2)         27.07     16.32     14.26 
 O(Fragment=2)         14.32     13.57     22.28 
 H(Fragment=2)         13.56     13.58     22.87 
 H(Fragment=2)         14.73     12.72     22.44 
 O(Fragment=2)         12.43     21.32     14.05 
 H(Fragment=2)         13.       21.69     14.72 
 H(Fragment=2)         12.53     21.91     13.3 
 O(Fragment=2)         17.63     12.49     14.05 
 H(Fragment=2)         17.79     13.38     14.37 
 H(Fragment=2)         17.09     12.08     14.73 
 O(Fragment=2)         17.46     24.5      12.67 
 H(Fragment=2)         17.16     23.75     12.16 
 H(Fragment=2)         17.05     25.26     12.25 
 O(Fragment=2)         13.46     23.04     25.92 
 H(Fragment=2)         13.16     22.93     25.01 
 H(Fragment=2)         12.7      23.39     26.38 
 O(Fragment=2)         28.3      22.35     15.6 
 H(Fragment=2)         29.04     22.6      16.15 
 H(Fragment=2)         27.55     22.79     16. 
 O(Fragment=2)         23.62     27.1      15.79 
 H(Fragment=2)         23.11     27.91     15.7 
 H(Fragment=2)         24.52     27.39     15.9 
 O(Fragment=2)         25.89     26.53     17.87 
 H(Fragment=2)         26.23     26.41     18.76 
 H(Fragment=2)         25.53     27.42     17.88 
 O(Fragment=2)         26.06     23.42     13.54 
 H(Fragment=2)         26.19     23.6      14.48 
 H(Fragment=2)         25.32     23.98     13.29 
 O(Fragment=2)         24.8      12.18     23.73 
 H(Fragment=2)         25.67     12.29     24.13 
 H(Fragment=2)         24.74     12.91     23.11 
 O(Fragment=2)         15.27     27.97     21.09 
 H(Fragment=2)         15.21     27.6      21.97 
 H(Fragment=2)         16.01     28.58     21.14 
 O(Fragment=2)         16.73     22.55     11.01 
 H(Fragment=2)         15.94     22.       11.02 
 H(Fragment=2)         17.42     22.       11.37 
 O(Fragment=2)         17.3      28.83     16.62 
 H(Fragment=2)         16.4      28.76     16.95 
 H(Fragment=2)         17.45     28.       16.16 
 O(Fragment=2)         14.44     23.19     13.19 
 H(Fragment=2)         14.68     22.35     12.8 
 H(Fragment=2)         13.6      23.42     12.79 
 O(Fragment=2)         11.46     17.7      16.1 
 H(Fragment=2)         10.61     17.7      15.65 
 H(Fragment=2)         11.93     18.45     15.74 
 O(Fragment=2)         23.99     16.36     12.4 
 H(Fragment=2)         24.1      15.85     11.6 
 H(Fragment=2)         24.56     17.12     12.28 
 
 NAtoms=    385 NQM=      385 NQMF=       0 NMMI=      0 NMMIF=      0
                NMic=       0 NMicF=      0.
                    Isotopes and Nuclear Properties:
 (Nuclear quadrupole moments (NQMom) in fm**2, nuclear magnetic moments (NMagM)
  in nuclear magnetons)

  Atom         1           2           3           4           5           6           7           8           9          10
 IAtWgt=          79          16           1           1          16           1           1          16           1           1
 AtmWgt=  78.9183361  15.9949146   1.0078250   1.0078250  15.9949146   1.0078250   1.0078250  15.9949146   1.0078250   1.0078250
 NucSpn=           3           0           1           1           0           1           1           0           1           1
 AtZEff=   0.0000000   0.0000000   0.0000000   0.0000000   0.0000000   0.0000000   0.0000000   0.0000000   0.0000000   0.0000000
 NQMom=   31.3000000   0.0000000   0.0000000   0.0000000   0.0000000   0.0000000   0.0000000   0.0000000   0.0000000   0.0000000
 NMagM=    2.1063990   0.0000000   2.7928460   2.7928460   0.0000000   2.7928460   2.7928460   0.0000000   2.7928460   2.7928460
 AtZNuc=  35.0000000   8.0000000   1.0000000   1.0000000   8.0000000   1.0000000   1.0000000   8.0000000   1.0000000   1.0000000

  Atom        11          12          13          14          15          16          17          18          19          20
 IAtWgt=          16           1           1          16           1           1          16           1           1          16
 AtmWgt=  15.9949146   1.0078250   1.0078250  15.9949146   1.0078250   1.0078250  15.9949146   1.0078250   1.0078250  15.9949146
 NucSpn=           0           1           1           0           1           1           0           1           1           0
 AtZEff=   0.0000000   0.0000000   0.0000000   0.0000000   0.0000000   0.0000000   0.0000000   0.0000000   0.0000000   0.0000000
 NQMom=    0.0000000   0.0000000   0.0000000   0.0000000   0.0000000   0.0000000   0.0000000   0.0000000   0.0000000   0.0000000
 NMagM=    0.0000000   2.7928460   2.7928460   0.0000000   2.7928460   2.7928460   0.0000000   2.7928460   2.7928460   0.0000000
 AtZNuc=   8.0000000   1.0000000   1.0000000   8.0000000   1.0000000   1.0000000   8.0000000   1.0000000   1.0000000   8.0000000

  Atom        21          22          23          24          25          26          27          28          29          30
 IAtWgt=           1           1          16           1           1          16           1           1          16           1
 AtmWgt=   1.0078250   1.0078250  15.9949146   1.0078250   1.0078250  15.9949146   1.0078250   1.0078250  15.9949146   1.0078250
 NucSpn=           1           1           0           1           1           0           1           1           0           1
 AtZEff=   0.0000000   0.0000000   0.0000000   0.0000000   0.0000000   0.0000000   0.0000000   0.0000000   0.0000000   0.0000000
 NQMom=    0.0000000   0.0000000   0.0000000   0.0000000   0.0000000   0.0000000   0.0000000   0.0000000   0.0000000   0.0000000
 NMagM=    2.7928460   2.7928460   0.0000000   2.7928460   2.7928460   0.0000000   2.7928460   2.7928460   0.0000000   2.7928460
 AtZNuc=   1.0000000   1.0000000   8.0000000   1.0000000   1.0000000   8.0000000   1.0000000   1.0000000   8.0000000   1.0000000

  Atom        31          32          33          34          35          36          37          38          39          40
 IAtWgt=           1          16           1           1          16           1           1          16           1           1
 AtmWgt=   1.0078250  15.9949146   1.0078250   1.0078250  15.9949146   1.0078250   1.0078250  15.9949146   1.0078250   1.0078250
 NucSpn=           1           0           1           1           0           1           1           0           1           1
 AtZEff=   0.0000000   0.0000000   0.0000000   0.0000000   0.0000000   0.0000000   0.0000000   0.0000000   0.0000000   0.0000000
 NQMom=    0.0000000   0.0000000   0.0000000   0.0000000   0.0000000   0.0000000   0.0000000   0.0000000   0.0000000   0.0000000
 NMagM=    2.7928460   0.0000000   2.7928460   2.7928460   0.0000000   2.7928460   2.7928460   0.0000000   2.7928460   2.7928460
 AtZNuc=   1.0000000   8.0000000   1.0000000   1.0000000   8.0000000   1.0000000   1.0000000   8.0000000   1.0000000   1.0000000

  Atom        41          42          43          44          45          46          47          48          49          50
 IAtWgt=          16           1           1          16           1           1          16           1           1          16
 AtmWgt=  15.9949146   1.0078250   1.0078250  15.9949146   1.0078250   1.0078250  15.9949146   1.0078250   1.0078250  15.9949146
 NucSpn=           0           1           1           0           1           1           0           1           1           0
 AtZEff=   0.0000000   0.0000000   0.0000000   0.0000000   0.0000000   0.0000000   0.0000000   0.0000000   0.0000000   0.0000000
 NQMom=    0.0000000   0.0000000   0.0000000   0.0000000   0.0000000   0.0000000   0.0000000   0.0000000   0.0000000   0.0000000
 NMagM=    0.0000000   2.7928460   2.7928460   0.0000000   2.7928460   2.7928460   0.0000000   2.7928460   2.7928460   0.0000000
 AtZNuc=   8.0000000   1.0000000   1.0000000   8.0000000   1.0000000   1.0000000   8.0000000   1.0000000   1.0000000   8.0000000

  Atom        51          52          53          54          55          56          57          58          59          60
 IAtWgt=           1           1          16           1           1          16           1           1          16           1
 AtmWgt=   1.0078250   1.0078250  15.9949146   1.0078250   1.0078250  15.9949146   1.0078250   1.0078250  15.9949146   1.0078250
 NucSpn=           1           1           0           1           1           0           1           1           0           1
 AtZEff=   0.0000000   0.0000000   0.0000000   0.0000000   0.0000000   0.0000000   0.0000000   0.0000000   0.0000000   0.0000000
 NQMom=    0.0000000   0.0000000   0.0000000   0.0000000   0.0000000   0.0000000   0.0000000   0.0000000   0.0000000   0.0000000
 NMagM=    2.7928460   2.7928460   0.0000000   2.7928460   2.7928460   0.0000000   2.7928460   2.7928460   0.0000000   2.7928460
 AtZNuc=   1.0000000   1.0000000   8.0000000   1.0000000   1.0000000   8.0000000   1.0000000   1.0000000   8.0000000   1.0000000

  Atom        61          62          63          64          65          66          67          68          69          70
 IAtWgt=           1          16           1           1          16           1           1          16           1           1
 AtmWgt=   1.0078250  15.9949146   1.0078250   1.0078250  15.9949146   1.0078250   1.0078250  15.9949146   1.0078250   1.0078250
 NucSpn=           1           0           1           1           0           1           1           0           1           1
 AtZEff=   0.0000000   0.0000000   0.0000000   0.0000000   0.0000000   0.0000000   0.0000000   0.0000000   0.0000000   0.0000000
 NQMom=    0.0000000   0.0000000   0.0000000   0.0000000   0.0000000   0.0000000   0.0000000   0.0000000   0.0000000   0.0000000
 NMagM=    2.7928460   0.0000000   2.7928460   2.7928460   0.0000000   2.7928460   2.7928460   0.0000000   2.7928460   2.7928460
 AtZNuc=   1.0000000   8.0000000   1.0000000   1.0000000   8.0000000   1.0000000   1.0000000   8.0000000   1.0000000   1.0000000

  Atom        71          72          73          74          75          76          77          78          79          80
 IAtWgt=          16           1           1          16           1           1          16           1           1          16
 AtmWgt=  15.9949146   1.0078250   1.0078250  15.9949146   1.0078250   1.0078250  15.9949146   1.0078250   1.0078250  15.9949146
 NucSpn=           0           1           1           0           1           1           0           1           1           0
 AtZEff=   0.0000000   0.0000000   0.0000000   0.0000000   0.0000000   0.0000000   0.0000000   0.0000000   0.0000000   0.0000000
 NQMom=    0.0000000   0.0000000   0.0000000   0.0000000   0.0000000   0.0000000   0.0000000   0.0000000   0.0000000   0.0000000
 NMagM=    0.0000000   2.7928460   2.7928460   0.0000000   2.7928460   2.7928460   0.0000000   2.7928460   2.7928460   0.0000000
 AtZNuc=   8.0000000   1.0000000   1.0000000   8.0000000   1.0000000   1.0000000   8.0000000   1.0000000   1.0000000   8.0000000

  Atom        81          82          83          84          85          86          87          88          89          90
 IAtWgt=           1           1          16           1           1          16           1           1          16           1
 AtmWgt=   1.0078250   1.0078250  15.9949146   1.0078250   1.0078250  15.9949146   1.0078250   1.0078250  15.9949146   1.0078250
 NucSpn=           1           1           0           1           1           0           1           1           0           1
 AtZEff=   0.0000000   0.0000000   0.0000000   0.0000000   0.0000000   0.0000000   0.0000000   0.0000000   0.0000000   0.0000000
 NQMom=    0.0000000   0.0000000   0.0000000   0.0000000   0.0000000   0.0000000   0.0000000   0.0000000   0.0000000   0.0000000
 NMagM=    2.7928460   2.7928460   0.0000000   2.7928460   2.7928460   0.0000000   2.7928460   2.7928460   0.0000000   2.7928460
 AtZNuc=   1.0000000   1.0000000   8.0000000   1.0000000   1.0000000   8.0000000   1.0000000   1.0000000   8.0000000   1.0000000

  Atom        91          92          93          94          95          96          97          98          99         100
 IAtWgt=           1          16           1           1          16           1           1          16           1           1
 AtmWgt=   1.0078250  15.9949146   1.0078250   1.0078250  15.9949146   1.0078250   1.0078250  15.9949146   1.0078250   1.0078250
 NucSpn=           1           0           1           1           0           1           1           0           1           1
 AtZEff=   0.0000000   0.0000000   0.0000000   0.0000000   0.0000000   0.0000000   0.0000000   0.0000000   0.0000000   0.0000000
 NQMom=    0.0000000   0.0000000   0.0000000   0.0000000   0.0000000   0.0000000   0.0000000   0.0000000   0.0000000   0.0000000
 NMagM=    2.7928460   0.0000000   2.7928460   2.7928460   0.0000000   2.7928460   2.7928460   0.0000000   2.7928460   2.7928460
 AtZNuc=   1.0000000   8.0000000   1.0000000   1.0000000   8.0000000   1.0000000   1.0000000   8.0000000   1.0000000   1.0000000

  Atom       101         102         103         104         105         106         107         108         109         110
 IAtWgt=          16           1           1          16           1           1          16           1           1          16
 AtmWgt=  15.9949146   1.0078250   1.0078250  15.9949146   1.0078250   1.0078250  15.9949146   1.0078250   1.0078250  15.9949146
 NucSpn=           0           1           1           0           1           1           0           1           1           0
 AtZEff=   0.0000000   0.0000000   0.0000000   0.0000000   0.0000000   0.0000000   0.0000000   0.0000000   0.0000000   0.0000000
 NQMom=    0.0000000   0.0000000   0.0000000   0.0000000   0.0000000   0.0000000   0.0000000   0.0000000   0.0000000   0.0000000
 NMagM=    0.0000000   2.7928460   2.7928460   0.0000000   2.7928460   2.7928460   0.0000000   2.7928460   2.7928460   0.0000000
 AtZNuc=   8.0000000   1.0000000   1.0000000   8.0000000   1.0000000   1.0000000   8.0000000   1.0000000   1.0000000   8.0000000

  Atom       111         112         113         114         115         116         117         118         119         120
 IAtWgt=           1           1          16           1           1          16           1           1          16           1
 AtmWgt=   1.0078250   1.0078250  15.9949146   1.0078250   1.0078250  15.9949146   1.0078250   1.0078250  15.9949146   1.0078250
 NucSpn=           1           1           0           1           1           0           1           1           0           1
 AtZEff=   0.0000000   0.0000000   0.0000000   0.0000000   0.0000000   0.0000000   0.0000000   0.0000000   0.0000000   0.0000000
 NQMom=    0.0000000   0.0000000   0.0000000   0.0000000   0.0000000   0.0000000   0.0000000   0.0000000   0.0000000   0.0000000
 NMagM=    2.7928460   2.7928460   0.0000000   2.7928460   2.7928460   0.0000000   2.7928460   2.7928460   0.0000000   2.7928460
 AtZNuc=   1.0000000   1.0000000   8.0000000   1.0000000   1.0000000   8.0000000   1.0000000   1.0000000   8.0000000   1.0000000

  Atom       121         122         123         124         125         126         127         128         129         130
 IAtWgt=           1          16           1           1          16           1           1          16           1           1
 AtmWgt=   1.0078250  15.9949146   1.0078250   1.0078250  15.9949146   1.0078250   1.0078250  15.9949146   1.0078250   1.0078250
 NucSpn=           1           0           1           1           0           1           1           0           1           1
 AtZEff=   0.0000000   0.0000000   0.0000000   0.0000000   0.0000000   0.0000000   0.0000000   0.0000000   0.0000000   0.0000000
 NQMom=    0.0000000   0.0000000   0.0000000   0.0000000   0.0000000   0.0000000   0.0000000   0.0000000   0.0000000   0.0000000
 NMagM=    2.7928460   0.0000000   2.7928460   2.7928460   0.0000000   2.7928460   2.7928460   0.0000000   2.7928460   2.7928460
 AtZNuc=   1.0000000   8.0000000   1.0000000   1.0000000   8.0000000   1.0000000   1.0000000   8.0000000   1.0000000   1.0000000

  Atom       131         132         133         134         135         136         137         138         139         140
 IAtWgt=          16           1           1          16           1           1          16           1           1          16
 AtmWgt=  15.9949146   1.0078250   1.0078250  15.9949146   1.0078250   1.0078250  15.9949146   1.0078250   1.0078250  15.9949146
 NucSpn=           0           1           1           0           1           1           0           1           1           0
 AtZEff=   0.0000000   0.0000000   0.0000000   0.0000000   0.0000000   0.0000000   0.0000000   0.0000000   0.0000000   0.0000000
 NQMom=    0.0000000   0.0000000   0.0000000   0.0000000   0.0000000   0.0000000   0.0000000   0.0000000   0.0000000   0.0000000
 NMagM=    0.0000000   2.7928460   2.7928460   0.0000000   2.7928460   2.7928460   0.0000000   2.7928460   2.7928460   0.0000000
 AtZNuc=   8.0000000   1.0000000   1.0000000   8.0000000   1.0000000   1.0000000   8.0000000   1.0000000   1.0000000   8.0000000

  Atom       141         142         143         144         145         146         147         148         149         150
 IAtWgt=           1           1          16           1           1          16           1           1          16           1
 AtmWgt=   1.0078250   1.0078250  15.9949146   1.0078250   1.0078250  15.9949146   1.0078250   1.0078250  15.9949146   1.0078250
 NucSpn=           1           1           0           1           1           0           1           1           0           1
 AtZEff=   0.0000000   0.0000000   0.0000000   0.0000000   0.0000000   0.0000000   0.0000000   0.0000000   0.0000000   0.0000000
 NQMom=    0.0000000   0.0000000   0.0000000   0.0000000   0.0000000   0.0000000   0.0000000   0.0000000   0.0000000   0.0000000
 NMagM=    2.7928460   2.7928460   0.0000000   2.7928460   2.7928460   0.0000000   2.7928460   2.7928460   0.0000000   2.7928460
 AtZNuc=   1.0000000   1.0000000   8.0000000   1.0000000   1.0000000   8.0000000   1.0000000   1.0000000   8.0000000   1.0000000

  Atom       151         152         153         154         155         156         157         158         159         160
 IAtWgt=           1          16           1           1          16           1           1          16           1           1
 AtmWgt=   1.0078250  15.9949146   1.0078250   1.0078250  15.9949146   1.0078250   1.0078250  15.9949146   1.0078250   1.0078250
 NucSpn=           1           0           1           1           0           1           1           0           1           1
 AtZEff=   0.0000000   0.0000000   0.0000000   0.0000000   0.0000000   0.0000000   0.0000000   0.0000000   0.0000000   0.0000000
 NQMom=    0.0000000   0.0000000   0.0000000   0.0000000   0.0000000   0.0000000   0.0000000   0.0000000   0.0000000   0.0000000
 NMagM=    2.7928460   0.0000000   2.7928460   2.7928460   0.0000000   2.7928460   2.7928460   0.0000000   2.7928460   2.7928460
 AtZNuc=   1.0000000   8.0000000   1.0000000   1.0000000   8.0000000   1.0000000   1.0000000   8.0000000   1.0000000   1.0000000

  Atom       161         162         163         164         165         166         167         168         169         170
 IAtWgt=          16           1           1          16           1           1          16           1           1          16
 AtmWgt=  15.9949146   1.0078250   1.0078250  15.9949146   1.0078250   1.0078250  15.9949146   1.0078250   1.0078250  15.9949146
 NucSpn=           0           1           1           0           1           1           0           1           1           0
 AtZEff=   0.0000000   0.0000000   0.0000000   0.0000000   0.0000000   0.0000000   0.0000000   0.0000000   0.0000000   0.0000000
 NQMom=    0.0000000   0.0000000   0.0000000   0.0000000   0.0000000   0.0000000   0.0000000   0.0000000   0.0000000   0.0000000
 NMagM=    0.0000000   2.7928460   2.7928460   0.0000000   2.7928460   2.7928460   0.0000000   2.7928460   2.7928460   0.0000000
 AtZNuc=   8.0000000   1.0000000   1.0000000   8.0000000   1.0000000   1.0000000   8.0000000   1.0000000   1.0000000   8.0000000

  Atom       171         172         173         174         175         176         177         178         179         180
 IAtWgt=           1           1          16           1           1          16           1           1          16           1
 AtmWgt=   1.0078250   1.0078250  15.9949146   1.0078250   1.0078250  15.9949146   1.0078250   1.0078250  15.9949146   1.0078250
 NucSpn=           1           1           0           1           1           0           1           1           0           1
 AtZEff=   0.0000000   0.0000000   0.0000000   0.0000000   0.0000000   0.0000000   0.0000000   0.0000000   0.0000000   0.0000000
 NQMom=    0.0000000   0.0000000   0.0000000   0.0000000   0.0000000   0.0000000   0.0000000   0.0000000   0.0000000   0.0000000
 NMagM=    2.7928460   2.7928460   0.0000000   2.7928460   2.7928460   0.0000000   2.7928460   2.7928460   0.0000000   2.7928460
 AtZNuc=   1.0000000   1.0000000   8.0000000   1.0000000   1.0000000   8.0000000   1.0000000   1.0000000   8.0000000   1.0000000

  Atom       181         182         183         184         185         186         187         188         189         190
 IAtWgt=           1          16           1           1          16           1           1          16           1           1
 AtmWgt=   1.0078250  15.9949146   1.0078250   1.0078250  15.9949146   1.0078250   1.0078250  15.9949146   1.0078250   1.0078250
 NucSpn=           1           0           1           1           0           1           1           0           1           1
 AtZEff=   0.0000000   0.0000000   0.0000000   0.0000000   0.0000000   0.0000000   0.0000000   0.0000000   0.0000000   0.0000000
 NQMom=    0.0000000   0.0000000   0.0000000   0.0000000   0.0000000   0.0000000   0.0000000   0.0000000   0.0000000   0.0000000
 NMagM=    2.7928460   0.0000000   2.7928460   2.7928460   0.0000000   2.7928460   2.7928460   0.0000000   2.7928460   2.7928460
 AtZNuc=   1.0000000   8.0000000   1.0000000   1.0000000   8.0000000   1.0000000   1.0000000   8.0000000   1.0000000   1.0000000

  Atom       191         192         193         194         195         196         197         198         199         200
 IAtWgt=          16           1           1          16           1           1          16           1           1          16
 AtmWgt=  15.9949146   1.0078250   1.0078250  15.9949146   1.0078250   1.0078250  15.9949146   1.0078250   1.0078250  15.9949146
 NucSpn=           0           1           1           0           1           1           0           1           1           0
 AtZEff=   0.0000000   0.0000000   0.0000000   0.0000000   0.0000000   0.0000000   0.0000000   0.0000000   0.0000000   0.0000000
 NQMom=    0.0000000   0.0000000   0.0000000   0.0000000   0.0000000   0.0000000   0.0000000   0.0000000   0.0000000   0.0000000
 NMagM=    0.0000000   2.7928460   2.7928460   0.0000000   2.7928460   2.7928460   0.0000000   2.7928460   2.7928460   0.0000000
 AtZNuc=   8.0000000   1.0000000   1.0000000   8.0000000   1.0000000   1.0000000   8.0000000   1.0000000   1.0000000   8.0000000

  Atom       201         202         203         204         205         206         207         208         209         210
 IAtWgt=           1           1          16           1           1          16           1           1          16           1
 AtmWgt=   1.0078250   1.0078250  15.9949146   1.0078250   1.0078250  15.9949146   1.0078250   1.0078250  15.9949146   1.0078250
 NucSpn=           1           1           0           1           1           0           1           1           0           1
 AtZEff=   0.0000000   0.0000000   0.0000000   0.0000000   0.0000000   0.0000000   0.0000000   0.0000000   0.0000000   0.0000000
 NQMom=    0.0000000   0.0000000   0.0000000   0.0000000   0.0000000   0.0000000   0.0000000   0.0000000   0.0000000   0.0000000
 NMagM=    2.7928460   2.7928460   0.0000000   2.7928460   2.7928460   0.0000000   2.7928460   2.7928460   0.0000000   2.7928460
 AtZNuc=   1.0000000   1.0000000   8.0000000   1.0000000   1.0000000   8.0000000   1.0000000   1.0000000   8.0000000   1.0000000

  Atom       211         212         213         214         215         216         217         218         219         220
 IAtWgt=           1          16           1           1          16           1           1          16           1           1
 AtmWgt=   1.0078250  15.9949146   1.0078250   1.0078250  15.9949146   1.0078250   1.0078250  15.9949146   1.0078250   1.0078250
 NucSpn=           1           0           1           1           0           1           1           0           1           1
 AtZEff=   0.0000000   0.0000000   0.0000000   0.0000000   0.0000000   0.0000000   0.0000000   0.0000000   0.0000000   0.0000000
 NQMom=    0.0000000   0.0000000   0.0000000   0.0000000   0.0000000   0.0000000   0.0000000   0.0000000   0.0000000   0.0000000
 NMagM=    2.7928460   0.0000000   2.7928460   2.7928460   0.0000000   2.7928460   2.7928460   0.0000000   2.7928460   2.7928460
 AtZNuc=   1.0000000   8.0000000   1.0000000   1.0000000   8.0000000   1.0000000   1.0000000   8.0000000   1.0000000   1.0000000

  Atom       221         222         223         224         225         226         227         228         229         230
 IAtWgt=          16           1           1          16           1           1          16           1           1          16
 AtmWgt=  15.9949146   1.0078250   1.0078250  15.9949146   1.0078250   1.0078250  15.9949146   1.0078250   1.0078250  15.9949146
 NucSpn=           0           1           1           0           1           1           0           1           1           0
 AtZEff=   0.0000000   0.0000000   0.0000000   0.0000000   0.0000000   0.0000000   0.0000000   0.0000000   0.0000000   0.0000000
 NQMom=    0.0000000   0.0000000   0.0000000   0.0000000   0.0000000   0.0000000   0.0000000   0.0000000   0.0000000   0.0000000
 NMagM=    0.0000000   2.7928460   2.7928460   0.0000000   2.7928460   2.7928460   0.0000000   2.7928460   2.7928460   0.0000000
 AtZNuc=   8.0000000   1.0000000   1.0000000   8.0000000   1.0000000   1.0000000   8.0000000   1.0000000   1.0000000   8.0000000

  Atom       231         232         233         234         235         236         237         238         239         240
 IAtWgt=           1           1          16           1           1          16           1           1          16           1
 AtmWgt=   1.0078250   1.0078250  15.9949146   1.0078250   1.0078250  15.9949146   1.0078250   1.0078250  15.9949146   1.0078250
 NucSpn=           1           1           0           1           1           0           1           1           0           1
 AtZEff=   0.0000000   0.0000000   0.0000000   0.0000000   0.0000000   0.0000000   0.0000000   0.0000000   0.0000000   0.0000000
 NQMom=    0.0000000   0.0000000   0.0000000   0.0000000   0.0000000   0.0000000   0.0000000   0.0000000   0.0000000   0.0000000
 NMagM=    2.7928460   2.7928460   0.0000000   2.7928460   2.7928460   0.0000000   2.7928460   2.7928460   0.0000000   2.7928460
 AtZNuc=   1.0000000   1.0000000   8.0000000   1.0000000   1.0000000   8.0000000   1.0000000   1.0000000   8.0000000   1.0000000

  Atom       241         242         243         244         245         246         247         248         249         250
 IAtWgt=           1          16           1           1          16           1           1          16           1           1
 AtmWgt=   1.0078250  15.9949146   1.0078250   1.0078250  15.9949146   1.0078250   1.0078250  15.9949146   1.0078250   1.0078250
 NucSpn=           1           0           1           1           0           1           1           0           1           1
 AtZEff=   0.0000000   0.0000000   0.0000000   0.0000000   0.0000000   0.0000000   0.0000000   0.0000000   0.0000000   0.0000000
 NQMom=    0.0000000   0.0000000   0.0000000   0.0000000   0.0000000   0.0000000   0.0000000   0.0000000   0.0000000   0.0000000
 NMagM=    2.7928460   0.0000000   2.7928460   2.7928460   0.0000000   2.7928460   2.7928460   0.0000000   2.7928460   2.7928460
 AtZNuc=   1.0000000   8.0000000   1.0000000   1.0000000   8.0000000   1.0000000   1.0000000   8.0000000   1.0000000   1.0000000

  Atom       251         252         253         254         255         256         257         258         259         260
 IAtWgt=          16           1           1          16           1           1          16           1           1          16
 AtmWgt=  15.9949146   1.0078250   1.0078250  15.9949146   1.0078250   1.0078250  15.9949146   1.0078250   1.0078250  15.9949146
 NucSpn=           0           1           1           0           1           1           0           1           1           0
 AtZEff=   0.0000000   0.0000000   0.0000000   0.0000000   0.0000000   0.0000000   0.0000000   0.0000000   0.0000000   0.0000000
 NQMom=    0.0000000   0.0000000   0.0000000   0.0000000   0.0000000   0.0000000   0.0000000   0.0000000   0.0000000   0.0000000
 NMagM=    0.0000000   2.7928460   2.7928460   0.0000000   2.7928460   2.7928460   0.0000000   2.7928460   2.7928460   0.0000000
 AtZNuc=   8.0000000   1.0000000   1.0000000   8.0000000   1.0000000   1.0000000   8.0000000   1.0000000   1.0000000   8.0000000

  Atom       261         262         263         264         265         266         267         268         269         270
 IAtWgt=           1           1          16           1           1          16           1           1          16           1
 AtmWgt=   1.0078250   1.0078250  15.9949146   1.0078250   1.0078250  15.9949146   1.0078250   1.0078250  15.9949146   1.0078250
 NucSpn=           1           1           0           1           1           0           1           1           0           1
 AtZEff=   0.0000000   0.0000000   0.0000000   0.0000000   0.0000000   0.0000000   0.0000000   0.0000000   0.0000000   0.0000000
 NQMom=    0.0000000   0.0000000   0.0000000   0.0000000   0.0000000   0.0000000   0.0000000   0.0000000   0.0000000   0.0000000
 NMagM=    2.7928460   2.7928460   0.0000000   2.7928460   2.7928460   0.0000000   2.7928460   2.7928460   0.0000000   2.7928460
 AtZNuc=   1.0000000   1.0000000   8.0000000   1.0000000   1.0000000   8.0000000   1.0000000   1.0000000   8.0000000   1.0000000

  Atom       271         272         273         274         275         276         277         278         279         280
 IAtWgt=           1          16           1           1          16           1           1          16           1           1
 AtmWgt=   1.0078250  15.9949146   1.0078250   1.0078250  15.9949146   1.0078250   1.0078250  15.9949146   1.0078250   1.0078250
 NucSpn=           1           0           1           1           0           1           1           0           1           1
 AtZEff=   0.0000000   0.0000000   0.0000000   0.0000000   0.0000000   0.0000000   0.0000000   0.0000000   0.0000000   0.0000000
 NQMom=    0.0000000   0.0000000   0.0000000   0.0000000   0.0000000   0.0000000   0.0000000   0.0000000   0.0000000   0.0000000
 NMagM=    2.7928460   0.0000000   2.7928460   2.7928460   0.0000000   2.7928460   2.7928460   0.0000000   2.7928460   2.7928460
 AtZNuc=   1.0000000   8.0000000   1.0000000   1.0000000   8.0000000   1.0000000   1.0000000   8.0000000   1.0000000   1.0000000

  Atom       281         282         283         284         285         286         287         288         289         290
 IAtWgt=          16           1           1          16           1           1          16           1           1          16
 AtmWgt=  15.9949146   1.0078250   1.0078250  15.9949146   1.0078250   1.0078250  15.9949146   1.0078250   1.0078250  15.9949146
 NucSpn=           0           1           1           0           1           1           0           1           1           0
 AtZEff=   0.0000000   0.0000000   0.0000000   0.0000000   0.0000000   0.0000000   0.0000000   0.0000000   0.0000000   0.0000000
 NQMom=    0.0000000   0.0000000   0.0000000   0.0000000   0.0000000   0.0000000   0.0000000   0.0000000   0.0000000   0.0000000
 NMagM=    0.0000000   2.7928460   2.7928460   0.0000000   2.7928460   2.7928460   0.0000000   2.7928460   2.7928460   0.0000000
 AtZNuc=   8.0000000   1.0000000   1.0000000   8.0000000   1.0000000   1.0000000   8.0000000   1.0000000   1.0000000   8.0000000

  Atom       291         292         293         294         295         296         297         298         299         300
 IAtWgt=           1           1          16           1           1          16           1           1          16           1
 AtmWgt=   1.0078250   1.0078250  15.9949146   1.0078250   1.0078250  15.9949146   1.0078250   1.0078250  15.9949146   1.0078250
 NucSpn=           1           1           0           1           1           0           1           1           0           1
 AtZEff=   0.0000000   0.0000000   0.0000000   0.0000000   0.0000000   0.0000000   0.0000000   0.0000000   0.0000000   0.0000000
 NQMom=    0.0000000   0.0000000   0.0000000   0.0000000   0.0000000   0.0000000   0.0000000   0.0000000   0.0000000   0.0000000
 NMagM=    2.7928460   2.7928460   0.0000000   2.7928460   2.7928460   0.0000000   2.7928460   2.7928460   0.0000000   2.7928460
 AtZNuc=   1.0000000   1.0000000   8.0000000   1.0000000   1.0000000   8.0000000   1.0000000   1.0000000   8.0000000   1.0000000

  Atom       301         302         303         304         305         306         307         308         309         310
 IAtWgt=           1          16           1           1          16           1           1          16           1           1
 AtmWgt=   1.0078250  15.9949146   1.0078250   1.0078250  15.9949146   1.0078250   1.0078250  15.9949146   1.0078250   1.0078250
 NucSpn=           1           0           1           1           0           1           1           0           1           1
 AtZEff=   0.0000000   0.0000000   0.0000000   0.0000000   0.0000000   0.0000000   0.0000000   0.0000000   0.0000000   0.0000000
 NQMom=    0.0000000   0.0000000   0.0000000   0.0000000   0.0000000   0.0000000   0.0000000   0.0000000   0.0000000   0.0000000
 NMagM=    2.7928460   0.0000000   2.7928460   2.7928460   0.0000000   2.7928460   2.7928460   0.0000000   2.7928460   2.7928460
 AtZNuc=   1.0000000   8.0000000   1.0000000   1.0000000   8.0000000   1.0000000   1.0000000   8.0000000   1.0000000   1.0000000

  Atom       311         312         313         314         315         316         317         318         319         320
 IAtWgt=          16           1           1          16           1           1          16           1           1          16
 AtmWgt=  15.9949146   1.0078250   1.0078250  15.9949146   1.0078250   1.0078250  15.9949146   1.0078250   1.0078250  15.9949146
 NucSpn=           0           1           1           0           1           1           0           1           1           0
 AtZEff=   0.0000000   0.0000000   0.0000000   0.0000000   0.0000000   0.0000000   0.0000000   0.0000000   0.0000000   0.0000000
 NQMom=    0.0000000   0.0000000   0.0000000   0.0000000   0.0000000   0.0000000   0.0000000   0.0000000   0.0000000   0.0000000
 NMagM=    0.0000000   2.7928460   2.7928460   0.0000000   2.7928460   2.7928460   0.0000000   2.7928460   2.7928460   0.0000000
 AtZNuc=   8.0000000   1.0000000   1.0000000   8.0000000   1.0000000   1.0000000   8.0000000   1.0000000   1.0000000   8.0000000

  Atom       321         322         323         324         325         326         327         328         329         330
 IAtWgt=           1           1          16           1           1          16           1           1          16           1
 AtmWgt=   1.0078250   1.0078250  15.9949146   1.0078250   1.0078250  15.9949146   1.0078250   1.0078250  15.9949146   1.0078250
 NucSpn=           1           1           0           1           1           0           1           1           0           1
 AtZEff=   0.0000000   0.0000000   0.0000000   0.0000000   0.0000000   0.0000000   0.0000000   0.0000000   0.0000000   0.0000000
 NQMom=    0.0000000   0.0000000   0.0000000   0.0000000   0.0000000   0.0000000   0.0000000   0.0000000   0.0000000   0.0000000
 NMagM=    2.7928460   2.7928460   0.0000000   2.7928460   2.7928460   0.0000000   2.7928460   2.7928460   0.0000000   2.7928460
 AtZNuc=   1.0000000   1.0000000   8.0000000   1.0000000   1.0000000   8.0000000   1.0000000   1.0000000   8.0000000   1.0000000

  Atom       331         332         333         334         335         336         337         338         339         340
 IAtWgt=           1          16           1           1          16           1           1          16           1           1
 AtmWgt=   1.0078250  15.9949146   1.0078250   1.0078250  15.9949146   1.0078250   1.0078250  15.9949146   1.0078250   1.0078250
 NucSpn=           1           0           1           1           0           1           1           0           1           1
 AtZEff=   0.0000000   0.0000000   0.0000000   0.0000000   0.0000000   0.0000000   0.0000000   0.0000000   0.0000000   0.0000000
 NQMom=    0.0000000   0.0000000   0.0000000   0.0000000   0.0000000   0.0000000   0.0000000   0.0000000   0.0000000   0.0000000
 NMagM=    2.7928460   0.0000000   2.7928460   2.7928460   0.0000000   2.7928460   2.7928460   0.0000000   2.7928460   2.7928460
 AtZNuc=   1.0000000   8.0000000   1.0000000   1.0000000   8.0000000   1.0000000   1.0000000   8.0000000   1.0000000   1.0000000

  Atom       341         342         343         344         345         346         347         348         349         350
 IAtWgt=          16           1           1          16           1           1          16           1           1          16
 AtmWgt=  15.9949146   1.0078250   1.0078250  15.9949146   1.0078250   1.0078250  15.9949146   1.0078250   1.0078250  15.9949146
 NucSpn=           0           1           1           0           1           1           0           1           1           0
 AtZEff=   0.0000000   0.0000000   0.0000000   0.0000000   0.0000000   0.0000000   0.0000000   0.0000000   0.0000000   0.0000000
 NQMom=    0.0000000   0.0000000   0.0000000   0.0000000   0.0000000   0.0000000   0.0000000   0.0000000   0.0000000   0.0000000
 NMagM=    0.0000000   2.7928460   2.7928460   0.0000000   2.7928460   2.7928460   0.0000000   2.7928460   2.7928460   0.0000000
 AtZNuc=   8.0000000   1.0000000   1.0000000   8.0000000   1.0000000   1.0000000   8.0000000   1.0000000   1.0000000   8.0000000

  Atom       351         352         353         354         355         356         357         358         359         360
 IAtWgt=           1           1          16           1           1          16           1           1          16           1
 AtmWgt=   1.0078250   1.0078250  15.9949146   1.0078250   1.0078250  15.9949146   1.0078250   1.0078250  15.9949146   1.0078250
 NucSpn=           1           1           0           1           1           0           1           1           0           1
 AtZEff=   0.0000000   0.0000000   0.0000000   0.0000000   0.0000000   0.0000000   0.0000000   0.0000000   0.0000000   0.0000000
 NQMom=    0.0000000   0.0000000   0.0000000   0.0000000   0.0000000   0.0000000   0.0000000   0.0000000   0.0000000   0.0000000
 NMagM=    2.7928460   2.7928460   0.0000000   2.7928460   2.7928460   0.0000000   2.7928460   2.7928460   0.0000000   2.7928460
 AtZNuc=   1.0000000   1.0000000   8.0000000   1.0000000   1.0000000   8.0000000   1.0000000   1.0000000   8.0000000   1.0000000

  Atom       361         362         363         364         365         366         367         368         369         370
 IAtWgt=           1          16           1           1          16           1           1          16           1           1
 AtmWgt=   1.0078250  15.9949146   1.0078250   1.0078250  15.9949146   1.0078250   1.0078250  15.9949146   1.0078250   1.0078250
 NucSpn=           1           0           1           1           0           1           1           0           1           1
 AtZEff=   0.0000000   0.0000000   0.0000000   0.0000000   0.0000000   0.0000000   0.0000000   0.0000000   0.0000000   0.0000000
 NQMom=    0.0000000   0.0000000   0.0000000   0.0000000   0.0000000   0.0000000   0.0000000   0.0000000   0.0000000   0.0000000
 NMagM=    2.7928460   0.0000000   2.7928460   2.7928460   0.0000000   2.7928460   2.7928460   0.0000000   2.7928460   2.7928460
 AtZNuc=   1.0000000   8.0000000   1.0000000   1.0000000   8.0000000   1.0000000   1.0000000   8.0000000   1.0000000   1.0000000

  Atom       371         372         373         374         375         376         377         378         379         380
 IAtWgt=          16           1           1          16           1           1          16           1           1          16
 AtmWgt=  15.9949146   1.0078250   1.0078250  15.9949146   1.0078250   1.0078250  15.9949146   1.0078250   1.0078250  15.9949146
 NucSpn=           0           1           1           0           1           1           0           1           1           0
 AtZEff=   0.0000000   0.0000000   0.0000000   0.0000000   0.0000000   0.0000000   0.0000000   0.0000000   0.0000000   0.0000000
 NQMom=    0.0000000   0.0000000   0.0000000   0.0000000   0.0000000   0.0000000   0.0000000   0.0000000   0.0000000   0.0000000
 NMagM=    0.0000000   2.7928460   2.7928460   0.0000000   2.7928460   2.7928460   0.0000000   2.7928460   2.7928460   0.0000000
 AtZNuc=   8.0000000   1.0000000   1.0000000   8.0000000   1.0000000   1.0000000   8.0000000   1.0000000   1.0000000   8.0000000

  Atom       381         382         383         384         385
 IAtWgt=           1           1          16           1           1
 AtmWgt=   1.0078250   1.0078250  15.9949146   1.0078250   1.0078250
 NucSpn=           1           1           0           1           1
 AtZEff=   0.0000000   0.0000000   0.0000000   0.0000000   0.0000000
 NQMom=    0.0000000   0.0000000   0.0000000   0.0000000   0.0000000
 NMagM=    2.7928460   2.7928460   0.0000000   2.7928460   2.7928460
 AtZNuc=   1.0000000   1.0000000   8.0000000   1.0000000   1.0000000
 Leave Link  101 at Sat May 12 12:04:40 2018, MaxMem= 14763950080 cpu:        33.2
 (Enter /cm/shared/gaussian/g09.e01/intel64-sandybridge/g09/l103.exe)

 GradGradGradGradGradGradGradGradGradGradGradGradGradGradGradGradGradGrad
 Berny optimization.
 Initialization pass.
 Trust Radius=3.00D-01 FncErr=1.00D-07 GrdErr=1.00D-07
 Number of steps in this run=      2 maximum allowed number of steps=      2.
 GradGradGradGradGradGradGradGradGradGradGradGradGradGradGradGradGradGrad

 Leave Link  103 at Sat May 12 12:04:40 2018, MaxMem= 14763950080 cpu:         5.1
 (Enter /cm/shared/gaussian/g09.e01/intel64-sandybridge/g09/l202.exe)
 Symmetry turned off by external request.
 Stoichiometry    BrH256O128(1-)
 Framework group  C1[X(BrH256O128)]
 Deg. of freedom  1149
 Full point group                 C1      NOp   1
                          Input orientation:                          
 ---------------------------------------------------------------------
 Center     Atomic      Atomic             Coordinates (Angstroms)
 Number     Number       Type             X           Y           Z
 ---------------------------------------------------------------------
      1         35           0       20.000000   20.000000   20.000000
      2          8           0       19.700000   20.280000   16.970000
      3          1           0       20.030000   20.170000   17.860000
      4          1           0       19.030000   19.600000   16.890000
      5          8           0       18.400000   18.230000   22.030000
      6          1           0       18.880000   18.910000   21.560000
      7          1           0       17.740000   18.710000   22.530000
      8          8           0       19.610000   16.890000   19.650000
      9          1           0       19.860000   17.780000   19.900000
     10          1           0       19.050000   16.580000   20.360000
     11          8           0       16.810000   20.670000   20.370000
     12          1           0       17.740000   20.660000   20.150000
     13          1           0       16.780000   20.520000   21.310000
     14          8           0       21.420000   22.430000   21.850000
     15          1           0       21.100000   21.640000   21.410000
     16          1           0       20.850000   22.520000   22.610000
     17          8           0       23.300000   19.310000   19.230000
     18          1           0       22.360000   19.200000   19.350000
     19          1           0       23.540000   20.020000   19.830000
     20          8           0       21.560000   22.700000   18.360000
     21          1           0       21.190000   22.050000   18.960000
     22          1           0       22.480000   22.450000   18.270000
     23          8           0       17.910000   23.020000   17.940000
     24          1           0       18.580000   22.380000   18.160000
     25          1           0       18.050000   23.220000   17.010000
     26          8           0       18.320000   17.830000   17.170000
     27          1           0       17.450000   17.990000   17.520000
     28          1           0       18.840000   17.540000   17.930000
     29          8           0       16.130000   19.010000   18.460000
     30          1           0       15.210000   18.950000   18.680000
     31          1           0       16.510000   19.560000   19.140000
     32          8           0       22.800000   18.890000   23.040000
     33          1           0       22.340000   19.480000   23.630000
     34          1           0       23.200000   19.460000   22.390000
     35          8           0       23.990000   20.960000   21.620000
     36          1           0       24.820000   21.270000   21.270000
     37          1           0       23.370000   21.670000   21.460000
     38          8           0       20.600000   22.360000   15.590000
     39          1           0       21.170000   22.800000   16.220000
     40          1           0       20.230000   21.620000   16.070000
     41          8           0       21.640000   16.310000   23.290000
     42          1           0       21.390000   16.680000   24.140000
     43          1           0       21.920000   17.070000   22.780000
     44          8           0       15.790000   17.290000   22.040000
     45          1           0       15.410000   16.800000   21.310000
     46          1           0       16.680000   17.500000   21.740000
     47          8           0       16.680000   20.090000   23.190000
     48          1           0       16.260000   19.840000   24.010000
     49          1           0       16.580000   21.040000   23.150000
     50          8           0       17.240000   24.390000   20.340000
     51          1           0       16.560000   24.970000   20.010000
     52          1           0       17.460000   23.830000   19.590000
     53          8           0       17.070000   22.750000   22.890000
     54          1           0       16.480000   23.350000   23.360000
     55          1           0       17.400000   23.270000   22.150000
     56          8           0       15.080000   21.840000   18.050000
     57          1           0       15.640000   21.540000   18.770000
     58          1           0       15.660000   22.380000   17.510000
     59          8           0       19.310000   21.770000   24.420000
     60          1           0       19.000000   21.140000   25.060000
     61          1           0       18.510000   22.120000   24.030000
     62          8           0       22.990000   24.380000   20.900000
     63          1           0       22.410000   24.730000   20.220000
     64          1           0       22.410000   23.890000   21.480000
     65          8           0       22.730000   19.530000   15.180000
     66          1           0       23.440000   19.990000   14.730000
     67          1           0       23.030000   19.440000   16.080000
     68          8           0       19.440000   14.990000   22.000000
     69          1           0       20.360000   15.240000   21.880000
     70          1           0       19.210000   15.360000   22.850000
     71          8           0       25.470000   17.640000   19.040000
     72          1           0       24.730000   18.240000   18.920000
     73          1           0       26.230000   18.220000   19.110000
     74          8           0       21.930000   22.620000   24.970000
     75          1           0       21.040000   22.440000   24.670000
     76          1           0       21.870000   23.460000   25.430000
     77          8           0       17.210000   17.660000   14.800000
     78          1           0       17.630000   17.760000   15.660000
     79          1           0       16.430000   18.200000   14.850000
     80          8           0       21.750000   25.580000   18.730000
     81          1           0       21.200000   26.090000   18.130000
     82          1           0       21.990000   24.810000   18.230000
     83          8           0       24.290000   22.750000   17.930000
     84          1           0       24.630000   21.890000   17.700000
     85          1           0       24.800000   23.010000   18.700000
     86          8           0       20.020000   14.000000   18.470000
     87          1           0       19.360000   14.480000   18.960000
     88          1           0       20.840000   14.460000   18.650000
     89          8           0       26.030000   18.590000   21.720000
     90          1           0       25.530000   18.320000   20.950000
     91          1           0       26.350000   19.470000   21.500000
     92          8           0       14.220000   22.850000   21.730000
     93          1           0       13.920000   21.970000   21.530000
     94          1           0       15.140000   22.750000   21.950000
     95          8           0       17.980000   26.350000   18.100000
     96          1           0       18.430000   25.560000   18.420000
     97          1           0       18.620000   26.770000   17.520000
     98          8           0       18.400000   26.290000   21.920000
     99          1           0       18.130000   25.550000   21.380000
    100          1           0       18.330000   27.050000   21.340000
    101          8           0       18.280000   23.890000   15.260000
    102          1           0       19.150000   23.490000   15.150000
    103          1           0       17.880000   23.840000   14.400000
    104          8           0       20.270000   17.730000   25.680000
    105          1           0       20.970000   18.280000   26.050000
    106          1           0       19.470000   18.060000   26.090000
    107          8           0       25.000000   18.830000   24.890000
    108          1           0       24.310000   18.870000   24.230000
    109          1           0       25.470000   18.010000   24.710000
    110          8           0       25.630000   23.530000   20.510000
    111          1           0       24.780000   23.840000   20.830000
    112          1           0       26.100000   24.340000   20.280000
    113          8           0       24.220000   23.870000   23.900000
    114          1           0       23.340000   23.480000   23.910000
    115          1           0       24.800000   23.160000   24.180000
    116          8           0       21.530000   17.810000   13.520000
    117          1           0       21.720000   18.490000   14.160000
    118          1           0       22.330000   17.280000   13.480000
    119          8           0       22.970000   24.640000   16.190000
    120          1           0       23.200000   25.570000   16.200000
    121          1           0       23.510000   24.250000   16.880000
    122          8           0       18.800000   15.590000   25.130000
    123          1           0       17.870000   15.800000   25.180000
    124          1           0       19.240000   16.430000   25.290000
    125          8           0       23.760000   14.550000   22.620000
    126          1           0       23.330000   14.030000   21.940000
    127          1           0       23.060000   15.110000   22.960000
    128          8           0       21.790000   22.100000   13.080000
    129          1           0       21.570000   21.940000   14.000000
    130          1           0       21.800000   21.230000   12.680000
    131          8           0       15.890000   16.120000   24.710000
    132          1           0       16.110000   16.380000   23.820000
    133          1           0       15.710000   15.180000   24.660000
    134          8           0       13.780000   18.080000   19.320000
    135          1           0       13.800000   17.160000   19.580000
    136          1           0       13.180000   18.500000   19.950000
    137          8           0       18.200000   15.040000   15.130000
    138          1           0       17.760000   15.130000   15.970000
    139          1           0       17.870000   15.770000   14.600000
    140          8           0       17.610000   20.680000   26.260000
    141          1           0       16.720000   20.370000   26.080000
    142          1           0       17.910000   20.140000   26.990000
    143          8           0       21.340000   26.750000   23.060000
    144          1           0       21.570000   27.260000   22.290000
    145          1           0       20.620000   26.190000   22.780000
    146          8           0       25.730000   20.780000   16.330000
    147          1           0       26.600000   20.400000   16.490000
    148          1           0       25.730000   20.980000   15.390000
    149          8           0       26.880000   21.120000   20.860000
    150          1           0       26.550000   22.020000   20.960000
    151          1           0       27.360000   21.130000   20.030000
    152          8           0       25.440000   21.730000   24.870000
    153          1           0       25.040000   21.580000   25.730000
    154          1           0       25.280000   20.920000   24.390000
    155          8           0       15.600000   24.260000   15.790000
    156          1           0       16.550000   24.320000   15.730000
    157          1           0       15.330000   23.870000   14.960000
    158          8           0       25.780000   15.680000   17.070000
    159          1           0       25.480000   16.320000   17.710000
    160          1           0       26.270000   16.190000   16.430000
    161          8           0       18.750000   18.040000   12.720000
    162          1           0       19.530000   17.930000   13.270000
    163          1           0       18.010000   17.970000   13.320000
    164          8           0       22.820000   18.930000   26.390000
    165          1           0       23.050000   19.730000   26.870000
    166          1           0       23.640000   18.660000   25.980000
    167          8           0       18.950000   12.200000   21.090000
    168          1           0       18.900000   13.130000   21.290000
    169          1           0       19.400000   12.160000   20.240000
    170          8           0       22.080000   13.210000   20.890000
    171          1           0       22.030000   12.980000   19.960000
    172          1           0       21.750000   12.440000   21.350000
    173          8           0       23.480000   21.520000   26.900000
    174          1           0       23.810000   22.230000   27.450000
    175          1           0       22.990000   21.960000   26.210000
    176          8           0       13.230000   19.830000   16.560000
    177          1           0       13.530000   20.640000   16.980000
    178          1           0       13.330000   19.160000   17.240000
    179          8           0       26.140000   16.380000   23.060000
    180          1           0       26.110000   17.190000   22.550000
    181          1           0       25.230000   16.210000   23.310000
    182          8           0       26.170000   23.940000   16.380000
    183          1           0       25.340000   23.680000   16.780000
    184          1           0       26.320000   24.830000   16.700000
    185          8           0       20.180000   27.930000   19.730000
    186          1           0       19.590000   28.160000   19.020000
    187          1           0       20.700000   27.210000   19.390000
    188          8           0       17.950000   23.360000   27.030000
    189          1           0       18.170000   23.970000   26.330000
    190          1           0       18.090000   22.490000   26.650000
    191          8           0       20.720000   13.190000   15.790000
    192          1           0       20.060000   13.860000   15.950000
    193          1           0       21.260000   13.180000   16.570000
    194          8           0       13.460000   20.120000   24.160000
    195          1           0       12.560000   20.110000   24.490000
    196          1           0       13.370000   19.910000   23.230000
    197          8           0       23.430000   13.930000   17.470000
    198          1           0       23.450000   13.140000   16.930000
    199          1           0       23.870000   13.660000   18.290000
    200          8           0       23.210000   27.660000   19.330000
    201          1           0       23.740000   27.520000   20.120000
    202          1           0       22.900000   26.790000   19.090000
    203          8           0       12.480000   22.900000   17.790000
    204          1           0       13.430000   22.830000   17.910000
    205          1           0       12.300000   23.830000   17.880000
    206          8           0       14.570000   18.680000   14.430000
    207          1           0       13.740000   18.510000   13.970000
[...]
   Z335      27.98684   0.01496   0.00000   0.00819   0.00764  27.99448
   X336      49.79428  -0.01106   0.00000  -0.00821  -0.00859  49.78569
   Y336      33.33477   0.00857   0.00000   0.00567   0.00594  33.34070
   Z336      27.06088  -0.00683   0.00000  -0.00155  -0.00204  27.05884
   X337      51.15489  -0.00080   0.00000  -0.00235  -0.00274  51.15215
   Y337      30.84033  -0.01182   0.00000  -0.01018  -0.00992  30.83041
   Z337      26.94749  -0.00679   0.00000  -0.00242  -0.00301  26.94448
   X338      27.06088  -0.00340   0.00000  -0.00170  -0.00160  27.05928
   Y338      25.64358   0.01212   0.00000   0.00894   0.00887  25.65245
   Z338      42.10310  -0.00327   0.00000  -0.00206  -0.00198  42.10112
   X339      25.62469  -0.00195   0.00000  -0.00258  -0.00244  25.62225
   Y339      25.66248  -0.00177   0.00000  -0.00265  -0.00274  25.65974
   Z339      43.21804   0.00046   0.00000  -0.00041  -0.00029  43.21775
   X340      27.83567   0.00831   0.00000   0.00956   0.00967  27.84534
   Y340      24.03732  -0.00769   0.00000  -0.00098  -0.00106  24.03626
   Z340      42.40545   0.00214   0.00000   0.00108   0.00109  42.40655
   X341      23.48930  -0.01092   0.00000  -0.00701  -0.00739  23.48190
   Y341      40.28896  -0.01271   0.00000  -0.01383  -0.01351  40.27545
   Z341      26.55065  -0.00862   0.00000  -0.00577  -0.00521  26.54544
   X342      24.56644   0.00615   0.00000   0.00070   0.00036  24.56680
   Y342      40.98816   0.00615   0.00000   0.00283   0.00312  40.99128
   Z342      27.81677   0.00692   0.00000   0.00187   0.00242  27.81919
   X343      23.67827   0.00035   0.00000  -0.00067  -0.00110  23.67717
   Y343      41.40390   0.00070   0.00000  -0.00077  -0.00041  41.40349
   Z343      25.13336   0.00273   0.00000   0.00422   0.00481  25.13817
   X344      33.31587  -0.00795   0.00000  -0.01453  -0.01495  33.30092
   Y344      23.60268  -0.01255   0.00000  -0.00623  -0.00592  23.59675
   Z344      26.55065  -0.01656   0.00000  -0.01767  -0.01785  26.53280
   X345      33.61823   0.00532   0.00000   0.00868   0.00829  33.62651
   Y345      25.28454   0.00872   0.00000  -0.00060  -0.00030  25.28423
   Z345      27.15536   0.00934   0.00000   0.00888   0.00873  27.16410
   X346      32.29542   0.00361   0.00000   0.00899   0.00861  32.30403
   Y346      22.82789   0.00249   0.00000   0.00356   0.00384  22.83173
   Z346      27.83567   0.00861   0.00000   0.01198   0.01181  27.84747
   X347      32.99462   0.01553   0.00000   0.01410   0.01363  33.00825
   Y347      46.29829   0.01322   0.00000   0.00339   0.00377  46.30206
   Z347      23.94283   0.01846   0.00000   0.00993   0.01033  23.95316
   X348      32.42770  -0.01548   0.00000  -0.01669  -0.01719  32.41051
   Y348      44.88100  -0.01580   0.00000  -0.00660  -0.00620  44.87480
   Z348      22.97907  -0.01779   0.00000  -0.01426  -0.01388  22.96519
   X349      32.21983  -0.00308   0.00000  -0.00154  -0.00203  32.21780
   Y349      47.73448   0.00088   0.00000  -0.00099  -0.00060  47.73388
   Z349      23.14915   0.00018   0.00000   0.00479   0.00525  23.15440
   X350      25.43571   0.01637   0.00000   0.01240   0.01276  25.44848
   Y350      43.53929  -0.00726   0.00000  -0.00694  -0.00718  43.53211
   Z350      48.98170  -0.00121   0.00000  -0.00130  -0.00072  48.98098
   X351      24.86880  -0.00689   0.00000  -0.00915  -0.00884  24.85996
   Y351      43.33142   0.00346   0.00000   0.00601   0.00581  43.33723
   Z351      47.26205  -0.00122   0.00000   0.00023   0.00083  47.26288
   X352      23.99952  -0.00835   0.00000  -0.00211  -0.00172  23.99780
   Y352      44.20069   0.00426   0.00000   0.00262   0.00237  44.20306
   Z352      49.85098   0.00137   0.00000  -0.00261  -0.00197  49.84901
   X353      53.47925   0.00742   0.00000   0.00353   0.00324  53.48249
   Y353      42.23538  -0.01480   0.00000  -0.01548  -0.01528  42.22010
   Z353      29.47973  -0.00666   0.00000   0.00241   0.00201  29.48174
   X354      54.87765   0.00691   0.00000   0.00770   0.00745  54.88509
   Y354      42.70781   0.00319   0.00000   0.00353   0.00370  42.71151
   Z354      30.51908   0.00265   0.00000   0.00050   0.00007  30.51915
   X355      52.06195  -0.01359   0.00000  -0.00892  -0.00918  52.05277
   Y355      43.06686   0.01001   0.00000   0.00854   0.00872  43.07558
   Z355      30.23562   0.00561   0.00000   0.00130   0.00098  30.23660
   X356      44.63533  -0.00925   0.00000  -0.00301  -0.00327  44.63206
   Y356      51.21158   0.00654   0.00000   0.01125   0.01145  51.22303
   Z356      29.83878  -0.00642   0.00000  -0.01033  -0.01021  29.82857
   X357      43.67157  -0.00083   0.00000  -0.00229  -0.00255  43.66902
   Y357      52.74226   0.00338   0.00000   0.00979   0.01000  52.75226
   Z357      29.66870   0.00506   0.00000   0.00911   0.00930  29.67800
   X358      46.33608   0.01327   0.00000   0.01214   0.01189  46.34797
   Y358      51.75960   0.00256   0.00000   0.00177   0.00196  51.76156
   Z358      30.04665  -0.00050   0.00000  -0.00256  -0.00248  30.04417
   X359      48.92501   0.00616   0.00000   0.00916   0.00903  48.93404
   Y359      50.13443  -0.01043   0.00000  -0.00648  -0.00638  50.12806
   Z359      33.76941  -0.00898   0.00000  -0.00831  -0.00836  33.76105
   X360      49.56752  -0.00090   0.00000  -0.00262  -0.00269  49.56482
   Y360      49.90767   0.00443   0.00000   0.00630   0.00635  49.91402
   Z360      35.45126   0.00471   0.00000   0.00334   0.00327  35.45453
   X361      48.24471  -0.00869   0.00000  -0.01249  -0.01262  48.23209
   Y361      51.81629   0.00425   0.00000  -0.00324  -0.00314  51.81315
   Z361      33.78830   0.00743   0.00000   0.01104   0.01106  33.79936
   X362      49.24626   0.00593   0.00000  -0.00023  -0.00064  49.24562
   Y362      44.25739  -0.00883   0.00000  -0.00536  -0.00506  44.25233
   Z362      25.58689  -0.00285   0.00000  -0.00120  -0.00140  25.58549
   X363      49.49193  -0.00021   0.00000  -0.00025  -0.00061  49.49132
   Y363      44.59754   0.00473   0.00000   0.00666   0.00692  44.60446
   Z363      27.36323   0.00547   0.00000   0.00358   0.00338  27.36662
   X364      47.84787  -0.01199   0.00000  -0.00990  -0.01033  47.83754
   Y364      45.31563   0.00941   0.00000   0.00784   0.00815  45.32379
   Z364      25.11446  -0.00258   0.00000  -0.00167  -0.00180  25.11266
   X365      46.86521  -0.00228   0.00000  -0.00334  -0.00315  46.86206
   Y365      23.01686  -0.01189   0.00000  -0.00845  -0.00862  23.00824
   Z365      44.84320   0.00867   0.00000   0.00731   0.00667  44.84987
   X366      48.50927  -0.00013   0.00000  -0.00073  -0.00051  48.50876
   Y366      23.22473   0.00257   0.00000   0.00339   0.00320  23.22794
   Z366      45.59909  -0.00155   0.00000  -0.00142  -0.00212  45.59698
   X367      46.75182   0.00021   0.00000  -0.00048  -0.00033  46.75150
   Y367      24.39636   0.00985   0.00000   0.00668   0.00654  24.40290
   Z367      43.67157  -0.00355   0.00000   0.00280   0.00219  43.67376
   X368      28.85612  -0.00363   0.00000  -0.00358  -0.00351  28.85261
   Y368      52.85564   0.00325   0.00000   0.00052   0.00050  52.85614
   Z368      39.85432  -0.01765   0.00000  -0.01090  -0.01020  39.84412
   X369      28.74273   0.00081   0.00000   0.00158   0.00171  28.74445
   Y369      52.15644  -0.00681   0.00000  -0.00476  -0.00482  52.15162
   Z369      41.51728   0.01749   0.00000   0.01081   0.01149  41.52877
   X370      30.25452   0.00268   0.00000   0.00156   0.00165  30.25616
   Y370      54.00837   0.00103   0.00000  -0.00028  -0.00030  54.00808
   Z370      39.94881   0.00089   0.00000  -0.00055   0.00013  39.94894
   X371      31.61512  -0.01871   0.00000  -0.00525  -0.00583  31.60929
   Y371      42.61332   0.01714   0.00000   0.00706   0.00751  42.62084
   Z371      20.80588  -0.00831   0.00000  -0.00065  -0.00030  20.80558
   X372      30.12223   0.00185   0.00000   0.00221   0.00163  30.12387
   Y372      41.57397  -0.00132   0.00000  -0.00207  -0.00161  41.57236
   Z372      20.82478  -0.00100   0.00000  -0.00269  -0.00232  20.82246
   X373      32.91903   0.02473   0.00000   0.01953   0.01898  32.93801
   Y373      41.57397  -0.02580   0.00000  -0.02483  -0.02439  41.54958
   Z373      21.48619   0.00772   0.00000  -0.00055  -0.00028  21.48591
   X374      32.69226   0.00416   0.00000   0.00576   0.00556  32.69782
   Y374      54.48080   0.01191   0.00000   0.00618   0.00637  54.48717
   Z374      31.40725   0.00809   0.00000   0.00746   0.00807  31.41531
   X375      30.99151  -0.00190   0.00000   0.00005  -0.00013  30.99138
   Y375      54.34852  -0.00321   0.00000  -0.00442  -0.00425  54.34428
   Z375      32.03086   0.00040   0.00000  -0.00026   0.00041  32.03126
   X376      32.97572  -0.00029   0.00000  -0.00144  -0.00167  32.97405
   Y376      52.91233  -0.00791   0.00000  -0.00074  -0.00053  52.91180
   Z376      30.53797  -0.01143   0.00000  -0.01442  -0.01386  30.52411
   X377      27.28765   0.00516   0.00000   0.00580   0.00536  27.29301
   Y377      43.82275   0.00755   0.00000   0.00531   0.00567  43.82842
   Z377      24.92549   0.00762   0.00000   0.00495   0.00548  24.93097
   X378      27.74118   0.00174   0.00000   0.00154   0.00108  27.74226
   Y378      42.23538  -0.00804   0.00000  -0.00584  -0.00546  42.22992
   Z378      24.18849  -0.00170   0.00000   0.00134   0.00181  24.19030
   X379      25.70028  -0.00291   0.00000   0.00154   0.00108  25.70136
   Y379      44.25739   0.00414   0.00000   0.00635   0.00673  44.26412
   Z379      24.16960  -0.00339   0.00000  -0.00306  -0.00247  24.16712
   X380      21.65626  -0.00680   0.00000  -0.00233  -0.00260  21.65366
   Y380      33.44815  -0.00835   0.00000  -0.00278  -0.00255  33.44560
   Z380      30.42459  -0.00009   0.00000  -0.00636  -0.00591  30.41868
   X381      20.04999  -0.00073   0.00000  -0.00244  -0.00274  20.04726
   Y381      33.44815  -0.00022   0.00000  -0.00037  -0.00012  33.44803
   Z381      29.57421  -0.00101   0.00000  -0.00301  -0.00250  29.57171
   X382      22.54443   0.00481   0.00000   0.00063   0.00033  22.54477
   Y382      34.86545   0.01801   0.00000   0.02016   0.02040  34.88585
   Z382      29.74429  -0.00194   0.00000   0.00240   0.00286  29.74715
   X383      45.33453  -0.00634   0.00000  -0.00406  -0.00457  45.32996
   Y383      30.91592   0.00553   0.00000   0.00663   0.00699  30.92291
   Z383      23.43260   0.01361   0.00000   0.01028   0.00987  23.44248
   X384      45.54240   0.00008   0.00000  -0.00196  -0.00252  45.53988
   Y384      29.95216  -0.00841   0.00000  -0.00764  -0.00724  29.94492
   Z384      21.92082  -0.00730   0.00000   0.00087   0.00044  21.92127
   X385      46.41167   0.00437   0.00000   0.00417   0.00366  46.41533
   Y385      32.35211   0.00635   0.00000   0.00651   0.00688  32.35899
   Z385      23.20584  -0.00301   0.00000  -0.00369  -0.00409  23.20174
         Item               Value     Threshold  Converged?
 Maximum Force            0.036207     0.000450     NO 
 RMS     Force            0.010891     0.000300     NO 
 Maximum Displacement     0.029966     0.001800     NO 
 RMS     Displacement     0.008840     0.001200     NO 
 Predicted change in Energy=-7.443708D-02
 GradGradGradGradGradGradGradGradGradGradGradGradGradGradGradGradGradGrad

 Leave Link  103 at Sat May 12 14:46:38 2018, MaxMem= 14763950080 cpu:      2750.6
 (Enter /cm/shared/gaussian/g09.e01/intel64-sandybridge/g09/l9999.exe)
 1\1\GINC-POPLE03\Force\RPBE1PBE\CC-pVDZ\Br1H256O128(1-)\M.PELUSO\12-Ma
 y-2018\0\\#p PBE1PBE/cc-pvDZ force Counterpoise=2 noSymm\\forces on ch
 loride comput - NWATER: 128\\-1,1\Br,20.,20.,20.\O,19.7,20.28,16.97\H,
 20.03,20.17,17.86\H,19.03,19.6,16.89\O,18.4,18.23,22.03\H,18.88,18.91,
 21.56\H,17.74,18.71,22.53\O,19.61,16.89,19.65\H,19.86,17.78,19.9\H,19.
 05,16.58,20.36\O,16.81,20.67,20.37\H,17.74,20.66,20.15\H,16.78,20.52,2
 1.31\O,21.42,22.43,21.85\H,21.1,21.64,21.41\H,20.85,22.52,22.61\O,23.3
 ,19.31,19.23\H,22.36,19.2,19.35\H,23.54,20.02,19.83\O,21.56,22.7,18.36
 \H,21.19,22.05,18.96\H,22.48,22.45,18.27\O,17.91,23.02,17.94\H,18.58,2
 2.38,18.16\H,18.05,23.22,17.01\O,18.32,17.83,17.17\H,17.45,17.99,17.52
 \H,18.84,17.54,17.93\O,16.13,19.01,18.46\H,15.21,18.95,18.68\H,16.51,1
 9.56,19.14\O,22.8,18.89,23.04\H,22.34,19.48,23.63\H,23.2,19.46,22.39\O
 ,23.99,20.96,21.62\H,24.82,21.27,21.27\H,23.37,21.67,21.46\O,20.6,22.3
 6,15.59\H,21.17,22.8,16.22\H,20.23,21.62,16.07\O,21.64,16.31,23.29\H,2
 1.39,16.68,24.14\H,21.92,17.07,22.78\O,15.79,17.29,22.04\H,15.41,16.8,
 21.31\H,16.68,17.5,21.74\O,16.68,20.09,23.19\H,16.26,19.84,24.01\H,16.
 58,21.04,23.15\O,17.24,24.39,20.34\H,16.56,24.97,20.01\H,17.46,23.83,1
 9.59\O,17.07,22.75,22.89\H,16.48,23.35,23.36\H,17.4,23.27,22.15\O,15.0
 8,21.84,18.05\H,15.64,21.54,18.77\H,15.66,22.38,17.51\O,19.31,21.77,24
 .42\H,19.,21.14,25.06\H,18.51,22.12,24.03\O,22.99,24.38,20.9\H,22.41,2
 4.73,20.22\H,22.41,23.89,21.48\O,22.73,19.53,15.18\H,23.44,19.99,14.73
 \H,23.03,19.44,16.08\O,19.44,14.99,22.\H,20.36,15.24,21.88\H,19.21,15.
 36,22.85\O,25.47,17.64,19.04\H,24.73,18.24,18.92\H,26.23,18.22,19.11\O
 ,21.93,22.62,24.97\H,21.04,22.44,24.67\H,21.87,23.46,25.43\O,17.21,17.
 66,14.8\H,17.63,17.76,15.66\H,16.43,18.2,14.85\O,21.75,25.58,18.73\H,2
 1.2,26.09,18.13\H,21.99,24.81,18.23\O,24.29,22.75,17.93\H,24.63,21.89,
 17.7\H,24.8,23.01,18.7\O,20.02,14.,18.47\H,19.36,14.48,18.96\H,20.84,1
 4.46,18.65\O,26.03,18.59,21.72\H,25.53,18.32,20.95\H,26.35,19.47,21.5\
 O,14.22,22.85,21.73\H,13.92,21.97,21.53\H,15.14,22.75,21.95\O,17.98,26
 .35,18.1\H,18.43,25.56,18.42\H,18.62,26.77,17.52\O,18.4,26.29,21.92\H,
 18.13,25.55,21.38\H,18.33,27.05,21.34\O,18.28,23.89,15.26\H,19.15,23.4
 9,15.15\H,17.88,23.84,14.4\O,20.27,17.73,25.68\H,20.97,18.28,26.05\H,1
 9.47,18.06,26.09\O,25.,18.83,24.89\H,24.31,18.87,24.23\H,25.47,18.01,2
 4.71\O,25.63,23.53,20.51\H,24.78,23.84,20.83\H,26.1,24.34,20.28\O,24.2
 2,23.87,23.9\H,23.34,23.48,23.91\H,24.8,23.16,24.18\O,21.53,17.81,13.5
 2\H,21.72,18.49,14.16\H,22.33,17.28,13.48\O,22.97,24.64,16.19\H,23.2,2
 5.57,16.2\H,23.51,24.25,16.88\O,18.8,15.59,25.13\H,17.87,15.8,25.18\H,
 19.24,16.43,25.29\O,23.76,14.55,22.62\H,23.33,14.03,21.94\H,23.06,15.1
 1,22.96\O,21.79,22.1,13.08\H,21.57,21.94,14.\H,21.8,21.23,12.68\O,15.8
 9,16.12,24.71\H,16.11,16.38,23.82\H,15.71,15.18,24.66\O,13.78,18.08,19
 .32\H,13.8,17.16,19.58\H,13.18,18.5,19.95\O,18.2,15.04,15.13\H,17.76,1
 5.13,15.97\H,17.87,15.77,14.6\O,17.61,20.68,26.26\H,16.72,20.37,26.08\
 H,17.91,20.14,26.99\O,21.34,26.75,23.06\H,21.57,27.26,22.29\H,20.62,26
 .19,22.78\O,25.73,20.78,16.33\H,26.6,20.4,16.49\H,25.73,20.98,15.39\O,
 26.88,21.12,20.86\H,26.55,22.02,20.96\H,27.36,21.13,20.03\O,25.44,21.7
 3,24.87\H,25.04,21.58,25.73\H,25.28,20.92,24.39\O,15.6,24.26,15.79\H,1
 6.55,24.32,15.73\H,15.33,23.87,14.96\O,25.78,15.68,17.07\H,25.48,16.32
 ,17.71\H,26.27,16.19,16.43\O,18.75,18.04,12.72\H,19.53,17.93,13.27\H,1
 8.01,17.97,13.32\O,22.82,18.93,26.39\H,23.05,19.73,26.87\H,23.64,18.66
 ,25.98\O,18.95,12.2,21.09\H,18.9,13.13,21.29\H,19.4,12.16,20.24\O,22.0
 8,13.21,20.89\H,22.03,12.98,19.96\H,21.75,12.44,21.35\O,23.48,21.52,26
 .9\H,23.81,22.23,27.45\H,22.99,21.96,26.21\O,13.23,19.83,16.56\H,13.53
 ,20.64,16.98\H,13.33,19.16,17.24\O,26.14,16.38,23.06\H,26.11,17.19,22.
 55\H,25.23,16.21,23.31\O,26.17,23.94,16.38\H,25.34,23.68,16.78\H,26.32
 ,24.83,16.7\O,20.18,27.93,19.73\H,19.59,28.16,19.02\H,20.7,27.21,19.39
 \O,17.95,23.36,27.03\H,18.17,23.97,26.33\H,18.09,22.49,26.65\O,20.72,1
 3.19,15.79\H,20.06,13.86,15.95\H,21.26,13.18,16.57\O,13.46,20.12,24.16
 \H,12.56,20.11,24.49\H,13.37,19.91,23.23\O,23.43,13.93,17.47\H,23.45,1
 3.14,16.93\H,23.87,13.66,18.29\O,23.21,27.66,19.33\H,23.74,27.52,20.12
 \H,22.9,26.79,19.09\O,12.48,22.9,17.79\H,13.43,22.83,17.91\H,12.3,23.8
 3,17.88\O,14.57,18.68,14.43\H,13.74,18.51,13.97\H,14.31,19.11,15.24\O,
 15.6,24.4,24.45\H,15.32,24.02,25.28\H,15.35,25.32,24.5\O,15.13,19.46,2
 5.95\H,14.6,20.07,25.42\H,14.71,18.61,25.82\O,13.96,15.3,20.01\H,14.37
 ,14.66,20.59\H,13.05,15.,19.93\O,15.07,25.99,19.12\H,15.79,26.25,18.55
 \H,14.96,26.73,19.72\O,18.12,12.33,17.27\H,18.91,12.82,17.48\H,17.44,1
 2.7,17.83\O,15.49,14.76,16.2\H,14.63,14.94,16.56\H,15.39,14.89,15.26\O
 ,24.01,26.45,24.08\H,24.11,25.53,23.85\H,23.06,26.56,24.18\O,20.24,13.
 36,25.65\H,19.92,13.26,26.54\H,19.82,14.15,25.32\O,17.9,26.75,14.74\H,
 18.09,26.85,13.81\H,18.27,25.9,14.98\O,20.37,27.15,16.57\H,20.79,28.01
 ,16.53\H,20.38,26.83,15.67\O,18.74,20.84,12.11\H,19.65,20.78,11.82\H,1
 8.45,19.93,12.14\O,13.08,15.86,17.02\H,12.6,16.5,16.48\H,13.14,16.27,1
 7.88\O,17.47,12.77,23.98\H,18.05,12.83,23.22\H,18.06,12.72,24.73\O,23.
 49,24.49,13.02\H,22.92,23.88,13.49\H,22.98,24.75,12.25\O,21.84,19.77,1
 1.69\H,21.53,18.96,12.08\H,22.09,19.53,10.79\O,13.03,25.44,21.78\H,12.
 74,25.43,20.86\H,13.6,24.68,21.85\O,26.35,14.03,21.41\H,25.86,14.64,21
 .96\H,27.24,14.38,21.39\O,11.99,20.29,21.73\H,11.5,19.48,21.84\H,11.75
 ,20.6,20.85\O,12.95,17.07,23.43\H,13.11,17.81,24.02\H,13.59,16.41,23.6
 9\O,24.77,21.06,13.36\H,24.35,21.02,12.51\H,24.98,21.98,13.48\O,18.94,
 18.99,28.15\H,18.38,18.22,28.19\H,19.58,18.86,28.85\O,21.67,24.91,26.4
 9\H,22.41,25.49,26.64\H,21.15,24.94,27.29\O,16.1,27.26,23.88\H,16.38,2
 8.08,24.28\H,16.91,26.83,23.61\O,24.34,14.32,14.6\H,24.26,15.17,14.18\
 H,24.41,14.52,15.54\O,19.08,27.87,24.63\H,19.48,27.74,25.49\H,19.55,27
 .26,24.06\O,20.41,24.16,12.02\H,20.72,23.34,12.39\H,19.46,24.05,11.97\
 O,20.29,15.51,12.07\H,21.11,16.,12.08\H,19.69,16.05,12.59\O,16.86,17.1
 5,27.58\H,16.14,17.45,27.02\H,16.87,16.2,27.47\O,15.65,12.42,18.07\H,1
 5.68,13.21,17.53\H,14.72,12.27,18.21\O,11.7,17.56,21.17\H,11.01,16.89,
 21.19\H,12.18,17.44,21.98\O,11.72,22.96,23.42\H,11.11,23.01,22.68\H,12
 .56,22.72,23.03\O,21.23,26.49,13.93\H,22.1,26.84,14.14\H,21.39,25.57,1
 3.71\O,22.96,14.05,25.78\H,22.,14.08,25.79\H,23.18,13.62,24.96\O,24.97
 ,16.09,25.99\H,25.16,16.07,26.93\H,24.31,15.42,25.86\O,22.09,15.91,28.
 24\H,22.98,15.6,28.09\H,22.,16.67,27.67\O,26.98,19.46,26.52\H,26.25,19
 .51,25.9\H,27.75,19.71,26.\O,28.46,21.12,18.68\H,28.47,22.03,18.39\H,2
 9.38,20.91,18.85\O,29.18,19.46,21.84\H,28.45,20.09,21.8\H,29.9,19.97,2
 2.23\O,13.12,25.58,17.13\H,13.74,24.99,16.7\H,13.55,25.81,17.96\O,11.1
 6,21.12,19.32\H,11.61,21.81,18.84\H,10.23,21.33,19.26\O,24.72,27.83,21
 .76\H,24.66,28.54,22.39\H,24.52,27.04,22.26\O,26.44,13.27,18.79\H,26.3
 7,13.49,19.72\H,26.2,14.07,18.33\O,26.95,17.09,14.81\H,26.35,17.64,14.
 32\H,27.07,16.32,14.26\O,14.32,13.57,22.28\H,13.56,13.58,22.87\H,14.73
 ,12.72,22.44\O,12.43,21.32,14.05\H,13.,21.69,14.72\H,12.53,21.91,13.3\
 O,17.63,12.49,14.05\H,17.79,13.38,14.37\H,17.09,12.08,14.73\O,17.46,24
 .5,12.67\H,17.16,23.75,12.16\H,17.05,25.26,12.25\O,13.46,23.04,25.92\H
 ,13.16,22.93,25.01\H,12.7,23.39,26.38\O,28.3,22.35,15.6\H,29.04,22.6,1
 6.15\H,27.55,22.79,16.\O,23.62,27.1,15.79\H,23.11,27.91,15.7\H,24.52,2
 7.39,15.9\O,25.89,26.53,17.87\H,26.23,26.41,18.76\H,25.53,27.42,17.88\
 O,26.06,23.42,13.54\H,26.19,23.6,14.48\H,25.32,23.98,13.29\O,24.8,12.1
 8,23.73\H,25.67,12.29,24.13\H,24.74,12.91,23.11\O,15.27,27.97,21.09\H,
 15.21,27.6,21.97\H,16.01,28.58,21.14\O,16.73,22.55,11.01\H,15.94,22.,1
 1.02\H,17.42,22.,11.37\O,17.3,28.83,16.62\H,16.4,28.76,16.95\H,17.45,2
 8.,16.16\O,14.44,23.19,13.19\H,14.68,22.35,12.8\H,13.6,23.42,12.79\O,1
 1.46,17.7,16.1\H,10.61,17.7,15.65\H,11.93,18.45,15.74\O,23.99,16.36,12
 .4\H,24.1,15.85,11.6\H,24.56,17.12,12.28\\Version=ES64L-G09RevE.01\HF=
 -9773.5404226\RMSD=1.968e-09\RMSF=1.089e-02\Dipole=-5.1548729,11.46832
 19,3.360199\Quadrupole=-480.3544816,411.6883936,68.666088,-1042.486633
 4,-1524.6401568,-941.2110951\PG=C01 [X(Br1H256O128)]\\@


 IN THE FIGHT BETWEEN YOU AND THE WORLD, BACK THE WORLD

                                        -- FRANZ KAFKA
 Job cpu time:       7 days  1 hours 49 minutes  1.9 seconds.
 File lengths (MBytes):  RWF=   7285 Int=      0 D2E=      0 Chk=   2411 Scr=      1
 Normal termination of Gaussian 09 at Sat May 12 14:47:02 2018.
