 Entering Gaussian System, Link 0=/cm/shared/gaussian/g09.e01/intel64-sandybridge/g09/g09
 Initial command:
 /cm/shared/gaussian/g09.e01/intel64-sandybridge/g09/l1.exe "/local/scratch/m.peluso/128_wat/order/Gau-50329.inp" -scrdir="/local/scratch/m.peluso/128_wat/order/"
 Entering Link 1 = /cm/shared/gaussian/g09.e01/intel64-sandybridge/g09/l1.exe PID=     50330.
  
 Copyright (c) 1988,1990,1992,1993,1995,1998,2003,2009,2015,
            Gaussian, Inc.  All Rights Reserved.
  
 This is part of the Gaussian(R) 09 program.  It is based on
 the Gaussian(R) 03 system (copyright 2003, Gaussian, Inc.),
 the Gaussian(R) 98 system (copyright 1998, Gaussian, Inc.),
 the Gaussian(R) 94 system (copyright 1995, Gaussian, Inc.),
 the Gaussian 92(TM) system (copyright 1992, Gaussian, Inc.),
 the Gaussian 90(TM) system (copyright 1990, Gaussian, Inc.),
 the Gaussian 88(TM) system (copyright 1988, Gaussian, Inc.),
 the Gaussian 86(TM) system (copyright 1986, Carnegie Mellon
 University), and the Gaussian 82(TM) system (copyright 1983,
 Carnegie Mellon University). Gaussian is a federally registered
 trademark of Gaussian, Inc.
  
 This software contains proprietary and confidential information,
 including trade secrets, belonging to Gaussian, Inc.
  
 This software is provided under written license and may be
 used, copied, transmitted, or stored only in accord with that
 written license.
  
 The following legend is applicable only to US Government
 contracts under FAR:
  
                    RESTRICTED RIGHTS LEGEND
  
 Use, reproduction and disclosure by the US Government is
 subject to restrictions as set forth in subparagraphs (a)
 and (c) of the Commercial Computer Software - Restricted
 Rights clause in FAR 52.227-19.
  
 Gaussian, Inc.
 340 Quinnipiac St., Bldg. 40, Wallingford CT 06492
  
  
 ---------------------------------------------------------------
 Warning -- This program may not be used in any manner that
 competes with the business of Gaussian, Inc. or will provide
 assistance to any competitor of Gaussian, Inc.  The licensee
 of this program is prohibited from giving any competitor of
 Gaussian, Inc. access to this program.  By using this program,
 the user acknowledges that Gaussian, Inc. is engaged in the
 business of creating and licensing software in the field of
 computational chemistry and represents and warrants to the
 licensee that it is not a competitor of Gaussian, Inc. and that
 it will not use this program in any manner prohibited above.
 ---------------------------------------------------------------
  

 Cite this work as:
 Gaussian 09, Revision E.01,
 M. J. Frisch, G. W. Trucks, H. B. Schlegel, G. E. Scuseria, 
 M. A. Robb, J. R. Cheeseman, G. Scalmani, V. Barone, B. Mennucci, 
 G. A. Petersson, H. Nakatsuji, M. Caricato, X. Li, H. P. Hratchian, 
 A. F. Izmaylov, J. Bloino, G. Zheng, J. L. Sonnenberg, M. Hada, 
 M. Ehara, K. Toyota, R. Fukuda, J. Hasegawa, M. Ishida, T. Nakajima, 
 Y. Honda, O. Kitao, H. Nakai, T. Vreven, J. A. Montgomery, Jr., 
 J. E. Peralta, F. Ogliaro, M. Bearpark, J. J. Heyd, E. Brothers, 
 K. N. Kudin, V. N. Staroverov, T. Keith, R. Kobayashi, J. Normand, 
 K. Raghavachari, A. Rendell, J. C. Burant, S. S. Iyengar, J. Tomasi, 
 M. Cossi, N. Rega, J. M. Millam, M. Klene, J. E. Knox, J. B. Cross, 
 V. Bakken, C. Adamo, J. Jaramillo, R. Gomperts, R. E. Stratmann, 
 O. Yazyev, A. J. Austin, R. Cammi, C. Pomelli, J. W. Ochterski, 
 R. L. Martin, K. Morokuma, V. G. Zakrzewski, G. A. Voth, 
 P. Salvador, J. J. Dannenberg, S. Dapprich, A. D. Daniels, 
 O. Farkas, J. B. Foresman, J. V. Ortiz, J. Cioslowski, 
 and D. J. Fox, Gaussian, Inc., Wallingford CT, 2013.
 
 ******************************************
 Gaussian 09:  ES64L-G09RevE.01 30-Nov-2015
                12-May-2018 
 ******************************************
 %Mem=110GB
 %NProcShared=64
 Will use up to   64 processors via shared memory.
 %chk=snap94.chk
 ----------------------------------------------
 #p PBE1PBE/cc-pvDZ force Counterpoise=2 noSymm
 ----------------------------------------------
 1/10=7,30=1,38=1,62=2/1,3;
 2/12=2,15=1,17=6,18=5,40=1/2;
 1/10=7,30=1,38=1,53=2,62=2,63=101/22;
 3/5=16,11=2,16=1,25=1,30=1,71=1,74=-13/1,2,3;
 4//1;
 5/5=2,38=5/2;
 6/7=2,8=2,9=2,10=2,28=1/1;
 7/7=1,29=1,30=1,33=-1/1,2,3,16;
 1/10=7,30=1,53=2,62=2,63=101/22;
 3/5=7,6=11,11=2,16=1,25=1,30=1,71=1,74=-13,82=7/1,2,3;
 4//1;
 5/5=2,38=5/2;
 6/7=2,8=2,9=2,10=2,28=1/1;
 7/7=1,29=1,30=1,33=-1/1,2,3,16;
 1/10=7,30=1,53=2,62=2,63=101/22(-5);
 7/9=1,29=1,44=-1/16;
 1/10=7,30=1,62=2/3;
 99//99;
 Leave Link    1 at Sat May 12 21:56:39 2018, MaxMem= 14763950080 cpu:         6.1
 (Enter /cm/shared/gaussian/g09.e01/intel64-sandybridge/g09/l101.exe)
 ---------------------------------------
 forces on chloride comput - NWATER: 128
 ---------------------------------------
 Symbolic Z-matrix:
 Charge = -1 Multiplicity = 1 in supermolecule
 Charge = -1 Multiplicity = 1 in fragment      1.
 Charge =  0 Multiplicity = 1 in fragment      2.
 Br(Fragment=1)        20.       20.       20. 
 O(Fragment=2)         17.72     18.09     19.94 
 H(Fragment=2)         18.35     18.73     20.25 
 H(Fragment=2)         17.12     17.97     20.66 
 O(Fragment=2)         22.6      18.75     18.58 
 H(Fragment=2)         21.74     19.12     18.76 
 H(Fragment=2)         23.17     19.51     18.47 
 O(Fragment=2)         19.18     20.01     23.17 
 H(Fragment=2)         19.54     19.83     22.3 
 H(Fragment=2)         19.94     20.11     23.73 
 O(Fragment=2)         18.62     21.99     17.86 
 H(Fragment=2)         18.79     21.7      18.76 
 H(Fragment=2)         17.67     22.06     17.81 
 O(Fragment=2)         22.21     22.59     19.25 
 H(Fragment=2)         21.64     21.83     19.34 
 H(Fragment=2)         23.09     22.25     19.44 
 O(Fragment=2)         23.37     20.29     21.75 
 H(Fragment=2)         22.53     19.93     21.46 
 H(Fragment=2)         23.13     21.06     22.27 
 O(Fragment=2)         19.61     17.08     17.43 
 H(Fragment=2)         19.94     17.62     16.7 
 H(Fragment=2)         19.17     17.7      18.01 
 O(Fragment=2)         22.49     22.89     22.18 
 H(Fragment=2)         22.03     22.6      21.4 
 H(Fragment=2)         22.21     23.8      22.3 
 O(Fragment=2)         16.39     18.8      17.56 
 H(Fragment=2)         17.09     18.89     16.91 
 H(Fragment=2)         16.85     18.69     18.39 
 O(Fragment=2)         17.47     22.15     23.19 
 H(Fragment=2)         18.04     21.38     23.09 
 H(Fragment=2)         17.37     22.25     24.14 
 O(Fragment=2)         16.49     18.14     22.41 
 H(Fragment=2)         16.84     18.98     22.71 
 H(Fragment=2)         15.67     18.04     22.9 
 O(Fragment=2)         24.42     21.26     19.44 
 H(Fragment=2)         24.25     20.77     20.24 
 H(Fragment=2)         25.18     20.83     19.05 
 O(Fragment=2)         20.65     23.63     16.77 
 H(Fragment=2)         21.3      23.22     17.35 
 H(Fragment=2)         19.82     23.23     17.02 
 O(Fragment=2)         23.19     16.1      20.25 
 H(Fragment=2)         22.91     16.23     21.16 
 H(Fragment=2)         23.16     16.97     19.86 
 O(Fragment=2)         22.7      20.2      15.76 
 H(Fragment=2)         22.84     19.88     14.87 
 H(Fragment=2)         21.98     19.68     16.1 
 O(Fragment=2)         20.05     19.16     15.59 
 H(Fragment=2)         19.88     20.11     15.61 
 H(Fragment=2)         20.09     18.95     14.66 
 O(Fragment=2)         18.58     14.86     19.54 
 H(Fragment=2)         18.71     15.81     19.64 
 H(Fragment=2)         17.64     14.77     19.37 
 O(Fragment=2)         17.83     24.       21.48 
 H(Fragment=2)         17.95     23.32     22.13 
 H(Fragment=2)         16.95     24.34     21.64 
 O(Fragment=2)         20.98     25.08     19.46 
 H(Fragment=2)         21.45     24.29     19.19 
 H(Fragment=2)         20.18     25.07     18.94 
 O(Fragment=2)         15.87     21.62     17.9 
 H(Fragment=2)         15.06     21.79     18.38 
 H(Fragment=2)         15.95     20.66     17.89 
 O(Fragment=2)         18.14     21.37     15.09 
 H(Fragment=2)         17.98     21.39     16.04 
 H(Fragment=2)         17.31     21.66     14.71 
 O(Fragment=2)         23.26     17.15     16.58 
 H(Fragment=2)         23.05     17.66     17.36 
 H(Fragment=2)         22.46     16.64     16.41 
 O(Fragment=2)         21.62     19.78     24.42 
 H(Fragment=2)         21.4      18.86     24.54 
 H(Fragment=2)         22.05     20.03     25.24 
 O(Fragment=2)         21.4      15.09     17.48 
 H(Fragment=2)         21.3      14.61     18.3 
 H(Fragment=2)         20.76     15.8      17.54 
 O(Fragment=2)         18.24     25.17     18.9 
 H(Fragment=2)         17.6      24.85     18.26 
 H(Fragment=2)         18.13     24.6      19.66 
 O(Fragment=2)         18.15     15.33     22.97 
 H(Fragment=2)         18.21     15.72     23.84 
 H(Fragment=2)         18.04     16.08     22.38 
 O(Fragment=2)         15.13     20.92     22.42 
 H(Fragment=2)         15.94     21.36     22.67 
 H(Fragment=2)         14.5      21.63     22.28 
 O(Fragment=2)         25.54     19.45     22.97 
 H(Fragment=2)         25.96     20.28     23.22 
 H(Fragment=2)         24.79     19.72     22.44 
 O(Fragment=2)         24.59     22.12     16.49 
 H(Fragment=2)         24.06     22.9      16.33 
 H(Fragment=2)         23.96     21.4      16.49 
 O(Fragment=2)         22.28     15.51     22.75 
 H(Fragment=2)         22.84     15.08     23.4 
 H(Fragment=2)         21.91     14.79     22.25 
 O(Fragment=2)         21.58     25.61     22.31 
 H(Fragment=2)         20.97     26.35     22.32 
 H(Fragment=2)         21.61     25.33     21.4 
 O(Fragment=2)         14.2      19.65     19.77 
 H(Fragment=2)         14.37     18.75     19.48 
 H(Fragment=2)         14.31     19.62     20.72 
 O(Fragment=2)         25.42     23.78     20.65 
 H(Fragment=2)         24.74     23.32     20.17 
 H(Fragment=2)         26.05     24.06     19.98 
 O(Fragment=2)         21.01     16.91     25. 
 H(Fragment=2)         21.35     16.3      24.34 
 H(Fragment=2)         20.09     16.67     25.09 
 O(Fragment=2)         21.02     13.47     19.89 
 H(Fragment=2)         20.23     14.01     19.89 
 H(Fragment=2)         20.76     12.65     20.31 
 O(Fragment=2)         19.82     23.43     13.93 
 H(Fragment=2)         19.89     23.22     14.87 
 H(Fragment=2)         19.58     22.59     13.53 
 O(Fragment=2)         24.11     14.93     18.14 
 H(Fragment=2)         23.3      14.94     17.62 
 H(Fragment=2)         23.86     15.34     18.97 
 O(Fragment=2)         22.87     24.07     15.28 
 H(Fragment=2)         22.03     23.92     15.7 
 H(Fragment=2)         22.8      23.65     14.42 
 O(Fragment=2)         18.79     16.17     14.31 
 H(Fragment=2)         19.21     16.24     15.16 
 H(Fragment=2)         18.       15.65     14.48 
 O(Fragment=2)         18.97     27.       21.08 
 H(Fragment=2)         19.21     26.09     20.93 
 H(Fragment=2)         18.06     26.97     21.37 
 O(Fragment=2)         23.56     23.91     24.86 
 H(Fragment=2)         23.04     23.47     24.19 
 H(Fragment=2)         23.12     24.75     24.99 
 O(Fragment=2)         14.03     17.87     16.59 
 H(Fragment=2)         14.79     18.23     17.05 
 H(Fragment=2)         13.53     17.42     17.27 
 O(Fragment=2)         18.71     13.35     17.33 
 H(Fragment=2)         18.76     14.02     18.01 
 H(Fragment=2)         18.03     12.75     17.63 
 O(Fragment=2)         16.42     24.69     16.45 
 H(Fragment=2)         16.67     25.38     15.84 
 H(Fragment=2)         16.52     23.88     15.94 
 O(Fragment=2)         26.08     16.66     22.76 
 H(Fragment=2)         25.69     17.47     22.43 
 H(Fragment=2)         26.9      16.94     23.16 
 O(Fragment=2)         18.24     16.39     25.59 
 H(Fragment=2)         17.55     17.04     25.5 
 H(Fragment=2)         18.07     15.96     26.43 
 O(Fragment=2)         26.5      20.02     18.28 
 H(Fragment=2)         26.41     19.57     17.44 
 H(Fragment=2)         27.17     20.68     18.13 
 O(Fragment=2)         22.51     27.09     18.81 
 H(Fragment=2)         21.92     26.42     19.17 
 H(Fragment=2)         21.97     27.88     18.77 
 O(Fragment=2)         19.95     25.49     25.51 
 H(Fragment=2)         20.78     25.79     25.13 
 H(Fragment=2)         19.87     24.58     25.24 
 O(Fragment=2)         19.92     22.89     26.63 
 H(Fragment=2)         20.18     21.97     26.72 
 H(Fragment=2)         19.58     23.13     27.49 
 O(Fragment=2)         26.05     17.94     15.99 
 H(Fragment=2)         25.2      17.51     15.97 
 H(Fragment=2)         25.97     18.67     15.37 
 O(Fragment=2)         15.71     18.28     25.32 
 H(Fragment=2)         15.73     19.19     25.65 
 H(Fragment=2)         14.81     17.99     25.46 
 O(Fragment=2)         15.88     14.37     18.63 
 H(Fragment=2)         15.64     14.56     17.73 
 H(Fragment=2)         15.08     14.49     19.13 
 O(Fragment=2)         23.72     16.2      13.95 
 H(Fragment=2)         23.57     16.68     14.76 
 H(Fragment=2)         22.84     16.02     13.61 
 O(Fragment=2)         20.7      18.99     12.91 
 H(Fragment=2)         21.65     19.12     12.84 
 H(Fragment=2)         20.49     18.39     12.19 
 O(Fragment=2)         16.87     22.65     26.17 
 H(Fragment=2)         16.24     21.99     25.88 
 H(Fragment=2)         17.49     22.16     26.71 
 O(Fragment=2)         17.92     27.65     17.92 
 H(Fragment=2)         18.63     28.2      18.24 
 H(Fragment=2)         18.       26.84     18.43 
 O(Fragment=2)         25.59     19.2      25.8 
 H(Fragment=2)         25.43     19.07     24.87 
 H(Fragment=2)         25.55     18.32     26.17 
 O(Fragment=2)         18.52     21.27     12.12 
 H(Fragment=2)         17.63     20.92     12.09 
 H(Fragment=2)         18.97     20.71     12.75 
 O(Fragment=2)         25.59     14.18     21.44 
 H(Fragment=2)         25.69     14.74     22.2 
 H(Fragment=2)         24.84     14.54     20.97 
 O(Fragment=2)         26.07     20.44     14.66 
 H(Fragment=2)         26.67     21.06     14.25 
 H(Fragment=2)         25.45     20.99     15.14 
 O(Fragment=2)         26.18     23.25     23.38 
 H(Fragment=2)         26.08     23.45     22.45 
 H(Fragment=2)         25.4      23.62     23.79 
 O(Fragment=2)         24.55     16.61     25.35 
 H(Fragment=2)         24.73     16.41     24.43 
 H(Fragment=2)         24.01     15.88     25.65 
 O(Fragment=2)         22.14     13.42     15.34 
 H(Fragment=2)         21.64     13.74     14.59 
 H(Fragment=2)         21.9      14.01     16.06 
 O(Fragment=2)         15.43     14.39     24.19 
 H(Fragment=2)         15.71     13.48     24.13 
 H(Fragment=2)         16.16     14.89     23.83 
 O(Fragment=2)         22.72     20.09     26.97 
 H(Fragment=2)         23.57     20.51     26.82 
 H(Fragment=2)         22.95     19.24     27.35 
 O(Fragment=2)         17.98     12.75     23.77 
 H(Fragment=2)         18.01     13.66     23.5 
 H(Fragment=2)         18.21     12.25     22.98 
 O(Fragment=2)         15.98     17.73     13.08 
 H(Fragment=2)         16.57     17.46     13.78 
 H(Fragment=2)         15.13     17.36     13.33 
 O(Fragment=2)         23.73     12.6      19.74 
 H(Fragment=2)         22.9      12.99     20.02 
 H(Fragment=2)         24.12     13.26     19.17 
 O(Fragment=2)         13.32     22.86     22.31 
 H(Fragment=2)         13.24     23.7      21.84 
 H(Fragment=2)         13.72     23.1      23.15 
 O(Fragment=2)         16.19     26.45     21.61 
 H(Fragment=2)         16.       27.38     21.55 
 H(Fragment=2)         15.44     26.02     21.19 
 O(Fragment=2)         11.6      20.28     18.64 
 H(Fragment=2)         12.37     20.23     19.2 
 H(Fragment=2)         11.94     20.49     17.77 
 O(Fragment=2)         14.57     23.72     25.13 
 H(Fragment=2)         15.52     23.77     25.04 
 H(Fragment=2)         14.43     23.       25.75 
 O(Fragment=2)         20.19     19.77     28.33 
 H(Fragment=2)         20.91     19.58     27.73 
 H(Fragment=2)         20.58     20.3      29.02 
 O(Fragment=2)         25.28     25.86     16.22 
 H(Fragment=2)         24.6      25.24     16.5 
 H(Fragment=2)         25.54     25.55     15.35 
 O(Fragment=2)         27.2      22.79     16.02 
 H(Fragment=2)         26.26     22.78     16.21 
 H(Fragment=2)         27.58     23.32     16.72 
 O(Fragment=2)         13.61     24.93     16.68 
 H(Fragment=2)         14.53     24.7      16.84 
 H(Fragment=2)         13.15     24.67     17.47 
 O(Fragment=2)         21.23     15.46     13.11 
 H(Fragment=2)         21.36     15.9      12.27 
 H(Fragment=2)         20.35     15.73     13.39 
 O(Fragment=2)         17.62     25.15     13.59 
 H(Fragment=2)         18.26     24.44     13.66 
 H(Fragment=2)         17.98     25.84     14.15 
 O(Fragment=2)         28.36     18.32     19.84 
 H(Fragment=2)         28.94     17.86     19.23 
 H(Fragment=2)         27.82     18.87     19.27 
 O(Fragment=2)         14.       21.73     14.84 
 H(Fragment=2)         13.87     22.38     15.53 
 H(Fragment=2)         14.67     22.12     14.27 
 O(Fragment=2)         23.56     19.35     12.92 
 H(Fragment=2)         24.43     19.12     13.26 
 H(Fragment=2)         23.74     20.       12.24 
 O(Fragment=2)         12.65     17.06     18.57 
 H(Fragment=2)         11.79     17.35     18.9 
 H(Fragment=2)         12.94     16.42     19.21 
 O(Fragment=2)         17.54     20.66     27.82 
 H(Fragment=2)         18.2      19.97     27.79 
 H(Fragment=2)         16.71     20.19     27.94 
 O(Fragment=2)         21.39     16.22     28.02 
 H(Fragment=2)         21.23     15.28     28.13 
 H(Fragment=2)         21.15     16.39     27.11 
 O(Fragment=2)         14.61     20.89     25.94 
 H(Fragment=2)         13.82     20.71     25.43 
 H(Fragment=2)         14.31     20.9      26.85 
 O(Fragment=2)         13.23     16.29     22.74 
 H(Fragment=2)         13.34     15.78     21.94 
 H(Fragment=2)         13.86     15.92     23.36 
 O(Fragment=2)         22.45     26.63     24.99 
 H(Fragment=2)         22.84     27.49     25.19 
 H(Fragment=2)         22.41     26.61     24.03 
 O(Fragment=2)         16.06     22.83     13.5 
 H(Fragment=2)         16.54     23.65     13.46 
 H(Fragment=2)         15.92     22.59     12.59 
 O(Fragment=2)         23.07     14.13     24.75 
 H(Fragment=2)         23.19     14.09     25.7 
 H(Fragment=2)         23.06     13.21     24.47 
 O(Fragment=2)         22.55     27.48     15.8 
 H(Fragment=2)         22.8      26.9      15.08 
 H(Fragment=2)         22.72     26.96     16.59 
 O(Fragment=2)         11.2      21.2      21.92 
 H(Fragment=2)         12.12     21.43     22.06 
 H(Fragment=2)         10.79     22.03     21.66 
 O(Fragment=2)         14.4      14.9      16.25 
 H(Fragment=2)         13.56     14.45     16.26 
 H(Fragment=2)         14.21     15.76     15.88 
 O(Fragment=2)         12.26     19.34     15.62 
 H(Fragment=2)         12.83     20.       15.22 
 H(Fragment=2)         12.86     18.69     15.98 
 O(Fragment=2)         20.13     28.89     19.44 
 H(Fragment=2)         20.06     29.73     19.89 
 H(Fragment=2)         19.6      28.29     19.97 
 O(Fragment=2)         18.25     26.89     15.35 
 H(Fragment=2)         18.12     27.19     16.25 
 H(Fragment=2)         18.86     27.52     14.97 
 O(Fragment=2)         16.03     20.21     12.18 
 H(Fragment=2)         15.97     19.37     12.65 
 H(Fragment=2)         15.57     20.83     12.74 
 O(Fragment=2)         16.45     15.04     14.15 
 H(Fragment=2)         16.53     14.3      13.55 
 H(Fragment=2)         15.73     14.81     14.73 
 O(Fragment=2)         17.2      25.74     26.28 
 H(Fragment=2)         18.05     26.04     25.96 
 H(Fragment=2)         17.32     24.8      26.43 
 O(Fragment=2)         19.24     12.64     14.51 
 H(Fragment=2)         19.02     12.95     15.39 
 H(Fragment=2)         18.58     13.03     13.95 
 O(Fragment=2)         26.33     13.47     17.6 
 H(Fragment=2)         25.59     13.93     17.99 
 H(Fragment=2)         26.98     14.15     17.42 
 O(Fragment=2)         26.96     24.95     18.54 
 H(Fragment=2)         26.25     25.59     18.55 
 H(Fragment=2)         27.6      25.31     17.93 
 O(Fragment=2)         21.5      25.25     12.49 
 H(Fragment=2)         20.85     24.71     12.93 
 H(Fragment=2)         21.16     26.14     12.55 
 O(Fragment=2)         25.59     27.48     21.1 
 H(Fragment=2)         25.36     26.6      21.39 
 H(Fragment=2)         25.34     27.49     20.17 
 O(Fragment=2)         27.94     14.77     19.63 
 H(Fragment=2)         27.41     14.01     19.86 
 H(Fragment=2)         27.46     15.51     19.99 
 O(Fragment=2)         23.59     17.67     27.94 
 H(Fragment=2)         22.91     17.06     28.21 
 H(Fragment=2)         24.06     17.23     27.23 
 O(Fragment=2)         25.46     21.23     27.38 
 H(Fragment=2)         25.42     20.74     28.2 
 H(Fragment=2)         25.59     20.56     26.71 
 O(Fragment=2)         17.05     11.65     18.28 
 H(Fragment=2)         16.39     12.11     18.81 
 H(Fragment=2)         16.54     11.05     17.74 
 O(Fragment=2)         25.28     27.56     18.17 
 H(Fragment=2)         24.36     27.46     18.42 
 H(Fragment=2)         25.35     27.1      17.33 
 O(Fragment=2)         13.25     14.37     20.57 
 H(Fragment=2)         13.27     13.68     21.23 
 H(Fragment=2)         12.82     13.97     19.81 
 O(Fragment=2)         13.09     17.68     25.39 
 H(Fragment=2)         12.9      17.21     24.57 
 H(Fragment=2)         12.31     18.21     25.53 
 O(Fragment=2)         20.35     11.23     21.48 
 H(Fragment=2)         20.81     10.51     21.05 
 H(Fragment=2)         19.94     10.82     22.25 
 O(Fragment=2)         22.13     25.5      27.62 
 H(Fragment=2)         22.69     26.06     27.08 
 H(Fragment=2)         21.38     25.31     27.05 
 O(Fragment=2)         20.88     28.43     22.91 
 H(Fragment=2)         20.24     28.74     22.27 
 H(Fragment=2)         20.81     29.04     23.64 
 O(Fragment=2)         28.25     15.92     16.02 
 H(Fragment=2)         28.32     16.28     15.14 
 H(Fragment=2)         27.56     16.43     16.43 
 O(Fragment=2)         13.71     26.72     19.85 
 H(Fragment=2)         14.1      26.87     18.99 
 H(Fragment=2)         13.28     27.54     20.07 
 O(Fragment=2)         24.58     13.45     14.28 
 H(Fragment=2)         23.91     13.37     14.95 
 H(Fragment=2)         24.51     14.36     13.98 
 O(Fragment=2)         28.26     22.23     25.3 
 H(Fragment=2)         28.14     22.49     26.21 
 H(Fragment=2)         27.43     22.46     24.87 
 O(Fragment=2)         19.44     12.02     26.12 
 H(Fragment=2)         19.36     11.12     25.81 
 H(Fragment=2)         19.14     12.55     25.38 
 O(Fragment=2)         18.15     16.26     10.79 
 H(Fragment=2)         18.02     16.2      11.74 
 H(Fragment=2)         18.58     17.11     10.66 
 O(Fragment=2)         24.33     21.73     11.65 
 H(Fragment=2)         23.5      22.21     11.66 
 H(Fragment=2)         24.8      22.09     10.89 
 O(Fragment=2)         25.77     24.31     27.37 
 H(Fragment=2)         25.14     23.91     26.77 
 H(Fragment=2)         25.44     25.2      27.5 
 O(Fragment=2)         12.67     25.46     22.13 
 H(Fragment=2)         11.77     25.41     21.82 
 H(Fragment=2)         13.07     26.15     21.61 
 O(Fragment=2)         29.48     21.33     18.25 
 H(Fragment=2)         29.34     20.9      19.1 
 H(Fragment=2)         29.6      20.61     17.63 
 O(Fragment=2)         11.55     23.95     18.41 
 H(Fragment=2)         11.21     24.67     18.95 
 H(Fragment=2)         10.77     23.42     18.2 
 O(Fragment=2)         25.86     16.62     12.08 
 H(Fragment=2)         25.31     16.78     12.84 
 H(Fragment=2)         25.74     15.68     11.89 
 O(Fragment=2)         21.87     22.9      11.02 
 H(Fragment=2)         21.44     23.67     11.38 
 H(Fragment=2)         22.13     23.17     10.14 
 O(Fragment=2)         18.9      22.98     29.22 
 H(Fragment=2)         18.33     23.45     29.83 
 H(Fragment=2)         18.47     22.13     29.11 
 
 NAtoms=    385 NQM=      385 NQMF=       0 NMMI=      0 NMMIF=      0
                NMic=       0 NMicF=      0.
                    Isotopes and Nuclear Properties:
 (Nuclear quadrupole moments (NQMom) in fm**2, nuclear magnetic moments (NMagM)
  in nuclear magnetons)

  Atom         1           2           3           4           5           6           7           8           9          10
 IAtWgt=          79          16           1           1          16           1           1          16           1           1
 AtmWgt=  78.9183361  15.9949146   1.0078250   1.0078250  15.9949146   1.0078250   1.0078250  15.9949146   1.0078250   1.0078250
 NucSpn=           3           0           1           1           0           1           1           0           1           1
 AtZEff=   0.0000000   0.0000000   0.0000000   0.0000000   0.0000000   0.0000000   0.0000000   0.0000000   0.0000000   0.0000000
 NQMom=   31.3000000   0.0000000   0.0000000   0.0000000   0.0000000   0.0000000   0.0000000   0.0000000   0.0000000   0.0000000
 NMagM=    2.1063990   0.0000000   2.7928460   2.7928460   0.0000000   2.7928460   2.7928460   0.0000000   2.7928460   2.7928460
 AtZNuc=  35.0000000   8.0000000   1.0000000   1.0000000   8.0000000   1.0000000   1.0000000   8.0000000   1.0000000   1.0000000

  Atom        11          12          13          14          15          16          17          18          19          20
 IAtWgt=          16           1           1          16           1           1          16           1           1          16
 AtmWgt=  15.9949146   1.0078250   1.0078250  15.9949146   1.0078250   1.0078250  15.9949146   1.0078250   1.0078250  15.9949146
 NucSpn=           0           1           1           0           1           1           0           1           1           0
 AtZEff=   0.0000000   0.0000000   0.0000000   0.0000000   0.0000000   0.0000000   0.0000000   0.0000000   0.0000000   0.0000000
 NQMom=    0.0000000   0.0000000   0.0000000   0.0000000   0.0000000   0.0000000   0.0000000   0.0000000   0.0000000   0.0000000
 NMagM=    0.0000000   2.7928460   2.7928460   0.0000000   2.7928460   2.7928460   0.0000000   2.7928460   2.7928460   0.0000000
 AtZNuc=   8.0000000   1.0000000   1.0000000   8.0000000   1.0000000   1.0000000   8.0000000   1.0000000   1.0000000   8.0000000

  Atom        21          22          23          24          25          26          27          28          29          30
 IAtWgt=           1           1          16           1           1          16           1           1          16           1
 AtmWgt=   1.0078250   1.0078250  15.9949146   1.0078250   1.0078250  15.9949146   1.0078250   1.0078250  15.9949146   1.0078250
 NucSpn=           1           1           0           1           1           0           1           1           0           1
 AtZEff=   0.0000000   0.0000000   0.0000000   0.0000000   0.0000000   0.0000000   0.0000000   0.0000000   0.0000000   0.0000000
 NQMom=    0.0000000   0.0000000   0.0000000   0.0000000   0.0000000   0.0000000   0.0000000   0.0000000   0.0000000   0.0000000
 NMagM=    2.7928460   2.7928460   0.0000000   2.7928460   2.7928460   0.0000000   2.7928460   2.7928460   0.0000000   2.7928460
 AtZNuc=   1.0000000   1.0000000   8.0000000   1.0000000   1.0000000   8.0000000   1.0000000   1.0000000   8.0000000   1.0000000

  Atom        31          32          33          34          35          36          37          38          39          40
 IAtWgt=           1          16           1           1          16           1           1          16           1           1
 AtmWgt=   1.0078250  15.9949146   1.0078250   1.0078250  15.9949146   1.0078250   1.0078250  15.9949146   1.0078250   1.0078250
 NucSpn=           1           0           1           1           0           1           1           0           1           1
 AtZEff=   0.0000000   0.0000000   0.0000000   0.0000000   0.0000000   0.0000000   0.0000000   0.0000000   0.0000000   0.0000000
 NQMom=    0.0000000   0.0000000   0.0000000   0.0000000   0.0000000   0.0000000   0.0000000   0.0000000   0.0000000   0.0000000
 NMagM=    2.7928460   0.0000000   2.7928460   2.7928460   0.0000000   2.7928460   2.7928460   0.0000000   2.7928460   2.7928460
 AtZNuc=   1.0000000   8.0000000   1.0000000   1.0000000   8.0000000   1.0000000   1.0000000   8.0000000   1.0000000   1.0000000

  Atom        41          42          43          44          45          46          47          48          49          50
 IAtWgt=          16           1           1          16           1           1          16           1           1          16
 AtmWgt=  15.9949146   1.0078250   1.0078250  15.9949146   1.0078250   1.0078250  15.9949146   1.0078250   1.0078250  15.9949146
 NucSpn=           0           1           1           0           1           1           0           1           1           0
 AtZEff=   0.0000000   0.0000000   0.0000000   0.0000000   0.0000000   0.0000000   0.0000000   0.0000000   0.0000000   0.0000000
 NQMom=    0.0000000   0.0000000   0.0000000   0.0000000   0.0000000   0.0000000   0.0000000   0.0000000   0.0000000   0.0000000
 NMagM=    0.0000000   2.7928460   2.7928460   0.0000000   2.7928460   2.7928460   0.0000000   2.7928460   2.7928460   0.0000000
 AtZNuc=   8.0000000   1.0000000   1.0000000   8.0000000   1.0000000   1.0000000   8.0000000   1.0000000   1.0000000   8.0000000

  Atom        51          52          53          54          55          56          57          58          59          60
 IAtWgt=           1           1          16           1           1          16           1           1          16           1
 AtmWgt=   1.0078250   1.0078250  15.9949146   1.0078250   1.0078250  15.9949146   1.0078250   1.0078250  15.9949146   1.0078250
 NucSpn=           1           1           0           1           1           0           1           1           0           1
 AtZEff=   0.0000000   0.0000000   0.0000000   0.0000000   0.0000000   0.0000000   0.0000000   0.0000000   0.0000000   0.0000000
 NQMom=    0.0000000   0.0000000   0.0000000   0.0000000   0.0000000   0.0000000   0.0000000   0.0000000   0.0000000   0.0000000
 NMagM=    2.7928460   2.7928460   0.0000000   2.7928460   2.7928460   0.0000000   2.7928460   2.7928460   0.0000000   2.7928460
 AtZNuc=   1.0000000   1.0000000   8.0000000   1.0000000   1.0000000   8.0000000   1.0000000   1.0000000   8.0000000   1.0000000

  Atom        61          62          63          64          65          66          67          68          69          70
 IAtWgt=           1          16           1           1          16           1           1          16           1           1
 AtmWgt=   1.0078250  15.9949146   1.0078250   1.0078250  15.9949146   1.0078250   1.0078250  15.9949146   1.0078250   1.0078250
 NucSpn=           1           0           1           1           0           1           1           0           1           1
 AtZEff=   0.0000000   0.0000000   0.0000000   0.0000000   0.0000000   0.0000000   0.0000000   0.0000000   0.0000000   0.0000000
 NQMom=    0.0000000   0.0000000   0.0000000   0.0000000   0.0000000   0.0000000   0.0000000   0.0000000   0.0000000   0.0000000
 NMagM=    2.7928460   0.0000000   2.7928460   2.7928460   0.0000000   2.7928460   2.7928460   0.0000000   2.7928460   2.7928460
 AtZNuc=   1.0000000   8.0000000   1.0000000   1.0000000   8.0000000   1.0000000   1.0000000   8.0000000   1.0000000   1.0000000

  Atom        71          72          73          74          75          76          77          78          79          80
 IAtWgt=          16           1           1          16           1           1          16           1           1          16
 AtmWgt=  15.9949146   1.0078250   1.0078250  15.9949146   1.0078250   1.0078250  15.9949146   1.0078250   1.0078250  15.9949146
 NucSpn=           0           1           1           0           1           1           0           1           1           0
 AtZEff=   0.0000000   0.0000000   0.0000000   0.0000000   0.0000000   0.0000000   0.0000000   0.0000000   0.0000000   0.0000000
 NQMom=    0.0000000   0.0000000   0.0000000   0.0000000   0.0000000   0.0000000   0.0000000   0.0000000   0.0000000   0.0000000
 NMagM=    0.0000000   2.7928460   2.7928460   0.0000000   2.7928460   2.7928460   0.0000000   2.7928460   2.7928460   0.0000000
 AtZNuc=   8.0000000   1.0000000   1.0000000   8.0000000   1.0000000   1.0000000   8.0000000   1.0000000   1.0000000   8.0000000

  Atom        81          82          83          84          85          86          87          88          89          90
 IAtWgt=           1           1          16           1           1          16           1           1          16           1
 AtmWgt=   1.0078250   1.0078250  15.9949146   1.0078250   1.0078250  15.9949146   1.0078250   1.0078250  15.9949146   1.0078250
 NucSpn=           1           1           0           1           1           0           1           1           0           1
 AtZEff=   0.0000000   0.0000000   0.0000000   0.0000000   0.0000000   0.0000000   0.0000000   0.0000000   0.0000000   0.0000000
 NQMom=    0.0000000   0.0000000   0.0000000   0.0000000   0.0000000   0.0000000   0.0000000   0.0000000   0.0000000   0.0000000
 NMagM=    2.7928460   2.7928460   0.0000000   2.7928460   2.7928460   0.0000000   2.7928460   2.7928460   0.0000000   2.7928460
 AtZNuc=   1.0000000   1.0000000   8.0000000   1.0000000   1.0000000   8.0000000   1.0000000   1.0000000   8.0000000   1.0000000

  Atom        91          92          93          94          95          96          97          98          99         100
 IAtWgt=           1          16           1           1          16           1           1          16           1           1
 AtmWgt=   1.0078250  15.9949146   1.0078250   1.0078250  15.9949146   1.0078250   1.0078250  15.9949146   1.0078250   1.0078250
 NucSpn=           1           0           1           1           0           1           1           0           1           1
 AtZEff=   0.0000000   0.0000000   0.0000000   0.0000000   0.0000000   0.0000000   0.0000000   0.0000000   0.0000000   0.0000000
 NQMom=    0.0000000   0.0000000   0.0000000   0.0000000   0.0000000   0.0000000   0.0000000   0.0000000   0.0000000   0.0000000
 NMagM=    2.7928460   0.0000000   2.7928460   2.7928460   0.0000000   2.7928460   2.7928460   0.0000000   2.7928460   2.7928460
 AtZNuc=   1.0000000   8.0000000   1.0000000   1.0000000   8.0000000   1.0000000   1.0000000   8.0000000   1.0000000   1.0000000

  Atom       101         102         103         104         105         106         107         108         109         110
 IAtWgt=          16           1           1          16           1           1          16           1           1          16
 AtmWgt=  15.9949146   1.0078250   1.0078250  15.9949146   1.0078250   1.0078250  15.9949146   1.0078250   1.0078250  15.9949146
 NucSpn=           0           1           1           0           1           1           0           1           1           0
 AtZEff=   0.0000000   0.0000000   0.0000000   0.0000000   0.0000000   0.0000000   0.0000000   0.0000000   0.0000000   0.0000000
 NQMom=    0.0000000   0.0000000   0.0000000   0.0000000   0.0000000   0.0000000   0.0000000   0.0000000   0.0000000   0.0000000
 NMagM=    0.0000000   2.7928460   2.7928460   0.0000000   2.7928460   2.7928460   0.0000000   2.7928460   2.7928460   0.0000000
 AtZNuc=   8.0000000   1.0000000   1.0000000   8.0000000   1.0000000   1.0000000   8.0000000   1.0000000   1.0000000   8.0000000

  Atom       111         112         113         114         115         116         117         118         119         120
 IAtWgt=           1           1          16           1           1          16           1           1          16           1
 AtmWgt=   1.0078250   1.0078250  15.9949146   1.0078250   1.0078250  15.9949146   1.0078250   1.0078250  15.9949146   1.0078250
 NucSpn=           1           1           0           1           1           0           1           1           0           1
 AtZEff=   0.0000000   0.0000000   0.0000000   0.0000000   0.0000000   0.0000000   0.0000000   0.0000000   0.0000000   0.0000000
 NQMom=    0.0000000   0.0000000   0.0000000   0.0000000   0.0000000   0.0000000   0.0000000   0.0000000   0.0000000   0.0000000
 NMagM=    2.7928460   2.7928460   0.0000000   2.7928460   2.7928460   0.0000000   2.7928460   2.7928460   0.0000000   2.7928460
 AtZNuc=   1.0000000   1.0000000   8.0000000   1.0000000   1.0000000   8.0000000   1.0000000   1.0000000   8.0000000   1.0000000

  Atom       121         122         123         124         125         126         127         128         129         130
 IAtWgt=           1          16           1           1          16           1           1          16           1           1
 AtmWgt=   1.0078250  15.9949146   1.0078250   1.0078250  15.9949146   1.0078250   1.0078250  15.9949146   1.0078250   1.0078250
 NucSpn=           1           0           1           1           0           1           1           0           1           1
 AtZEff=   0.0000000   0.0000000   0.0000000   0.0000000   0.0000000   0.0000000   0.0000000   0.0000000   0.0000000   0.0000000
 NQMom=    0.0000000   0.0000000   0.0000000   0.0000000   0.0000000   0.0000000   0.0000000   0.0000000   0.0000000   0.0000000
 NMagM=    2.7928460   0.0000000   2.7928460   2.7928460   0.0000000   2.7928460   2.7928460   0.0000000   2.7928460   2.7928460
 AtZNuc=   1.0000000   8.0000000   1.0000000   1.0000000   8.0000000   1.0000000   1.0000000   8.0000000   1.0000000   1.0000000

  Atom       131         132         133         134         135         136         137         138         139         140
 IAtWgt=          16           1           1          16           1           1          16           1           1          16
 AtmWgt=  15.9949146   1.0078250   1.0078250  15.9949146   1.0078250   1.0078250  15.9949146   1.0078250   1.0078250  15.9949146
 NucSpn=           0           1           1           0           1           1           0           1           1           0
 AtZEff=   0.0000000   0.0000000   0.0000000   0.0000000   0.0000000   0.0000000   0.0000000   0.0000000   0.0000000   0.0000000
 NQMom=    0.0000000   0.0000000   0.0000000   0.0000000   0.0000000   0.0000000   0.0000000   0.0000000   0.0000000   0.0000000
 NMagM=    0.0000000   2.7928460   2.7928460   0.0000000   2.7928460   2.7928460   0.0000000   2.7928460   2.7928460   0.0000000
 AtZNuc=   8.0000000   1.0000000   1.0000000   8.0000000   1.0000000   1.0000000   8.0000000   1.0000000   1.0000000   8.0000000

  Atom       141         142         143         144         145         146         147         148         149         150
 IAtWgt=           1           1          16           1           1          16           1           1          16           1
 AtmWgt=   1.0078250   1.0078250  15.9949146   1.0078250   1.0078250  15.9949146   1.0078250   1.0078250  15.9949146   1.0078250
 NucSpn=           1           1           0           1           1           0           1           1           0           1
 AtZEff=   0.0000000   0.0000000   0.0000000   0.0000000   0.0000000   0.0000000   0.0000000   0.0000000   0.0000000   0.0000000
 NQMom=    0.0000000   0.0000000   0.0000000   0.0000000   0.0000000   0.0000000   0.0000000   0.0000000   0.0000000   0.0000000
 NMagM=    2.7928460   2.7928460   0.0000000   2.7928460   2.7928460   0.0000000   2.7928460   2.7928460   0.0000000   2.7928460
 AtZNuc=   1.0000000   1.0000000   8.0000000   1.0000000   1.0000000   8.0000000   1.0000000   1.0000000   8.0000000   1.0000000

  Atom       151         152         153         154         155         156         157         158         159         160
 IAtWgt=           1          16           1           1          16           1           1          16           1           1
 AtmWgt=   1.0078250  15.9949146   1.0078250   1.0078250  15.9949146   1.0078250   1.0078250  15.9949146   1.0078250   1.0078250
 NucSpn=           1           0           1           1           0           1           1           0           1           1
 AtZEff=   0.0000000   0.0000000   0.0000000   0.0000000   0.0000000   0.0000000   0.0000000   0.0000000   0.0000000   0.0000000
 NQMom=    0.0000000   0.0000000   0.0000000   0.0000000   0.0000000   0.0000000   0.0000000   0.0000000   0.0000000   0.0000000
 NMagM=    2.7928460   0.0000000   2.7928460   2.7928460   0.0000000   2.7928460   2.7928460   0.0000000   2.7928460   2.7928460
 AtZNuc=   1.0000000   8.0000000   1.0000000   1.0000000   8.0000000   1.0000000   1.0000000   8.0000000   1.0000000   1.0000000

  Atom       161         162         163         164         165         166         167         168         169         170
 IAtWgt=          16           1           1          16           1           1          16           1           1          16
 AtmWgt=  15.9949146   1.0078250   1.0078250  15.9949146   1.0078250   1.0078250  15.9949146   1.0078250   1.0078250  15.9949146
 NucSpn=           0           1           1           0           1           1           0           1           1           0
 AtZEff=   0.0000000   0.0000000   0.0000000   0.0000000   0.0000000   0.0000000   0.0000000   0.0000000   0.0000000   0.0000000
 NQMom=    0.0000000   0.0000000   0.0000000   0.0000000   0.0000000   0.0000000   0.0000000   0.0000000   0.0000000   0.0000000
 NMagM=    0.0000000   2.7928460   2.7928460   0.0000000   2.7928460   2.7928460   0.0000000   2.7928460   2.7928460   0.0000000
 AtZNuc=   8.0000000   1.0000000   1.0000000   8.0000000   1.0000000   1.0000000   8.0000000   1.0000000   1.0000000   8.0000000

  Atom       171         172         173         174         175         176         177         178         179         180
 IAtWgt=           1           1          16           1           1          16           1           1          16           1
 AtmWgt=   1.0078250   1.0078250  15.9949146   1.0078250   1.0078250  15.9949146   1.0078250   1.0078250  15.9949146   1.0078250
 NucSpn=           1           1           0           1           1           0           1           1           0           1
 AtZEff=   0.0000000   0.0000000   0.0000000   0.0000000   0.0000000   0.0000000   0.0000000   0.0000000   0.0000000   0.0000000
 NQMom=    0.0000000   0.0000000   0.0000000   0.0000000   0.0000000   0.0000000   0.0000000   0.0000000   0.0000000   0.0000000
 NMagM=    2.7928460   2.7928460   0.0000000   2.7928460   2.7928460   0.0000000   2.7928460   2.7928460   0.0000000   2.7928460
 AtZNuc=   1.0000000   1.0000000   8.0000000   1.0000000   1.0000000   8.0000000   1.0000000   1.0000000   8.0000000   1.0000000

  Atom       181         182         183         184         185         186         187         188         189         190
 IAtWgt=           1          16           1           1          16           1           1          16           1           1
 AtmWgt=   1.0078250  15.9949146   1.0078250   1.0078250  15.9949146   1.0078250   1.0078250  15.9949146   1.0078250   1.0078250
 NucSpn=           1           0           1           1           0           1           1           0           1           1
 AtZEff=   0.0000000   0.0000000   0.0000000   0.0000000   0.0000000   0.0000000   0.0000000   0.0000000   0.0000000   0.0000000
 NQMom=    0.0000000   0.0000000   0.0000000   0.0000000   0.0000000   0.0000000   0.0000000   0.0000000   0.0000000   0.0000000
 NMagM=    2.7928460   0.0000000   2.7928460   2.7928460   0.0000000   2.7928460   2.7928460   0.0000000   2.7928460   2.7928460
 AtZNuc=   1.0000000   8.0000000   1.0000000   1.0000000   8.0000000   1.0000000   1.0000000   8.0000000   1.0000000   1.0000000

  Atom       191         192         193         194         195         196         197         198         199         200
 IAtWgt=          16           1           1          16           1           1          16           1           1          16
 AtmWgt=  15.9949146   1.0078250   1.0078250  15.9949146   1.0078250   1.0078250  15.9949146   1.0078250   1.0078250  15.9949146
 NucSpn=           0           1           1           0           1           1           0           1           1           0
 AtZEff=   0.0000000   0.0000000   0.0000000   0.0000000   0.0000000   0.0000000   0.0000000   0.0000000   0.0000000   0.0000000
 NQMom=    0.0000000   0.0000000   0.0000000   0.0000000   0.0000000   0.0000000   0.0000000   0.0000000   0.0000000   0.0000000
 NMagM=    0.0000000   2.7928460   2.7928460   0.0000000   2.7928460   2.7928460   0.0000000   2.7928460   2.7928460   0.0000000
 AtZNuc=   8.0000000   1.0000000   1.0000000   8.0000000   1.0000000   1.0000000   8.0000000   1.0000000   1.0000000   8.0000000

  Atom       201         202         203         204         205         206         207         208         209         210
 IAtWgt=           1           1          16           1           1          16           1           1          16           1
 AtmWgt=   1.0078250   1.0078250  15.9949146   1.0078250   1.0078250  15.9949146   1.0078250   1.0078250  15.9949146   1.0078250
 NucSpn=           1           1           0           1           1           0           1           1           0           1
 AtZEff=   0.0000000   0.0000000   0.0000000   0.0000000   0.0000000   0.0000000   0.0000000   0.0000000   0.0000000   0.0000000
 NQMom=    0.0000000   0.0000000   0.0000000   0.0000000   0.0000000   0.0000000   0.0000000   0.0000000   0.0000000   0.0000000
 NMagM=    2.7928460   2.7928460   0.0000000   2.7928460   2.7928460   0.0000000   2.7928460   2.7928460   0.0000000   2.7928460
 AtZNuc=   1.0000000   1.0000000   8.0000000   1.0000000   1.0000000   8.0000000   1.0000000   1.0000000   8.0000000   1.0000000

  Atom       211         212         213         214         215         216         217         218         219         220
 IAtWgt=           1          16           1           1          16           1           1          16           1           1
 AtmWgt=   1.0078250  15.9949146   1.0078250   1.0078250  15.9949146   1.0078250   1.0078250  15.9949146   1.0078250   1.0078250
 NucSpn=           1           0           1           1           0           1           1           0           1           1
 AtZEff=   0.0000000   0.0000000   0.0000000   0.0000000   0.0000000   0.0000000   0.0000000   0.0000000   0.0000000   0.0000000
 NQMom=    0.0000000   0.0000000   0.0000000   0.0000000   0.0000000   0.0000000   0.0000000   0.0000000   0.0000000   0.0000000
 NMagM=    2.7928460   0.0000000   2.7928460   2.7928460   0.0000000   2.7928460   2.7928460   0.0000000   2.7928460   2.7928460
 AtZNuc=   1.0000000   8.0000000   1.0000000   1.0000000   8.0000000   1.0000000   1.0000000   8.0000000   1.0000000   1.0000000

  Atom       221         222         223         224         225         226         227         228         229         230
 IAtWgt=          16           1           1          16           1           1          16           1           1          16
 AtmWgt=  15.9949146   1.0078250   1.0078250  15.9949146   1.0078250   1.0078250  15.9949146   1.0078250   1.0078250  15.9949146
 NucSpn=           0           1           1           0           1           1           0           1           1           0
 AtZEff=   0.0000000   0.0000000   0.0000000   0.0000000   0.0000000   0.0000000   0.0000000   0.0000000   0.0000000   0.0000000
 NQMom=    0.0000000   0.0000000   0.0000000   0.0000000   0.0000000   0.0000000   0.0000000   0.0000000   0.0000000   0.0000000
 NMagM=    0.0000000   2.7928460   2.7928460   0.0000000   2.7928460   2.7928460   0.0000000   2.7928460   2.7928460   0.0000000
 AtZNuc=   8.0000000   1.0000000   1.0000000   8.0000000   1.0000000   1.0000000   8.0000000   1.0000000   1.0000000   8.0000000

  Atom       231         232         233         234         235         236         237         238         239         240
 IAtWgt=           1           1          16           1           1          16           1           1          16           1
 AtmWgt=   1.0078250   1.0078250  15.9949146   1.0078250   1.0078250  15.9949146   1.0078250   1.0078250  15.9949146   1.0078250
 NucSpn=           1           1           0           1           1           0           1           1           0           1
 AtZEff=   0.0000000   0.0000000   0.0000000   0.0000000   0.0000000   0.0000000   0.0000000   0.0000000   0.0000000   0.0000000
 NQMom=    0.0000000   0.0000000   0.0000000   0.0000000   0.0000000   0.0000000   0.0000000   0.0000000   0.0000000   0.0000000
 NMagM=    2.7928460   2.7928460   0.0000000   2.7928460   2.7928460   0.0000000   2.7928460   2.7928460   0.0000000   2.7928460
 AtZNuc=   1.0000000   1.0000000   8.0000000   1.0000000   1.0000000   8.0000000   1.0000000   1.0000000   8.0000000   1.0000000

  Atom       241         242         243         244         245         246         247         248         249         250
 IAtWgt=           1          16           1           1          16           1           1          16           1           1
 AtmWgt=   1.0078250  15.9949146   1.0078250   1.0078250  15.9949146   1.0078250   1.0078250  15.9949146   1.0078250   1.0078250
 NucSpn=           1           0           1           1           0           1           1           0           1           1
 AtZEff=   0.0000000   0.0000000   0.0000000   0.0000000   0.0000000   0.0000000   0.0000000   0.0000000   0.0000000   0.0000000
 NQMom=    0.0000000   0.0000000   0.0000000   0.0000000   0.0000000   0.0000000   0.0000000   0.0000000   0.0000000   0.0000000
 NMagM=    2.7928460   0.0000000   2.7928460   2.7928460   0.0000000   2.7928460   2.7928460   0.0000000   2.7928460   2.7928460
 AtZNuc=   1.0000000   8.0000000   1.0000000   1.0000000   8.0000000   1.0000000   1.0000000   8.0000000   1.0000000   1.0000000

  Atom       251         252         253         254         255         256         257         258         259         260
 IAtWgt=          16           1           1          16           1           1          16           1           1          16
 AtmWgt=  15.9949146   1.0078250   1.0078250  15.9949146   1.0078250   1.0078250  15.9949146   1.0078250   1.0078250  15.9949146
 NucSpn=           0           1           1           0           1           1           0           1           1           0
 AtZEff=   0.0000000   0.0000000   0.0000000   0.0000000   0.0000000   0.0000000   0.0000000   0.0000000   0.0000000   0.0000000
 NQMom=    0.0000000   0.0000000   0.0000000   0.0000000   0.0000000   0.0000000   0.0000000   0.0000000   0.0000000   0.0000000
 NMagM=    0.0000000   2.7928460   2.7928460   0.0000000   2.7928460   2.7928460   0.0000000   2.7928460   2.7928460   0.0000000
 AtZNuc=   8.0000000   1.0000000   1.0000000   8.0000000   1.0000000   1.0000000   8.0000000   1.0000000   1.0000000   8.0000000

  Atom       261         262         263         264         265         266         267         268         269         270
 IAtWgt=           1           1          16           1           1          16           1           1          16           1
 AtmWgt=   1.0078250   1.0078250  15.9949146   1.0078250   1.0078250  15.9949146   1.0078250   1.0078250  15.9949146   1.0078250
 NucSpn=           1           1           0           1           1           0           1           1           0           1
 AtZEff=   0.0000000   0.0000000   0.0000000   0.0000000   0.0000000   0.0000000   0.0000000   0.0000000   0.0000000   0.0000000
 NQMom=    0.0000000   0.0000000   0.0000000   0.0000000   0.0000000   0.0000000   0.0000000   0.0000000   0.0000000   0.0000000
 NMagM=    2.7928460   2.7928460   0.0000000   2.7928460   2.7928460   0.0000000   2.7928460   2.7928460   0.0000000   2.7928460
 AtZNuc=   1.0000000   1.0000000   8.0000000   1.0000000   1.0000000   8.0000000   1.0000000   1.0000000   8.0000000   1.0000000

  Atom       271         272         273         274         275         276         277         278         279         280
 IAtWgt=           1          16           1           1          16           1           1          16           1           1
 AtmWgt=   1.0078250  15.9949146   1.0078250   1.0078250  15.9949146   1.0078250   1.0078250  15.9949146   1.0078250   1.0078250
 NucSpn=           1           0           1           1           0           1           1           0           1           1
 AtZEff=   0.0000000   0.0000000   0.0000000   0.0000000   0.0000000   0.0000000   0.0000000   0.0000000   0.0000000   0.0000000
 NQMom=    0.0000000   0.0000000   0.0000000   0.0000000   0.0000000   0.0000000   0.0000000   0.0000000   0.0000000   0.0000000
 NMagM=    2.7928460   0.0000000   2.7928460   2.7928460   0.0000000   2.7928460   2.7928460   0.0000000   2.7928460   2.7928460
 AtZNuc=   1.0000000   8.0000000   1.0000000   1.0000000   8.0000000   1.0000000   1.0000000   8.0000000   1.0000000   1.0000000

  Atom       281         282         283         284         285         286         287         288         289         290
 IAtWgt=          16           1           1          16           1           1          16           1           1          16
 AtmWgt=  15.9949146   1.0078250   1.0078250  15.9949146   1.0078250   1.0078250  15.9949146   1.0078250   1.0078250  15.9949146
 NucSpn=           0           1           1           0           1           1           0           1           1           0
 AtZEff=   0.0000000   0.0000000   0.0000000   0.0000000   0.0000000   0.0000000   0.0000000   0.0000000   0.0000000   0.0000000
 NQMom=    0.0000000   0.0000000   0.0000000   0.0000000   0.0000000   0.0000000   0.0000000   0.0000000   0.0000000   0.0000000
 NMagM=    0.0000000   2.7928460   2.7928460   0.0000000   2.7928460   2.7928460   0.0000000   2.7928460   2.7928460   0.0000000
 AtZNuc=   8.0000000   1.0000000   1.0000000   8.0000000   1.0000000   1.0000000   8.0000000   1.0000000   1.0000000   8.0000000

  Atom       291         292         293         294         295         296         297         298         299         300
 IAtWgt=           1           1          16           1           1          16           1           1          16           1
 AtmWgt=   1.0078250   1.0078250  15.9949146   1.0078250   1.0078250  15.9949146   1.0078250   1.0078250  15.9949146   1.0078250
 NucSpn=           1           1           0           1           1           0           1           1           0           1
 AtZEff=   0.0000000   0.0000000   0.0000000   0.0000000   0.0000000   0.0000000   0.0000000   0.0000000   0.0000000   0.0000000
 NQMom=    0.0000000   0.0000000   0.0000000   0.0000000   0.0000000   0.0000000   0.0000000   0.0000000   0.0000000   0.0000000
 NMagM=    2.7928460   2.7928460   0.0000000   2.7928460   2.7928460   0.0000000   2.7928460   2.7928460   0.0000000   2.7928460
 AtZNuc=   1.0000000   1.0000000   8.0000000   1.0000000   1.0000000   8.0000000   1.0000000   1.0000000   8.0000000   1.0000000

  Atom       301         302         303         304         305         306         307         308         309         310
 IAtWgt=           1          16           1           1          16           1           1          16           1           1
 AtmWgt=   1.0078250  15.9949146   1.0078250   1.0078250  15.9949146   1.0078250   1.0078250  15.9949146   1.0078250   1.0078250
 NucSpn=           1           0           1           1           0           1           1           0           1           1
 AtZEff=   0.0000000   0.0000000   0.0000000   0.0000000   0.0000000   0.0000000   0.0000000   0.0000000   0.0000000   0.0000000
 NQMom=    0.0000000   0.0000000   0.0000000   0.0000000   0.0000000   0.0000000   0.0000000   0.0000000   0.0000000   0.0000000
 NMagM=    2.7928460   0.0000000   2.7928460   2.7928460   0.0000000   2.7928460   2.7928460   0.0000000   2.7928460   2.7928460
 AtZNuc=   1.0000000   8.0000000   1.0000000   1.0000000   8.0000000   1.0000000   1.0000000   8.0000000   1.0000000   1.0000000

  Atom       311         312         313         314         315         316         317         318         319         320
 IAtWgt=          16           1           1          16           1           1          16           1           1          16
 AtmWgt=  15.9949146   1.0078250   1.0078250  15.9949146   1.0078250   1.0078250  15.9949146   1.0078250   1.0078250  15.9949146
 NucSpn=           0           1           1           0           1           1           0           1           1           0
 AtZEff=   0.0000000   0.0000000   0.0000000   0.0000000   0.0000000   0.0000000   0.0000000   0.0000000   0.0000000   0.0000000
 NQMom=    0.0000000   0.0000000   0.0000000   0.0000000   0.0000000   0.0000000   0.0000000   0.0000000   0.0000000   0.0000000
 NMagM=    0.0000000   2.7928460   2.7928460   0.0000000   2.7928460   2.7928460   0.0000000   2.7928460   2.7928460   0.0000000
 AtZNuc=   8.0000000   1.0000000   1.0000000   8.0000000   1.0000000   1.0000000   8.0000000   1.0000000   1.0000000   8.0000000

  Atom       321         322         323         324         325         326         327         328         329         330
 IAtWgt=           1           1          16           1           1          16           1           1          16           1
 AtmWgt=   1.0078250   1.0078250  15.9949146   1.0078250   1.0078250  15.9949146   1.0078250   1.0078250  15.9949146   1.0078250
 NucSpn=           1           1           0           1           1           0           1           1           0           1
 AtZEff=   0.0000000   0.0000000   0.0000000   0.0000000   0.0000000   0.0000000   0.0000000   0.0000000   0.0000000   0.0000000
 NQMom=    0.0000000   0.0000000   0.0000000   0.0000000   0.0000000   0.0000000   0.0000000   0.0000000   0.0000000   0.0000000
 NMagM=    2.7928460   2.7928460   0.0000000   2.7928460   2.7928460   0.0000000   2.7928460   2.7928460   0.0000000   2.7928460
 AtZNuc=   1.0000000   1.0000000   8.0000000   1.0000000   1.0000000   8.0000000   1.0000000   1.0000000   8.0000000   1.0000000

  Atom       331         332         333         334         335         336         337         338         339         340
 IAtWgt=           1          16           1           1          16           1           1          16           1           1
 AtmWgt=   1.0078250  15.9949146   1.0078250   1.0078250  15.9949146   1.0078250   1.0078250  15.9949146   1.0078250   1.0078250
 NucSpn=           1           0           1           1           0           1           1           0           1           1
 AtZEff=   0.0000000   0.0000000   0.0000000   0.0000000   0.0000000   0.0000000   0.0000000   0.0000000   0.0000000   0.0000000
 NQMom=    0.0000000   0.0000000   0.0000000   0.0000000   0.0000000   0.0000000   0.0000000   0.0000000   0.0000000   0.0000000
 NMagM=    2.7928460   0.0000000   2.7928460   2.7928460   0.0000000   2.7928460   2.7928460   0.0000000   2.7928460   2.7928460
 AtZNuc=   1.0000000   8.0000000   1.0000000   1.0000000   8.0000000   1.0000000   1.0000000   8.0000000   1.0000000   1.0000000

  Atom       341         342         343         344         345         346         347         348         349         350
 IAtWgt=          16           1           1          16           1           1          16           1           1          16
 AtmWgt=  15.9949146   1.0078250   1.0078250  15.9949146   1.0078250   1.0078250  15.9949146   1.0078250   1.0078250  15.9949146
 NucSpn=           0           1           1           0           1           1           0           1           1           0
 AtZEff=   0.0000000   0.0000000   0.0000000   0.0000000   0.0000000   0.0000000   0.0000000   0.0000000   0.0000000   0.0000000
 NQMom=    0.0000000   0.0000000   0.0000000   0.0000000   0.0000000   0.0000000   0.0000000   0.0000000   0.0000000   0.0000000
 NMagM=    0.0000000   2.7928460   2.7928460   0.0000000   2.7928460   2.7928460   0.0000000   2.7928460   2.7928460   0.0000000
 AtZNuc=   8.0000000   1.0000000   1.0000000   8.0000000   1.0000000   1.0000000   8.0000000   1.0000000   1.0000000   8.0000000

  Atom       351         352         353         354         355         356         357         358         359         360
 IAtWgt=           1           1          16           1           1          16           1           1          16           1
 AtmWgt=   1.0078250   1.0078250  15.9949146   1.0078250   1.0078250  15.9949146   1.0078250   1.0078250  15.9949146   1.0078250
 NucSpn=           1           1           0           1           1           0           1           1           0           1
 AtZEff=   0.0000000   0.0000000   0.0000000   0.0000000   0.0000000   0.0000000   0.0000000   0.0000000   0.0000000   0.0000000
 NQMom=    0.0000000   0.0000000   0.0000000   0.0000000   0.0000000   0.0000000   0.0000000   0.0000000   0.0000000   0.0000000
 NMagM=    2.7928460   2.7928460   0.0000000   2.7928460   2.7928460   0.0000000   2.7928460   2.7928460   0.0000000   2.7928460
 AtZNuc=   1.0000000   1.0000000   8.0000000   1.0000000   1.0000000   8.0000000   1.0000000   1.0000000   8.0000000   1.0000000

  Atom       361         362         363         364         365         366         367         368         369         370
 IAtWgt=           1          16           1           1          16           1           1          16           1           1
 AtmWgt=   1.0078250  15.9949146   1.0078250   1.0078250  15.9949146   1.0078250   1.0078250  15.9949146   1.0078250   1.0078250
 NucSpn=           1           0           1           1           0           1           1           0           1           1
 AtZEff=   0.0000000   0.0000000   0.0000000   0.0000000   0.0000000   0.0000000   0.0000000   0.0000000   0.0000000   0.0000000
 NQMom=    0.0000000   0.0000000   0.0000000   0.0000000   0.0000000   0.0000000   0.0000000   0.0000000   0.0000000   0.0000000
 NMagM=    2.7928460   0.0000000   2.7928460   2.7928460   0.0000000   2.7928460   2.7928460   0.0000000   2.7928460   2.7928460
 AtZNuc=   1.0000000   8.0000000   1.0000000   1.0000000   8.0000000   1.0000000   1.0000000   8.0000000   1.0000000   1.0000000

  Atom       371         372         373         374         375         376         377         378         379         380
 IAtWgt=          16           1           1          16           1           1          16           1           1          16
 AtmWgt=  15.9949146   1.0078250   1.0078250  15.9949146   1.0078250   1.0078250  15.9949146   1.0078250   1.0078250  15.9949146
 NucSpn=           0           1           1           0           1           1           0           1           1           0
 AtZEff=   0.0000000   0.0000000   0.0000000   0.0000000   0.0000000   0.0000000   0.0000000   0.0000000   0.0000000   0.0000000
 NQMom=    0.0000000   0.0000000   0.0000000   0.0000000   0.0000000   0.0000000   0.0000000   0.0000000   0.0000000   0.0000000
 NMagM=    0.0000000   2.7928460   2.7928460   0.0000000   2.7928460   2.7928460   0.0000000   2.7928460   2.7928460   0.0000000
 AtZNuc=   8.0000000   1.0000000   1.0000000   8.0000000   1.0000000   1.0000000   8.0000000   1.0000000   1.0000000   8.0000000

  Atom       381         382         383         384         385
 IAtWgt=           1           1          16           1           1
 AtmWgt=   1.0078250   1.0078250  15.9949146   1.0078250   1.0078250
 NucSpn=           1           1           0           1           1
 AtZEff=   0.0000000   0.0000000   0.0000000   0.0000000   0.0000000
 NQMom=    0.0000000   0.0000000   0.0000000   0.0000000   0.0000000
 NMagM=    2.7928460   2.7928460   0.0000000   2.7928460   2.7928460
 AtZNuc=   1.0000000   1.0000000   8.0000000   1.0000000   1.0000000
 Leave Link  101 at Sat May 12 21:56:40 2018, MaxMem= 14763950080 cpu:        75.5
 (Enter /cm/shared/gaussian/g09.e01/intel64-sandybridge/g09/l103.exe)

 GradGradGradGradGradGradGradGradGradGradGradGradGradGradGradGradGradGrad
 Berny optimization.
 Initialization pass.
 Trust Radius=3.00D-01 FncErr=1.00D-07 GrdErr=1.00D-07
 Number of steps in this run=      2 maximum allowed number of steps=      2.
 GradGradGradGradGradGradGradGradGradGradGradGradGradGradGradGradGradGrad

 Leave Link  103 at Sat May 12 21:57:05 2018, MaxMem= 14763950080 cpu:        14.2
 (Enter /cm/shared/gaussian/g09.e01/intel64-sandybridge/g09/l202.exe)
 Symmetry turned off by external request.
 Stoichiometry    BrH256O128(1-)
 Framework group  C1[X(BrH256O128)]
 Deg. of freedom  1149
 Full point group                 C1      NOp   1
                          Input orientation:                          
 ---------------------------------------------------------------------
 Center     Atomic      Atomic             Coordinates (Angstroms)
 Number     Number       Type             X           Y           Z
 ---------------------------------------------------------------------
      1         35           0       20.000000   20.000000   20.000000
      2          8           0       17.720000   18.090000   19.940000
      3          1           0       18.350000   18.730000   20.250000
      4          1           0       17.120000   17.970000   20.660000
      5          8           0       22.600000   18.750000   18.580000
      6          1           0       21.740000   19.120000   18.760000
      7          1           0       23.170000   19.510000   18.470000
      8          8           0       19.180000   20.010000   23.170000
      9          1           0       19.540000   19.830000   22.300000
     10          1           0       19.940000   20.110000   23.730000
     11          8           0       18.620000   21.990000   17.860000
     12          1           0       18.790000   21.700000   18.760000
     13          1           0       17.670000   22.060000   17.810000
     14          8           0       22.210000   22.590000   19.250000
     15          1           0       21.640000   21.830000   19.340000
     16          1           0       23.090000   22.250000   19.440000
     17          8           0       23.370000   20.290000   21.750000
     18          1           0       22.530000   19.930000   21.460000
     19          1           0       23.130000   21.060000   22.270000
     20          8           0       19.610000   17.080000   17.430000
     21          1           0       19.940000   17.620000   16.700000
     22          1           0       19.170000   17.700000   18.010000
     23          8           0       22.490000   22.890000   22.180000
     24          1           0       22.030000   22.600000   21.400000
     25          1           0       22.210000   23.800000   22.300000
     26          8           0       16.390000   18.800000   17.560000
     27          1           0       17.090000   18.890000   16.910000
     28          1           0       16.850000   18.690000   18.390000
     29          8           0       17.470000   22.150000   23.190000
     30          1           0       18.040000   21.380000   23.090000
     31          1           0       17.370000   22.250000   24.140000
     32          8           0       16.490000   18.140000   22.410000
     33          1           0       16.840000   18.980000   22.710000
     34          1           0       15.670000   18.040000   22.900000
     35          8           0       24.420000   21.260000   19.440000
     36          1           0       24.250000   20.770000   20.240000
     37          1           0       25.180000   20.830000   19.050000
     38          8           0       20.650000   23.630000   16.770000
     39          1           0       21.300000   23.220000   17.350000
     40          1           0       19.820000   23.230000   17.020000
     41          8           0       23.190000   16.100000   20.250000
     42          1           0       22.910000   16.230000   21.160000
     43          1           0       23.160000   16.970000   19.860000
     44          8           0       22.700000   20.200000   15.760000
     45          1           0       22.840000   19.880000   14.870000
     46          1           0       21.980000   19.680000   16.100000
     47          8           0       20.050000   19.160000   15.590000
     48          1           0       19.880000   20.110000   15.610000
     49          1           0       20.090000   18.950000   14.660000
     50          8           0       18.580000   14.860000   19.540000
     51          1           0       18.710000   15.810000   19.640000
     52          1           0       17.640000   14.770000   19.370000
     53          8           0       17.830000   24.000000   21.480000
     54          1           0       17.950000   23.320000   22.130000
     55          1           0       16.950000   24.340000   21.640000
     56          8           0       20.980000   25.080000   19.460000
     57          1           0       21.450000   24.290000   19.190000
     58          1           0       20.180000   25.070000   18.940000
     59          8           0       15.870000   21.620000   17.900000
     60          1           0       15.060000   21.790000   18.380000
     61          1           0       15.950000   20.660000   17.890000
     62          8           0       18.140000   21.370000   15.090000
     63          1           0       17.980000   21.390000   16.040000
     64          1           0       17.310000   21.660000   14.710000
     65          8           0       23.260000   17.150000   16.580000
     66          1           0       23.050000   17.660000   17.360000
     67          1           0       22.460000   16.640000   16.410000
     68          8           0       21.620000   19.780000   24.420000
     69          1           0       21.400000   18.860000   24.540000
     70          1           0       22.050000   20.030000   25.240000
     71          8           0       21.400000   15.090000   17.480000
     72          1           0       21.300000   14.610000   18.300000
     73          1           0       20.760000   15.800000   17.540000
     74          8           0       18.240000   25.170000   18.900000
     75          1           0       17.600000   24.850000   18.260000
     76          1           0       18.130000   24.600000   19.660000
     77          8           0       18.150000   15.330000   22.970000
     78          1           0       18.210000   15.720000   23.840000
     79          1           0       18.040000   16.080000   22.380000
     80          8           0       15.130000   20.920000   22.420000
     81          1           0       15.940000   21.360000   22.670000
     82          1           0       14.500000   21.630000   22.280000
     83          8           0       25.540000   19.450000   22.970000
     84          1           0       25.960000   20.280000   23.220000
     85          1           0       24.790000   19.720000   22.440000
     86          8           0       24.590000   22.120000   16.490000
     87          1           0       24.060000   22.900000   16.330000
     88          1           0       23.960000   21.400000   16.490000
     89          8           0       22.280000   15.510000   22.750000
     90          1           0       22.840000   15.080000   23.400000
     91          1           0       21.910000   14.790000   22.250000
     92          8           0       21.580000   25.610000   22.310000
     93          1           0       20.970000   26.350000   22.320000
     94          1           0       21.610000   25.330000   21.400000
     95          8           0       14.200000   19.650000   19.770000
     96          1           0       14.370000   18.750000   19.480000
     97          1           0       14.310000   19.620000   20.720000
     98          8           0       25.420000   23.780000   20.650000
     99          1           0       24.740000   23.320000   20.170000
    100          1           0       26.050000   24.060000   19.980000
    101          8           0       21.010000   16.910000   25.000000
    102          1           0       21.350000   16.300000   24.340000
    103          1           0       20.090000   16.670000   25.090000
    104          8           0       21.020000   13.470000   19.890000
    105          1           0       20.230000   14.010000   19.890000
    106          1           0       20.760000   12.650000   20.310000
    107          8           0       19.820000   23.430000   13.930000
    108          1           0       19.890000   23.220000   14.870000
    109          1           0       19.580000   22.590000   13.530000
    110          8           0       24.110000   14.930000   18.140000
    111          1           0       23.300000   14.940000   17.620000
    112          1           0       23.860000   15.340000   18.970000
    113          8           0       22.870000   24.070000   15.280000
    114          1           0       22.030000   23.920000   15.700000
    115          1           0       22.800000   23.650000   14.420000
    116          8           0       18.790000   16.170000   14.310000
    117          1           0       19.210000   16.240000   15.160000
    118          1           0       18.000000   15.650000   14.480000
    119          8           0       18.970000   27.000000   21.080000
    120          1           0       19.210000   26.090000   20.930000
    121          1           0       18.060000   26.970000   21.370000
    122          8           0       23.560000   23.910000   24.860000
    123          1           0       23.040000   23.470000   24.190000
    124          1           0       23.120000   24.750000   24.990000
    125          8           0       14.030000   17.870000   16.590000
    126          1           0       14.790000   18.230000   17.050000
    127          1           0       13.530000   17.420000   17.270000
    128          8           0       18.710000   13.350000   17.330000
    129          1           0       18.760000   14.020000   18.010000
    130          1           0       18.030000   12.750000   17.630000
    131          8           0       16.420000   24.690000   16.450000
    132          1           0       16.670000   25.380000   15.840000
    133          1           0       16.520000   23.880000   15.940000
    134          8           0       26.080000   16.660000   22.760000
    135          1           0       25.690000   17.470000   22.430000
    136          1           0       26.900000   16.940000   23.160000
    137          8           0       18.240000   16.390000   25.590000
    138          1           0       17.550000   17.040000   25.500000
    139          1           0       18.070000   15.960000   26.430000
    140          8           0       26.500000   20.020000   18.280000
    141          1           0       26.410000   19.570000   17.440000
    142          1           0       27.170000   20.680000   18.130000
    143          8           0       22.510000   27.090000   18.810000
    144          1           0       21.920000   26.420000   19.170000
    145          1           0       21.970000   27.880000   18.770000
    146          8           0       19.950000   25.490000   25.510000
    147          1           0       20.780000   25.790000   25.130000
    148          1           0       19.870000   24.580000   25.240000
    149          8           0       19.920000   22.890000   26.630000
    150          1           0       20.180000   21.970000   26.720000
    151          1           0       19.580000   23.130000   27.490000
    152          8           0       26.050000   17.940000   15.990000
    153          1           0       25.200000   17.510000   15.970000
    154          1           0       25.970000   18.670000   15.370000
    155          8           0       15.710000   18.280000   25.320000
    156          1           0       15.730000   19.190000   25.650000
    157          1           0       14.810000   17.990000   25.460000
    158          8           0       15.880000   14.370000   18.630000
    159          1           0       15.640000   14.560000   17.730000
    160          1           0       15.080000   14.490000   19.130000
    161          8           0       23.720000   16.200000   13.950000
    162          1           0       23.570000   16.680000   14.760000
    163          1           0       22.840000   16.020000   13.610000
    164          8           0       20.700000   18.990000   12.910000
    165          1           0       21.650000   19.120000   12.840000
    166          1           0       20.490000   18.390000   12.190000
    167          8           0       16.870000   22.650000   26.170000
    168          1           0       16.240000   21.990000   25.880000
    169          1           0       17.490000   22.160000   26.710000
    170          8           0       17.920000   27.650000   17.920000
    171          1           0       18.630000   28.200000   18.240000
    172          1           0       18.000000   26.840000   18.430000
    173          8           0       25.590000   19.200000   25.800000
    174          1           0       25.430000   19.070000   24.870000
    175          1           0       25.550000   18.320000   26.170000
    176          8           0       18.520000   21.270000   12.120000
    177          1           0       17.630000   20.920000   12.090000
    178          1           0       18.970000   20.710000   12.750000
    179          8           0       25.590000   14.180000   21.440000
    180          1           0       25.690000   14.740000   22.200000
    181          1           0       24.840000   14.540000   20.970000
    182          8           0       26.070000   20.440000   14.660000
    183          1           0       26.670000   21.060000   14.250000
    184          1           0       25.450000   20.990000   15.140000
    185          8           0       26.180000   23.250000   23.380000
    186          1           0       26.080000   23.450000   22.450000
    187          1           0       25.400000   23.620000   23.790000
    188          8           0       24.550000   16.610000   25.350000
    189          1           0       24.730000   16.410000   24.430000
    190          1           0       24.010000   15.880000   25.650000
    191          8           0       22.140000   13.420000   15.340000
    192          1           0       21.640000   13.740000   14.590000
    193          1           0       21.900000   14.010000   16.060000
    194          8           0       15.430000   14.390000   24.190000
    195          1           0       15.710000   13.480000   24.130000
    196          1           0       16.160000   14.890000   23.830000
    197          8           0       22.720000   20.090000   26.970000
    198          1           0       23.570000   20.510000   26.820000
    199          1           0       22.950000   19.240000   27.350000
    200          8           0       17.980000   12.750000   23.770000
    201          1           0       18.010000   13.660000   23.500000
    202          1           0       18.210000   12.250000   22.980000
    203          8           0       15.980000   17.730000   13.080000
    204          1           0       16.570000   17.460000   13.780000
    205          1           0       15.130000   17.360000   13.330000
    206          8           0       23.730000   12.600000   19.740000
[...]
   Z335      40.59132   0.00625   0.00000   0.00285   0.00305  40.59437
   X336      39.32520   0.00561   0.00000   0.00356   0.00418  39.32938
   Y336      19.86102  -0.00804   0.00000  -0.00435  -0.00445  19.85657
   Z336      39.77874  -0.00545   0.00000  -0.00434  -0.00407  39.77466
   X337      37.68114   0.00302   0.00000   0.00379   0.00427  37.68541
   Y337      20.44684  -0.00030   0.00000  -0.00141  -0.00153  20.44531
   Z337      42.04641  -0.00027   0.00000   0.00187   0.00204  42.04844
   X338      41.81964   0.00605   0.00000   0.00388   0.00308  41.82272
   Y338      48.18802  -0.00032   0.00000  -0.00034  -0.00018  48.18783
   Z338      52.19424   0.01315   0.00000   0.01136   0.01131  52.20554
   X339      42.87789  -0.00087   0.00000  -0.00176  -0.00253  42.87535
   Y339      49.24626  -0.00092   0.00000  -0.00364  -0.00347  49.24279
   Z339      51.17378  -0.00412   0.00000  -0.00398  -0.00399  51.16979
   X340      40.40234  -0.00649   0.00000  -0.00206  -0.00279  40.39955
   Y340      47.82897  -0.00107   0.00000  -0.00054  -0.00044  47.82853
   Z340      51.11709  -0.00641   0.00000  -0.00243  -0.00255  51.11454
   X341      39.45748   0.00861   0.00000   0.00847   0.00802  39.46550
   Y341      53.72491  -0.00923   0.00000  -0.00517  -0.00522  53.71969
   Z341      43.29363  -0.00187   0.00000  -0.00039  -0.00066  43.29296
   X342      38.24806  -0.00517   0.00000  -0.00255  -0.00295  38.24511
   Y342      54.31073  -0.00093   0.00000  -0.00527  -0.00537  54.30536
   Z342      42.08420  -0.00522   0.00000  -0.00337  -0.00371  42.08049
   X343      39.32520  -0.00231   0.00000  -0.00240  -0.00296  39.32224
   Y343      54.87765   0.00559   0.00000   0.00242   0.00239  54.88004
   Z343      44.67313   0.00827   0.00000   0.00677   0.00648  44.67960
   X344      53.38476   0.01794   0.00000   0.01392   0.01479  53.39956
   Y344      30.08444  -0.01469   0.00000  -0.00617  -0.00607  30.07837
   Z344      30.27341   0.00891   0.00000   0.00857   0.00944  30.28286
   X345      53.51704  -0.00560   0.00000  -0.00912  -0.00817  53.50887
   Y345      30.76474   0.00424   0.00000   0.00012   0.00020  30.76494
   Z345      28.61045  -0.00923   0.00000  -0.00522  -0.00435  28.60611
   X346      52.08085  -0.01431   0.00000  -0.01089  -0.01009  52.07077
   Y346      31.04820   0.01175   0.00000   0.00819   0.00828  31.05648
   Z346      31.04820   0.00098   0.00000  -0.00468  -0.00390  31.04430
   X347      25.90815   0.00147   0.00000   0.00225   0.00220  25.91034
   Y347      50.49348  -0.01272   0.00000  -0.00409  -0.00458  50.48890
   Z347      37.51106   0.01133   0.00000   0.00994   0.00898  37.52005
   X348      26.64514   0.00407   0.00000   0.00141   0.00144  26.64658
   Y348      50.77694  -0.00113   0.00000  -0.00573  -0.00623  50.77071
   Z348      35.88590  -0.01282   0.00000  -0.00820  -0.00912  35.87677
   X349      25.09556  -0.00511   0.00000  -0.00266  -0.00277  25.09279
   Y349      52.04306   0.01574   0.00000   0.01483   0.01432  52.05738
   Z349      37.92680  -0.00224   0.00000  -0.00556  -0.00659  37.92021
   X350      46.44947   0.02623   0.00000   0.01985   0.02102  46.47049
   Y350      25.41682  -0.00785   0.00000  -0.00727  -0.00740  25.40941
   Z350      26.98529  -0.02144   0.00000  -0.01807  -0.01750  26.96779
   X351      45.18335  -0.01556   0.00000  -0.00685  -0.00574  45.17761
   Y351      25.26564   0.00119   0.00000   0.00045   0.00031  25.26595
   Z351      28.25141   0.00935   0.00000  -0.00355  -0.00305  28.24836
   X352      46.31719  -0.00415   0.00000  -0.00457  -0.00341  46.31378
   Y352      27.13647   0.00523   0.00000   0.00472   0.00458  27.14105
   Z352      26.41837   0.00653   0.00000   0.00998   0.01051  26.42888
   X353      53.40366   0.00935   0.00000   0.00537   0.00497  53.40863
   Y353      42.00861  -0.00896   0.00000  -0.00971  -0.00932  41.99929
   Z353      47.81007  -0.00648   0.00000  -0.00339  -0.00270  47.80737
   X354      53.17689  -0.00758   0.00000  -0.00998  -0.01048  53.16641
   Y354      42.49994   0.00416   0.00000   0.00310   0.00351  42.50345
   Z354      49.52972   0.00938   0.00000   0.00438   0.00505  49.53477
   X355      51.83519  -0.00440   0.00000   0.00118   0.00082  51.83601
   Y355      42.44325   0.00639   0.00000   0.00844   0.00877  42.45202
   Z355      46.99749  -0.00522   0.00000  -0.00715  -0.00656  46.99093
   X356      36.73628   0.01070   0.00000   0.01203   0.01205  36.74833
   Y356      22.71451   0.00585   0.00000   0.00616   0.00614  22.72064
   Z356      49.35965   0.01665   0.00000   0.01002   0.01010  49.36975
   X357      36.58510  -0.00279   0.00000  -0.00298  -0.00288  36.58222
   Y357      21.01375  -0.00604   0.00000  -0.00083  -0.00086  21.01289
   Z357      48.77383  -0.00450   0.00000  -0.00147  -0.00137  48.77246
   X358      36.16936  -0.00818   0.00000  -0.00960  -0.00953  36.15983
   Y358      23.71606  -0.00040   0.00000  -0.00620  -0.00626  23.70980
   Z358      47.96125  -0.01242   0.00000  -0.00922  -0.00918  47.95206
   X359      34.29853   0.00236   0.00000   0.00332   0.00472  34.30325
   Y359      30.72695  -0.00626   0.00000  -0.00597  -0.00652  30.72043
   Z359      20.39014  -0.00450   0.00000  -0.00139  -0.00157  20.38858
   X360      34.05286  -0.00075   0.00000  -0.00203  -0.00072  34.05214
   Y360      30.61356   0.00470   0.00000   0.00790   0.00737  30.62093
   Z360      22.18538   0.00529   0.00000   0.00420   0.00401  22.18940
   X361      35.11111  -0.00168   0.00000  -0.00543  -0.00406  35.10705
   Y361      32.33321   0.00341   0.00000   0.00310   0.00257  32.33578
   Z361      20.14448   0.00175   0.00000   0.00236   0.00219  20.14668
   X362      45.97704   0.01402   0.00000   0.00429   0.00533  45.98237
   Y362      41.06375  -0.01041   0.00000  -0.00539  -0.00561  41.05814
   Z362      22.01531   0.00392   0.00000   0.00463   0.00492  22.02023
   X363      44.40856  -0.01785   0.00000  -0.01404  -0.01303  44.39554
   Y363      41.97082   0.01036   0.00000   0.00712   0.00686  41.97767
   Z363      22.03421  -0.00352   0.00000  -0.00564  -0.00545  22.02875
   X364      46.86521  -0.00023   0.00000  -0.00062   0.00048  46.86569
   Y364      41.74405  -0.00154   0.00000  -0.00384  -0.00406  41.73999
   Z364      20.57912  -0.00003   0.00000   0.00088   0.00121  20.58032
   X365      48.69824   0.01163   0.00000   0.00976   0.00905  48.70729
   Y365      45.93924   0.00026   0.00000   0.00041   0.00073  45.93998
   Z365      51.72180   0.00546   0.00000   0.00069   0.00105  51.72286
   X366      47.50771  -0.00819   0.00000  -0.00476  -0.00539  47.50232
   Y366      45.18335  -0.00612   0.00000  -0.00657  -0.00629  45.17706
   Z366      50.58797  -0.00515   0.00000  -0.00091  -0.00061  50.58736
   X367      48.07463  -0.00436   0.00000  -0.00446  -0.00523  48.06940
   Y367      47.62110   0.00384   0.00000   0.00166   0.00198  47.62308
   Z367      51.96747  -0.00106   0.00000  -0.00212  -0.00182  51.96565
   X368      23.94283   0.00448   0.00000   0.00196   0.00173  23.94456
   Y368      48.11243  -0.01014   0.00000  -0.00515  -0.00563  48.10680
   Z368      41.81964   0.01275   0.00000   0.01014   0.00911  41.82875
   X369      22.24208  -0.01103   0.00000  -0.00781  -0.00800  22.23407
   Y369      48.01794   0.00097   0.00000   0.00165   0.00111  48.01905
   Z369      41.23382  -0.00405   0.00000  -0.00139  -0.00251  41.23131
   X370      24.69872   0.00603   0.00000   0.00565   0.00545  24.70417
   Y370      49.41634   0.00625   0.00000  -0.00022  -0.00070  49.41564
   Z370      40.83698  -0.01050   0.00000  -0.00885  -0.00986  40.82712
   X371      55.70913  -0.00754   0.00000  -0.01382  -0.01345  55.69568
   Y371      40.30786   0.00967   0.00000   0.00522   0.00545  40.31331
   Z371      34.48750   0.00121   0.00000  -0.00046   0.00038  34.48788
   X372      55.44456   0.00177   0.00000   0.00365   0.00396  55.44853
   Y372      39.49528  -0.00627   0.00000  -0.00781  -0.00756  39.48772
   Z372      36.09377   0.00343   0.00000   0.00176   0.00259  36.09636
   X373      55.93589   0.00141   0.00000   0.00123   0.00171  55.93760
   Y373      38.94726  -0.00721   0.00000  -0.00490  -0.00468  38.94257
   Z373      33.31587  -0.00282   0.00000  -0.00052   0.00035  33.31623
   X374      21.82634   0.00223   0.00000   0.00308   0.00331  21.82965
   Y374      45.25894   0.00016   0.00000   0.00084   0.00019  45.25913
   Z374      34.78986   0.00391   0.00000   0.00869   0.00759  34.79745
   X375      21.18383  -0.00227   0.00000  -0.00433  -0.00419  21.17964
   Y375      46.61954   0.00126   0.00000   0.00265   0.00200  46.62154
   Z375      35.81031   0.00046   0.00000   0.00156   0.00040  35.81072
   X376      20.35235   0.00327   0.00000   0.00652   0.00680  20.35915
   Y376      44.25739  -0.00226   0.00000  -0.00296  -0.00365  44.25374
   Z376      34.39302  -0.00028   0.00000   0.00054  -0.00062  34.39239
   X377      48.86832   0.01520   0.00000   0.00807   0.00931  48.87763
   Y377      31.40725   0.00170   0.00000   0.00508   0.00495  31.41220
   Z377      22.82789  -0.01910   0.00000  -0.01289  -0.01228  22.81561
   X378      47.82897  -0.01449   0.00000  -0.01181  -0.01065  47.81832
   Y378      31.70960  -0.00679   0.00000  -0.01246  -0.01260  31.69700
   Z378      24.26408   0.01402   0.00000   0.00568   0.00622  24.27031
   X379      48.64155  -0.00207   0.00000  -0.00233  -0.00102  48.64053
   Y379      29.63091   0.00311   0.00000   0.00430   0.00415  29.63506
   Z379      22.46884   0.00582   0.00000   0.00679   0.00741  22.47626
   X380      41.32831   0.00809   0.00000   0.00338   0.00443  41.33274
   Y380      43.27473  -0.02242   0.00000  -0.01394  -0.01430  43.26043
   Z380      20.82478   0.00016   0.00000   0.00015   0.00015  20.82494
   X381      40.51573  -0.00369   0.00000   0.00368   0.00466  40.52038
   Y381      44.72982   0.01965   0.00000   0.01438   0.01401  44.74383
   Z381      21.50508   0.00651   0.00000   0.00425   0.00419  21.50927
   X382      41.81964   0.00024   0.00000  -0.00172  -0.00060  41.81904
   Y382      43.78495   0.00310   0.00000   0.00135   0.00097  43.78593
   Z382      19.16182  -0.00760   0.00000  -0.00604  -0.00602  19.15581
   X383      35.71582   0.00764   0.00000   0.00625   0.00541  35.72124
   Y383      43.42591   0.00117   0.00000  -0.00410  -0.00405  43.42185
   Z383      55.21780  -0.00070   0.00000   0.00254   0.00223  55.22003
   X384      34.63868  -0.00283   0.00000  -0.00031  -0.00123  34.63745
   Y384      44.31408   0.00558   0.00000   0.00650   0.00653  44.32061
   Z384      56.37053   0.00206   0.00000  -0.00060  -0.00098  56.36955
   X385      34.90324  -0.00677   0.00000  -0.00686  -0.00764  34.89560
   Y385      41.81964  -0.01030   0.00000  -0.00884  -0.00882  41.81082
   Z385      55.00993  -0.00349   0.00000  -0.00479  -0.00512  55.00481
         Item               Value     Threshold  Converged?
 Maximum Force            0.041888     0.000450     NO 
 RMS     Force            0.010611     0.000300     NO 
 Maximum Displacement     0.041297     0.001800     NO 
 RMS     Displacement     0.008839     0.001200     NO 
 Predicted change in Energy=-7.368128D-02
 GradGradGradGradGradGradGradGradGradGradGradGradGradGradGradGradGradGrad

 Leave Link  103 at Sun May 13 00:22:04 2018, MaxMem= 14763950080 cpu:      2988.1
 (Enter /cm/shared/gaussian/g09.e01/intel64-sandybridge/g09/l9999.exe)
 1\1\GINC-POPLE03\Force\RPBE1PBE\CC-pVDZ\Br1H256O128(1-)\M.PELUSO\13-Ma
 y-2018\0\\#p PBE1PBE/cc-pvDZ force Counterpoise=2 noSymm\\forces on ch
 loride comput - NWATER: 128\\-1,1\Br,20.,20.,20.\O,17.72,18.09,19.94\H
 ,18.35,18.73,20.25\H,17.12,17.97,20.66\O,22.6,18.75,18.58\H,21.74,19.1
 2,18.76\H,23.17,19.51,18.47\O,19.18,20.01,23.17\H,19.54,19.83,22.3\H,1
 9.94,20.11,23.73\O,18.62,21.99,17.86\H,18.79,21.7,18.76\H,17.67,22.06,
 17.81\O,22.21,22.59,19.25\H,21.64,21.83,19.34\H,23.09,22.25,19.44\O,23
 .37,20.29,21.75\H,22.53,19.93,21.46\H,23.13,21.06,22.27\O,19.61,17.08,
 17.43\H,19.94,17.62,16.7\H,19.17,17.7,18.01\O,22.49,22.89,22.18\H,22.0
 3,22.6,21.4\H,22.21,23.8,22.3\O,16.39,18.8,17.56\H,17.09,18.89,16.91\H
 ,16.85,18.69,18.39\O,17.47,22.15,23.19\H,18.04,21.38,23.09\H,17.37,22.
 25,24.14\O,16.49,18.14,22.41\H,16.84,18.98,22.71\H,15.67,18.04,22.9\O,
 24.42,21.26,19.44\H,24.25,20.77,20.24\H,25.18,20.83,19.05\O,20.65,23.6
 3,16.77\H,21.3,23.22,17.35\H,19.82,23.23,17.02\O,23.19,16.1,20.25\H,22
 .91,16.23,21.16\H,23.16,16.97,19.86\O,22.7,20.2,15.76\H,22.84,19.88,14
 .87\H,21.98,19.68,16.1\O,20.05,19.16,15.59\H,19.88,20.11,15.61\H,20.09
 ,18.95,14.66\O,18.58,14.86,19.54\H,18.71,15.81,19.64\H,17.64,14.77,19.
 37\O,17.83,24.,21.48\H,17.95,23.32,22.13\H,16.95,24.34,21.64\O,20.98,2
 5.08,19.46\H,21.45,24.29,19.19\H,20.18,25.07,18.94\O,15.87,21.62,17.9\
 H,15.06,21.79,18.38\H,15.95,20.66,17.89\O,18.14,21.37,15.09\H,17.98,21
 .39,16.04\H,17.31,21.66,14.71\O,23.26,17.15,16.58\H,23.05,17.66,17.36\
 H,22.46,16.64,16.41\O,21.62,19.78,24.42\H,21.4,18.86,24.54\H,22.05,20.
 03,25.24\O,21.4,15.09,17.48\H,21.3,14.61,18.3\H,20.76,15.8,17.54\O,18.
 24,25.17,18.9\H,17.6,24.85,18.26\H,18.13,24.6,19.66\O,18.15,15.33,22.9
 7\H,18.21,15.72,23.84\H,18.04,16.08,22.38\O,15.13,20.92,22.42\H,15.94,
 21.36,22.67\H,14.5,21.63,22.28\O,25.54,19.45,22.97\H,25.96,20.28,23.22
 \H,24.79,19.72,22.44\O,24.59,22.12,16.49\H,24.06,22.9,16.33\H,23.96,21
 .4,16.49\O,22.28,15.51,22.75\H,22.84,15.08,23.4\H,21.91,14.79,22.25\O,
 21.58,25.61,22.31\H,20.97,26.35,22.32\H,21.61,25.33,21.4\O,14.2,19.65,
 19.77\H,14.37,18.75,19.48\H,14.31,19.62,20.72\O,25.42,23.78,20.65\H,24
 .74,23.32,20.17\H,26.05,24.06,19.98\O,21.01,16.91,25.\H,21.35,16.3,24.
 34\H,20.09,16.67,25.09\O,21.02,13.47,19.89\H,20.23,14.01,19.89\H,20.76
 ,12.65,20.31\O,19.82,23.43,13.93\H,19.89,23.22,14.87\H,19.58,22.59,13.
 53\O,24.11,14.93,18.14\H,23.3,14.94,17.62\H,23.86,15.34,18.97\O,22.87,
 24.07,15.28\H,22.03,23.92,15.7\H,22.8,23.65,14.42\O,18.79,16.17,14.31\
 H,19.21,16.24,15.16\H,18.,15.65,14.48\O,18.97,27.,21.08\H,19.21,26.09,
 20.93\H,18.06,26.97,21.37\O,23.56,23.91,24.86\H,23.04,23.47,24.19\H,23
 .12,24.75,24.99\O,14.03,17.87,16.59\H,14.79,18.23,17.05\H,13.53,17.42,
 17.27\O,18.71,13.35,17.33\H,18.76,14.02,18.01\H,18.03,12.75,17.63\O,16
 .42,24.69,16.45\H,16.67,25.38,15.84\H,16.52,23.88,15.94\O,26.08,16.66,
 22.76\H,25.69,17.47,22.43\H,26.9,16.94,23.16\O,18.24,16.39,25.59\H,17.
 55,17.04,25.5\H,18.07,15.96,26.43\O,26.5,20.02,18.28\H,26.41,19.57,17.
 44\H,27.17,20.68,18.13\O,22.51,27.09,18.81\H,21.92,26.42,19.17\H,21.97
 ,27.88,18.77\O,19.95,25.49,25.51\H,20.78,25.79,25.13\H,19.87,24.58,25.
 24\O,19.92,22.89,26.63\H,20.18,21.97,26.72\H,19.58,23.13,27.49\O,26.05
 ,17.94,15.99\H,25.2,17.51,15.97\H,25.97,18.67,15.37\O,15.71,18.28,25.3
 2\H,15.73,19.19,25.65\H,14.81,17.99,25.46\O,15.88,14.37,18.63\H,15.64,
 14.56,17.73\H,15.08,14.49,19.13\O,23.72,16.2,13.95\H,23.57,16.68,14.76
 \H,22.84,16.02,13.61\O,20.7,18.99,12.91\H,21.65,19.12,12.84\H,20.49,18
 .39,12.19\O,16.87,22.65,26.17\H,16.24,21.99,25.88\H,17.49,22.16,26.71\
 O,17.92,27.65,17.92\H,18.63,28.2,18.24\H,18.,26.84,18.43\O,25.59,19.2,
 25.8\H,25.43,19.07,24.87\H,25.55,18.32,26.17\O,18.52,21.27,12.12\H,17.
 63,20.92,12.09\H,18.97,20.71,12.75\O,25.59,14.18,21.44\H,25.69,14.74,2
 2.2\H,24.84,14.54,20.97\O,26.07,20.44,14.66\H,26.67,21.06,14.25\H,25.4
 5,20.99,15.14\O,26.18,23.25,23.38\H,26.08,23.45,22.45\H,25.4,23.62,23.
 79\O,24.55,16.61,25.35\H,24.73,16.41,24.43\H,24.01,15.88,25.65\O,22.14
 ,13.42,15.34\H,21.64,13.74,14.59\H,21.9,14.01,16.06\O,15.43,14.39,24.1
 9\H,15.71,13.48,24.13\H,16.16,14.89,23.83\O,22.72,20.09,26.97\H,23.57,
 20.51,26.82\H,22.95,19.24,27.35\O,17.98,12.75,23.77\H,18.01,13.66,23.5
 \H,18.21,12.25,22.98\O,15.98,17.73,13.08\H,16.57,17.46,13.78\H,15.13,1
 7.36,13.33\O,23.73,12.6,19.74\H,22.9,12.99,20.02\H,24.12,13.26,19.17\O
 ,13.32,22.86,22.31\H,13.24,23.7,21.84\H,13.72,23.1,23.15\O,16.19,26.45
 ,21.61\H,16.,27.38,21.55\H,15.44,26.02,21.19\O,11.6,20.28,18.64\H,12.3
 7,20.23,19.2\H,11.94,20.49,17.77\O,14.57,23.72,25.13\H,15.52,23.77,25.
 04\H,14.43,23.,25.75\O,20.19,19.77,28.33\H,20.91,19.58,27.73\H,20.58,2
 0.3,29.02\O,25.28,25.86,16.22\H,24.6,25.24,16.5\H,25.54,25.55,15.35\O,
 27.2,22.79,16.02\H,26.26,22.78,16.21\H,27.58,23.32,16.72\O,13.61,24.93
 ,16.68\H,14.53,24.7,16.84\H,13.15,24.67,17.47\O,21.23,15.46,13.11\H,21
 .36,15.9,12.27\H,20.35,15.73,13.39\O,17.62,25.15,13.59\H,18.26,24.44,1
 3.66\H,17.98,25.84,14.15\O,28.36,18.32,19.84\H,28.94,17.86,19.23\H,27.
 82,18.87,19.27\O,14.,21.73,14.84\H,13.87,22.38,15.53\H,14.67,22.12,14.
 27\O,23.56,19.35,12.92\H,24.43,19.12,13.26\H,23.74,20.,12.24\O,12.65,1
 7.06,18.57\H,11.79,17.35,18.9\H,12.94,16.42,19.21\O,17.54,20.66,27.82\
 H,18.2,19.97,27.79\H,16.71,20.19,27.94\O,21.39,16.22,28.02\H,21.23,15.
 28,28.13\H,21.15,16.39,27.11\O,14.61,20.89,25.94\H,13.82,20.71,25.43\H
 ,14.31,20.9,26.85\O,13.23,16.29,22.74\H,13.34,15.78,21.94\H,13.86,15.9
 2,23.36\O,22.45,26.63,24.99\H,22.84,27.49,25.19\H,22.41,26.61,24.03\O,
 16.06,22.83,13.5\H,16.54,23.65,13.46\H,15.92,22.59,12.59\O,23.07,14.13
 ,24.75\H,23.19,14.09,25.7\H,23.06,13.21,24.47\O,22.55,27.48,15.8\H,22.
 8,26.9,15.08\H,22.72,26.96,16.59\O,11.2,21.2,21.92\H,12.12,21.43,22.06
 \H,10.79,22.03,21.66\O,14.4,14.9,16.25\H,13.56,14.45,16.26\H,14.21,15.
 76,15.88\O,12.26,19.34,15.62\H,12.83,20.,15.22\H,12.86,18.69,15.98\O,2
 0.13,28.89,19.44\H,20.06,29.73,19.89\H,19.6,28.29,19.97\O,18.25,26.89,
 15.35\H,18.12,27.19,16.25\H,18.86,27.52,14.97\O,16.03,20.21,12.18\H,15
 .97,19.37,12.65\H,15.57,20.83,12.74\O,16.45,15.04,14.15\H,16.53,14.3,1
 3.55\H,15.73,14.81,14.73\O,17.2,25.74,26.28\H,18.05,26.04,25.96\H,17.3
 2,24.8,26.43\O,19.24,12.64,14.51\H,19.02,12.95,15.39\H,18.58,13.03,13.
 95\O,26.33,13.47,17.6\H,25.59,13.93,17.99\H,26.98,14.15,17.42\O,26.96,
 24.95,18.54\H,26.25,25.59,18.55\H,27.6,25.31,17.93\O,21.5,25.25,12.49\
 H,20.85,24.71,12.93\H,21.16,26.14,12.55\O,25.59,27.48,21.1\H,25.36,26.
 6,21.39\H,25.34,27.49,20.17\O,27.94,14.77,19.63\H,27.41,14.01,19.86\H,
 27.46,15.51,19.99\O,23.59,17.67,27.94\H,22.91,17.06,28.21\H,24.06,17.2
 3,27.23\O,25.46,21.23,27.38\H,25.42,20.74,28.2\H,25.59,20.56,26.71\O,1
 7.05,11.65,18.28\H,16.39,12.11,18.81\H,16.54,11.05,17.74\O,25.28,27.56
 ,18.17\H,24.36,27.46,18.42\H,25.35,27.1,17.33\O,13.25,14.37,20.57\H,13
 .27,13.68,21.23\H,12.82,13.97,19.81\O,13.09,17.68,25.39\H,12.9,17.21,2
 4.57\H,12.31,18.21,25.53\O,20.35,11.23,21.48\H,20.81,10.51,21.05\H,19.
 94,10.82,22.25\O,22.13,25.5,27.62\H,22.69,26.06,27.08\H,21.38,25.31,27
 .05\O,20.88,28.43,22.91\H,20.24,28.74,22.27\H,20.81,29.04,23.64\O,28.2
 5,15.92,16.02\H,28.32,16.28,15.14\H,27.56,16.43,16.43\O,13.71,26.72,19
 .85\H,14.1,26.87,18.99\H,13.28,27.54,20.07\O,24.58,13.45,14.28\H,23.91
 ,13.37,14.95\H,24.51,14.36,13.98\O,28.26,22.23,25.3\H,28.14,22.49,26.2
 1\H,27.43,22.46,24.87\O,19.44,12.02,26.12\H,19.36,11.12,25.81\H,19.14,
 12.55,25.38\O,18.15,16.26,10.79\H,18.02,16.2,11.74\H,18.58,17.11,10.66
 \O,24.33,21.73,11.65\H,23.5,22.21,11.66\H,24.8,22.09,10.89\O,25.77,24.
 31,27.37\H,25.14,23.91,26.77\H,25.44,25.2,27.5\O,12.67,25.46,22.13\H,1
 1.77,25.41,21.82\H,13.07,26.15,21.61\O,29.48,21.33,18.25\H,29.34,20.9,
 19.1\H,29.6,20.61,17.63\O,11.55,23.95,18.41\H,11.21,24.67,18.95\H,10.7
 7,23.42,18.2\O,25.86,16.62,12.08\H,25.31,16.78,12.84\H,25.74,15.68,11.
 89\O,21.87,22.9,11.02\H,21.44,23.67,11.38\H,22.13,23.17,10.14\O,18.9,2
 2.98,29.22\H,18.33,23.45,29.83\H,18.47,22.13,29.11\\Version=ES64L-G09R
 evE.01\HF=-9773.4146182\RMSD=1.458e-09\RMSF=1.061e-02\Dipole=-23.58590
 9,0.5199006,5.5629331\Quadrupole=-1451.8631021,542.3753604,909.4877417
 ,-2219.5942293,-2163.5980657,-1340.5326779\PG=C01 [X(Br1H256O128)]\\@


 ALL SCIENCE IS EITHER PHYSICS, OR STAMP COLLECTING.
   --ERNEST RUTHERFORD, 1871-1937.
 Job cpu time:       6 days  8 hours 11 minutes 58.9 seconds.
 File lengths (MBytes):  RWF=   7285 Int=      0 D2E=      0 Chk=   2411 Scr=      1
 Normal termination of Gaussian 09 at Sun May 13 00:22:35 2018.
