 Entering Gaussian System, Link 0=/cm/shared/gaussian/g09.e01/intel64-sandybridge/g09/g09
 Initial command:
 /cm/shared/gaussian/g09.e01/intel64-sandybridge/g09/l1.exe "/local/scratch/m.peluso/128_wat/order/Gau-57705.inp" -scrdir="/local/scratch/m.peluso/128_wat/order/"
 Entering Link 1 = /cm/shared/gaussian/g09.e01/intel64-sandybridge/g09/l1.exe PID=     57706.
  
 Copyright (c) 1988,1990,1992,1993,1995,1998,2003,2009,2015,
            Gaussian, Inc.  All Rights Reserved.
  
 This is part of the Gaussian(R) 09 program.  It is based on
 the Gaussian(R) 03 system (copyright 2003, Gaussian, Inc.),
 the Gaussian(R) 98 system (copyright 1998, Gaussian, Inc.),
 the Gaussian(R) 94 system (copyright 1995, Gaussian, Inc.),
 the Gaussian 92(TM) system (copyright 1992, Gaussian, Inc.),
 the Gaussian 90(TM) system (copyright 1990, Gaussian, Inc.),
 the Gaussian 88(TM) system (copyright 1988, Gaussian, Inc.),
 the Gaussian 86(TM) system (copyright 1986, Carnegie Mellon
 University), and the Gaussian 82(TM) system (copyright 1983,
 Carnegie Mellon University). Gaussian is a federally registered
 trademark of Gaussian, Inc.
  
 This software contains proprietary and confidential information,
 including trade secrets, belonging to Gaussian, Inc.
  
 This software is provided under written license and may be
 used, copied, transmitted, or stored only in accord with that
 written license.
  
 The following legend is applicable only to US Government
 contracts under FAR:
  
                    RESTRICTED RIGHTS LEGEND
  
 Use, reproduction and disclosure by the US Government is
 subject to restrictions as set forth in subparagraphs (a)
 and (c) of the Commercial Computer Software - Restricted
 Rights clause in FAR 52.227-19.
  
 Gaussian, Inc.
 340 Quinnipiac St., Bldg. 40, Wallingford CT 06492
  
  
 ---------------------------------------------------------------
 Warning -- This program may not be used in any manner that
 competes with the business of Gaussian, Inc. or will provide
 assistance to any competitor of Gaussian, Inc.  The licensee
 of this program is prohibited from giving any competitor of
 Gaussian, Inc. access to this program.  By using this program,
 the user acknowledges that Gaussian, Inc. is engaged in the
 business of creating and licensing software in the field of
 computational chemistry and represents and warrants to the
 licensee that it is not a competitor of Gaussian, Inc. and that
 it will not use this program in any manner prohibited above.
 ---------------------------------------------------------------
  

 Cite this work as:
 Gaussian 09, Revision E.01,
 M. J. Frisch, G. W. Trucks, H. B. Schlegel, G. E. Scuseria, 
 M. A. Robb, J. R. Cheeseman, G. Scalmani, V. Barone, B. Mennucci, 
 G. A. Petersson, H. Nakatsuji, M. Caricato, X. Li, H. P. Hratchian, 
 A. F. Izmaylov, J. Bloino, G. Zheng, J. L. Sonnenberg, M. Hada, 
 M. Ehara, K. Toyota, R. Fukuda, J. Hasegawa, M. Ishida, T. Nakajima, 
 Y. Honda, O. Kitao, H. Nakai, T. Vreven, J. A. Montgomery, Jr., 
 J. E. Peralta, F. Ogliaro, M. Bearpark, J. J. Heyd, E. Brothers, 
 K. N. Kudin, V. N. Staroverov, T. Keith, R. Kobayashi, J. Normand, 
 K. Raghavachari, A. Rendell, J. C. Burant, S. S. Iyengar, J. Tomasi, 
 M. Cossi, N. Rega, J. M. Millam, M. Klene, J. E. Knox, J. B. Cross, 
 V. Bakken, C. Adamo, J. Jaramillo, R. Gomperts, R. E. Stratmann, 
 O. Yazyev, A. J. Austin, R. Cammi, C. Pomelli, J. W. Ochterski, 
 R. L. Martin, K. Morokuma, V. G. Zakrzewski, G. A. Voth, 
 P. Salvador, J. J. Dannenberg, S. Dapprich, A. D. Daniels, 
 O. Farkas, J. B. Foresman, J. V. Ortiz, J. Cioslowski, 
 and D. J. Fox, Gaussian, Inc., Wallingford CT, 2013.
 
 ******************************************
 Gaussian 09:  ES64L-G09RevE.01 30-Nov-2015
                14-May-2018 
 ******************************************
 %Mem=110GB
 %NProcShared=64
 Will use up to   64 processors via shared memory.
 %chk=snap3.chk
 ----------------------------------------------
 #p PBE1PBE/cc-pvDZ force Counterpoise=2 noSymm
 ----------------------------------------------
 1/10=7,30=1,38=1,62=2/1,3;
 2/12=2,15=1,17=6,18=5,40=1/2;
 1/10=7,30=1,38=1,53=2,62=2,63=101/22;
 3/5=16,11=2,16=1,25=1,30=1,71=1,74=-13/1,2,3;
 4//1;
 5/5=2,38=5/2;
 6/7=2,8=2,9=2,10=2,28=1/1;
 7/7=1,29=1,30=1,33=-1/1,2,3,16;
 1/10=7,30=1,53=2,62=2,63=101/22;
 3/5=7,6=11,11=2,16=1,25=1,30=1,71=1,74=-13,82=7/1,2,3;
 4//1;
 5/5=2,38=5/2;
 6/7=2,8=2,9=2,10=2,28=1/1;
 7/7=1,29=1,30=1,33=-1/1,2,3,16;
 1/10=7,30=1,53=2,62=2,63=101/22(-5);
 7/9=1,29=1,44=-1/16;
 1/10=7,30=1,62=2/3;
 99//99;
 Leave Link    1 at Mon May 14 16:12:23 2018, MaxMem= 14763950080 cpu:         4.4
 (Enter /cm/shared/gaussian/g09.e01/intel64-sandybridge/g09/l101.exe)
 ---------------------------------------
 forces on chloride comput - NWATER: 128
 ---------------------------------------
 Symbolic Z-matrix:
 Charge = -1 Multiplicity = 1 in supermolecule
 Charge = -1 Multiplicity = 1 in fragment      1.
 Charge =  0 Multiplicity = 1 in fragment      2.
 Br(Fragment=1)        20.       20.       20. 
 O(Fragment=2)         18.14     21.62     21.96 
 H(Fragment=2)         17.24     21.52     21.66 
 H(Fragment=2)         18.66     21.12     21.33 
 O(Fragment=2)         21.44     20.7      22.96 
 H(Fragment=2)         21.51     21.65     22.9 
 H(Fragment=2)         21.24     20.42     22.06 
 O(Fragment=2)         19.63     17.7      22.5 
 H(Fragment=2)         18.86     17.65     23.07 
 H(Fragment=2)         19.42     18.38     21.86 
 O(Fragment=2)         22.77     21.63     18.45 
 H(Fragment=2)         23.28     21.89     19.22 
 H(Fragment=2)         21.97     21.24     18.81 
 O(Fragment=2)         18.78     16.67     19.75 
 H(Fragment=2)         19.12     16.3      20.57 
 H(Fragment=2)         19.2      17.53     19.68 
 O(Fragment=2)         19.59     22.26     17.32 
 H(Fragment=2)         19.13     21.45     17.07 
 H(Fragment=2)         19.79     22.14     18.25 
 O(Fragment=2)         22.71     18.7      17.38 
 H(Fragment=2)         22.67     17.91     17.91 
 H(Fragment=2)         22.3      19.38     17.91 
 O(Fragment=2)         17.16     17.87     17.99 
 H(Fragment=2)         17.53     18.76     18.06 
 H(Fragment=2)         17.63     17.37     18.66 
 O(Fragment=2)         21.38     24.47     19.58 
 H(Fragment=2)         20.43     24.54     19.67 
 H(Fragment=2)         21.54     23.54     19.4 
 O(Fragment=2)         23.62     18.79     22.63 
 H(Fragment=2)         23.15     18.04     23. 
 H(Fragment=2)         22.96     19.46     22.53 
 O(Fragment=2)         21.76     16.24     22.15 
 H(Fragment=2)         21.36     15.48     22.58 
 H(Fragment=2)         21.1      16.93     22.21 
 O(Fragment=2)         18.57     24.27     19.28 
 H(Fragment=2)         17.99     23.53     19.45 
 H(Fragment=2)         18.09     24.82     18.66 
 O(Fragment=2)         16.63     19.06     22.79 
 H(Fragment=2)         17.18     19.6      23.36 
 H(Fragment=2)         16.35     19.65     22.09 
 O(Fragment=2)         18.55     19.9      24.87 
 H(Fragment=2)         18.88     20.31     25.68 
 H(Fragment=2)         19.04     20.34     24.17 
 O(Fragment=2)         21.66     18.8      24.75 
 H(Fragment=2)         21.52     19.58     24.22 
 H(Fragment=2)         21.97     19.13     25.59 
 O(Fragment=2)         15.74     21.34     20.95 
 H(Fragment=2)         15.75     21.53     20.01 
 H(Fragment=2)         14.82     21.42     21.2 
 O(Fragment=2)         16.22     22.49     18.35 
 H(Fragment=2)         15.33     22.35     18.68 
 H(Fragment=2)         16.12     23.15     17.66 
 O(Fragment=2)         21.3      23.86     15.77 
 H(Fragment=2)         21.42     23.19     16.45 
 H(Fragment=2)         21.99     23.68     15.14 
 O(Fragment=2)         21.42     23.59     23.28 
 H(Fragment=2)         20.49     23.79     23.41 
 H(Fragment=2)         21.82     24.44     23.09 
 O(Fragment=2)         18.37     24.18     23.34 
 H(Fragment=2)         17.75     23.66     22.84 
 H(Fragment=2)         18.51     23.68     24.14 
 O(Fragment=2)         22.71     15.64     18.43 
 H(Fragment=2)         22.12     15.23     17.79 
 H(Fragment=2)         23.56     15.23     18.28 
 O(Fragment=2)         25.14     20.1      17.03 
 H(Fragment=2)         24.35     19.6      16.8 
 H(Fragment=2)         25.64     20.13     16.21 
 O(Fragment=2)         18.57     22.94     14.57 
 H(Fragment=2)         19.03     22.76     15.39 
 H(Fragment=2)         19.19     23.47     14.06 
 O(Fragment=2)         25.88     18.8      20.79 
 H(Fragment=2)         25.94     17.85     20.7 
 H(Fragment=2)         25.19     18.93     21.44 
 O(Fragment=2)         18.87     14.3      17.69 
 H(Fragment=2)         18.92     14.81     18.51 
 H(Fragment=2)         17.94     14.27     17.49 
 O(Fragment=2)         14.87     16.79     21.63 
 H(Fragment=2)         15.41     17.49     22.01 
 H(Fragment=2)         14.       17.18     21.56 
 O(Fragment=2)         25.63     21.39     19.33 
 H(Fragment=2)         25.65     20.56     19.8 
 H(Fragment=2)         25.64     21.14     18.41 
 O(Fragment=2)         17.91     16.56     15.26 
 H(Fragment=2)         17.5      16.65     16.12 
 H(Fragment=2)         17.95     17.46     14.93 
 O(Fragment=2)         20.21     16.22     25.45 
 H(Fragment=2)         20.57     16.93     24.93 
 H(Fragment=2)         19.26     16.36     25.42 
 O(Fragment=2)         24.42     23.73     17.01 
 H(Fragment=2)         23.95     23.63     16.18 
 H(Fragment=2)         24.43     22.86     17.39 
 O(Fragment=2)         18.69     26.39     21.48 
 H(Fragment=2)         18.54     25.88     22.28 
 H(Fragment=2)         18.8      25.73     20.79 
 O(Fragment=2)         25.64     17.15     17.64 
 H(Fragment=2)         25.13     17.96     17.72 
 H(Fragment=2)         26.52     17.38     17.92 
 O(Fragment=2)         22.92     17.36     14.6 
 H(Fragment=2)         22.04     17.06     14.81 
 H(Fragment=2)         23.28     17.64     15.44 
 O(Fragment=2)         14.39     17.19     17.03 
 H(Fragment=2)         15.17     17.18     17.58 
 H(Fragment=2)         13.67     16.97     17.63 
 O(Fragment=2)         23.95     14.85     22.69 
 H(Fragment=2)         23.47     14.3      23.31 
 H(Fragment=2)         23.38     15.59     22.53 
 O(Fragment=2)         20.6      15.88     14.71 
 H(Fragment=2)         19.83     16.06     15.26 
 H(Fragment=2)         20.29     16.05     13.82 
 O(Fragment=2)         18.93     18.85     13.87 
 H(Fragment=2)         18.48     19.68     13.7 
 H(Fragment=2)         19.86     19.07     13.83 
 O(Fragment=2)         23.81     23.14     24.98 
 H(Fragment=2)         23.95     22.19     24.99 
 H(Fragment=2)         23.12     23.27     24.33 
 O(Fragment=2)         18.76     25.28     16.13 
 H(Fragment=2)         18.02     24.83     15.72 
 H(Fragment=2)         19.52     24.75     15.9 
 O(Fragment=2)         21.97     26.93     20.4 
 H(Fragment=2)         21.22     27.33     19.96 
 H(Fragment=2)         21.97     26.02     20.12 
 O(Fragment=2)         15.47     21.13     24.82 
 H(Fragment=2)         16.17     20.51     25.05 
 H(Fragment=2)         14.69     20.58     24.74 
 O(Fragment=2)         17.62     16.53     25.16 
 H(Fragment=2)         17.06     17.3      25.07 
 H(Fragment=2)         17.02     15.79     25.07 
 O(Fragment=2)         23.21     26.05     17.38 
 H(Fragment=2)         23.89     25.39     17.31 
 H(Fragment=2)         22.47     25.59     17.77 
 O(Fragment=2)         15.47     21.11     15.06 
 H(Fragment=2)         16.22     21.7      14.98 
 H(Fragment=2)         15.67     20.38     14.47 
 O(Fragment=2)         21.54     19.79     13.36 
 H(Fragment=2)         22.34     19.73     13.9 
 H(Fragment=2)         21.76     20.43     12.69 
 O(Fragment=2)         21.53     13.94     16.73 
 H(Fragment=2)         21.64     14.5      15.97 
 H(Fragment=2)         20.65     14.13     17.05 
 O(Fragment=2)         22.74     13.29     20.49 
 H(Fragment=2)         23.26     13.48     21.27 
 H(Fragment=2)         22.9      14.04     19.91 
 O(Fragment=2)         19.33     13.44     20.97 
 H(Fragment=2)         19.52     13.66     21.88 
 H(Fragment=2)         20.01     12.8      20.73 
 O(Fragment=2)         24.9      20.63     24.98 
 H(Fragment=2)         24.35     20.12     25.57 
 H(Fragment=2)         25.22     20.       24.34 
 O(Fragment=2)         14.93     23.59     23.74 
 H(Fragment=2)         15.19     22.69     23.97 
 H(Fragment=2)         15.05     24.09     24.55 
 O(Fragment=2)         13.64     19.73     16.6 
 H(Fragment=2)         14.32     20.13     16.05 
 H(Fragment=2)         14.       18.87     16.84 
 O(Fragment=2)         17.66     21.1      12.98 
 H(Fragment=2)         17.16     21.52     12.29 
 H(Fragment=2)         17.71     21.76     13.68 
 O(Fragment=2)         13.6      22.25     18.37 
 H(Fragment=2)         12.8      22.48     18.84 
 H(Fragment=2)         13.42     21.37     18.02 
 O(Fragment=2)         20.11     13.69     23.55 
 H(Fragment=2)         19.97     14.39     24.19 
 H(Fragment=2)         20.31     12.92     24.07 
 O(Fragment=2)         24.54     17.67     25.88 
 H(Fragment=2)         23.64     17.93     25.71 
 H(Fragment=2)         24.66     16.87     25.37 
 O(Fragment=2)         14.25     25.2      21.1 
 H(Fragment=2)         14.6      24.4      21.48 
 H(Fragment=2)         14.63     25.91     21.62 
 O(Fragment=2)         15.65     18.35     14.38 
 H(Fragment=2)         16.41     17.78     14.26 
 H(Fragment=2)         15.12     17.91     15.04 
 O(Fragment=2)         14.88     23.71     16.01 
 H(Fragment=2)         14.26     23.87     16.72 
 H(Fragment=2)         14.82     22.77     15.84 
 O(Fragment=2)         25.11     14.56     18.3 
 H(Fragment=2)         25.93     14.13     18.58 
 H(Fragment=2)         25.34     15.49     18.25 
 O(Fragment=2)         19.68     19.81     27.42 
 H(Fragment=2)         19.72     20.5      28.08 
 H(Fragment=2)         20.59     19.53     27.3 
 O(Fragment=2)         15.58     13.82     23.01 
 H(Fragment=2)         16.04     13.31     22.35 
 H(Fragment=2)         15.65     14.73     22.71 
 O(Fragment=2)         23.87     22.9      14.42 
 H(Fragment=2)         23.64     22.16     13.86 
 H(Fragment=2)         24.37     23.49     13.86 
 O(Fragment=2)         12.92     21.49     21.58 
 H(Fragment=2)         12.87     21.94     22.42 
 H(Fragment=2)         12.16     20.91     21.58 
 O(Fragment=2)         16.73     12.83     20.73 
 H(Fragment=2)         16.65     11.88     20.83 
 H(Fragment=2)         17.68     12.99     20.73 
 O(Fragment=2)         17.77     17.91     27.62 
 H(Fragment=2)         18.36     18.53     27.18 
 H(Fragment=2)         18.14     17.05     27.42 
 O(Fragment=2)         22.86     19.75     26.99 
 H(Fragment=2)         23.37     19.34     27.69 
 H(Fragment=2)         22.61     20.6      27.35 
 O(Fragment=2)         16.2      22.85     26.84 
 H(Fragment=2)         16.01     22.64     25.92 
 H(Fragment=2)         15.94     22.07     27.33 
 O(Fragment=2)         14.25     14.14     20.36 
 H(Fragment=2)         15.1      13.73     20.47 
 H(Fragment=2)         14.3      14.95     20.87 
 O(Fragment=2)         18.1      27.39     18.75 
 H(Fragment=2)         17.2      27.46     18.46 
 H(Fragment=2)         18.04     27.44     19.71 
 O(Fragment=2)         28.39     21.82     19.05 
 H(Fragment=2)         27.47     21.81     19.31 
 H(Fragment=2)         28.45     22.47     18.35 
 O(Fragment=2)         28.31     19.94     21.77 
 H(Fragment=2)         27.63     19.67     21.15 
 H(Fragment=2)         28.11     19.46     22.57 
 O(Fragment=2)         13.77     18.83     24.43 
 H(Fragment=2)         14.04     17.92     24.57 
 H(Fragment=2)         12.93     18.9      24.87 
 O(Fragment=2)         12.33     18.18     21.76 
 H(Fragment=2)         11.7      18.87     21.54 
 H(Fragment=2)         12.81     18.52     22.52 
 O(Fragment=2)         17.95     14.76     13.32 
 H(Fragment=2)         17.01     14.7      13.18 
 H(Fragment=2)         18.05     15.36     14.06 
 O(Fragment=2)         26.27     15.95     23.53 
 H(Fragment=2)         26.43     15.65     24.42 
 H(Fragment=2)         25.46     15.5      23.27 
 O(Fragment=2)         26.78     18.74     24.07 
 H(Fragment=2)         26.75     17.97     23.5 
 H(Fragment=2)         27.35     18.49     24.79 
 O(Fragment=2)         25.28     15.69     14.46 
 H(Fragment=2)         24.95     15.61     13.57 
 H(Fragment=2)         24.76     16.41     14.84 
 O(Fragment=2)         16.05     13.82     16.85 
 H(Fragment=2)         15.16     14.17     16.85 
 H(Fragment=2)         16.09     13.29     16.06 
 O(Fragment=2)         22.11     17.04     11.95 
 H(Fragment=2)         22.44     16.16     12.12 
 H(Fragment=2)         22.28     17.51     12.76 
 O(Fragment=2)         26.74     25.39     17.2 
 H(Fragment=2)         26.42     26.08     16.63 
 H(Fragment=2)         25.98     24.84     17.37 
 O(Fragment=2)         25.25     25.29     24.33 
 H(Fragment=2)         25.05     24.4      24.62 
 H(Fragment=2)         24.71     25.85     24.88 
 O(Fragment=2)         22.27     14.76     26.95 
 H(Fragment=2)         21.73     15.41     26.5 
 H(Fragment=2)         23.05     14.66     26.39 
 O(Fragment=2)         27.62     23.33     22.81 
 H(Fragment=2)         27.43     22.51     22.34 
 H(Fragment=2)         26.8      23.55     23.24 
 O(Fragment=2)         19.31     11.04     18.87 
 H(Fragment=2)         18.65     10.64     18.31 
 H(Fragment=2)         19.32     11.96     18.61 
 O(Fragment=2)         25.76     20.2      14.18 
 H(Fragment=2)         26.3      19.41     14.2 
 H(Fragment=2)         25.3      20.16     13.34 
 O(Fragment=2)         26.74     26.14     20.86 
 H(Fragment=2)         26.8      26.17     21.82 
 H(Fragment=2)         26.11     25.44     20.68 
 O(Fragment=2)         16.62     26.97     15.66 
 H(Fragment=2)         17.43     26.93     16.18 
 H(Fragment=2)         15.99     27.41     16.24 
 O(Fragment=2)         12.1      15.9      19.74 
 H(Fragment=2)         12.41     16.56     20.35 
 H(Fragment=2)         12.69     15.15     19.87 
 O(Fragment=2)         28.45     19.62     17.47 
 H(Fragment=2)         28.       18.89     17.9 
 H(Fragment=2)         28.52     20.29     18.15 
 O(Fragment=2)         23.09     24.23     27.47 
 H(Fragment=2)         23.7      24.95     27.69 
 H(Fragment=2)         23.33     23.97     26.59 
 O(Fragment=2)         20.26     29.       22.13 
 H(Fragment=2)         19.82     28.15     22.03 
 H(Fragment=2)         21.19     28.78     22.2 
 O(Fragment=2)         20.35     24.31     12.79 
 H(Fragment=2)         20.97     25.01     12.99 
 H(Fragment=2)         20.23     24.36     11.84 
 O(Fragment=2)         13.85     25.97     18.47 
 H(Fragment=2)         13.91     25.77     19.4 
 H(Fragment=2)         12.92     25.9      18.26 
 O(Fragment=2)         19.26     27.33     14.36 
 H(Fragment=2)         18.88     28.19     14.51 
 H(Fragment=2)         19.22     26.9      15.21 
 O(Fragment=2)         18.94     15.35     27.86 
 H(Fragment=2)         18.79     14.41     27.71 
 H(Fragment=2)         19.6      15.59     27.2 
 O(Fragment=2)         20.34     27.04     24.68 
 H(Fragment=2)         20.28     26.63     25.55 
 H(Fragment=2)         19.48     27.45     24.55 
 O(Fragment=2)         20.13     12.06     14.98 
 H(Fragment=2)         20.19     11.41     15.68 
 H(Fragment=2)         20.46     12.87     15.38 
 O(Fragment=2)         15.49     20.52     27.84 
 H(Fragment=2)         15.08     20.25     28.66 
 H(Fragment=2)         16.15     19.85     27.67 
 O(Fragment=2)         23.05     21.8      12.17 
 H(Fragment=2)         22.68     22.33     11.47 
 H(Fragment=2)         23.61     21.17     11.72 
 O(Fragment=2)         21.53     21.97     28.25 
 H(Fragment=2)         21.1      22.03     29.1 
 H(Fragment=2)         22.09     22.75     28.2 
 O(Fragment=2)         24.2      11.7      18.19 
 H(Fragment=2)         23.35     11.31     18.38 
 H(Fragment=2)         24.17     12.56     18.62 
 O(Fragment=2)         14.47     16.46     25.63 
 H(Fragment=2)         14.95     16.48     26.46 
 H(Fragment=2)         13.95     15.66     25.68 
 O(Fragment=2)         26.7      22.66     26.15 
 H(Fragment=2)         27.39     22.17     26.6 
 H(Fragment=2)         26.13     21.98     25.78 
 O(Fragment=2)         24.32     28.46     18.71 
 H(Fragment=2)         24.86     28.54     17.92 
 H(Fragment=2)         23.74     27.72     18.53 
 O(Fragment=2)         21.62     10.86     21.56 
 H(Fragment=2)         22.09     11.64     21.26 
 H(Fragment=2)         22.13     10.54     22.31 
 O(Fragment=2)         18.23     19.49     10.68 
 H(Fragment=2)         17.35     19.22     10.41 
 H(Fragment=2)         18.4      18.98     11.47 
 O(Fragment=2)         11.36     21.08     16.37 
 H(Fragment=2)         12.01     20.38     16.44 
 H(Fragment=2)         11.73     21.7      15.74 
 O(Fragment=2)         28.19     17.24     18.59 
 H(Fragment=2)         28.68     16.64     18.02 
 H(Fragment=2)         28.32     16.89     19.47 
 O(Fragment=2)         25.5      13.43     15.83 
 H(Fragment=2)         25.35     14.19     15.26 
 H(Fragment=2)         25.14     13.7      16.67 
 O(Fragment=2)         28.14     15.67     21.46 
 H(Fragment=2)         28.68     16.28     21.96 
 H(Fragment=2)         27.34     15.58     21.98 
 O(Fragment=2)         23.08     28.68     22.68 
 H(Fragment=2)         23.7      29.35     22.39 
 H(Fragment=2)         23.13     27.99     22.02 
 O(Fragment=2)         14.93     27.13     22.92 
 H(Fragment=2)         15.29     26.55     23.59 
 H(Fragment=2)         14.66     27.92     23.4 
 O(Fragment=2)         20.88     19.89     10.48 
 H(Fragment=2)         21.02     19.33     11.25 
 H(Fragment=2)         20.03     20.3      10.62 
 O(Fragment=2)         27.84     15.33     16.55 
 H(Fragment=2)         27.28     16.03     16.9 
 H(Fragment=2)         27.33     14.94     15.84 
 O(Fragment=2)         23.67     27.76     15.29 
 H(Fragment=2)         23.28     27.16     15.92 
 H(Fragment=2)         24.42     28.13     15.75 
 O(Fragment=2)         20.2      29.57     19.19 
 H(Fragment=2)         20.09     29.74     20.13 
 H(Fragment=2)         19.56     28.88     18.99 
 O(Fragment=2)         27.18     22.27     14.28 
 H(Fragment=2)         26.63     21.49     14.14 
 H(Fragment=2)         26.64     23.       13.97 
 O(Fragment=2)         14.71     24.76     13.41 
 H(Fragment=2)         15.46     24.38     12.96 
 H(Fragment=2)         14.98     24.82     14.32 
 O(Fragment=2)         15.42     25.58     25.42 
 H(Fragment=2)         14.58     25.92     25.74 
 H(Fragment=2)         16.07     25.98     25.99 
 O(Fragment=2)         23.21     12.82     24.45 
 H(Fragment=2)         23.54     12.16     23.84 
 H(Fragment=2)         22.3      12.55     24.61 
 O(Fragment=2)         24.91     14.88     25.65 
 H(Fragment=2)         24.86     13.93     25.56 
 H(Fragment=2)         25.6      15.03     26.29 
 O(Fragment=2)         12.13     24.74     23.97 
 H(Fragment=2)         12.97     24.29     24. 
 H(Fragment=2)         12.22     25.45     24.61 
 O(Fragment=2)         13.99     19.12     11.93 
 H(Fragment=2)         14.65     19.28     12.6 
 H(Fragment=2)         13.88     18.17     11.91 
 O(Fragment=2)         20.64     25.75     27.21 
 H(Fragment=2)         21.34     25.22     27.58 
 H(Fragment=2)         19.84     25.3      27.47 
 O(Fragment=2)         18.61     24.43     28.38 
 H(Fragment=2)         17.99     23.74     28.12 
 H(Fragment=2)         18.99     24.1      29.2 
 O(Fragment=2)         13.03     14.11     16.86 
 H(Fragment=2)         13.04     14.43     17.76 
 H(Fragment=2)         12.12     13.84     16.71 
 O(Fragment=2)         15.62     28.15     17.9 
 H(Fragment=2)         14.89     27.52     17.87 
 H(Fragment=2)         15.52     28.58     18.75 
 O(Fragment=2)         17.12     26.18     13.08 
 H(Fragment=2)         16.34     26.1      13.63 
 H(Fragment=2)         17.79     26.5      13.67 
 
 NAtoms=    385 NQM=      385 NQMF=       0 NMMI=      0 NMMIF=      0
                NMic=       0 NMicF=      0.
                    Isotopes and Nuclear Properties:
 (Nuclear quadrupole moments (NQMom) in fm**2, nuclear magnetic moments (NMagM)
  in nuclear magnetons)

  Atom         1           2           3           4           5           6           7           8           9          10
 IAtWgt=          79          16           1           1          16           1           1          16           1           1
 AtmWgt=  78.9183361  15.9949146   1.0078250   1.0078250  15.9949146   1.0078250   1.0078250  15.9949146   1.0078250   1.0078250
 NucSpn=           3           0           1           1           0           1           1           0           1           1
 AtZEff=   0.0000000   0.0000000   0.0000000   0.0000000   0.0000000   0.0000000   0.0000000   0.0000000   0.0000000   0.0000000
 NQMom=   31.3000000   0.0000000   0.0000000   0.0000000   0.0000000   0.0000000   0.0000000   0.0000000   0.0000000   0.0000000
 NMagM=    2.1063990   0.0000000   2.7928460   2.7928460   0.0000000   2.7928460   2.7928460   0.0000000   2.7928460   2.7928460
 AtZNuc=  35.0000000   8.0000000   1.0000000   1.0000000   8.0000000   1.0000000   1.0000000   8.0000000   1.0000000   1.0000000

  Atom        11          12          13          14          15          16          17          18          19          20
 IAtWgt=          16           1           1          16           1           1          16           1           1          16
 AtmWgt=  15.9949146   1.0078250   1.0078250  15.9949146   1.0078250   1.0078250  15.9949146   1.0078250   1.0078250  15.9949146
 NucSpn=           0           1           1           0           1           1           0           1           1           0
 AtZEff=   0.0000000   0.0000000   0.0000000   0.0000000   0.0000000   0.0000000   0.0000000   0.0000000   0.0000000   0.0000000
 NQMom=    0.0000000   0.0000000   0.0000000   0.0000000   0.0000000   0.0000000   0.0000000   0.0000000   0.0000000   0.0000000
 NMagM=    0.0000000   2.7928460   2.7928460   0.0000000   2.7928460   2.7928460   0.0000000   2.7928460   2.7928460   0.0000000
 AtZNuc=   8.0000000   1.0000000   1.0000000   8.0000000   1.0000000   1.0000000   8.0000000   1.0000000   1.0000000   8.0000000

  Atom        21          22          23          24          25          26          27          28          29          30
 IAtWgt=           1           1          16           1           1          16           1           1          16           1
 AtmWgt=   1.0078250   1.0078250  15.9949146   1.0078250   1.0078250  15.9949146   1.0078250   1.0078250  15.9949146   1.0078250
 NucSpn=           1           1           0           1           1           0           1           1           0           1
 AtZEff=   0.0000000   0.0000000   0.0000000   0.0000000   0.0000000   0.0000000   0.0000000   0.0000000   0.0000000   0.0000000
 NQMom=    0.0000000   0.0000000   0.0000000   0.0000000   0.0000000   0.0000000   0.0000000   0.0000000   0.0000000   0.0000000
 NMagM=    2.7928460   2.7928460   0.0000000   2.7928460   2.7928460   0.0000000   2.7928460   2.7928460   0.0000000   2.7928460
 AtZNuc=   1.0000000   1.0000000   8.0000000   1.0000000   1.0000000   8.0000000   1.0000000   1.0000000   8.0000000   1.0000000

  Atom        31          32          33          34          35          36          37          38          39          40
 IAtWgt=           1          16           1           1          16           1           1          16           1           1
 AtmWgt=   1.0078250  15.9949146   1.0078250   1.0078250  15.9949146   1.0078250   1.0078250  15.9949146   1.0078250   1.0078250
 NucSpn=           1           0           1           1           0           1           1           0           1           1
 AtZEff=   0.0000000   0.0000000   0.0000000   0.0000000   0.0000000   0.0000000   0.0000000   0.0000000   0.0000000   0.0000000
 NQMom=    0.0000000   0.0000000   0.0000000   0.0000000   0.0000000   0.0000000   0.0000000   0.0000000   0.0000000   0.0000000
 NMagM=    2.7928460   0.0000000   2.7928460   2.7928460   0.0000000   2.7928460   2.7928460   0.0000000   2.7928460   2.7928460
 AtZNuc=   1.0000000   8.0000000   1.0000000   1.0000000   8.0000000   1.0000000   1.0000000   8.0000000   1.0000000   1.0000000

  Atom        41          42          43          44          45          46          47          48          49          50
 IAtWgt=          16           1           1          16           1           1          16           1           1          16
 AtmWgt=  15.9949146   1.0078250   1.0078250  15.9949146   1.0078250   1.0078250  15.9949146   1.0078250   1.0078250  15.9949146
 NucSpn=           0           1           1           0           1           1           0           1           1           0
 AtZEff=   0.0000000   0.0000000   0.0000000   0.0000000   0.0000000   0.0000000   0.0000000   0.0000000   0.0000000   0.0000000
 NQMom=    0.0000000   0.0000000   0.0000000   0.0000000   0.0000000   0.0000000   0.0000000   0.0000000   0.0000000   0.0000000
 NMagM=    0.0000000   2.7928460   2.7928460   0.0000000   2.7928460   2.7928460   0.0000000   2.7928460   2.7928460   0.0000000
 AtZNuc=   8.0000000   1.0000000   1.0000000   8.0000000   1.0000000   1.0000000   8.0000000   1.0000000   1.0000000   8.0000000

  Atom        51          52          53          54          55          56          57          58          59          60
 IAtWgt=           1           1          16           1           1          16           1           1          16           1
 AtmWgt=   1.0078250   1.0078250  15.9949146   1.0078250   1.0078250  15.9949146   1.0078250   1.0078250  15.9949146   1.0078250
 NucSpn=           1           1           0           1           1           0           1           1           0           1
 AtZEff=   0.0000000   0.0000000   0.0000000   0.0000000   0.0000000   0.0000000   0.0000000   0.0000000   0.0000000   0.0000000
 NQMom=    0.0000000   0.0000000   0.0000000   0.0000000   0.0000000   0.0000000   0.0000000   0.0000000   0.0000000   0.0000000
 NMagM=    2.7928460   2.7928460   0.0000000   2.7928460   2.7928460   0.0000000   2.7928460   2.7928460   0.0000000   2.7928460
 AtZNuc=   1.0000000   1.0000000   8.0000000   1.0000000   1.0000000   8.0000000   1.0000000   1.0000000   8.0000000   1.0000000

  Atom        61          62          63          64          65          66          67          68          69          70
 IAtWgt=           1          16           1           1          16           1           1          16           1           1
 AtmWgt=   1.0078250  15.9949146   1.0078250   1.0078250  15.9949146   1.0078250   1.0078250  15.9949146   1.0078250   1.0078250
 NucSpn=           1           0           1           1           0           1           1           0           1           1
 AtZEff=   0.0000000   0.0000000   0.0000000   0.0000000   0.0000000   0.0000000   0.0000000   0.0000000   0.0000000   0.0000000
 NQMom=    0.0000000   0.0000000   0.0000000   0.0000000   0.0000000   0.0000000   0.0000000   0.0000000   0.0000000   0.0000000
 NMagM=    2.7928460   0.0000000   2.7928460   2.7928460   0.0000000   2.7928460   2.7928460   0.0000000   2.7928460   2.7928460
 AtZNuc=   1.0000000   8.0000000   1.0000000   1.0000000   8.0000000   1.0000000   1.0000000   8.0000000   1.0000000   1.0000000

  Atom        71          72          73          74          75          76          77          78          79          80
 IAtWgt=          16           1           1          16           1           1          16           1           1          16
 AtmWgt=  15.9949146   1.0078250   1.0078250  15.9949146   1.0078250   1.0078250  15.9949146   1.0078250   1.0078250  15.9949146
 NucSpn=           0           1           1           0           1           1           0           1           1           0
 AtZEff=   0.0000000   0.0000000   0.0000000   0.0000000   0.0000000   0.0000000   0.0000000   0.0000000   0.0000000   0.0000000
 NQMom=    0.0000000   0.0000000   0.0000000   0.0000000   0.0000000   0.0000000   0.0000000   0.0000000   0.0000000   0.0000000
 NMagM=    0.0000000   2.7928460   2.7928460   0.0000000   2.7928460   2.7928460   0.0000000   2.7928460   2.7928460   0.0000000
 AtZNuc=   8.0000000   1.0000000   1.0000000   8.0000000   1.0000000   1.0000000   8.0000000   1.0000000   1.0000000   8.0000000

  Atom        81          82          83          84          85          86          87          88          89          90
 IAtWgt=           1           1          16           1           1          16           1           1          16           1
 AtmWgt=   1.0078250   1.0078250  15.9949146   1.0078250   1.0078250  15.9949146   1.0078250   1.0078250  15.9949146   1.0078250
 NucSpn=           1           1           0           1           1           0           1           1           0           1
 AtZEff=   0.0000000   0.0000000   0.0000000   0.0000000   0.0000000   0.0000000   0.0000000   0.0000000   0.0000000   0.0000000
 NQMom=    0.0000000   0.0000000   0.0000000   0.0000000   0.0000000   0.0000000   0.0000000   0.0000000   0.0000000   0.0000000
 NMagM=    2.7928460   2.7928460   0.0000000   2.7928460   2.7928460   0.0000000   2.7928460   2.7928460   0.0000000   2.7928460
 AtZNuc=   1.0000000   1.0000000   8.0000000   1.0000000   1.0000000   8.0000000   1.0000000   1.0000000   8.0000000   1.0000000

  Atom        91          92          93          94          95          96          97          98          99         100
 IAtWgt=           1          16           1           1          16           1           1          16           1           1
 AtmWgt=   1.0078250  15.9949146   1.0078250   1.0078250  15.9949146   1.0078250   1.0078250  15.9949146   1.0078250   1.0078250
 NucSpn=           1           0           1           1           0           1           1           0           1           1
 AtZEff=   0.0000000   0.0000000   0.0000000   0.0000000   0.0000000   0.0000000   0.0000000   0.0000000   0.0000000   0.0000000
 NQMom=    0.0000000   0.0000000   0.0000000   0.0000000   0.0000000   0.0000000   0.0000000   0.0000000   0.0000000   0.0000000
 NMagM=    2.7928460   0.0000000   2.7928460   2.7928460   0.0000000   2.7928460   2.7928460   0.0000000   2.7928460   2.7928460
 AtZNuc=   1.0000000   8.0000000   1.0000000   1.0000000   8.0000000   1.0000000   1.0000000   8.0000000   1.0000000   1.0000000

  Atom       101         102         103         104         105         106         107         108         109         110
 IAtWgt=          16           1           1          16           1           1          16           1           1          16
 AtmWgt=  15.9949146   1.0078250   1.0078250  15.9949146   1.0078250   1.0078250  15.9949146   1.0078250   1.0078250  15.9949146
 NucSpn=           0           1           1           0           1           1           0           1           1           0
 AtZEff=   0.0000000   0.0000000   0.0000000   0.0000000   0.0000000   0.0000000   0.0000000   0.0000000   0.0000000   0.0000000
 NQMom=    0.0000000   0.0000000   0.0000000   0.0000000   0.0000000   0.0000000   0.0000000   0.0000000   0.0000000   0.0000000
 NMagM=    0.0000000   2.7928460   2.7928460   0.0000000   2.7928460   2.7928460   0.0000000   2.7928460   2.7928460   0.0000000
 AtZNuc=   8.0000000   1.0000000   1.0000000   8.0000000   1.0000000   1.0000000   8.0000000   1.0000000   1.0000000   8.0000000

  Atom       111         112         113         114         115         116         117         118         119         120
 IAtWgt=           1           1          16           1           1          16           1           1          16           1
 AtmWgt=   1.0078250   1.0078250  15.9949146   1.0078250   1.0078250  15.9949146   1.0078250   1.0078250  15.9949146   1.0078250
 NucSpn=           1           1           0           1           1           0           1           1           0           1
 AtZEff=   0.0000000   0.0000000   0.0000000   0.0000000   0.0000000   0.0000000   0.0000000   0.0000000   0.0000000   0.0000000
 NQMom=    0.0000000   0.0000000   0.0000000   0.0000000   0.0000000   0.0000000   0.0000000   0.0000000   0.0000000   0.0000000
 NMagM=    2.7928460   2.7928460   0.0000000   2.7928460   2.7928460   0.0000000   2.7928460   2.7928460   0.0000000   2.7928460
 AtZNuc=   1.0000000   1.0000000   8.0000000   1.0000000   1.0000000   8.0000000   1.0000000   1.0000000   8.0000000   1.0000000

  Atom       121         122         123         124         125         126         127         128         129         130
 IAtWgt=           1          16           1           1          16           1           1          16           1           1
 AtmWgt=   1.0078250  15.9949146   1.0078250   1.0078250  15.9949146   1.0078250   1.0078250  15.9949146   1.0078250   1.0078250
 NucSpn=           1           0           1           1           0           1           1           0           1           1
 AtZEff=   0.0000000   0.0000000   0.0000000   0.0000000   0.0000000   0.0000000   0.0000000   0.0000000   0.0000000   0.0000000
 NQMom=    0.0000000   0.0000000   0.0000000   0.0000000   0.0000000   0.0000000   0.0000000   0.0000000   0.0000000   0.0000000
 NMagM=    2.7928460   0.0000000   2.7928460   2.7928460   0.0000000   2.7928460   2.7928460   0.0000000   2.7928460   2.7928460
 AtZNuc=   1.0000000   8.0000000   1.0000000   1.0000000   8.0000000   1.0000000   1.0000000   8.0000000   1.0000000   1.0000000

  Atom       131         132         133         134         135         136         137         138         139         140
 IAtWgt=          16           1           1          16           1           1          16           1           1          16
 AtmWgt=  15.9949146   1.0078250   1.0078250  15.9949146   1.0078250   1.0078250  15.9949146   1.0078250   1.0078250  15.9949146
 NucSpn=           0           1           1           0           1           1           0           1           1           0
 AtZEff=   0.0000000   0.0000000   0.0000000   0.0000000   0.0000000   0.0000000   0.0000000   0.0000000   0.0000000   0.0000000
 NQMom=    0.0000000   0.0000000   0.0000000   0.0000000   0.0000000   0.0000000   0.0000000   0.0000000   0.0000000   0.0000000
 NMagM=    0.0000000   2.7928460   2.7928460   0.0000000   2.7928460   2.7928460   0.0000000   2.7928460   2.7928460   0.0000000
 AtZNuc=   8.0000000   1.0000000   1.0000000   8.0000000   1.0000000   1.0000000   8.0000000   1.0000000   1.0000000   8.0000000

  Atom       141         142         143         144         145         146         147         148         149         150
 IAtWgt=           1           1          16           1           1          16           1           1          16           1
 AtmWgt=   1.0078250   1.0078250  15.9949146   1.0078250   1.0078250  15.9949146   1.0078250   1.0078250  15.9949146   1.0078250
 NucSpn=           1           1           0           1           1           0           1           1           0           1
 AtZEff=   0.0000000   0.0000000   0.0000000   0.0000000   0.0000000   0.0000000   0.0000000   0.0000000   0.0000000   0.0000000
 NQMom=    0.0000000   0.0000000   0.0000000   0.0000000   0.0000000   0.0000000   0.0000000   0.0000000   0.0000000   0.0000000
 NMagM=    2.7928460   2.7928460   0.0000000   2.7928460   2.7928460   0.0000000   2.7928460   2.7928460   0.0000000   2.7928460
 AtZNuc=   1.0000000   1.0000000   8.0000000   1.0000000   1.0000000   8.0000000   1.0000000   1.0000000   8.0000000   1.0000000

  Atom       151         152         153         154         155         156         157         158         159         160
 IAtWgt=           1          16           1           1          16           1           1          16           1           1
 AtmWgt=   1.0078250  15.9949146   1.0078250   1.0078250  15.9949146   1.0078250   1.0078250  15.9949146   1.0078250   1.0078250
 NucSpn=           1           0           1           1           0           1           1           0           1           1
 AtZEff=   0.0000000   0.0000000   0.0000000   0.0000000   0.0000000   0.0000000   0.0000000   0.0000000   0.0000000   0.0000000
 NQMom=    0.0000000   0.0000000   0.0000000   0.0000000   0.0000000   0.0000000   0.0000000   0.0000000   0.0000000   0.0000000
 NMagM=    2.7928460   0.0000000   2.7928460   2.7928460   0.0000000   2.7928460   2.7928460   0.0000000   2.7928460   2.7928460
 AtZNuc=   1.0000000   8.0000000   1.0000000   1.0000000   8.0000000   1.0000000   1.0000000   8.0000000   1.0000000   1.0000000

  Atom       161         162         163         164         165         166         167         168         169         170
 IAtWgt=          16           1           1          16           1           1          16           1           1          16
 AtmWgt=  15.9949146   1.0078250   1.0078250  15.9949146   1.0078250   1.0078250  15.9949146   1.0078250   1.0078250  15.9949146
 NucSpn=           0           1           1           0           1           1           0           1           1           0
 AtZEff=   0.0000000   0.0000000   0.0000000   0.0000000   0.0000000   0.0000000   0.0000000   0.0000000   0.0000000   0.0000000
 NQMom=    0.0000000   0.0000000   0.0000000   0.0000000   0.0000000   0.0000000   0.0000000   0.0000000   0.0000000   0.0000000
 NMagM=    0.0000000   2.7928460   2.7928460   0.0000000   2.7928460   2.7928460   0.0000000   2.7928460   2.7928460   0.0000000
 AtZNuc=   8.0000000   1.0000000   1.0000000   8.0000000   1.0000000   1.0000000   8.0000000   1.0000000   1.0000000   8.0000000

  Atom       171         172         173         174         175         176         177         178         179         180
 IAtWgt=           1           1          16           1           1          16           1           1          16           1
 AtmWgt=   1.0078250   1.0078250  15.9949146   1.0078250   1.0078250  15.9949146   1.0078250   1.0078250  15.9949146   1.0078250
 NucSpn=           1           1           0           1           1           0           1           1           0           1
 AtZEff=   0.0000000   0.0000000   0.0000000   0.0000000   0.0000000   0.0000000   0.0000000   0.0000000   0.0000000   0.0000000
 NQMom=    0.0000000   0.0000000   0.0000000   0.0000000   0.0000000   0.0000000   0.0000000   0.0000000   0.0000000   0.0000000
 NMagM=    2.7928460   2.7928460   0.0000000   2.7928460   2.7928460   0.0000000   2.7928460   2.7928460   0.0000000   2.7928460
 AtZNuc=   1.0000000   1.0000000   8.0000000   1.0000000   1.0000000   8.0000000   1.0000000   1.0000000   8.0000000   1.0000000

  Atom       181         182         183         184         185         186         187         188         189         190
 IAtWgt=           1          16           1           1          16           1           1          16           1           1
 AtmWgt=   1.0078250  15.9949146   1.0078250   1.0078250  15.9949146   1.0078250   1.0078250  15.9949146   1.0078250   1.0078250
 NucSpn=           1           0           1           1           0           1           1           0           1           1
 AtZEff=   0.0000000   0.0000000   0.0000000   0.0000000   0.0000000   0.0000000   0.0000000   0.0000000   0.0000000   0.0000000
 NQMom=    0.0000000   0.0000000   0.0000000   0.0000000   0.0000000   0.0000000   0.0000000   0.0000000   0.0000000   0.0000000
 NMagM=    2.7928460   0.0000000   2.7928460   2.7928460   0.0000000   2.7928460   2.7928460   0.0000000   2.7928460   2.7928460
 AtZNuc=   1.0000000   8.0000000   1.0000000   1.0000000   8.0000000   1.0000000   1.0000000   8.0000000   1.0000000   1.0000000

  Atom       191         192         193         194         195         196         197         198         199         200
 IAtWgt=          16           1           1          16           1           1          16           1           1          16
 AtmWgt=  15.9949146   1.0078250   1.0078250  15.9949146   1.0078250   1.0078250  15.9949146   1.0078250   1.0078250  15.9949146
 NucSpn=           0           1           1           0           1           1           0           1           1           0
 AtZEff=   0.0000000   0.0000000   0.0000000   0.0000000   0.0000000   0.0000000   0.0000000   0.0000000   0.0000000   0.0000000
 NQMom=    0.0000000   0.0000000   0.0000000   0.0000000   0.0000000   0.0000000   0.0000000   0.0000000   0.0000000   0.0000000
 NMagM=    0.0000000   2.7928460   2.7928460   0.0000000   2.7928460   2.7928460   0.0000000   2.7928460   2.7928460   0.0000000
 AtZNuc=   8.0000000   1.0000000   1.0000000   8.0000000   1.0000000   1.0000000   8.0000000   1.0000000   1.0000000   8.0000000

  Atom       201         202         203         204         205         206         207         208         209         210
 IAtWgt=           1           1          16           1           1          16           1           1          16           1
 AtmWgt=   1.0078250   1.0078250  15.9949146   1.0078250   1.0078250  15.9949146   1.0078250   1.0078250  15.9949146   1.0078250
 NucSpn=           1           1           0           1           1           0           1           1           0           1
 AtZEff=   0.0000000   0.0000000   0.0000000   0.0000000   0.0000000   0.0000000   0.0000000   0.0000000   0.0000000   0.0000000
 NQMom=    0.0000000   0.0000000   0.0000000   0.0000000   0.0000000   0.0000000   0.0000000   0.0000000   0.0000000   0.0000000
 NMagM=    2.7928460   2.7928460   0.0000000   2.7928460   2.7928460   0.0000000   2.7928460   2.7928460   0.0000000   2.7928460
 AtZNuc=   1.0000000   1.0000000   8.0000000   1.0000000   1.0000000   8.0000000   1.0000000   1.0000000   8.0000000   1.0000000

  Atom       211         212         213         214         215         216         217         218         219         220
 IAtWgt=           1          16           1           1          16           1           1          16           1           1
 AtmWgt=   1.0078250  15.9949146   1.0078250   1.0078250  15.9949146   1.0078250   1.0078250  15.9949146   1.0078250   1.0078250
 NucSpn=           1           0           1           1           0           1           1           0           1           1
 AtZEff=   0.0000000   0.0000000   0.0000000   0.0000000   0.0000000   0.0000000   0.0000000   0.0000000   0.0000000   0.0000000
 NQMom=    0.0000000   0.0000000   0.0000000   0.0000000   0.0000000   0.0000000   0.0000000   0.0000000   0.0000000   0.0000000
 NMagM=    2.7928460   0.0000000   2.7928460   2.7928460   0.0000000   2.7928460   2.7928460   0.0000000   2.7928460   2.7928460
 AtZNuc=   1.0000000   8.0000000   1.0000000   1.0000000   8.0000000   1.0000000   1.0000000   8.0000000   1.0000000   1.0000000

  Atom       221         222         223         224         225         226         227         228         229         230
 IAtWgt=          16           1           1          16           1           1          16           1           1          16
 AtmWgt=  15.9949146   1.0078250   1.0078250  15.9949146   1.0078250   1.0078250  15.9949146   1.0078250   1.0078250  15.9949146
 NucSpn=           0           1           1           0           1           1           0           1           1           0
 AtZEff=   0.0000000   0.0000000   0.0000000   0.0000000   0.0000000   0.0000000   0.0000000   0.0000000   0.0000000   0.0000000
 NQMom=    0.0000000   0.0000000   0.0000000   0.0000000   0.0000000   0.0000000   0.0000000   0.0000000   0.0000000   0.0000000
 NMagM=    0.0000000   2.7928460   2.7928460   0.0000000   2.7928460   2.7928460   0.0000000   2.7928460   2.7928460   0.0000000
 AtZNuc=   8.0000000   1.0000000   1.0000000   8.0000000   1.0000000   1.0000000   8.0000000   1.0000000   1.0000000   8.0000000

  Atom       231         232         233         234         235         236         237         238         239         240
 IAtWgt=           1           1          16           1           1          16           1           1          16           1
 AtmWgt=   1.0078250   1.0078250  15.9949146   1.0078250   1.0078250  15.9949146   1.0078250   1.0078250  15.9949146   1.0078250
 NucSpn=           1           1           0           1           1           0           1           1           0           1
 AtZEff=   0.0000000   0.0000000   0.0000000   0.0000000   0.0000000   0.0000000   0.0000000   0.0000000   0.0000000   0.0000000
 NQMom=    0.0000000   0.0000000   0.0000000   0.0000000   0.0000000   0.0000000   0.0000000   0.0000000   0.0000000   0.0000000
 NMagM=    2.7928460   2.7928460   0.0000000   2.7928460   2.7928460   0.0000000   2.7928460   2.7928460   0.0000000   2.7928460
 AtZNuc=   1.0000000   1.0000000   8.0000000   1.0000000   1.0000000   8.0000000   1.0000000   1.0000000   8.0000000   1.0000000

  Atom       241         242         243         244         245         246         247         248         249         250
 IAtWgt=           1          16           1           1          16           1           1          16           1           1
 AtmWgt=   1.0078250  15.9949146   1.0078250   1.0078250  15.9949146   1.0078250   1.0078250  15.9949146   1.0078250   1.0078250
 NucSpn=           1           0           1           1           0           1           1           0           1           1
 AtZEff=   0.0000000   0.0000000   0.0000000   0.0000000   0.0000000   0.0000000   0.0000000   0.0000000   0.0000000   0.0000000
 NQMom=    0.0000000   0.0000000   0.0000000   0.0000000   0.0000000   0.0000000   0.0000000   0.0000000   0.0000000   0.0000000
 NMagM=    2.7928460   0.0000000   2.7928460   2.7928460   0.0000000   2.7928460   2.7928460   0.0000000   2.7928460   2.7928460
 AtZNuc=   1.0000000   8.0000000   1.0000000   1.0000000   8.0000000   1.0000000   1.0000000   8.0000000   1.0000000   1.0000000

  Atom       251         252         253         254         255         256         257         258         259         260
 IAtWgt=          16           1           1          16           1           1          16           1           1          16
 AtmWgt=  15.9949146   1.0078250   1.0078250  15.9949146   1.0078250   1.0078250  15.9949146   1.0078250   1.0078250  15.9949146
 NucSpn=           0           1           1           0           1           1           0           1           1           0
 AtZEff=   0.0000000   0.0000000   0.0000000   0.0000000   0.0000000   0.0000000   0.0000000   0.0000000   0.0000000   0.0000000
 NQMom=    0.0000000   0.0000000   0.0000000   0.0000000   0.0000000   0.0000000   0.0000000   0.0000000   0.0000000   0.0000000
 NMagM=    0.0000000   2.7928460   2.7928460   0.0000000   2.7928460   2.7928460   0.0000000   2.7928460   2.7928460   0.0000000
 AtZNuc=   8.0000000   1.0000000   1.0000000   8.0000000   1.0000000   1.0000000   8.0000000   1.0000000   1.0000000   8.0000000

  Atom       261         262         263         264         265         266         267         268         269         270
 IAtWgt=           1           1          16           1           1          16           1           1          16           1
 AtmWgt=   1.0078250   1.0078250  15.9949146   1.0078250   1.0078250  15.9949146   1.0078250   1.0078250  15.9949146   1.0078250
 NucSpn=           1           1           0           1           1           0           1           1           0           1
 AtZEff=   0.0000000   0.0000000   0.0000000   0.0000000   0.0000000   0.0000000   0.0000000   0.0000000   0.0000000   0.0000000
 NQMom=    0.0000000   0.0000000   0.0000000   0.0000000   0.0000000   0.0000000   0.0000000   0.0000000   0.0000000   0.0000000
 NMagM=    2.7928460   2.7928460   0.0000000   2.7928460   2.7928460   0.0000000   2.7928460   2.7928460   0.0000000   2.7928460
 AtZNuc=   1.0000000   1.0000000   8.0000000   1.0000000   1.0000000   8.0000000   1.0000000   1.0000000   8.0000000   1.0000000

  Atom       271         272         273         274         275         276         277         278         279         280
 IAtWgt=           1          16           1           1          16           1           1          16           1           1
 AtmWgt=   1.0078250  15.9949146   1.0078250   1.0078250  15.9949146   1.0078250   1.0078250  15.9949146   1.0078250   1.0078250
 NucSpn=           1           0           1           1           0           1           1           0           1           1
 AtZEff=   0.0000000   0.0000000   0.0000000   0.0000000   0.0000000   0.0000000   0.0000000   0.0000000   0.0000000   0.0000000
 NQMom=    0.0000000   0.0000000   0.0000000   0.0000000   0.0000000   0.0000000   0.0000000   0.0000000   0.0000000   0.0000000
 NMagM=    2.7928460   0.0000000   2.7928460   2.7928460   0.0000000   2.7928460   2.7928460   0.0000000   2.7928460   2.7928460
 AtZNuc=   1.0000000   8.0000000   1.0000000   1.0000000   8.0000000   1.0000000   1.0000000   8.0000000   1.0000000   1.0000000

  Atom       281         282         283         284         285         286         287         288         289         290
 IAtWgt=          16           1           1          16           1           1          16           1           1          16
 AtmWgt=  15.9949146   1.0078250   1.0078250  15.9949146   1.0078250   1.0078250  15.9949146   1.0078250   1.0078250  15.9949146
 NucSpn=           0           1           1           0           1           1           0           1           1           0
 AtZEff=   0.0000000   0.0000000   0.0000000   0.0000000   0.0000000   0.0000000   0.0000000   0.0000000   0.0000000   0.0000000
 NQMom=    0.0000000   0.0000000   0.0000000   0.0000000   0.0000000   0.0000000   0.0000000   0.0000000   0.0000000   0.0000000
 NMagM=    0.0000000   2.7928460   2.7928460   0.0000000   2.7928460   2.7928460   0.0000000   2.7928460   2.7928460   0.0000000
 AtZNuc=   8.0000000   1.0000000   1.0000000   8.0000000   1.0000000   1.0000000   8.0000000   1.0000000   1.0000000   8.0000000

  Atom       291         292         293         294         295         296         297         298         299         300
 IAtWgt=           1           1          16           1           1          16           1           1          16           1
 AtmWgt=   1.0078250   1.0078250  15.9949146   1.0078250   1.0078250  15.9949146   1.0078250   1.0078250  15.9949146   1.0078250
 NucSpn=           1           1           0           1           1           0           1           1           0           1
 AtZEff=   0.0000000   0.0000000   0.0000000   0.0000000   0.0000000   0.0000000   0.0000000   0.0000000   0.0000000   0.0000000
 NQMom=    0.0000000   0.0000000   0.0000000   0.0000000   0.0000000   0.0000000   0.0000000   0.0000000   0.0000000   0.0000000
 NMagM=    2.7928460   2.7928460   0.0000000   2.7928460   2.7928460   0.0000000   2.7928460   2.7928460   0.0000000   2.7928460
 AtZNuc=   1.0000000   1.0000000   8.0000000   1.0000000   1.0000000   8.0000000   1.0000000   1.0000000   8.0000000   1.0000000

  Atom       301         302         303         304         305         306         307         308         309         310
 IAtWgt=           1          16           1           1          16           1           1          16           1           1
 AtmWgt=   1.0078250  15.9949146   1.0078250   1.0078250  15.9949146   1.0078250   1.0078250  15.9949146   1.0078250   1.0078250
 NucSpn=           1           0           1           1           0           1           1           0           1           1
 AtZEff=   0.0000000   0.0000000   0.0000000   0.0000000   0.0000000   0.0000000   0.0000000   0.0000000   0.0000000   0.0000000
 NQMom=    0.0000000   0.0000000   0.0000000   0.0000000   0.0000000   0.0000000   0.0000000   0.0000000   0.0000000   0.0000000
 NMagM=    2.7928460   0.0000000   2.7928460   2.7928460   0.0000000   2.7928460   2.7928460   0.0000000   2.7928460   2.7928460
 AtZNuc=   1.0000000   8.0000000   1.0000000   1.0000000   8.0000000   1.0000000   1.0000000   8.0000000   1.0000000   1.0000000

  Atom       311         312         313         314         315         316         317         318         319         320
 IAtWgt=          16           1           1          16           1           1          16           1           1          16
 AtmWgt=  15.9949146   1.0078250   1.0078250  15.9949146   1.0078250   1.0078250  15.9949146   1.0078250   1.0078250  15.9949146
 NucSpn=           0           1           1           0           1           1           0           1           1           0
 AtZEff=   0.0000000   0.0000000   0.0000000   0.0000000   0.0000000   0.0000000   0.0000000   0.0000000   0.0000000   0.0000000
 NQMom=    0.0000000   0.0000000   0.0000000   0.0000000   0.0000000   0.0000000   0.0000000   0.0000000   0.0000000   0.0000000
 NMagM=    0.0000000   2.7928460   2.7928460   0.0000000   2.7928460   2.7928460   0.0000000   2.7928460   2.7928460   0.0000000
 AtZNuc=   8.0000000   1.0000000   1.0000000   8.0000000   1.0000000   1.0000000   8.0000000   1.0000000   1.0000000   8.0000000

  Atom       321         322         323         324         325         326         327         328         329         330
 IAtWgt=           1           1          16           1           1          16           1           1          16           1
 AtmWgt=   1.0078250   1.0078250  15.9949146   1.0078250   1.0078250  15.9949146   1.0078250   1.0078250  15.9949146   1.0078250
 NucSpn=           1           1           0           1           1           0           1           1           0           1
 AtZEff=   0.0000000   0.0000000   0.0000000   0.0000000   0.0000000   0.0000000   0.0000000   0.0000000   0.0000000   0.0000000
 NQMom=    0.0000000   0.0000000   0.0000000   0.0000000   0.0000000   0.0000000   0.0000000   0.0000000   0.0000000   0.0000000
 NMagM=    2.7928460   2.7928460   0.0000000   2.7928460   2.7928460   0.0000000   2.7928460   2.7928460   0.0000000   2.7928460
 AtZNuc=   1.0000000   1.0000000   8.0000000   1.0000000   1.0000000   8.0000000   1.0000000   1.0000000   8.0000000   1.0000000

  Atom       331         332         333         334         335         336         337         338         339         340
 IAtWgt=           1          16           1           1          16           1           1          16           1           1
 AtmWgt=   1.0078250  15.9949146   1.0078250   1.0078250  15.9949146   1.0078250   1.0078250  15.9949146   1.0078250   1.0078250
 NucSpn=           1           0           1           1           0           1           1           0           1           1
 AtZEff=   0.0000000   0.0000000   0.0000000   0.0000000   0.0000000   0.0000000   0.0000000   0.0000000   0.0000000   0.0000000
 NQMom=    0.0000000   0.0000000   0.0000000   0.0000000   0.0000000   0.0000000   0.0000000   0.0000000   0.0000000   0.0000000
 NMagM=    2.7928460   0.0000000   2.7928460   2.7928460   0.0000000   2.7928460   2.7928460   0.0000000   2.7928460   2.7928460
 AtZNuc=   1.0000000   8.0000000   1.0000000   1.0000000   8.0000000   1.0000000   1.0000000   8.0000000   1.0000000   1.0000000

  Atom       341         342         343         344         345         346         347         348         349         350
 IAtWgt=          16           1           1          16           1           1          16           1           1          16
 AtmWgt=  15.9949146   1.0078250   1.0078250  15.9949146   1.0078250   1.0078250  15.9949146   1.0078250   1.0078250  15.9949146
 NucSpn=           0           1           1           0           1           1           0           1           1           0
 AtZEff=   0.0000000   0.0000000   0.0000000   0.0000000   0.0000000   0.0000000   0.0000000   0.0000000   0.0000000   0.0000000
 NQMom=    0.0000000   0.0000000   0.0000000   0.0000000   0.0000000   0.0000000   0.0000000   0.0000000   0.0000000   0.0000000
 NMagM=    0.0000000   2.7928460   2.7928460   0.0000000   2.7928460   2.7928460   0.0000000   2.7928460   2.7928460   0.0000000
 AtZNuc=   8.0000000   1.0000000   1.0000000   8.0000000   1.0000000   1.0000000   8.0000000   1.0000000   1.0000000   8.0000000

  Atom       351         352         353         354         355         356         357         358         359         360
 IAtWgt=           1           1          16           1           1          16           1           1          16           1
 AtmWgt=   1.0078250   1.0078250  15.9949146   1.0078250   1.0078250  15.9949146   1.0078250   1.0078250  15.9949146   1.0078250
 NucSpn=           1           1           0           1           1           0           1           1           0           1
 AtZEff=   0.0000000   0.0000000   0.0000000   0.0000000   0.0000000   0.0000000   0.0000000   0.0000000   0.0000000   0.0000000
 NQMom=    0.0000000   0.0000000   0.0000000   0.0000000   0.0000000   0.0000000   0.0000000   0.0000000   0.0000000   0.0000000
 NMagM=    2.7928460   2.7928460   0.0000000   2.7928460   2.7928460   0.0000000   2.7928460   2.7928460   0.0000000   2.7928460
 AtZNuc=   1.0000000   1.0000000   8.0000000   1.0000000   1.0000000   8.0000000   1.0000000   1.0000000   8.0000000   1.0000000

  Atom       361         362         363         364         365         366         367         368         369         370
 IAtWgt=           1          16           1           1          16           1           1          16           1           1
 AtmWgt=   1.0078250  15.9949146   1.0078250   1.0078250  15.9949146   1.0078250   1.0078250  15.9949146   1.0078250   1.0078250
 NucSpn=           1           0           1           1           0           1           1           0           1           1
 AtZEff=   0.0000000   0.0000000   0.0000000   0.0000000   0.0000000   0.0000000   0.0000000   0.0000000   0.0000000   0.0000000
 NQMom=    0.0000000   0.0000000   0.0000000   0.0000000   0.0000000   0.0000000   0.0000000   0.0000000   0.0000000   0.0000000
 NMagM=    2.7928460   0.0000000   2.7928460   2.7928460   0.0000000   2.7928460   2.7928460   0.0000000   2.7928460   2.7928460
 AtZNuc=   1.0000000   8.0000000   1.0000000   1.0000000   8.0000000   1.0000000   1.0000000   8.0000000   1.0000000   1.0000000

  Atom       371         372         373         374         375         376         377         378         379         380
 IAtWgt=          16           1           1          16           1           1          16           1           1          16
 AtmWgt=  15.9949146   1.0078250   1.0078250  15.9949146   1.0078250   1.0078250  15.9949146   1.0078250   1.0078250  15.9949146
 NucSpn=           0           1           1           0           1           1           0           1           1           0
 AtZEff=   0.0000000   0.0000000   0.0000000   0.0000000   0.0000000   0.0000000   0.0000000   0.0000000   0.0000000   0.0000000
 NQMom=    0.0000000   0.0000000   0.0000000   0.0000000   0.0000000   0.0000000   0.0000000   0.0000000   0.0000000   0.0000000
 NMagM=    0.0000000   2.7928460   2.7928460   0.0000000   2.7928460   2.7928460   0.0000000   2.7928460   2.7928460   0.0000000
 AtZNuc=   8.0000000   1.0000000   1.0000000   8.0000000   1.0000000   1.0000000   8.0000000   1.0000000   1.0000000   8.0000000

  Atom       381         382         383         384         385
 IAtWgt=           1           1          16           1           1
 AtmWgt=   1.0078250   1.0078250  15.9949146   1.0078250   1.0078250
 NucSpn=           1           1           0           1           1
 AtZEff=   0.0000000   0.0000000   0.0000000   0.0000000   0.0000000
 NQMom=    0.0000000   0.0000000   0.0000000   0.0000000   0.0000000
 NMagM=    2.7928460   2.7928460   0.0000000   2.7928460   2.7928460
 AtZNuc=   1.0000000   1.0000000   8.0000000   1.0000000   1.0000000
 Leave Link  101 at Mon May 14 16:12:24 2018, MaxMem= 14763950080 cpu:        33.3
 (Enter /cm/shared/gaussian/g09.e01/intel64-sandybridge/g09/l103.exe)

 GradGradGradGradGradGradGradGradGradGradGradGradGradGradGradGradGradGrad
 Berny optimization.
 Initialization pass.
 Trust Radius=3.00D-01 FncErr=1.00D-07 GrdErr=1.00D-07
 Number of steps in this run=      2 maximum allowed number of steps=      2.
 GradGradGradGradGradGradGradGradGradGradGradGradGradGradGradGradGradGrad

 Leave Link  103 at Mon May 14 16:12:24 2018, MaxMem= 14763950080 cpu:         3.7
 (Enter /cm/shared/gaussian/g09.e01/intel64-sandybridge/g09/l202.exe)
 Symmetry turned off by external request.
 Stoichiometry    BrH256O128(1-)
 Framework group  C1[X(BrH256O128)]
 Deg. of freedom  1149
 Full point group                 C1      NOp   1
                          Input orientation:                          
 ---------------------------------------------------------------------
 Center     Atomic      Atomic             Coordinates (Angstroms)
 Number     Number       Type             X           Y           Z
 ---------------------------------------------------------------------
      1         35           0       20.000000   20.000000   20.000000
      2          8           0       18.140000   21.620000   21.960000
      3          1           0       17.240000   21.520000   21.660000
      4          1           0       18.660000   21.120000   21.330000
      5          8           0       21.440000   20.700000   22.960000
      6          1           0       21.510000   21.650000   22.900000
      7          1           0       21.240000   20.420000   22.060000
      8          8           0       19.630000   17.700000   22.500000
      9          1           0       18.860000   17.650000   23.070000
     10          1           0       19.420000   18.380000   21.860000
     11          8           0       22.770000   21.630000   18.450000
     12          1           0       23.280000   21.890000   19.220000
     13          1           0       21.970000   21.240000   18.810000
     14          8           0       18.780000   16.670000   19.750000
     15          1           0       19.120000   16.300000   20.570000
     16          1           0       19.200000   17.530000   19.680000
     17          8           0       19.590000   22.260000   17.320000
     18          1           0       19.130000   21.450000   17.070000
     19          1           0       19.790000   22.140000   18.250000
     20          8           0       22.710000   18.700000   17.380000
     21          1           0       22.670000   17.910000   17.910000
     22          1           0       22.300000   19.380000   17.910000
     23          8           0       17.160000   17.870000   17.990000
     24          1           0       17.530000   18.760000   18.060000
     25          1           0       17.630000   17.370000   18.660000
     26          8           0       21.380000   24.470000   19.580000
     27          1           0       20.430000   24.540000   19.670000
     28          1           0       21.540000   23.540000   19.400000
     29          8           0       23.620000   18.790000   22.630000
     30          1           0       23.150000   18.040000   23.000000
     31          1           0       22.960000   19.460000   22.530000
     32          8           0       21.760000   16.240000   22.150000
     33          1           0       21.360000   15.480000   22.580000
     34          1           0       21.100000   16.930000   22.210000
     35          8           0       18.570000   24.270000   19.280000
     36          1           0       17.990000   23.530000   19.450000
     37          1           0       18.090000   24.820000   18.660000
     38          8           0       16.630000   19.060000   22.790000
     39          1           0       17.180000   19.600000   23.360000
     40          1           0       16.350000   19.650000   22.090000
     41          8           0       18.550000   19.900000   24.870000
     42          1           0       18.880000   20.310000   25.680000
     43          1           0       19.040000   20.340000   24.170000
     44          8           0       21.660000   18.800000   24.750000
     45          1           0       21.520000   19.580000   24.220000
     46          1           0       21.970000   19.130000   25.590000
     47          8           0       15.740000   21.340000   20.950000
     48          1           0       15.750000   21.530000   20.010000
     49          1           0       14.820000   21.420000   21.200000
     50          8           0       16.220000   22.490000   18.350000
     51          1           0       15.330000   22.350000   18.680000
     52          1           0       16.120000   23.150000   17.660000
     53          8           0       21.300000   23.860000   15.770000
     54          1           0       21.420000   23.190000   16.450000
     55          1           0       21.990000   23.680000   15.140000
     56          8           0       21.420000   23.590000   23.280000
     57          1           0       20.490000   23.790000   23.410000
     58          1           0       21.820000   24.440000   23.090000
     59          8           0       18.370000   24.180000   23.340000
     60          1           0       17.750000   23.660000   22.840000
     61          1           0       18.510000   23.680000   24.140000
     62          8           0       22.710000   15.640000   18.430000
     63          1           0       22.120000   15.230000   17.790000
     64          1           0       23.560000   15.230000   18.280000
     65          8           0       25.140000   20.100000   17.030000
     66          1           0       24.350000   19.600000   16.800000
     67          1           0       25.640000   20.130000   16.210000
     68          8           0       18.570000   22.940000   14.570000
     69          1           0       19.030000   22.760000   15.390000
     70          1           0       19.190000   23.470000   14.060000
     71          8           0       25.880000   18.800000   20.790000
     72          1           0       25.940000   17.850000   20.700000
     73          1           0       25.190000   18.930000   21.440000
     74          8           0       18.870000   14.300000   17.690000
     75          1           0       18.920000   14.810000   18.510000
     76          1           0       17.940000   14.270000   17.490000
     77          8           0       14.870000   16.790000   21.630000
     78          1           0       15.410000   17.490000   22.010000
     79          1           0       14.000000   17.180000   21.560000
     80          8           0       25.630000   21.390000   19.330000
     81          1           0       25.650000   20.560000   19.800000
     82          1           0       25.640000   21.140000   18.410000
     83          8           0       17.910000   16.560000   15.260000
     84          1           0       17.500000   16.650000   16.120000
     85          1           0       17.950000   17.460000   14.930000
     86          8           0       20.210000   16.220000   25.450000
     87          1           0       20.570000   16.930000   24.930000
     88          1           0       19.260000   16.360000   25.420000
     89          8           0       24.420000   23.730000   17.010000
     90          1           0       23.950000   23.630000   16.180000
     91          1           0       24.430000   22.860000   17.390000
     92          8           0       18.690000   26.390000   21.480000
     93          1           0       18.540000   25.880000   22.280000
     94          1           0       18.800000   25.730000   20.790000
     95          8           0       25.640000   17.150000   17.640000
     96          1           0       25.130000   17.960000   17.720000
     97          1           0       26.520000   17.380000   17.920000
     98          8           0       22.920000   17.360000   14.600000
     99          1           0       22.040000   17.060000   14.810000
    100          1           0       23.280000   17.640000   15.440000
    101          8           0       14.390000   17.190000   17.030000
    102          1           0       15.170000   17.180000   17.580000
    103          1           0       13.670000   16.970000   17.630000
    104          8           0       23.950000   14.850000   22.690000
    105          1           0       23.470000   14.300000   23.310000
    106          1           0       23.380000   15.590000   22.530000
    107          8           0       20.600000   15.880000   14.710000
    108          1           0       19.830000   16.060000   15.260000
    109          1           0       20.290000   16.050000   13.820000
    110          8           0       18.930000   18.850000   13.870000
    111          1           0       18.480000   19.680000   13.700000
    112          1           0       19.860000   19.070000   13.830000
    113          8           0       23.810000   23.140000   24.980000
    114          1           0       23.950000   22.190000   24.990000
    115          1           0       23.120000   23.270000   24.330000
    116          8           0       18.760000   25.280000   16.130000
    117          1           0       18.020000   24.830000   15.720000
    118          1           0       19.520000   24.750000   15.900000
    119          8           0       21.970000   26.930000   20.400000
    120          1           0       21.220000   27.330000   19.960000
    121          1           0       21.970000   26.020000   20.120000
    122          8           0       15.470000   21.130000   24.820000
    123          1           0       16.170000   20.510000   25.050000
    124          1           0       14.690000   20.580000   24.740000
    125          8           0       17.620000   16.530000   25.160000
    126          1           0       17.060000   17.300000   25.070000
    127          1           0       17.020000   15.790000   25.070000
    128          8           0       23.210000   26.050000   17.380000
    129          1           0       23.890000   25.390000   17.310000
    130          1           0       22.470000   25.590000   17.770000
    131          8           0       15.470000   21.110000   15.060000
    132          1           0       16.220000   21.700000   14.980000
    133          1           0       15.670000   20.380000   14.470000
    134          8           0       21.540000   19.790000   13.360000
    135          1           0       22.340000   19.730000   13.900000
    136          1           0       21.760000   20.430000   12.690000
    137          8           0       21.530000   13.940000   16.730000
    138          1           0       21.640000   14.500000   15.970000
    139          1           0       20.650000   14.130000   17.050000
    140          8           0       22.740000   13.290000   20.490000
    141          1           0       23.260000   13.480000   21.270000
    142          1           0       22.900000   14.040000   19.910000
    143          8           0       19.330000   13.440000   20.970000
    144          1           0       19.520000   13.660000   21.880000
    145          1           0       20.010000   12.800000   20.730000
    146          8           0       24.900000   20.630000   24.980000
    147          1           0       24.350000   20.120000   25.570000
    148          1           0       25.220000   20.000000   24.340000
    149          8           0       14.930000   23.590000   23.740000
    150          1           0       15.190000   22.690000   23.970000
    151          1           0       15.050000   24.090000   24.550000
    152          8           0       13.640000   19.730000   16.600000
    153          1           0       14.320000   20.130000   16.050000
    154          1           0       14.000000   18.870000   16.840000
    155          8           0       17.660000   21.100000   12.980000
    156          1           0       17.160000   21.520000   12.290000
    157          1           0       17.710000   21.760000   13.680000
    158          8           0       13.600000   22.250000   18.370000
    159          1           0       12.800000   22.480000   18.840000
    160          1           0       13.420000   21.370000   18.020000
    161          8           0       20.110000   13.690000   23.550000
    162          1           0       19.970000   14.390000   24.190000
    163          1           0       20.310000   12.920000   24.070000
    164          8           0       24.540000   17.670000   25.880000
    165          1           0       23.640000   17.930000   25.710000
    166          1           0       24.660000   16.870000   25.370000
    167          8           0       14.250000   25.200000   21.100000
    168          1           0       14.600000   24.400000   21.480000
    169          1           0       14.630000   25.910000   21.620000
    170          8           0       15.650000   18.350000   14.380000
    171          1           0       16.410000   17.780000   14.260000
    172          1           0       15.120000   17.910000   15.040000
    173          8           0       14.880000   23.710000   16.010000
    174          1           0       14.260000   23.870000   16.720000
    175          1           0       14.820000   22.770000   15.840000
    176          8           0       25.110000   14.560000   18.300000
    177          1           0       25.930000   14.130000   18.580000
    178          1           0       25.340000   15.490000   18.250000
    179          8           0       19.680000   19.810000   27.420000
    180          1           0       19.720000   20.500000   28.080000
    181          1           0       20.590000   19.530000   27.300000
    182          8           0       15.580000   13.820000   23.010000
    183          1           0       16.040000   13.310000   22.350000
    184          1           0       15.650000   14.730000   22.710000
    185          8           0       23.870000   22.900000   14.420000
    186          1           0       23.640000   22.160000   13.860000
    187          1           0       24.370000   23.490000   13.860000
    188          8           0       12.920000   21.490000   21.580000
    189          1           0       12.870000   21.940000   22.420000
    190          1           0       12.160000   20.910000   21.580000
    191          8           0       16.730000   12.830000   20.730000
    192          1           0       16.650000   11.880000   20.830000
    193          1           0       17.680000   12.990000   20.730000
    194          8           0       17.770000   17.910000   27.620000
    195          1           0       18.360000   18.530000   27.180000
    196          1           0       18.140000   17.050000   27.420000
    197          8           0       22.860000   19.750000   26.990000
    198          1           0       23.370000   19.340000   27.690000
    199          1           0       22.610000   20.600000   27.350000
    200          8           0       16.200000   22.850000   26.840000
    201          1           0       16.010000   22.640000   25.920000
    202          1           0       15.940000   22.070000   27.330000
    203          8           0       14.250000   14.140000   20.360000
    204          1           0       15.100000   13.730000   20.470000
    205          1           0       14.300000   14.950000   20.870000
    206          8           0       18.100000   27.390000   18.750000
    207          1           0       17.200000   27.460000   18.460000
[...]
   Z336      44.57864   0.01262   0.00000   0.01243   0.01198  44.59062
   X337      27.70339   0.00039   0.00000   0.00051   0.00024  27.70363
   Y337      52.76115   0.00000   0.00000   0.00094   0.00107  52.76222
   Z337      44.21959  -0.00207   0.00000  -0.00343  -0.00393  44.21566
   X338      39.45748   0.02625   0.00000   0.02776   0.02855  39.48603
   Y338      37.58665   0.00761   0.00000   0.02033   0.02053  37.60718
   Z338      19.80433  -0.00206   0.00000   0.00616   0.00612  19.81045
   X339      39.72204  -0.00384   0.00000  -0.00616  -0.00541  39.71664
   Y339      36.52841  -0.00718   0.00000  -0.01201  -0.01180  36.51660
   Z339      21.25942  -0.00064   0.00000  -0.00581  -0.00584  21.25358
   X340      37.85121  -0.01594   0.00000  -0.01151  -0.01075  37.84047
   Y340      38.36144  -0.00198   0.00000  -0.01192  -0.01175  38.34969
   Z340      20.06889   0.00161   0.00000  -0.00234  -0.00244  20.06646
   X341      52.60998   0.01363   0.00000   0.01091   0.01148  52.62145
   Y341      28.96950   0.00636   0.00000   0.00436   0.00484  28.97435
   Z341      31.27497   0.01262   0.00000   0.00754   0.00796  31.28293
   X342      51.55173  -0.00732   0.00000  -0.01258  -0.01206  51.53967
   Y342      30.29231  -0.00323   0.00000  -0.00472  -0.00426  30.28805
   Z342      31.93637  -0.00934   0.00000  -0.01528  -0.01489  31.92148
   X343      51.64622  -0.01040   0.00000  -0.00784  -0.00722  51.63900
   Y343      28.23251  -0.00756   0.00000  -0.00961  -0.00915  28.22336
   Z343      29.93326  -0.00373   0.00000   0.00560   0.00600  29.93926
   X344      44.72982   0.00402   0.00000   0.00497   0.00521  44.73503
   Y344      52.45880   0.00831   0.00000  -0.00036  -0.00003  52.45877
   Z344      28.89391  -0.02585   0.00000  -0.02010  -0.02006  28.87386
   X345      43.99282  -0.00667   0.00000  -0.00309  -0.00287  43.98995
   Y345      51.32496  -0.01136   0.00000  -0.00407  -0.00374  51.32122
   Z345      30.08444   0.01800   0.00000   0.01262   0.01265  30.09709
   X346      46.14711   0.00385   0.00000  -0.00024  -0.00004  46.14707
   Y346      53.15800   0.00297   0.00000   0.00321   0.00357  53.16157
   Z346      29.76319   0.00696   0.00000   0.00556   0.00564  29.76883
   X347      38.17247   0.00507   0.00000   0.00195   0.00190  38.17436
   Y347      55.87920   0.00265   0.00000   0.00057   0.00083  55.88003
   Z347      36.26384  -0.00932   0.00000  -0.00497  -0.00516  36.25869
   X348      37.96460   0.00066   0.00000   0.00374   0.00362  37.96822
   Y348      56.20046  -0.00544   0.00000  -0.01210  -0.01183  56.18863
   Z348      38.04019   0.01215   0.00000   0.01037   0.01018  38.05037
   X349      36.96304  -0.00704   0.00000  -0.00800  -0.00802  36.95502
   Y349      54.57529  -0.00332   0.00000  -0.00101  -0.00077  54.57452
   Z349      35.88590  -0.00172   0.00000  -0.00275  -0.00297  35.88293
   X350      51.36276   0.01286   0.00000   0.01807   0.01854  51.38130
   Y350      42.08420   0.01345   0.00000   0.01833   0.01877  42.10297
   Z350      26.98529  -0.00273   0.00000  -0.00746  -0.00714  26.97814
   X351      50.32341   0.00254   0.00000   0.00974   0.01025  50.33366
   Y351      40.61021   0.00408   0.00000   0.01267   0.01309  40.62330
   Z351      26.72073   0.00366   0.00000   0.00840   0.00869  26.72942
   X352      50.34230  -0.00088   0.00000  -0.00142  -0.00095  50.34136
   Y352      43.46370   0.00350   0.00000   0.00798   0.00839  43.47209
   Z352      26.39947   0.00243   0.00000   0.00453   0.00480  26.40428
   X353      27.79787  -0.01959   0.00000  -0.01495  -0.01450  27.78337
   Y353      46.78962   0.00455   0.00000   0.00286   0.00289  46.79251
   Z353      25.34123  -0.01508   0.00000  -0.00905  -0.00952  25.33171
   X354      29.21517   0.01220   0.00000   0.00962   0.01010  29.22527
   Y354      46.07152  -0.00028   0.00000   0.00559   0.00564  46.07716
   Z354      24.49085  -0.00247   0.00000   0.00006  -0.00036  24.49049
   X355      28.30810   0.00398   0.00000  -0.00252  -0.00212  28.30597
   Y355      46.90300  -0.00633   0.00000  -0.01256  -0.01252  46.89048
   Z355      27.06088   0.01865   0.00000   0.01241   0.01196  27.07284
   X356      29.13958  -0.00978   0.00000  -0.00716  -0.00747  29.13211
   Y356      48.33919   0.00181   0.00000   0.01090   0.01107  48.35026
   Z356      48.03684  -0.01105   0.00000  -0.00956  -0.01000  48.02684
   X357      27.55221  -0.00333   0.00000  -0.00490  -0.00524  27.54697
   Y357      48.98170   0.00199   0.00000   0.00333   0.00348  48.98518
   Z357      48.64155   0.00431   0.00000   0.00824   0.00775  48.64930
   X358      30.36790   0.01190   0.00000   0.01072   0.01037  30.37827
   Y358      49.09508   0.00151   0.00000  -0.00463  -0.00444  49.09065
   Z358      49.11398   0.00965   0.00000   0.00816   0.00776  49.12174
   X359      43.86054   0.00109   0.00000   0.00311   0.00327  43.86381
   Y359      24.22629   0.00502   0.00000   0.00091   0.00132  24.22761
   Z359      46.20380   0.00389   0.00000   0.00084   0.00101  46.20482
   X360      44.48415   0.00341   0.00000   0.00254   0.00276  44.48691
   Y360      22.97907  -0.00775   0.00000  -0.00779  -0.00737  22.97170
   Z360      45.05107  -0.00652   0.00000  -0.00577  -0.00557  45.04550
   X361      42.14089  -0.00128   0.00000   0.00007   0.00023  42.14112
   Y361      23.71606   0.00234   0.00000   0.00484   0.00523  23.72129
   Z361      46.50616   0.00336   0.00000   0.00578   0.00590  46.51206
   X362      47.07308  -0.00507   0.00000   0.00004   0.00006  47.07314
   Y362      28.11912   0.00498   0.00000  -0.00150  -0.00102  28.11810
   Z362      48.47148  -0.00455   0.00000  -0.00072  -0.00047  48.47101
   X363      46.97859  -0.00223   0.00000  -0.00321  -0.00315  46.97544
   Y363      26.32389  -0.01347   0.00000  -0.01303  -0.01256  26.31133
   Z363      48.30140  -0.00444   0.00000  -0.00708  -0.00682  48.29458
   X364      48.37699   0.00555   0.00000  -0.00020  -0.00022  48.37677
   Y364      28.40258   0.00194   0.00000   0.00047   0.00098  28.40357
   Z364      49.68090   0.01563   0.00000   0.01966   0.01995  49.70085
   X365      22.92238  -0.01613   0.00000  -0.00976  -0.00995  22.91243
   Y365      46.75182   0.00235   0.00000  -0.00420  -0.00415  46.74768
   Z365      45.29674   0.00072   0.00000   0.00535   0.00472  45.30146
   X366      24.50975   0.01839   0.00000   0.01524   0.01506  24.52481
   Y366      45.90145  -0.00666   0.00000  -0.00246  -0.00238  45.89907
   Z366      45.35343  -0.00410   0.00000  -0.00857  -0.00914  45.34429
   X367      23.09245   0.00021   0.00000  -0.00014  -0.00039  23.09206
   Y367      48.09353   0.00249   0.00000   0.00292   0.00298  48.09651
   Z367      46.50616   0.00068   0.00000  -0.00018  -0.00080  46.50536
   X368      26.43727  -0.00807   0.00000  -0.00359  -0.00287  26.43440
   Y368      36.13156   0.01049   0.00000   0.00860   0.00858  36.14015
   Z368      22.54443  -0.01443   0.00000  -0.01210  -0.01255  22.53188
   X369      27.68449   0.00737   0.00000   0.00204   0.00271  27.68720
   Y369      36.43392  -0.00579   0.00000  -0.01012  -0.01010  36.42382
   Z369      23.81055   0.01066   0.00000   0.00843   0.00801  23.81856
   X370      26.22940   0.00240   0.00000   0.00269   0.00344  26.23284
   Y370      34.33632  -0.00653   0.00000  -0.00203  -0.00205  34.33427
   Z370      22.50664   0.00441   0.00000   0.00617   0.00572  22.51236
   X371      39.00395  -0.00086   0.00000  -0.00230  -0.00272  39.00123
   Y371      48.66045   0.02055   0.00000   0.01542   0.01578  48.67622
   Z371      51.41945  -0.00939   0.00000  -0.00281  -0.00293  51.41652
   X372      40.32676   0.01570   0.00000   0.01522   0.01479  40.34155
   Y372      47.65889  -0.00881   0.00000  -0.00432  -0.00393  47.65496
   Z372      52.11865  -0.00223   0.00000  -0.01312  -0.01319  52.10546
   X373      37.49217  -0.01362   0.00000  -0.00929  -0.00971  37.48245
   Y373      47.81007  -0.00910   0.00000  -0.00718  -0.00684  47.80323
   Z373      51.91078   0.00611   0.00000   0.00566   0.00549  51.91627
   X374      35.16780  -0.00128   0.00000  -0.00567  -0.00612  35.16168
   Y374      46.16601  -0.00131   0.00000  -0.00510  -0.00479  46.16122
   Z374      53.63043   0.00463   0.00000   0.00537   0.00515  53.63557
   X375      33.99617  -0.00858   0.00000  -0.01088  -0.01129  33.98488
   Y375      44.86210  -0.00355   0.00000  -0.00298  -0.00270  44.85940
   Z375      53.13910  -0.00926   0.00000  -0.01371  -0.01397  53.12513
   X376      35.88590   0.00074   0.00000   0.00045  -0.00004  35.88586
   Y376      45.54240   0.00117   0.00000   0.00003   0.00036  45.54276
   Z376      55.18000   0.00227   0.00000   0.00443   0.00423  55.18423
   X377      24.62313   0.00810   0.00000   0.00757   0.00815  24.63129
   Y377      26.66404  -0.00066   0.00000   0.00219   0.00219  26.66623
   Z377      31.86078  -0.01000   0.00000  -0.00376  -0.00422  31.85656
   X378      24.64203  -0.00274   0.00000  -0.00403  -0.00351  24.63852
   Y378      27.26875   0.00241   0.00000   0.00007   0.00009  27.26884
   Z378      33.56154   0.01302   0.00000   0.01137   0.01091  33.57245
   X379      22.90348  -0.00169   0.00000   0.00180   0.00240  22.90588
   Y379      26.15381   0.00014   0.00000   0.00128   0.00126  26.15507
   Z379      31.57732   0.00075   0.00000   0.00095   0.00044  31.57776
   X380      29.51752   0.00264   0.00000  -0.00702  -0.00695  29.51057
   Y380      53.19579   0.00490   0.00000   0.00245   0.00255  53.19834
   Z380      33.82610  -0.00338   0.00000  -0.00024  -0.00069  33.82541
   X381      28.13802  -0.01061   0.00000  -0.00939  -0.00930  28.12872
   Y381      52.00526  -0.01350   0.00000  -0.01667  -0.01660  51.98867
   Z381      33.76941   0.00842   0.00000   0.01648   0.01600  33.78540
   X382      29.32855  -0.00250   0.00000  -0.00381  -0.00381  29.32474
   Y382      54.00837   0.00600   0.00000   0.00888   0.00899  54.01736
   Z382      35.43236   0.00451   0.00000   0.00336   0.00290  35.43527
   X383      32.35211  -0.01165   0.00000  -0.00413  -0.00371  32.34840
   Y383      49.47303  -0.01732   0.00000  -0.02133  -0.02123  49.45180
   Z383      24.71762  -0.02521   0.00000  -0.01825  -0.01858  24.69904
   X384      30.87813  -0.00396   0.00000  -0.00357  -0.00318  30.87494
   Y384      49.32185   0.00588   0.00000   0.01097   0.01105  49.33290
   Z384      25.75697   0.00201   0.00000  -0.00174  -0.00212  25.75485
   X385      33.61823   0.01851   0.00000   0.01205   0.01243  33.63066
   Y385      50.07774   0.00981   0.00000   0.00686   0.00699  50.08473
   Z385      25.83256   0.01167   0.00000  -0.00116  -0.00146  25.83110
         Item               Value     Threshold  Converged?
 Maximum Force            0.036674     0.000450     NO 
 RMS     Force            0.010031     0.000300     NO 
 Maximum Displacement     0.033306     0.001800     NO 
 RMS     Displacement     0.008836     0.001200     NO 
 Predicted change in Energy=-6.888911D-02
 GradGradGradGradGradGradGradGradGradGradGradGradGradGradGradGradGradGrad

 Leave Link  103 at Mon May 14 19:31:29 2018, MaxMem= 14763950080 cpu:      3089.8
 (Enter /cm/shared/gaussian/g09.e01/intel64-sandybridge/g09/l9999.exe)
 1\1\GINC-POPLE03\Force\RPBE1PBE\CC-pVDZ\Br1H256O128(1-)\M.PELUSO\14-Ma
 y-2018\0\\#p PBE1PBE/cc-pvDZ force Counterpoise=2 noSymm\\forces on ch
 loride comput - NWATER: 128\\-1,1\Br,20.,20.,20.\O,18.14,21.62,21.96\H
 ,17.24,21.52,21.66\H,18.66,21.12,21.33\O,21.44,20.7,22.96\H,21.51,21.6
 5,22.9\H,21.24,20.42,22.06\O,19.63,17.7,22.5\H,18.86,17.65,23.07\H,19.
 42,18.38,21.86\O,22.77,21.63,18.45\H,23.28,21.89,19.22\H,21.97,21.24,1
 8.81\O,18.78,16.67,19.75\H,19.12,16.3,20.57\H,19.2,17.53,19.68\O,19.59
 ,22.26,17.32\H,19.13,21.45,17.07\H,19.79,22.14,18.25\O,22.71,18.7,17.3
 8\H,22.67,17.91,17.91\H,22.3,19.38,17.91\O,17.16,17.87,17.99\H,17.53,1
 8.76,18.06\H,17.63,17.37,18.66\O,21.38,24.47,19.58\H,20.43,24.54,19.67
 \H,21.54,23.54,19.4\O,23.62,18.79,22.63\H,23.15,18.04,23.\H,22.96,19.4
 6,22.53\O,21.76,16.24,22.15\H,21.36,15.48,22.58\H,21.1,16.93,22.21\O,1
 8.57,24.27,19.28\H,17.99,23.53,19.45\H,18.09,24.82,18.66\O,16.63,19.06
 ,22.79\H,17.18,19.6,23.36\H,16.35,19.65,22.09\O,18.55,19.9,24.87\H,18.
 88,20.31,25.68\H,19.04,20.34,24.17\O,21.66,18.8,24.75\H,21.52,19.58,24
 .22\H,21.97,19.13,25.59\O,15.74,21.34,20.95\H,15.75,21.53,20.01\H,14.8
 2,21.42,21.2\O,16.22,22.49,18.35\H,15.33,22.35,18.68\H,16.12,23.15,17.
 66\O,21.3,23.86,15.77\H,21.42,23.19,16.45\H,21.99,23.68,15.14\O,21.42,
 23.59,23.28\H,20.49,23.79,23.41\H,21.82,24.44,23.09\O,18.37,24.18,23.3
 4\H,17.75,23.66,22.84\H,18.51,23.68,24.14\O,22.71,15.64,18.43\H,22.12,
 15.23,17.79\H,23.56,15.23,18.28\O,25.14,20.1,17.03\H,24.35,19.6,16.8\H
 ,25.64,20.13,16.21\O,18.57,22.94,14.57\H,19.03,22.76,15.39\H,19.19,23.
 47,14.06\O,25.88,18.8,20.79\H,25.94,17.85,20.7\H,25.19,18.93,21.44\O,1
 8.87,14.3,17.69\H,18.92,14.81,18.51\H,17.94,14.27,17.49\O,14.87,16.79,
 21.63\H,15.41,17.49,22.01\H,14.,17.18,21.56\O,25.63,21.39,19.33\H,25.6
 5,20.56,19.8\H,25.64,21.14,18.41\O,17.91,16.56,15.26\H,17.5,16.65,16.1
 2\H,17.95,17.46,14.93\O,20.21,16.22,25.45\H,20.57,16.93,24.93\H,19.26,
 16.36,25.42\O,24.42,23.73,17.01\H,23.95,23.63,16.18\H,24.43,22.86,17.3
 9\O,18.69,26.39,21.48\H,18.54,25.88,22.28\H,18.8,25.73,20.79\O,25.64,1
 7.15,17.64\H,25.13,17.96,17.72\H,26.52,17.38,17.92\O,22.92,17.36,14.6\
 H,22.04,17.06,14.81\H,23.28,17.64,15.44\O,14.39,17.19,17.03\H,15.17,17
 .18,17.58\H,13.67,16.97,17.63\O,23.95,14.85,22.69\H,23.47,14.3,23.31\H
 ,23.38,15.59,22.53\O,20.6,15.88,14.71\H,19.83,16.06,15.26\H,20.29,16.0
 5,13.82\O,18.93,18.85,13.87\H,18.48,19.68,13.7\H,19.86,19.07,13.83\O,2
 3.81,23.14,24.98\H,23.95,22.19,24.99\H,23.12,23.27,24.33\O,18.76,25.28
 ,16.13\H,18.02,24.83,15.72\H,19.52,24.75,15.9\O,21.97,26.93,20.4\H,21.
 22,27.33,19.96\H,21.97,26.02,20.12\O,15.47,21.13,24.82\H,16.17,20.51,2
 5.05\H,14.69,20.58,24.74\O,17.62,16.53,25.16\H,17.06,17.3,25.07\H,17.0
 2,15.79,25.07\O,23.21,26.05,17.38\H,23.89,25.39,17.31\H,22.47,25.59,17
 .77\O,15.47,21.11,15.06\H,16.22,21.7,14.98\H,15.67,20.38,14.47\O,21.54
 ,19.79,13.36\H,22.34,19.73,13.9\H,21.76,20.43,12.69\O,21.53,13.94,16.7
 3\H,21.64,14.5,15.97\H,20.65,14.13,17.05\O,22.74,13.29,20.49\H,23.26,1
 3.48,21.27\H,22.9,14.04,19.91\O,19.33,13.44,20.97\H,19.52,13.66,21.88\
 H,20.01,12.8,20.73\O,24.9,20.63,24.98\H,24.35,20.12,25.57\H,25.22,20.,
 24.34\O,14.93,23.59,23.74\H,15.19,22.69,23.97\H,15.05,24.09,24.55\O,13
 .64,19.73,16.6\H,14.32,20.13,16.05\H,14.,18.87,16.84\O,17.66,21.1,12.9
 8\H,17.16,21.52,12.29\H,17.71,21.76,13.68\O,13.6,22.25,18.37\H,12.8,22
 .48,18.84\H,13.42,21.37,18.02\O,20.11,13.69,23.55\H,19.97,14.39,24.19\
 H,20.31,12.92,24.07\O,24.54,17.67,25.88\H,23.64,17.93,25.71\H,24.66,16
 .87,25.37\O,14.25,25.2,21.1\H,14.6,24.4,21.48\H,14.63,25.91,21.62\O,15
 .65,18.35,14.38\H,16.41,17.78,14.26\H,15.12,17.91,15.04\O,14.88,23.71,
 16.01\H,14.26,23.87,16.72\H,14.82,22.77,15.84\O,25.11,14.56,18.3\H,25.
 93,14.13,18.58\H,25.34,15.49,18.25\O,19.68,19.81,27.42\H,19.72,20.5,28
 .08\H,20.59,19.53,27.3\O,15.58,13.82,23.01\H,16.04,13.31,22.35\H,15.65
 ,14.73,22.71\O,23.87,22.9,14.42\H,23.64,22.16,13.86\H,24.37,23.49,13.8
 6\O,12.92,21.49,21.58\H,12.87,21.94,22.42\H,12.16,20.91,21.58\O,16.73,
 12.83,20.73\H,16.65,11.88,20.83\H,17.68,12.99,20.73\O,17.77,17.91,27.6
 2\H,18.36,18.53,27.18\H,18.14,17.05,27.42\O,22.86,19.75,26.99\H,23.37,
 19.34,27.69\H,22.61,20.6,27.35\O,16.2,22.85,26.84\H,16.01,22.64,25.92\
 H,15.94,22.07,27.33\O,14.25,14.14,20.36\H,15.1,13.73,20.47\H,14.3,14.9
 5,20.87\O,18.1,27.39,18.75\H,17.2,27.46,18.46\H,18.04,27.44,19.71\O,28
 .39,21.82,19.05\H,27.47,21.81,19.31\H,28.45,22.47,18.35\O,28.31,19.94,
 21.77\H,27.63,19.67,21.15\H,28.11,19.46,22.57\O,13.77,18.83,24.43\H,14
 .04,17.92,24.57\H,12.93,18.9,24.87\O,12.33,18.18,21.76\H,11.7,18.87,21
 .54\H,12.81,18.52,22.52\O,17.95,14.76,13.32\H,17.01,14.7,13.18\H,18.05
 ,15.36,14.06\O,26.27,15.95,23.53\H,26.43,15.65,24.42\H,25.46,15.5,23.2
 7\O,26.78,18.74,24.07\H,26.75,17.97,23.5\H,27.35,18.49,24.79\O,25.28,1
 5.69,14.46\H,24.95,15.61,13.57\H,24.76,16.41,14.84\O,16.05,13.82,16.85
 \H,15.16,14.17,16.85\H,16.09,13.29,16.06\O,22.11,17.04,11.95\H,22.44,1
 6.16,12.12\H,22.28,17.51,12.76\O,26.74,25.39,17.2\H,26.42,26.08,16.63\
 H,25.98,24.84,17.37\O,25.25,25.29,24.33\H,25.05,24.4,24.62\H,24.71,25.
 85,24.88\O,22.27,14.76,26.95\H,21.73,15.41,26.5\H,23.05,14.66,26.39\O,
 27.62,23.33,22.81\H,27.43,22.51,22.34\H,26.8,23.55,23.24\O,19.31,11.04
 ,18.87\H,18.65,10.64,18.31\H,19.32,11.96,18.61\O,25.76,20.2,14.18\H,26
 .3,19.41,14.2\H,25.3,20.16,13.34\O,26.74,26.14,20.86\H,26.8,26.17,21.8
 2\H,26.11,25.44,20.68\O,16.62,26.97,15.66\H,17.43,26.93,16.18\H,15.99,
 27.41,16.24\O,12.1,15.9,19.74\H,12.41,16.56,20.35\H,12.69,15.15,19.87\
 O,28.45,19.62,17.47\H,28.,18.89,17.9\H,28.52,20.29,18.15\O,23.09,24.23
 ,27.47\H,23.7,24.95,27.69\H,23.33,23.97,26.59\O,20.26,29.,22.13\H,19.8
 2,28.15,22.03\H,21.19,28.78,22.2\O,20.35,24.31,12.79\H,20.97,25.01,12.
 99\H,20.23,24.36,11.84\O,13.85,25.97,18.47\H,13.91,25.77,19.4\H,12.92,
 25.9,18.26\O,19.26,27.33,14.36\H,18.88,28.19,14.51\H,19.22,26.9,15.21\
 O,18.94,15.35,27.86\H,18.79,14.41,27.71\H,19.6,15.59,27.2\O,20.34,27.0
 4,24.68\H,20.28,26.63,25.55\H,19.48,27.45,24.55\O,20.13,12.06,14.98\H,
 20.19,11.41,15.68\H,20.46,12.87,15.38\O,15.49,20.52,27.84\H,15.08,20.2
 5,28.66\H,16.15,19.85,27.67\O,23.05,21.8,12.17\H,22.68,22.33,11.47\H,2
 3.61,21.17,11.72\O,21.53,21.97,28.25\H,21.1,22.03,29.1\H,22.09,22.75,2
 8.2\O,24.2,11.7,18.19\H,23.35,11.31,18.38\H,24.17,12.56,18.62\O,14.47,
 16.46,25.63\H,14.95,16.48,26.46\H,13.95,15.66,25.68\O,26.7,22.66,26.15
 \H,27.39,22.17,26.6\H,26.13,21.98,25.78\O,24.32,28.46,18.71\H,24.86,28
 .54,17.92\H,23.74,27.72,18.53\O,21.62,10.86,21.56\H,22.09,11.64,21.26\
 H,22.13,10.54,22.31\O,18.23,19.49,10.68\H,17.35,19.22,10.41\H,18.4,18.
 98,11.47\O,11.36,21.08,16.37\H,12.01,20.38,16.44\H,11.73,21.7,15.74\O,
 28.19,17.24,18.59\H,28.68,16.64,18.02\H,28.32,16.89,19.47\O,25.5,13.43
 ,15.83\H,25.35,14.19,15.26\H,25.14,13.7,16.67\O,28.14,15.67,21.46\H,28
 .68,16.28,21.96\H,27.34,15.58,21.98\O,23.08,28.68,22.68\H,23.7,29.35,2
 2.39\H,23.13,27.99,22.02\O,14.93,27.13,22.92\H,15.29,26.55,23.59\H,14.
 66,27.92,23.4\O,20.88,19.89,10.48\H,21.02,19.33,11.25\H,20.03,20.3,10.
 62\O,27.84,15.33,16.55\H,27.28,16.03,16.9\H,27.33,14.94,15.84\O,23.67,
 27.76,15.29\H,23.28,27.16,15.92\H,24.42,28.13,15.75\O,20.2,29.57,19.19
 \H,20.09,29.74,20.13\H,19.56,28.88,18.99\O,27.18,22.27,14.28\H,26.63,2
 1.49,14.14\H,26.64,23.,13.97\O,14.71,24.76,13.41\H,15.46,24.38,12.96\H
 ,14.98,24.82,14.32\O,15.42,25.58,25.42\H,14.58,25.92,25.74\H,16.07,25.
 98,25.99\O,23.21,12.82,24.45\H,23.54,12.16,23.84\H,22.3,12.55,24.61\O,
 24.91,14.88,25.65\H,24.86,13.93,25.56\H,25.6,15.03,26.29\O,12.13,24.74
 ,23.97\H,12.97,24.29,24.\H,12.22,25.45,24.61\O,13.99,19.12,11.93\H,14.
 65,19.28,12.6\H,13.88,18.17,11.91\O,20.64,25.75,27.21\H,21.34,25.22,27
 .58\H,19.84,25.3,27.47\O,18.61,24.43,28.38\H,17.99,23.74,28.12\H,18.99
 ,24.1,29.2\O,13.03,14.11,16.86\H,13.04,14.43,17.76\H,12.12,13.84,16.71
 \O,15.62,28.15,17.9\H,14.89,27.52,17.87\H,15.52,28.58,18.75\O,17.12,26
 .18,13.08\H,16.34,26.1,13.63\H,17.79,26.5,13.67\\Version=ES64L-G09RevE
 .01\HF=-9773.2884943\RMSD=1.292e-09\RMSF=1.003e-02\Dipole=-11.5458698,
 -10.2752584,16.7406043\Quadrupole=-802.4495936,-791.3553484,1593.80494
 21,-2358.1056226,-1312.5743256,-1230.9343683\PG=C01 [X(Br1H256O128)]\\
 @


 THE TEST OF A FIRST RATE INTELLIGENCE IS THE ABILITY TO HOLD TWO OPPOSED
 IDEAS IN THE MIND AT THE SAME TIME, AND STILL RETAIN THE ABILITY TO FUNCTION.
 ONE SHOULD, FOR EXAMPLE, BE ABLE TO SEE THAT THINGS ARE HOPELESS AND YET BE
 DETERMINED TO MAKE THEM OTHERWISE.

                                                       -- F. SCOTT FITZGERALD
 Job cpu time:       8 days 17 hours  2 minutes 38.9 seconds.
 File lengths (MBytes):  RWF=   7285 Int=      0 D2E=      0 Chk=   2411 Scr=      1
 Normal termination of Gaussian 09 at Mon May 14 19:31:57 2018.
