 Entering Gaussian System, Link 0=/cm/shared/gaussian/g09.e01/intel64-sandybridge/g09/g09
 Initial command:
 /cm/shared/gaussian/g09.e01/intel64-sandybridge/g09/l1.exe "/local/scratch/m.peluso/128_wat/order/Gau-64202.inp" -scrdir="/local/scratch/m.peluso/128_wat/order/"
 Entering Link 1 = /cm/shared/gaussian/g09.e01/intel64-sandybridge/g09/l1.exe PID=     64203.
  
 Copyright (c) 1988,1990,1992,1993,1995,1998,2003,2009,2015,
            Gaussian, Inc.  All Rights Reserved.
  
 This is part of the Gaussian(R) 09 program.  It is based on
 the Gaussian(R) 03 system (copyright 2003, Gaussian, Inc.),
 the Gaussian(R) 98 system (copyright 1998, Gaussian, Inc.),
 the Gaussian(R) 94 system (copyright 1995, Gaussian, Inc.),
 the Gaussian 92(TM) system (copyright 1992, Gaussian, Inc.),
 the Gaussian 90(TM) system (copyright 1990, Gaussian, Inc.),
 the Gaussian 88(TM) system (copyright 1988, Gaussian, Inc.),
 the Gaussian 86(TM) system (copyright 1986, Carnegie Mellon
 University), and the Gaussian 82(TM) system (copyright 1983,
 Carnegie Mellon University). Gaussian is a federally registered
 trademark of Gaussian, Inc.
  
 This software contains proprietary and confidential information,
 including trade secrets, belonging to Gaussian, Inc.
  
 This software is provided under written license and may be
 used, copied, transmitted, or stored only in accord with that
 written license.
  
 The following legend is applicable only to US Government
 contracts under FAR:
  
                    RESTRICTED RIGHTS LEGEND
  
 Use, reproduction and disclosure by the US Government is
 subject to restrictions as set forth in subparagraphs (a)
 and (c) of the Commercial Computer Software - Restricted
 Rights clause in FAR 52.227-19.
  
 Gaussian, Inc.
 340 Quinnipiac St., Bldg. 40, Wallingford CT 06492
  
  
 ---------------------------------------------------------------
 Warning -- This program may not be used in any manner that
 competes with the business of Gaussian, Inc. or will provide
 assistance to any competitor of Gaussian, Inc.  The licensee
 of this program is prohibited from giving any competitor of
 Gaussian, Inc. access to this program.  By using this program,
 the user acknowledges that Gaussian, Inc. is engaged in the
 business of creating and licensing software in the field of
 computational chemistry and represents and warrants to the
 licensee that it is not a competitor of Gaussian, Inc. and that
 it will not use this program in any manner prohibited above.
 ---------------------------------------------------------------
  

 Cite this work as:
 Gaussian 09, Revision E.01,
 M. J. Frisch, G. W. Trucks, H. B. Schlegel, G. E. Scuseria, 
 M. A. Robb, J. R. Cheeseman, G. Scalmani, V. Barone, B. Mennucci, 
 G. A. Petersson, H. Nakatsuji, M. Caricato, X. Li, H. P. Hratchian, 
 A. F. Izmaylov, J. Bloino, G. Zheng, J. L. Sonnenberg, M. Hada, 
 M. Ehara, K. Toyota, R. Fukuda, J. Hasegawa, M. Ishida, T. Nakajima, 
 Y. Honda, O. Kitao, H. Nakai, T. Vreven, J. A. Montgomery, Jr., 
 J. E. Peralta, F. Ogliaro, M. Bearpark, J. J. Heyd, E. Brothers, 
 K. N. Kudin, V. N. Staroverov, T. Keith, R. Kobayashi, J. Normand, 
 K. Raghavachari, A. Rendell, J. C. Burant, S. S. Iyengar, J. Tomasi, 
 M. Cossi, N. Rega, J. M. Millam, M. Klene, J. E. Knox, J. B. Cross, 
 V. Bakken, C. Adamo, J. Jaramillo, R. Gomperts, R. E. Stratmann, 
 O. Yazyev, A. J. Austin, R. Cammi, C. Pomelli, J. W. Ochterski, 
 R. L. Martin, K. Morokuma, V. G. Zakrzewski, G. A. Voth, 
 P. Salvador, J. J. Dannenberg, S. Dapprich, A. D. Daniels, 
 O. Farkas, J. B. Foresman, J. V. Ortiz, J. Cioslowski, 
 and D. J. Fox, Gaussian, Inc., Wallingford CT, 2013.
 
 ******************************************
 Gaussian 09:  ES64L-G09RevE.01 30-Nov-2015
                17-May-2018 
 ******************************************
 %Mem=110GB
 %NProcShared=64
 Will use up to   64 processors via shared memory.
 %chk=snap0.chk
 ----------------------------------------------
 #p PBE1PBE/cc-pvDZ force Counterpoise=2 noSymm
 ----------------------------------------------
 1/10=7,30=1,38=1,62=2/1,3;
 2/12=2,15=1,17=6,18=5,40=1/2;
 1/10=7,30=1,38=1,53=2,62=2,63=101/22;
 3/5=16,11=2,16=1,25=1,30=1,71=1,74=-13/1,2,3;
 4//1;
 5/5=2,38=5/2;
 6/7=2,8=2,9=2,10=2,28=1/1;
 7/7=1,29=1,30=1,33=-1/1,2,3,16;
 1/10=7,30=1,53=2,62=2,63=101/22;
 3/5=7,6=11,11=2,16=1,25=1,30=1,71=1,74=-13,82=7/1,2,3;
 4//1;
 5/5=2,38=5/2;
 6/7=2,8=2,9=2,10=2,28=1/1;
 7/7=1,29=1,30=1,33=-1/1,2,3,16;
 1/10=7,30=1,53=2,62=2,63=101/22(-5);
 7/9=1,29=1,44=-1/16;
 1/10=7,30=1,62=2/3;
 99//99;
 Leave Link    1 at Thu May 17 02:04:55 2018, MaxMem= 14763950080 cpu:         8.0
 (Enter /cm/shared/gaussian/g09.e01/intel64-sandybridge/g09/l101.exe)
 ---------------------------------------
 forces on chloride comput - NWATER: 128
 ---------------------------------------
 Symbolic Z-matrix:
 Charge = -1 Multiplicity = 1 in supermolecule
 Charge = -1 Multiplicity = 1 in fragment      1.
 Charge =  0 Multiplicity = 1 in fragment      2.
 Br(Fragment=1)        20.       20.       20. 
 O(Fragment=2)         18.37     18.34     22.04 
 H(Fragment=2)         18.71     18.91     21.34 
 H(Fragment=2)         17.42     18.39     21.95 
 O(Fragment=2)         20.77     16.99     19.52 
 H(Fragment=2)         20.56     17.91     19.72 
 H(Fragment=2)         21.38     16.73     20.21 
 O(Fragment=2)         17.54     19.85     17.97 
 H(Fragment=2)         18.35     19.84     18.47 
 H(Fragment=2)         17.51     20.72     17.57 
 O(Fragment=2)         18.51     22.82     19.62 
 H(Fragment=2)         18.96     22.       19.8 
 H(Fragment=2)         18.12     22.69     18.75 
 O(Fragment=2)         21.19     21.69     22.49 
 H(Fragment=2)         20.7      21.41     21.71 
 H(Fragment=2)         22.04     21.27     22.4 
 O(Fragment=2)         21.17     22.65     17.87 
 H(Fragment=2)         20.82     21.96     18.44 
 H(Fragment=2)         20.4      23.18     17.63 
 O(Fragment=2)         16.29     19.86     20.51 
 H(Fragment=2)         16.26     20.1      19.58 
 H(Fragment=2)         16.98     20.4      20.88 
 O(Fragment=2)         23.5      20.79     18.09 
 H(Fragment=2)         23.19     20.51     18.95 
 H(Fragment=2)         22.81     21.36     17.76 
 O(Fragment=2)         18.11     21.45     23.34 
 H(Fragment=2)         18.33     20.85     24.06 
 H(Fragment=2)         18.96     21.64     22.93 
 O(Fragment=2)         18.53     17.05     17.61 
 H(Fragment=2)         19.34     16.99     18.12 
 H(Fragment=2)         18.18     17.91     17.82 
 O(Fragment=2)         21.41     17.8      23.42 
 H(Fragment=2)         21.09     17.52     24.28 
 H(Fragment=2)         20.63     17.9      22.88 
 O(Fragment=2)         20.64     24.3      21.03 
 H(Fragment=2)         20.92     23.5      21.48 
 H(Fragment=2)         19.8      24.07     20.64 
 O(Fragment=2)         22.69     16.79     21.43 
 H(Fragment=2)         22.18     17.04     22.2 
 H(Fragment=2)         22.87     15.86     21.55 
 O(Fragment=2)         17.89     22.34     16.96 
 H(Fragment=2)         18.6      22.41     16.32 
 H(Fragment=2)         17.15     22.76     16.54 
 O(Fragment=2)         23.83     20.5      22.2 
 H(Fragment=2)         24.07     19.61     22.46 
 H(Fragment=2)         24.18     21.05     22.91 
 O(Fragment=2)         23.7      23.03     20.39 
 H(Fragment=2)         23.44     22.7      21.25 
 H(Fragment=2)         23.42     23.95     20.39 
 O(Fragment=2)         16.41     23.38     21.55 
 H(Fragment=2)         16.79     22.73     22.13 
 H(Fragment=2)         16.92     23.31     20.74 
 O(Fragment=2)         24.26     16.75     18.78 
 H(Fragment=2)         23.42     16.96     19.18 
 H(Fragment=2)         24.17     17.01     17.87 
 O(Fragment=2)         18.71     17.       24.52 
 H(Fragment=2)         18.03     16.37     24.28 
 H(Fragment=2)         18.66     17.67     23.85 
 O(Fragment=2)         21.69     14.7      17.67 
 H(Fragment=2)         21.17     13.92     17.87 
 H(Fragment=2)         21.27     15.4      18.18 
 O(Fragment=2)         15.4      18.18     17.31 
 H(Fragment=2)         16.17     18.59     16.92 
 H(Fragment=2)         15.2      17.45     16.73 
 O(Fragment=2)         21.85     25.39     17.79 
 H(Fragment=2)         22.78     25.64     17.81 
 H(Fragment=2)         21.85     24.44     17.88 
 O(Fragment=2)         14.74     17.75     21.77 
 H(Fragment=2)         15.14     18.55     21.42 
 H(Fragment=2)         14.94     17.08     21.11 
 O(Fragment=2)         18.91     18.94     14.16 
 H(Fragment=2)         19.24     18.55     14.97 
 H(Fragment=2)         19.61     18.8      13.52 
 O(Fragment=2)         19.99     22.26     15.18 
 H(Fragment=2)         19.69     22.21     14.27 
 H(Fragment=2)         20.94     22.35     15.11 
 O(Fragment=2)         21.5      17.25     15.08 
 H(Fragment=2)         21.96     17.06     14.26 
 H(Fragment=2)         22.19     17.43     15.71 
 O(Fragment=2)         17.08     14.55     18.72 
 H(Fragment=2)         17.85     14.11     19.09 
 H(Fragment=2)         17.42     15.36     18.34 
 O(Fragment=2)         26.1      21.54     17.93 
 H(Fragment=2)         25.33     21.19     18.36 
 H(Fragment=2)         26.18     22.43     18.27 
 O(Fragment=2)         18.15     23.2      25.41 
 H(Fragment=2)         17.71     22.89     26.2 
 H(Fragment=2)         17.97     22.52     24.76 
 O(Fragment=2)         22.96     22.03     15.12 
 H(Fragment=2)         23.15     22.77     15.68 
 H(Fragment=2)         23.41     21.29     15.52 
 O(Fragment=2)         19.54     20.82     25.72 
 H(Fragment=2)         20.36     20.35     25.88 
 H(Fragment=2)         19.26     21.11     26.59 
 O(Fragment=2)         25.       18.19     23.3 
 H(Fragment=2)         25.21     17.7      22.51 
 H(Fragment=2)         24.11     17.91     23.52 
 O(Fragment=2)         24.29     17.82     16.2 
 H(Fragment=2)         24.43     18.76     16.32 
 H(Fragment=2)         25.14     17.48     15.94 
 O(Fragment=2)         13.79     22.07     21.23 
 H(Fragment=2)         13.31     22.87     21.44 
 H(Fragment=2)         14.69     22.36     21.07 
 O(Fragment=2)         17.42     25.86     20.31 
 H(Fragment=2)         16.8      26.27     20.91 
 H(Fragment=2)         18.17     25.63     20.86 
 O(Fragment=2)         14.69     22.12     18.02 
 H(Fragment=2)         14.88     22.87     18.59 
 H(Fragment=2)         15.04     22.38     17.16 
 O(Fragment=2)         20.42     26.62     22.21 
 H(Fragment=2)         20.51     25.71     21.93 
 H(Fragment=2)         20.87     26.65     23.05 
 O(Fragment=2)         26.91     19.91     20.6 
 H(Fragment=2)         27.41     20.23     19.85 
 H(Fragment=2)         26.14     20.48     20.63 
 O(Fragment=2)         26.3      17.38     20.62 
 H(Fragment=2)         26.58     18.29     20.6 
 H(Fragment=2)         25.6      17.33     19.97 
 O(Fragment=2)         22.89     14.14     20.35 
 H(Fragment=2)         22.52     14.34     19.49 
 H(Fragment=2)         23.84     14.14     20.22 
 O(Fragment=2)         17.74     25.54     17.37 
 H(Fragment=2)         16.96     26.05     17.13 
 H(Fragment=2)         17.77     25.59     18.33 
 O(Fragment=2)         21.82     23.4      25.82 
 H(Fragment=2)         21.07     23.99     25.89 
 H(Fragment=2)         21.44     22.57     25.52 
 O(Fragment=2)         25.67     24.08     18.9 
 H(Fragment=2)         25.97     24.91     19.26 
 H(Fragment=2)         24.97     23.8      19.49 
 O(Fragment=2)         19.73     15.31     14.95 
 H(Fragment=2)         20.37     15.99     15.16 
 H(Fragment=2)         19.18     15.25     15.73 
 O(Fragment=2)         13.38     19.59     18.71 
 H(Fragment=2)         13.42     20.54     18.76 
 H(Fragment=2)         14.03     19.35     18.05 
 O(Fragment=2)         20.08     14.57     23.28 
 H(Fragment=2)         20.98     14.6      23.61 
 H(Fragment=2)         19.57     15.04     23.94 
 O(Fragment=2)         14.82     24.29     19.55 
 H(Fragment=2)         14.95     25.15     19.14 
 H(Fragment=2)         15.31     24.34     20.37 
 O(Fragment=2)         23.08     18.43     26.29 
 H(Fragment=2)         23.37     17.63     26.73 
 H(Fragment=2)         22.47     18.12     25.61 
 O(Fragment=2)         15.19     18.25     24.59 
 H(Fragment=2)         14.64     19.       24.36 
 H(Fragment=2)         15.29     17.77     23.77 
 O(Fragment=2)         14.85     15.8      19.86 
 H(Fragment=2)         14.57     16.31     19.09 
 H(Fragment=2)         15.61     15.31     19.55 
 O(Fragment=2)         17.41     20.93     13.1 
 H(Fragment=2)         17.16     20.31     12.41 
 H(Fragment=2)         17.81     20.38     13.77 
 O(Fragment=2)         17.15     18.34     26.38 
 H(Fragment=2)         17.88     17.87     25.98 
 H(Fragment=2)         16.43     18.21     25.76 
 O(Fragment=2)         16.36     15.54     23.64 
 H(Fragment=2)         16.36     14.98     22.86 
 H(Fragment=2)         15.92     15.01     24.31 
 O(Fragment=2)         15.67     23.31     15.87 
 H(Fragment=2)         15.84     24.25     15.96 
 H(Fragment=2)         15.18     23.24     15.05 
 O(Fragment=2)         18.81     12.97     21.34 
 H(Fragment=2)         19.22     13.5      22.02 
 H(Fragment=2)         17.87     13.02     21.54 
 O(Fragment=2)         18.7      25.41     14.74 
 H(Fragment=2)         18.57     25.19     15.66 
 H(Fragment=2)         17.9      25.12     14.3 
 O(Fragment=2)         25.54     22.17     23.54 
 H(Fragment=2)         26.33     21.88     23.99 
 H(Fragment=2)         25.85     22.7      22.81 
 O(Fragment=2)         25.88     20.18     15.37 
 H(Fragment=2)         25.83     20.47     16.28 
 H(Fragment=2)         26.37     20.88     14.93 
 O(Fragment=2)         13.64     21.05     24.03 
 H(Fragment=2)         12.96     21.7      24.19 
 H(Fragment=2)         13.88     21.18     23.11 
 O(Fragment=2)         21.01     16.44     26.23 
 H(Fragment=2)         20.21     16.1      25.84 
 H(Fragment=2)         20.71     16.92     27.01 
 O(Fragment=2)         21.51     27.59     19.76 
 H(Fragment=2)         21.4      27.19     20.62 
 H(Fragment=2)         21.33     26.88     19.14 
 O(Fragment=2)         20.24     12.97     19.02 
 H(Fragment=2)         20.33     12.06     18.75 
 H(Fragment=2)         19.76     12.93     19.84 
 O(Fragment=2)         21.67     25.8      15.02 
 H(Fragment=2)         20.73     25.88     14.88 
 H(Fragment=2)         21.76     25.57     15.95 
 O(Fragment=2)         24.8      24.37     16.19 
 H(Fragment=2)         25.64     24.41     15.73 
 H(Fragment=2)         25.03     24.13     17.09 
 O(Fragment=2)         25.6      14.64     19.97 
 H(Fragment=2)         26.09     14.09     19.36 
 H(Fragment=2)         25.49     15.47     19.52 
 O(Fragment=2)         22.26     25.67     24.1 
 H(Fragment=2)         21.97     25.01     24.72 
 H(Fragment=2)         23.18     25.45     23.93 
 O(Fragment=2)         12.36     18.84     21.47 
 H(Fragment=2)         12.59     19.33     20.68 
 H(Fragment=2)         13.2      18.54     21.82 
 O(Fragment=2)         19.78     25.48     25.63 
 H(Fragment=2)         19.2      24.73     25.52 
 H(Fragment=2)         19.2      26.23     25.71 
 O(Fragment=2)         24.06     25.97     21.28 
 H(Fragment=2)         24.12     26.91     21.48 
 H(Fragment=2)         24.33     25.54     22.09 
 O(Fragment=2)         12.53     16.99     18.14 
 H(Fragment=2)         11.91     17.31     17.48 
 H(Fragment=2)         13.13     17.71     18.28 
 O(Fragment=2)         25.15     14.94     22.67 
 H(Fragment=2)         25.76     15.51     23.14 
 H(Fragment=2)         25.33     15.09     21.74 
 O(Fragment=2)         15.57     24.53     24.41 
 H(Fragment=2)         15.68     24.93     23.55 
 H(Fragment=2)         16.44     24.58     24.81 
 O(Fragment=2)         14.7      19.       14.28 
 H(Fragment=2)         15.59     19.23     13.99 
 H(Fragment=2)         14.21     18.9      13.47 
 O(Fragment=2)         15.44     15.95     15.53 
 H(Fragment=2)         15.87     15.17     15.88 
 H(Fragment=2)         15.95     16.18     14.75 
 O(Fragment=2)         21.75     12.25     21.78 
 H(Fragment=2)         21.4      11.58     21.19 
 H(Fragment=2)         22.21     12.87     21.21 
 O(Fragment=2)         22.96     13.26     15.65 
 H(Fragment=2)         22.49     13.85     16.24 
 H(Fragment=2)         23.44     12.67     16.22 
 O(Fragment=2)         17.31     13.83     15.74 
 H(Fragment=2)         17.48     13.49     16.62 
 H(Fragment=2)         17.29     13.06     15.18 
 O(Fragment=2)         24.84     20.35     26.6 
 H(Fragment=2)         24.06     19.79     26.62 
 H(Fragment=2)         25.4      19.96     25.93 
 O(Fragment=2)         24.12     27.01     18.44 
 H(Fragment=2)         23.65     26.85     19.26 
 H(Fragment=2)         24.94     27.42     18.71 
 O(Fragment=2)         24.83     24.99     23.86 
 H(Fragment=2)         25.12     24.16     24.23 
 H(Fragment=2)         25.31     25.65     24.35 
 O(Fragment=2)         11.39     21.47     20. 
 H(Fragment=2)         10.98     21.01     20.73 
 H(Fragment=2)         12.31     21.55     20.24 
 O(Fragment=2)         27.69     17.02     18.27 
 H(Fragment=2)         28.48     16.5      18.43 
 H(Fragment=2)         27.3      17.15     19.13 
 O(Fragment=2)         26.74     18.63     25.4 
 H(Fragment=2)         27.2      19.41     25.08 
 H(Fragment=2)         26.14     18.4      24.69 
 O(Fragment=2)         16.24     13.22     21.98 
 H(Fragment=2)         15.74     13.25     21.17 
 H(Fragment=2)         15.84     12.51     22.48 
 O(Fragment=2)         23.65     21.99     12.15 
 H(Fragment=2)         24.4      22.56     11.97 
 H(Fragment=2)         23.55     22.02     13.1 
 O(Fragment=2)         22.73     13.52     24. 
 H(Fragment=2)         23.57     13.76     23.62 
 H(Fragment=2)         22.28     13.04     23.3 
 O(Fragment=2)         15.55     20.24     27.59 
 H(Fragment=2)         15.76     21.16     27.44 
 H(Fragment=2)         16.19     19.76     27.07 
 O(Fragment=2)         16.98     15.7      13.17 
 H(Fragment=2)         17.26     15.41     12.3 
 H(Fragment=2)         17.69     15.44     13.76 
 O(Fragment=2)         14.59     22.35     26.12 
 H(Fragment=2)         14.87     23.1      25.59 
 H(Fragment=2)         14.33     21.68     25.49 
 O(Fragment=2)         20.84     18.13     11.66 
 H(Fragment=2)         21.55     17.92     12.27 
 H(Fragment=2)         20.85     19.08     11.59 
 O(Fragment=2)         25.04     23.53     26.35 
 H(Fragment=2)         25.31     22.63     26.19 
 H(Fragment=2)         24.1      23.54     26.15 
 O(Fragment=2)         14.56     22.61     13.44 
 H(Fragment=2)         15.12     21.87     13.66 
 H(Fragment=2)         14.19     22.39     12.59 
 O(Fragment=2)         12.23     15.66     20.97 
 H(Fragment=2)         12.72     15.23     21.67 
 H(Fragment=2)         12.88     15.88     20.31 
 O(Fragment=2)         12.69     21.26     15.49 
 H(Fragment=2)         12.66     20.67     16.24 
 H(Fragment=2)         13.46     20.98     15. 
 O(Fragment=2)         25.02     19.1      12.85 
 H(Fragment=2)         25.02     19.87     13.42 
 H(Fragment=2)         25.94     18.96     12.64 
 O(Fragment=2)         27.33     23.57     21.73 
 H(Fragment=2)         27.85     23.54     20.93 
 H(Fragment=2)         27.49     24.45     22.09 
 O(Fragment=2)         15.44     26.57     22.36 
 H(Fragment=2)         14.53     26.32     22.21 
 H(Fragment=2)         15.39     27.39     22.86 
 O(Fragment=2)         26.36     15.83     16.28 
 H(Fragment=2)         26.42     14.96     16.67 
 H(Fragment=2)         26.86     16.39     16.87 
 O(Fragment=2)         27.75     23.52     16.26 
 H(Fragment=2)         27.08     23.05     16.76 
 H(Fragment=2)         28.53     23.49     16.82 
 O(Fragment=2)         20.68     13.15     13.74 
 H(Fragment=2)         20.43     13.91     14.27 
 H(Fragment=2)         21.49     12.83     14.15 
 O(Fragment=2)         23.17     16.88     12.9 
 H(Fragment=2)         23.59     16.07     13.19 
 H(Fragment=2)         23.9      17.49     12.77 
 O(Fragment=2)         21.33     20.96     11.6 
 H(Fragment=2)         20.71     21.69     11.67 
 H(Fragment=2)         22.19     21.38     11.6 
 O(Fragment=2)         19.68     29.47     20.19 
 H(Fragment=2)         20.17     30.       19.56 
 H(Fragment=2)         19.77     28.57     19.87 
 O(Fragment=2)         12.08     25.11     18.49 
 H(Fragment=2)         12.88     24.63     18.71 
 H(Fragment=2)         11.74     24.67     17.71 
 O(Fragment=2)         18.6      15.4      27.12 
 H(Fragment=2)         17.67     15.22     27.2 
 H(Fragment=2)         18.78     16.06     27.78 
 O(Fragment=2)         18.24     21.93     28.23 
 H(Fragment=2)         18.21     22.75     28.72 
 H(Fragment=2)         17.97     21.26     28.86 
 O(Fragment=2)         14.9      26.91     18.53 
 H(Fragment=2)         14.18     27.4      18.14 
 H(Fragment=2)         15.31     27.52     19.14 
 O(Fragment=2)         17.26     22.94     11.25 
 H(Fragment=2)         17.17     22.38     12.02 
 H(Fragment=2)         17.95     22.52     10.73 
 O(Fragment=2)         24.74     15.06     14.02 
 H(Fragment=2)         24.34     14.38     14.56 
 H(Fragment=2)         25.33     15.53     14.61 
 O(Fragment=2)         10.8      19.49     17.65 
 H(Fragment=2)         11.33     19.59     18.45 
 H(Fragment=2)         10.13     20.16     17.73 
 O(Fragment=2)         23.71     11.54     17.54 
 H(Fragment=2)         23.44     12.06     18.3 
 H(Fragment=2)         24.62     11.3      17.72 
 O(Fragment=2)         19.83     11.22     23.64 
 H(Fragment=2)         20.21     11.64     22.87 
 H(Fragment=2)         20.54     11.2      24.28 
 O(Fragment=2)         15.85     26.44     15.56 
 H(Fragment=2)         15.35     26.88     16.25 
 H(Fragment=2)         15.89     27.08     14.85 
 O(Fragment=2)         13.01     14.33     16.34 
 H(Fragment=2)         12.27     14.26     16.95 
 H(Fragment=2)         13.4      15.18     16.55 
 O(Fragment=2)         13.95     18.17     27.23 
 H(Fragment=2)         14.12     17.92     26.32 
 H(Fragment=2)         14.51     18.94     27.37 
 O(Fragment=2)         28.5      15.13     20.21 
 H(Fragment=2)         27.77     15.56     20.65 
 H(Fragment=2)         28.25     14.22     20.14 
 O(Fragment=2)         21.35     14.9      11.67 
 H(Fragment=2)         21.67     14.       11.59 
 H(Fragment=2)         21.28     15.05     12.61 
 O(Fragment=2)         20.42     20.39     29.35 
 H(Fragment=2)         19.69     20.85     28.96 
 H(Fragment=2)         21.16     20.99     29.27 
 O(Fragment=2)         24.4      27.49     15.44 
 H(Fragment=2)         24.58     27.64     16.37 
 H(Fragment=2)         24.14     26.57     15.4 
 O(Fragment=2)         23.32     13.53     26.56 
 H(Fragment=2)         22.97     13.62     25.67 
 H(Fragment=2)         24.       12.86     26.49 
 O(Fragment=2)         12.93     26.52     20.88 
 H(Fragment=2)         12.       26.35     20.79 
 H(Fragment=2)         13.32     26.14     20.09 
 O(Fragment=2)         20.13     23.51     11.6 
 H(Fragment=2)         19.31     24.       11.67 
 H(Fragment=2)         20.63     23.97     10.92 
 O(Fragment=2)         19.72     17.54     28.82 
 H(Fragment=2)         20.19     16.91     29.37 
 H(Fragment=2)         20.       18.4      29.13 
 O(Fragment=2)         22.11     25.94     12.31 
 H(Fragment=2)         21.38     25.43     11.95 
 H(Fragment=2)         21.98     25.9      13.25 
 O(Fragment=2)         16.61     28.79     19.68 
 H(Fragment=2)         17.4      28.81     20.22 
 H(Fragment=2)         16.93     28.86     18.78 
 O(Fragment=2)         22.31     29.51     22.41 
 H(Fragment=2)         21.88     28.66     22.51 
 H(Fragment=2)         22.07     29.8      21.53 
 O(Fragment=2)         11.9      17.93     15.65 
 H(Fragment=2)         11.65     18.39     16.44 
 H(Fragment=2)         12.14     18.62     15.03 
 O(Fragment=2)         21.67     27.53     26.53 
 H(Fragment=2)         21.15     28.14     26. 
 H(Fragment=2)         21.33     26.66     26.3 
 
 NAtoms=    385 NQM=      385 NQMF=       0 NMMI=      0 NMMIF=      0
                NMic=       0 NMicF=      0.
                    Isotopes and Nuclear Properties:
 (Nuclear quadrupole moments (NQMom) in fm**2, nuclear magnetic moments (NMagM)
  in nuclear magnetons)

  Atom         1           2           3           4           5           6           7           8           9          10
 IAtWgt=          79          16           1           1          16           1           1          16           1           1
 AtmWgt=  78.9183361  15.9949146   1.0078250   1.0078250  15.9949146   1.0078250   1.0078250  15.9949146   1.0078250   1.0078250
 NucSpn=           3           0           1           1           0           1           1           0           1           1
 AtZEff=   0.0000000   0.0000000   0.0000000   0.0000000   0.0000000   0.0000000   0.0000000   0.0000000   0.0000000   0.0000000
 NQMom=   31.3000000   0.0000000   0.0000000   0.0000000   0.0000000   0.0000000   0.0000000   0.0000000   0.0000000   0.0000000
 NMagM=    2.1063990   0.0000000   2.7928460   2.7928460   0.0000000   2.7928460   2.7928460   0.0000000   2.7928460   2.7928460
 AtZNuc=  35.0000000   8.0000000   1.0000000   1.0000000   8.0000000   1.0000000   1.0000000   8.0000000   1.0000000   1.0000000

  Atom        11          12          13          14          15          16          17          18          19          20
 IAtWgt=          16           1           1          16           1           1          16           1           1          16
 AtmWgt=  15.9949146   1.0078250   1.0078250  15.9949146   1.0078250   1.0078250  15.9949146   1.0078250   1.0078250  15.9949146
 NucSpn=           0           1           1           0           1           1           0           1           1           0
 AtZEff=   0.0000000   0.0000000   0.0000000   0.0000000   0.0000000   0.0000000   0.0000000   0.0000000   0.0000000   0.0000000
 NQMom=    0.0000000   0.0000000   0.0000000   0.0000000   0.0000000   0.0000000   0.0000000   0.0000000   0.0000000   0.0000000
 NMagM=    0.0000000   2.7928460   2.7928460   0.0000000   2.7928460   2.7928460   0.0000000   2.7928460   2.7928460   0.0000000
 AtZNuc=   8.0000000   1.0000000   1.0000000   8.0000000   1.0000000   1.0000000   8.0000000   1.0000000   1.0000000   8.0000000

  Atom        21          22          23          24          25          26          27          28          29          30
 IAtWgt=           1           1          16           1           1          16           1           1          16           1
 AtmWgt=   1.0078250   1.0078250  15.9949146   1.0078250   1.0078250  15.9949146   1.0078250   1.0078250  15.9949146   1.0078250
 NucSpn=           1           1           0           1           1           0           1           1           0           1
 AtZEff=   0.0000000   0.0000000   0.0000000   0.0000000   0.0000000   0.0000000   0.0000000   0.0000000   0.0000000   0.0000000
 NQMom=    0.0000000   0.0000000   0.0000000   0.0000000   0.0000000   0.0000000   0.0000000   0.0000000   0.0000000   0.0000000
 NMagM=    2.7928460   2.7928460   0.0000000   2.7928460   2.7928460   0.0000000   2.7928460   2.7928460   0.0000000   2.7928460
 AtZNuc=   1.0000000   1.0000000   8.0000000   1.0000000   1.0000000   8.0000000   1.0000000   1.0000000   8.0000000   1.0000000

  Atom        31          32          33          34          35          36          37          38          39          40
 IAtWgt=           1          16           1           1          16           1           1          16           1           1
 AtmWgt=   1.0078250  15.9949146   1.0078250   1.0078250  15.9949146   1.0078250   1.0078250  15.9949146   1.0078250   1.0078250
 NucSpn=           1           0           1           1           0           1           1           0           1           1
 AtZEff=   0.0000000   0.0000000   0.0000000   0.0000000   0.0000000   0.0000000   0.0000000   0.0000000   0.0000000   0.0000000
 NQMom=    0.0000000   0.0000000   0.0000000   0.0000000   0.0000000   0.0000000   0.0000000   0.0000000   0.0000000   0.0000000
 NMagM=    2.7928460   0.0000000   2.7928460   2.7928460   0.0000000   2.7928460   2.7928460   0.0000000   2.7928460   2.7928460
 AtZNuc=   1.0000000   8.0000000   1.0000000   1.0000000   8.0000000   1.0000000   1.0000000   8.0000000   1.0000000   1.0000000

  Atom        41          42          43          44          45          46          47          48          49          50
 IAtWgt=          16           1           1          16           1           1          16           1           1          16
 AtmWgt=  15.9949146   1.0078250   1.0078250  15.9949146   1.0078250   1.0078250  15.9949146   1.0078250   1.0078250  15.9949146
 NucSpn=           0           1           1           0           1           1           0           1           1           0
 AtZEff=   0.0000000   0.0000000   0.0000000   0.0000000   0.0000000   0.0000000   0.0000000   0.0000000   0.0000000   0.0000000
 NQMom=    0.0000000   0.0000000   0.0000000   0.0000000   0.0000000   0.0000000   0.0000000   0.0000000   0.0000000   0.0000000
 NMagM=    0.0000000   2.7928460   2.7928460   0.0000000   2.7928460   2.7928460   0.0000000   2.7928460   2.7928460   0.0000000
 AtZNuc=   8.0000000   1.0000000   1.0000000   8.0000000   1.0000000   1.0000000   8.0000000   1.0000000   1.0000000   8.0000000

  Atom        51          52          53          54          55          56          57          58          59          60
 IAtWgt=           1           1          16           1           1          16           1           1          16           1
 AtmWgt=   1.0078250   1.0078250  15.9949146   1.0078250   1.0078250  15.9949146   1.0078250   1.0078250  15.9949146   1.0078250
 NucSpn=           1           1           0           1           1           0           1           1           0           1
 AtZEff=   0.0000000   0.0000000   0.0000000   0.0000000   0.0000000   0.0000000   0.0000000   0.0000000   0.0000000   0.0000000
 NQMom=    0.0000000   0.0000000   0.0000000   0.0000000   0.0000000   0.0000000   0.0000000   0.0000000   0.0000000   0.0000000
 NMagM=    2.7928460   2.7928460   0.0000000   2.7928460   2.7928460   0.0000000   2.7928460   2.7928460   0.0000000   2.7928460
 AtZNuc=   1.0000000   1.0000000   8.0000000   1.0000000   1.0000000   8.0000000   1.0000000   1.0000000   8.0000000   1.0000000

  Atom        61          62          63          64          65          66          67          68          69          70
 IAtWgt=           1          16           1           1          16           1           1          16           1           1
 AtmWgt=   1.0078250  15.9949146   1.0078250   1.0078250  15.9949146   1.0078250   1.0078250  15.9949146   1.0078250   1.0078250
 NucSpn=           1           0           1           1           0           1           1           0           1           1
 AtZEff=   0.0000000   0.0000000   0.0000000   0.0000000   0.0000000   0.0000000   0.0000000   0.0000000   0.0000000   0.0000000
 NQMom=    0.0000000   0.0000000   0.0000000   0.0000000   0.0000000   0.0000000   0.0000000   0.0000000   0.0000000   0.0000000
 NMagM=    2.7928460   0.0000000   2.7928460   2.7928460   0.0000000   2.7928460   2.7928460   0.0000000   2.7928460   2.7928460
 AtZNuc=   1.0000000   8.0000000   1.0000000   1.0000000   8.0000000   1.0000000   1.0000000   8.0000000   1.0000000   1.0000000

  Atom        71          72          73          74          75          76          77          78          79          80
 IAtWgt=          16           1           1          16           1           1          16           1           1          16
 AtmWgt=  15.9949146   1.0078250   1.0078250  15.9949146   1.0078250   1.0078250  15.9949146   1.0078250   1.0078250  15.9949146
 NucSpn=           0           1           1           0           1           1           0           1           1           0
 AtZEff=   0.0000000   0.0000000   0.0000000   0.0000000   0.0000000   0.0000000   0.0000000   0.0000000   0.0000000   0.0000000
 NQMom=    0.0000000   0.0000000   0.0000000   0.0000000   0.0000000   0.0000000   0.0000000   0.0000000   0.0000000   0.0000000
 NMagM=    0.0000000   2.7928460   2.7928460   0.0000000   2.7928460   2.7928460   0.0000000   2.7928460   2.7928460   0.0000000
 AtZNuc=   8.0000000   1.0000000   1.0000000   8.0000000   1.0000000   1.0000000   8.0000000   1.0000000   1.0000000   8.0000000

  Atom        81          82          83          84          85          86          87          88          89          90
 IAtWgt=           1           1          16           1           1          16           1           1          16           1
 AtmWgt=   1.0078250   1.0078250  15.9949146   1.0078250   1.0078250  15.9949146   1.0078250   1.0078250  15.9949146   1.0078250
 NucSpn=           1           1           0           1           1           0           1           1           0           1
 AtZEff=   0.0000000   0.0000000   0.0000000   0.0000000   0.0000000   0.0000000   0.0000000   0.0000000   0.0000000   0.0000000
 NQMom=    0.0000000   0.0000000   0.0000000   0.0000000   0.0000000   0.0000000   0.0000000   0.0000000   0.0000000   0.0000000
 NMagM=    2.7928460   2.7928460   0.0000000   2.7928460   2.7928460   0.0000000   2.7928460   2.7928460   0.0000000   2.7928460
 AtZNuc=   1.0000000   1.0000000   8.0000000   1.0000000   1.0000000   8.0000000   1.0000000   1.0000000   8.0000000   1.0000000

  Atom        91          92          93          94          95          96          97          98          99         100
 IAtWgt=           1          16           1           1          16           1           1          16           1           1
 AtmWgt=   1.0078250  15.9949146   1.0078250   1.0078250  15.9949146   1.0078250   1.0078250  15.9949146   1.0078250   1.0078250
 NucSpn=           1           0           1           1           0           1           1           0           1           1
 AtZEff=   0.0000000   0.0000000   0.0000000   0.0000000   0.0000000   0.0000000   0.0000000   0.0000000   0.0000000   0.0000000
 NQMom=    0.0000000   0.0000000   0.0000000   0.0000000   0.0000000   0.0000000   0.0000000   0.0000000   0.0000000   0.0000000
 NMagM=    2.7928460   0.0000000   2.7928460   2.7928460   0.0000000   2.7928460   2.7928460   0.0000000   2.7928460   2.7928460
 AtZNuc=   1.0000000   8.0000000   1.0000000   1.0000000   8.0000000   1.0000000   1.0000000   8.0000000   1.0000000   1.0000000

  Atom       101         102         103         104         105         106         107         108         109         110
 IAtWgt=          16           1           1          16           1           1          16           1           1          16
 AtmWgt=  15.9949146   1.0078250   1.0078250  15.9949146   1.0078250   1.0078250  15.9949146   1.0078250   1.0078250  15.9949146
 NucSpn=           0           1           1           0           1           1           0           1           1           0
 AtZEff=   0.0000000   0.0000000   0.0000000   0.0000000   0.0000000   0.0000000   0.0000000   0.0000000   0.0000000   0.0000000
 NQMom=    0.0000000   0.0000000   0.0000000   0.0000000   0.0000000   0.0000000   0.0000000   0.0000000   0.0000000   0.0000000
 NMagM=    0.0000000   2.7928460   2.7928460   0.0000000   2.7928460   2.7928460   0.0000000   2.7928460   2.7928460   0.0000000
 AtZNuc=   8.0000000   1.0000000   1.0000000   8.0000000   1.0000000   1.0000000   8.0000000   1.0000000   1.0000000   8.0000000

  Atom       111         112         113         114         115         116         117         118         119         120
 IAtWgt=           1           1          16           1           1          16           1           1          16           1
 AtmWgt=   1.0078250   1.0078250  15.9949146   1.0078250   1.0078250  15.9949146   1.0078250   1.0078250  15.9949146   1.0078250
 NucSpn=           1           1           0           1           1           0           1           1           0           1
 AtZEff=   0.0000000   0.0000000   0.0000000   0.0000000   0.0000000   0.0000000   0.0000000   0.0000000   0.0000000   0.0000000
 NQMom=    0.0000000   0.0000000   0.0000000   0.0000000   0.0000000   0.0000000   0.0000000   0.0000000   0.0000000   0.0000000
 NMagM=    2.7928460   2.7928460   0.0000000   2.7928460   2.7928460   0.0000000   2.7928460   2.7928460   0.0000000   2.7928460
 AtZNuc=   1.0000000   1.0000000   8.0000000   1.0000000   1.0000000   8.0000000   1.0000000   1.0000000   8.0000000   1.0000000

  Atom       121         122         123         124         125         126         127         128         129         130
 IAtWgt=           1          16           1           1          16           1           1          16           1           1
 AtmWgt=   1.0078250  15.9949146   1.0078250   1.0078250  15.9949146   1.0078250   1.0078250  15.9949146   1.0078250   1.0078250
 NucSpn=           1           0           1           1           0           1           1           0           1           1
 AtZEff=   0.0000000   0.0000000   0.0000000   0.0000000   0.0000000   0.0000000   0.0000000   0.0000000   0.0000000   0.0000000
 NQMom=    0.0000000   0.0000000   0.0000000   0.0000000   0.0000000   0.0000000   0.0000000   0.0000000   0.0000000   0.0000000
 NMagM=    2.7928460   0.0000000   2.7928460   2.7928460   0.0000000   2.7928460   2.7928460   0.0000000   2.7928460   2.7928460
 AtZNuc=   1.0000000   8.0000000   1.0000000   1.0000000   8.0000000   1.0000000   1.0000000   8.0000000   1.0000000   1.0000000

  Atom       131         132         133         134         135         136         137         138         139         140
 IAtWgt=          16           1           1          16           1           1          16           1           1          16
 AtmWgt=  15.9949146   1.0078250   1.0078250  15.9949146   1.0078250   1.0078250  15.9949146   1.0078250   1.0078250  15.9949146
 NucSpn=           0           1           1           0           1           1           0           1           1           0
 AtZEff=   0.0000000   0.0000000   0.0000000   0.0000000   0.0000000   0.0000000   0.0000000   0.0000000   0.0000000   0.0000000
 NQMom=    0.0000000   0.0000000   0.0000000   0.0000000   0.0000000   0.0000000   0.0000000   0.0000000   0.0000000   0.0000000
 NMagM=    0.0000000   2.7928460   2.7928460   0.0000000   2.7928460   2.7928460   0.0000000   2.7928460   2.7928460   0.0000000
 AtZNuc=   8.0000000   1.0000000   1.0000000   8.0000000   1.0000000   1.0000000   8.0000000   1.0000000   1.0000000   8.0000000

  Atom       141         142         143         144         145         146         147         148         149         150
 IAtWgt=           1           1          16           1           1          16           1           1          16           1
 AtmWgt=   1.0078250   1.0078250  15.9949146   1.0078250   1.0078250  15.9949146   1.0078250   1.0078250  15.9949146   1.0078250
 NucSpn=           1           1           0           1           1           0           1           1           0           1
 AtZEff=   0.0000000   0.0000000   0.0000000   0.0000000   0.0000000   0.0000000   0.0000000   0.0000000   0.0000000   0.0000000
 NQMom=    0.0000000   0.0000000   0.0000000   0.0000000   0.0000000   0.0000000   0.0000000   0.0000000   0.0000000   0.0000000
 NMagM=    2.7928460   2.7928460   0.0000000   2.7928460   2.7928460   0.0000000   2.7928460   2.7928460   0.0000000   2.7928460
 AtZNuc=   1.0000000   1.0000000   8.0000000   1.0000000   1.0000000   8.0000000   1.0000000   1.0000000   8.0000000   1.0000000

  Atom       151         152         153         154         155         156         157         158         159         160
 IAtWgt=           1          16           1           1          16           1           1          16           1           1
 AtmWgt=   1.0078250  15.9949146   1.0078250   1.0078250  15.9949146   1.0078250   1.0078250  15.9949146   1.0078250   1.0078250
 NucSpn=           1           0           1           1           0           1           1           0           1           1
 AtZEff=   0.0000000   0.0000000   0.0000000   0.0000000   0.0000000   0.0000000   0.0000000   0.0000000   0.0000000   0.0000000
 NQMom=    0.0000000   0.0000000   0.0000000   0.0000000   0.0000000   0.0000000   0.0000000   0.0000000   0.0000000   0.0000000
 NMagM=    2.7928460   0.0000000   2.7928460   2.7928460   0.0000000   2.7928460   2.7928460   0.0000000   2.7928460   2.7928460
 AtZNuc=   1.0000000   8.0000000   1.0000000   1.0000000   8.0000000   1.0000000   1.0000000   8.0000000   1.0000000   1.0000000

  Atom       161         162         163         164         165         166         167         168         169         170
 IAtWgt=          16           1           1          16           1           1          16           1           1          16
 AtmWgt=  15.9949146   1.0078250   1.0078250  15.9949146   1.0078250   1.0078250  15.9949146   1.0078250   1.0078250  15.9949146
 NucSpn=           0           1           1           0           1           1           0           1           1           0
 AtZEff=   0.0000000   0.0000000   0.0000000   0.0000000   0.0000000   0.0000000   0.0000000   0.0000000   0.0000000   0.0000000
 NQMom=    0.0000000   0.0000000   0.0000000   0.0000000   0.0000000   0.0000000   0.0000000   0.0000000   0.0000000   0.0000000
 NMagM=    0.0000000   2.7928460   2.7928460   0.0000000   2.7928460   2.7928460   0.0000000   2.7928460   2.7928460   0.0000000
 AtZNuc=   8.0000000   1.0000000   1.0000000   8.0000000   1.0000000   1.0000000   8.0000000   1.0000000   1.0000000   8.0000000

  Atom       171         172         173         174         175         176         177         178         179         180
 IAtWgt=           1           1          16           1           1          16           1           1          16           1
 AtmWgt=   1.0078250   1.0078250  15.9949146   1.0078250   1.0078250  15.9949146   1.0078250   1.0078250  15.9949146   1.0078250
 NucSpn=           1           1           0           1           1           0           1           1           0           1
 AtZEff=   0.0000000   0.0000000   0.0000000   0.0000000   0.0000000   0.0000000   0.0000000   0.0000000   0.0000000   0.0000000
 NQMom=    0.0000000   0.0000000   0.0000000   0.0000000   0.0000000   0.0000000   0.0000000   0.0000000   0.0000000   0.0000000
 NMagM=    2.7928460   2.7928460   0.0000000   2.7928460   2.7928460   0.0000000   2.7928460   2.7928460   0.0000000   2.7928460
 AtZNuc=   1.0000000   1.0000000   8.0000000   1.0000000   1.0000000   8.0000000   1.0000000   1.0000000   8.0000000   1.0000000

  Atom       181         182         183         184         185         186         187         188         189         190
 IAtWgt=           1          16           1           1          16           1           1          16           1           1
 AtmWgt=   1.0078250  15.9949146   1.0078250   1.0078250  15.9949146   1.0078250   1.0078250  15.9949146   1.0078250   1.0078250
 NucSpn=           1           0           1           1           0           1           1           0           1           1
 AtZEff=   0.0000000   0.0000000   0.0000000   0.0000000   0.0000000   0.0000000   0.0000000   0.0000000   0.0000000   0.0000000
 NQMom=    0.0000000   0.0000000   0.0000000   0.0000000   0.0000000   0.0000000   0.0000000   0.0000000   0.0000000   0.0000000
 NMagM=    2.7928460   0.0000000   2.7928460   2.7928460   0.0000000   2.7928460   2.7928460   0.0000000   2.7928460   2.7928460
 AtZNuc=   1.0000000   8.0000000   1.0000000   1.0000000   8.0000000   1.0000000   1.0000000   8.0000000   1.0000000   1.0000000

  Atom       191         192         193         194         195         196         197         198         199         200
 IAtWgt=          16           1           1          16           1           1          16           1           1          16
 AtmWgt=  15.9949146   1.0078250   1.0078250  15.9949146   1.0078250   1.0078250  15.9949146   1.0078250   1.0078250  15.9949146
 NucSpn=           0           1           1           0           1           1           0           1           1           0
 AtZEff=   0.0000000   0.0000000   0.0000000   0.0000000   0.0000000   0.0000000   0.0000000   0.0000000   0.0000000   0.0000000
 NQMom=    0.0000000   0.0000000   0.0000000   0.0000000   0.0000000   0.0000000   0.0000000   0.0000000   0.0000000   0.0000000
 NMagM=    0.0000000   2.7928460   2.7928460   0.0000000   2.7928460   2.7928460   0.0000000   2.7928460   2.7928460   0.0000000
 AtZNuc=   8.0000000   1.0000000   1.0000000   8.0000000   1.0000000   1.0000000   8.0000000   1.0000000   1.0000000   8.0000000

  Atom       201         202         203         204         205         206         207         208         209         210
 IAtWgt=           1           1          16           1           1          16           1           1          16           1
 AtmWgt=   1.0078250   1.0078250  15.9949146   1.0078250   1.0078250  15.9949146   1.0078250   1.0078250  15.9949146   1.0078250
 NucSpn=           1           1           0           1           1           0           1           1           0           1
 AtZEff=   0.0000000   0.0000000   0.0000000   0.0000000   0.0000000   0.0000000   0.0000000   0.0000000   0.0000000   0.0000000
 NQMom=    0.0000000   0.0000000   0.0000000   0.0000000   0.0000000   0.0000000   0.0000000   0.0000000   0.0000000   0.0000000
 NMagM=    2.7928460   2.7928460   0.0000000   2.7928460   2.7928460   0.0000000   2.7928460   2.7928460   0.0000000   2.7928460
 AtZNuc=   1.0000000   1.0000000   8.0000000   1.0000000   1.0000000   8.0000000   1.0000000   1.0000000   8.0000000   1.0000000

  Atom       211         212         213         214         215         216         217         218         219         220
 IAtWgt=           1          16           1           1          16           1           1          16           1           1
 AtmWgt=   1.0078250  15.9949146   1.0078250   1.0078250  15.9949146   1.0078250   1.0078250  15.9949146   1.0078250   1.0078250
 NucSpn=           1           0           1           1           0           1           1           0           1           1
 AtZEff=   0.0000000   0.0000000   0.0000000   0.0000000   0.0000000   0.0000000   0.0000000   0.0000000   0.0000000   0.0000000
 NQMom=    0.0000000   0.0000000   0.0000000   0.0000000   0.0000000   0.0000000   0.0000000   0.0000000   0.0000000   0.0000000
 NMagM=    2.7928460   0.0000000   2.7928460   2.7928460   0.0000000   2.7928460   2.7928460   0.0000000   2.7928460   2.7928460
 AtZNuc=   1.0000000   8.0000000   1.0000000   1.0000000   8.0000000   1.0000000   1.0000000   8.0000000   1.0000000   1.0000000

  Atom       221         222         223         224         225         226         227         228         229         230
 IAtWgt=          16           1           1          16           1           1          16           1           1          16
 AtmWgt=  15.9949146   1.0078250   1.0078250  15.9949146   1.0078250   1.0078250  15.9949146   1.0078250   1.0078250  15.9949146
 NucSpn=           0           1           1           0           1           1           0           1           1           0
 AtZEff=   0.0000000   0.0000000   0.0000000   0.0000000   0.0000000   0.0000000   0.0000000   0.0000000   0.0000000   0.0000000
 NQMom=    0.0000000   0.0000000   0.0000000   0.0000000   0.0000000   0.0000000   0.0000000   0.0000000   0.0000000   0.0000000
 NMagM=    0.0000000   2.7928460   2.7928460   0.0000000   2.7928460   2.7928460   0.0000000   2.7928460   2.7928460   0.0000000
 AtZNuc=   8.0000000   1.0000000   1.0000000   8.0000000   1.0000000   1.0000000   8.0000000   1.0000000   1.0000000   8.0000000

  Atom       231         232         233         234         235         236         237         238         239         240
 IAtWgt=           1           1          16           1           1          16           1           1          16           1
 AtmWgt=   1.0078250   1.0078250  15.9949146   1.0078250   1.0078250  15.9949146   1.0078250   1.0078250  15.9949146   1.0078250
 NucSpn=           1           1           0           1           1           0           1           1           0           1
 AtZEff=   0.0000000   0.0000000   0.0000000   0.0000000   0.0000000   0.0000000   0.0000000   0.0000000   0.0000000   0.0000000
 NQMom=    0.0000000   0.0000000   0.0000000   0.0000000   0.0000000   0.0000000   0.0000000   0.0000000   0.0000000   0.0000000
 NMagM=    2.7928460   2.7928460   0.0000000   2.7928460   2.7928460   0.0000000   2.7928460   2.7928460   0.0000000   2.7928460
 AtZNuc=   1.0000000   1.0000000   8.0000000   1.0000000   1.0000000   8.0000000   1.0000000   1.0000000   8.0000000   1.0000000

  Atom       241         242         243         244         245         246         247         248         249         250
 IAtWgt=           1          16           1           1          16           1           1          16           1           1
 AtmWgt=   1.0078250  15.9949146   1.0078250   1.0078250  15.9949146   1.0078250   1.0078250  15.9949146   1.0078250   1.0078250
 NucSpn=           1           0           1           1           0           1           1           0           1           1
 AtZEff=   0.0000000   0.0000000   0.0000000   0.0000000   0.0000000   0.0000000   0.0000000   0.0000000   0.0000000   0.0000000
 NQMom=    0.0000000   0.0000000   0.0000000   0.0000000   0.0000000   0.0000000   0.0000000   0.0000000   0.0000000   0.0000000
 NMagM=    2.7928460   0.0000000   2.7928460   2.7928460   0.0000000   2.7928460   2.7928460   0.0000000   2.7928460   2.7928460
 AtZNuc=   1.0000000   8.0000000   1.0000000   1.0000000   8.0000000   1.0000000   1.0000000   8.0000000   1.0000000   1.0000000

  Atom       251         252         253         254         255         256         257         258         259         260
 IAtWgt=          16           1           1          16           1           1          16           1           1          16
 AtmWgt=  15.9949146   1.0078250   1.0078250  15.9949146   1.0078250   1.0078250  15.9949146   1.0078250   1.0078250  15.9949146
 NucSpn=           0           1           1           0           1           1           0           1           1           0
 AtZEff=   0.0000000   0.0000000   0.0000000   0.0000000   0.0000000   0.0000000   0.0000000   0.0000000   0.0000000   0.0000000
 NQMom=    0.0000000   0.0000000   0.0000000   0.0000000   0.0000000   0.0000000   0.0000000   0.0000000   0.0000000   0.0000000
 NMagM=    0.0000000   2.7928460   2.7928460   0.0000000   2.7928460   2.7928460   0.0000000   2.7928460   2.7928460   0.0000000
 AtZNuc=   8.0000000   1.0000000   1.0000000   8.0000000   1.0000000   1.0000000   8.0000000   1.0000000   1.0000000   8.0000000

  Atom       261         262         263         264         265         266         267         268         269         270
 IAtWgt=           1           1          16           1           1          16           1           1          16           1
 AtmWgt=   1.0078250   1.0078250  15.9949146   1.0078250   1.0078250  15.9949146   1.0078250   1.0078250  15.9949146   1.0078250
 NucSpn=           1           1           0           1           1           0           1           1           0           1
 AtZEff=   0.0000000   0.0000000   0.0000000   0.0000000   0.0000000   0.0000000   0.0000000   0.0000000   0.0000000   0.0000000
 NQMom=    0.0000000   0.0000000   0.0000000   0.0000000   0.0000000   0.0000000   0.0000000   0.0000000   0.0000000   0.0000000
 NMagM=    2.7928460   2.7928460   0.0000000   2.7928460   2.7928460   0.0000000   2.7928460   2.7928460   0.0000000   2.7928460
 AtZNuc=   1.0000000   1.0000000   8.0000000   1.0000000   1.0000000   8.0000000   1.0000000   1.0000000   8.0000000   1.0000000

  Atom       271         272         273         274         275         276         277         278         279         280
 IAtWgt=           1          16           1           1          16           1           1          16           1           1
 AtmWgt=   1.0078250  15.9949146   1.0078250   1.0078250  15.9949146   1.0078250   1.0078250  15.9949146   1.0078250   1.0078250
 NucSpn=           1           0           1           1           0           1           1           0           1           1
 AtZEff=   0.0000000   0.0000000   0.0000000   0.0000000   0.0000000   0.0000000   0.0000000   0.0000000   0.0000000   0.0000000
 NQMom=    0.0000000   0.0000000   0.0000000   0.0000000   0.0000000   0.0000000   0.0000000   0.0000000   0.0000000   0.0000000
 NMagM=    2.7928460   0.0000000   2.7928460   2.7928460   0.0000000   2.7928460   2.7928460   0.0000000   2.7928460   2.7928460
 AtZNuc=   1.0000000   8.0000000   1.0000000   1.0000000   8.0000000   1.0000000   1.0000000   8.0000000   1.0000000   1.0000000

  Atom       281         282         283         284         285         286         287         288         289         290
 IAtWgt=          16           1           1          16           1           1          16           1           1          16
 AtmWgt=  15.9949146   1.0078250   1.0078250  15.9949146   1.0078250   1.0078250  15.9949146   1.0078250   1.0078250  15.9949146
 NucSpn=           0           1           1           0           1           1           0           1           1           0
 AtZEff=   0.0000000   0.0000000   0.0000000   0.0000000   0.0000000   0.0000000   0.0000000   0.0000000   0.0000000   0.0000000
 NQMom=    0.0000000   0.0000000   0.0000000   0.0000000   0.0000000   0.0000000   0.0000000   0.0000000   0.0000000   0.0000000
 NMagM=    0.0000000   2.7928460   2.7928460   0.0000000   2.7928460   2.7928460   0.0000000   2.7928460   2.7928460   0.0000000
 AtZNuc=   8.0000000   1.0000000   1.0000000   8.0000000   1.0000000   1.0000000   8.0000000   1.0000000   1.0000000   8.0000000

  Atom       291         292         293         294         295         296         297         298         299         300
 IAtWgt=           1           1          16           1           1          16           1           1          16           1
 AtmWgt=   1.0078250   1.0078250  15.9949146   1.0078250   1.0078250  15.9949146   1.0078250   1.0078250  15.9949146   1.0078250
 NucSpn=           1           1           0           1           1           0           1           1           0           1
 AtZEff=   0.0000000   0.0000000   0.0000000   0.0000000   0.0000000   0.0000000   0.0000000   0.0000000   0.0000000   0.0000000
 NQMom=    0.0000000   0.0000000   0.0000000   0.0000000   0.0000000   0.0000000   0.0000000   0.0000000   0.0000000   0.0000000
 NMagM=    2.7928460   2.7928460   0.0000000   2.7928460   2.7928460   0.0000000   2.7928460   2.7928460   0.0000000   2.7928460
 AtZNuc=   1.0000000   1.0000000   8.0000000   1.0000000   1.0000000   8.0000000   1.0000000   1.0000000   8.0000000   1.0000000

  Atom       301         302         303         304         305         306         307         308         309         310
 IAtWgt=           1          16           1           1          16           1           1          16           1           1
 AtmWgt=   1.0078250  15.9949146   1.0078250   1.0078250  15.9949146   1.0078250   1.0078250  15.9949146   1.0078250   1.0078250
 NucSpn=           1           0           1           1           0           1           1           0           1           1
 AtZEff=   0.0000000   0.0000000   0.0000000   0.0000000   0.0000000   0.0000000   0.0000000   0.0000000   0.0000000   0.0000000
 NQMom=    0.0000000   0.0000000   0.0000000   0.0000000   0.0000000   0.0000000   0.0000000   0.0000000   0.0000000   0.0000000
 NMagM=    2.7928460   0.0000000   2.7928460   2.7928460   0.0000000   2.7928460   2.7928460   0.0000000   2.7928460   2.7928460
 AtZNuc=   1.0000000   8.0000000   1.0000000   1.0000000   8.0000000   1.0000000   1.0000000   8.0000000   1.0000000   1.0000000

  Atom       311         312         313         314         315         316         317         318         319         320
 IAtWgt=          16           1           1          16           1           1          16           1           1          16
 AtmWgt=  15.9949146   1.0078250   1.0078250  15.9949146   1.0078250   1.0078250  15.9949146   1.0078250   1.0078250  15.9949146
 NucSpn=           0           1           1           0           1           1           0           1           1           0
 AtZEff=   0.0000000   0.0000000   0.0000000   0.0000000   0.0000000   0.0000000   0.0000000   0.0000000   0.0000000   0.0000000
 NQMom=    0.0000000   0.0000000   0.0000000   0.0000000   0.0000000   0.0000000   0.0000000   0.0000000   0.0000000   0.0000000
 NMagM=    0.0000000   2.7928460   2.7928460   0.0000000   2.7928460   2.7928460   0.0000000   2.7928460   2.7928460   0.0000000
 AtZNuc=   8.0000000   1.0000000   1.0000000   8.0000000   1.0000000   1.0000000   8.0000000   1.0000000   1.0000000   8.0000000

  Atom       321         322         323         324         325         326         327         328         329         330
 IAtWgt=           1           1          16           1           1          16           1           1          16           1
 AtmWgt=   1.0078250   1.0078250  15.9949146   1.0078250   1.0078250  15.9949146   1.0078250   1.0078250  15.9949146   1.0078250
 NucSpn=           1           1           0           1           1           0           1           1           0           1
 AtZEff=   0.0000000   0.0000000   0.0000000   0.0000000   0.0000000   0.0000000   0.0000000   0.0000000   0.0000000   0.0000000
 NQMom=    0.0000000   0.0000000   0.0000000   0.0000000   0.0000000   0.0000000   0.0000000   0.0000000   0.0000000   0.0000000
 NMagM=    2.7928460   2.7928460   0.0000000   2.7928460   2.7928460   0.0000000   2.7928460   2.7928460   0.0000000   2.7928460
 AtZNuc=   1.0000000   1.0000000   8.0000000   1.0000000   1.0000000   8.0000000   1.0000000   1.0000000   8.0000000   1.0000000

  Atom       331         332         333         334         335         336         337         338         339         340
 IAtWgt=           1          16           1           1          16           1           1          16           1           1
 AtmWgt=   1.0078250  15.9949146   1.0078250   1.0078250  15.9949146   1.0078250   1.0078250  15.9949146   1.0078250   1.0078250
 NucSpn=           1           0           1           1           0           1           1           0           1           1
 AtZEff=   0.0000000   0.0000000   0.0000000   0.0000000   0.0000000   0.0000000   0.0000000   0.0000000   0.0000000   0.0000000
 NQMom=    0.0000000   0.0000000   0.0000000   0.0000000   0.0000000   0.0000000   0.0000000   0.0000000   0.0000000   0.0000000
 NMagM=    2.7928460   0.0000000   2.7928460   2.7928460   0.0000000   2.7928460   2.7928460   0.0000000   2.7928460   2.7928460
 AtZNuc=   1.0000000   8.0000000   1.0000000   1.0000000   8.0000000   1.0000000   1.0000000   8.0000000   1.0000000   1.0000000

  Atom       341         342         343         344         345         346         347         348         349         350
 IAtWgt=          16           1           1          16           1           1          16           1           1          16
 AtmWgt=  15.9949146   1.0078250   1.0078250  15.9949146   1.0078250   1.0078250  15.9949146   1.0078250   1.0078250  15.9949146
 NucSpn=           0           1           1           0           1           1           0           1           1           0
 AtZEff=   0.0000000   0.0000000   0.0000000   0.0000000   0.0000000   0.0000000   0.0000000   0.0000000   0.0000000   0.0000000
 NQMom=    0.0000000   0.0000000   0.0000000   0.0000000   0.0000000   0.0000000   0.0000000   0.0000000   0.0000000   0.0000000
 NMagM=    0.0000000   2.7928460   2.7928460   0.0000000   2.7928460   2.7928460   0.0000000   2.7928460   2.7928460   0.0000000
 AtZNuc=   8.0000000   1.0000000   1.0000000   8.0000000   1.0000000   1.0000000   8.0000000   1.0000000   1.0000000   8.0000000

  Atom       351         352         353         354         355         356         357         358         359         360
 IAtWgt=           1           1          16           1           1          16           1           1          16           1
 AtmWgt=   1.0078250   1.0078250  15.9949146   1.0078250   1.0078250  15.9949146   1.0078250   1.0078250  15.9949146   1.0078250
 NucSpn=           1           1           0           1           1           0           1           1           0           1
 AtZEff=   0.0000000   0.0000000   0.0000000   0.0000000   0.0000000   0.0000000   0.0000000   0.0000000   0.0000000   0.0000000
 NQMom=    0.0000000   0.0000000   0.0000000   0.0000000   0.0000000   0.0000000   0.0000000   0.0000000   0.0000000   0.0000000
 NMagM=    2.7928460   2.7928460   0.0000000   2.7928460   2.7928460   0.0000000   2.7928460   2.7928460   0.0000000   2.7928460
 AtZNuc=   1.0000000   1.0000000   8.0000000   1.0000000   1.0000000   8.0000000   1.0000000   1.0000000   8.0000000   1.0000000

  Atom       361         362         363         364         365         366         367         368         369         370
 IAtWgt=           1          16           1           1          16           1           1          16           1           1
 AtmWgt=   1.0078250  15.9949146   1.0078250   1.0078250  15.9949146   1.0078250   1.0078250  15.9949146   1.0078250   1.0078250
 NucSpn=           1           0           1           1           0           1           1           0           1           1
 AtZEff=   0.0000000   0.0000000   0.0000000   0.0000000   0.0000000   0.0000000   0.0000000   0.0000000   0.0000000   0.0000000
 NQMom=    0.0000000   0.0000000   0.0000000   0.0000000   0.0000000   0.0000000   0.0000000   0.0000000   0.0000000   0.0000000
 NMagM=    2.7928460   0.0000000   2.7928460   2.7928460   0.0000000   2.7928460   2.7928460   0.0000000   2.7928460   2.7928460
 AtZNuc=   1.0000000   8.0000000   1.0000000   1.0000000   8.0000000   1.0000000   1.0000000   8.0000000   1.0000000   1.0000000

  Atom       371         372         373         374         375         376         377         378         379         380
 IAtWgt=          16           1           1          16           1           1          16           1           1          16
 AtmWgt=  15.9949146   1.0078250   1.0078250  15.9949146   1.0078250   1.0078250  15.9949146   1.0078250   1.0078250  15.9949146
 NucSpn=           0           1           1           0           1           1           0           1           1           0
 AtZEff=   0.0000000   0.0000000   0.0000000   0.0000000   0.0000000   0.0000000   0.0000000   0.0000000   0.0000000   0.0000000
 NQMom=    0.0000000   0.0000000   0.0000000   0.0000000   0.0000000   0.0000000   0.0000000   0.0000000   0.0000000   0.0000000
 NMagM=    0.0000000   2.7928460   2.7928460   0.0000000   2.7928460   2.7928460   0.0000000   2.7928460   2.7928460   0.0000000
 AtZNuc=   8.0000000   1.0000000   1.0000000   8.0000000   1.0000000   1.0000000   8.0000000   1.0000000   1.0000000   8.0000000

  Atom       381         382         383         384         385
 IAtWgt=           1           1          16           1           1
 AtmWgt=   1.0078250   1.0078250  15.9949146   1.0078250   1.0078250
 NucSpn=           1           1           0           1           1
 AtZEff=   0.0000000   0.0000000   0.0000000   0.0000000   0.0000000
 NQMom=    0.0000000   0.0000000   0.0000000   0.0000000   0.0000000
 NMagM=    2.7928460   2.7928460   0.0000000   2.7928460   2.7928460
 AtZNuc=   1.0000000   1.0000000   8.0000000   1.0000000   1.0000000
 Leave Link  101 at Thu May 17 02:04:55 2018, MaxMem= 14763950080 cpu:        33.2
 (Enter /cm/shared/gaussian/g09.e01/intel64-sandybridge/g09/l103.exe)

 GradGradGradGradGradGradGradGradGradGradGradGradGradGradGradGradGradGrad
 Berny optimization.
 Initialization pass.
 Trust Radius=3.00D-01 FncErr=1.00D-07 GrdErr=1.00D-07
 Number of steps in this run=      2 maximum allowed number of steps=      2.
 GradGradGradGradGradGradGradGradGradGradGradGradGradGradGradGradGradGrad

 Leave Link  103 at Thu May 17 02:04:55 2018, MaxMem= 14763950080 cpu:         3.7
 (Enter /cm/shared/gaussian/g09.e01/intel64-sandybridge/g09/l202.exe)
 Symmetry turned off by external request.
 Stoichiometry    BrH256O128(1-)
 Framework group  C1[X(BrH256O128)]
 Deg. of freedom  1149
 Full point group                 C1      NOp   1
                          Input orientation:                          
 ---------------------------------------------------------------------
 Center     Atomic      Atomic             Coordinates (Angstroms)
 Number     Number       Type             X           Y           Z
 ---------------------------------------------------------------------
      1         35           0       20.000000   20.000000   20.000000
      2          8           0       18.370000   18.340000   22.040000
      3          1           0       18.710000   18.910000   21.340000
      4          1           0       17.420000   18.390000   21.950000
      5          8           0       20.770000   16.990000   19.520000
      6          1           0       20.560000   17.910000   19.720000
      7          1           0       21.380000   16.730000   20.210000
      8          8           0       17.540000   19.850000   17.970000
      9          1           0       18.350000   19.840000   18.470000
     10          1           0       17.510000   20.720000   17.570000
     11          8           0       18.510000   22.820000   19.620000
     12          1           0       18.960000   22.000000   19.800000
     13          1           0       18.120000   22.690000   18.750000
     14          8           0       21.190000   21.690000   22.490000
     15          1           0       20.700000   21.410000   21.710000
     16          1           0       22.040000   21.270000   22.400000
     17          8           0       21.170000   22.650000   17.870000
     18          1           0       20.820000   21.960000   18.440000
     19          1           0       20.400000   23.180000   17.630000
     20          8           0       16.290000   19.860000   20.510000
     21          1           0       16.260000   20.100000   19.580000
     22          1           0       16.980000   20.400000   20.880000
     23          8           0       23.500000   20.790000   18.090000
     24          1           0       23.190000   20.510000   18.950000
     25          1           0       22.810000   21.360000   17.760000
     26          8           0       18.110000   21.450000   23.340000
     27          1           0       18.330000   20.850000   24.060000
     28          1           0       18.960000   21.640000   22.930000
     29          8           0       18.530000   17.050000   17.610000
     30          1           0       19.340000   16.990000   18.120000
     31          1           0       18.180000   17.910000   17.820000
     32          8           0       21.410000   17.800000   23.420000
     33          1           0       21.090000   17.520000   24.280000
     34          1           0       20.630000   17.900000   22.880000
     35          8           0       20.640000   24.300000   21.030000
     36          1           0       20.920000   23.500000   21.480000
     37          1           0       19.800000   24.070000   20.640000
     38          8           0       22.690000   16.790000   21.430000
     39          1           0       22.180000   17.040000   22.200000
     40          1           0       22.870000   15.860000   21.550000
     41          8           0       17.890000   22.340000   16.960000
     42          1           0       18.600000   22.410000   16.320000
     43          1           0       17.150000   22.760000   16.540000
     44          8           0       23.830000   20.500000   22.200000
     45          1           0       24.070000   19.610000   22.460000
     46          1           0       24.180000   21.050000   22.910000
     47          8           0       23.700000   23.030000   20.390000
     48          1           0       23.440000   22.700000   21.250000
     49          1           0       23.420000   23.950000   20.390000
     50          8           0       16.410000   23.380000   21.550000
     51          1           0       16.790000   22.730000   22.130000
     52          1           0       16.920000   23.310000   20.740000
     53          8           0       24.260000   16.750000   18.780000
     54          1           0       23.420000   16.960000   19.180000
     55          1           0       24.170000   17.010000   17.870000
     56          8           0       18.710000   17.000000   24.520000
     57          1           0       18.030000   16.370000   24.280000
     58          1           0       18.660000   17.670000   23.850000
     59          8           0       21.690000   14.700000   17.670000
     60          1           0       21.170000   13.920000   17.870000
     61          1           0       21.270000   15.400000   18.180000
     62          8           0       15.400000   18.180000   17.310000
     63          1           0       16.170000   18.590000   16.920000
     64          1           0       15.200000   17.450000   16.730000
     65          8           0       21.850000   25.390000   17.790000
     66          1           0       22.780000   25.640000   17.810000
     67          1           0       21.850000   24.440000   17.880000
     68          8           0       14.740000   17.750000   21.770000
     69          1           0       15.140000   18.550000   21.420000
     70          1           0       14.940000   17.080000   21.110000
     71          8           0       18.910000   18.940000   14.160000
     72          1           0       19.240000   18.550000   14.970000
     73          1           0       19.610000   18.800000   13.520000
     74          8           0       19.990000   22.260000   15.180000
     75          1           0       19.690000   22.210000   14.270000
     76          1           0       20.940000   22.350000   15.110000
     77          8           0       21.500000   17.250000   15.080000
     78          1           0       21.960000   17.060000   14.260000
     79          1           0       22.190000   17.430000   15.710000
     80          8           0       17.080000   14.550000   18.720000
     81          1           0       17.850000   14.110000   19.090000
     82          1           0       17.420000   15.360000   18.340000
     83          8           0       26.100000   21.540000   17.930000
     84          1           0       25.330000   21.190000   18.360000
     85          1           0       26.180000   22.430000   18.270000
     86          8           0       18.150000   23.200000   25.410000
     87          1           0       17.710000   22.890000   26.200000
     88          1           0       17.970000   22.520000   24.760000
     89          8           0       22.960000   22.030000   15.120000
     90          1           0       23.150000   22.770000   15.680000
     91          1           0       23.410000   21.290000   15.520000
     92          8           0       19.540000   20.820000   25.720000
     93          1           0       20.360000   20.350000   25.880000
     94          1           0       19.260000   21.110000   26.590000
     95          8           0       25.000000   18.190000   23.300000
     96          1           0       25.210000   17.700000   22.510000
     97          1           0       24.110000   17.910000   23.520000
     98          8           0       24.290000   17.820000   16.200000
     99          1           0       24.430000   18.760000   16.320000
    100          1           0       25.140000   17.480000   15.940000
    101          8           0       13.790000   22.070000   21.230000
    102          1           0       13.310000   22.870000   21.440000
    103          1           0       14.690000   22.360000   21.070000
    104          8           0       17.420000   25.860000   20.310000
    105          1           0       16.800000   26.270000   20.910000
    106          1           0       18.170000   25.630000   20.860000
    107          8           0       14.690000   22.120000   18.020000
    108          1           0       14.880000   22.870000   18.590000
    109          1           0       15.040000   22.380000   17.160000
    110          8           0       20.420000   26.620000   22.210000
    111          1           0       20.510000   25.710000   21.930000
    112          1           0       20.870000   26.650000   23.050000
    113          8           0       26.910000   19.910000   20.600000
    114          1           0       27.410000   20.230000   19.850000
    115          1           0       26.140000   20.480000   20.630000
    116          8           0       26.300000   17.380000   20.620000
    117          1           0       26.580000   18.290000   20.600000
    118          1           0       25.600000   17.330000   19.970000
    119          8           0       22.890000   14.140000   20.350000
    120          1           0       22.520000   14.340000   19.490000
    121          1           0       23.840000   14.140000   20.220000
    122          8           0       17.740000   25.540000   17.370000
    123          1           0       16.960000   26.050000   17.130000
    124          1           0       17.770000   25.590000   18.330000
    125          8           0       21.820000   23.400000   25.820000
    126          1           0       21.070000   23.990000   25.890000
    127          1           0       21.440000   22.570000   25.520000
    128          8           0       25.670000   24.080000   18.900000
    129          1           0       25.970000   24.910000   19.260000
    130          1           0       24.970000   23.800000   19.490000
    131          8           0       19.730000   15.310000   14.950000
    132          1           0       20.370000   15.990000   15.160000
    133          1           0       19.180000   15.250000   15.730000
    134          8           0       13.380000   19.590000   18.710000
    135          1           0       13.420000   20.540000   18.760000
    136          1           0       14.030000   19.350000   18.050000
    137          8           0       20.080000   14.570000   23.280000
    138          1           0       20.980000   14.600000   23.610000
    139          1           0       19.570000   15.040000   23.940000
    140          8           0       14.820000   24.290000   19.550000
    141          1           0       14.950000   25.150000   19.140000
    142          1           0       15.310000   24.340000   20.370000
    143          8           0       23.080000   18.430000   26.290000
    144          1           0       23.370000   17.630000   26.730000
    145          1           0       22.470000   18.120000   25.610000
    146          8           0       15.190000   18.250000   24.590000
    147          1           0       14.640000   19.000000   24.360000
    148          1           0       15.290000   17.770000   23.770000
    149          8           0       14.850000   15.800000   19.860000
    150          1           0       14.570000   16.310000   19.090000
    151          1           0       15.610000   15.310000   19.550000
    152          8           0       17.410000   20.930000   13.100000
    153          1           0       17.160000   20.310000   12.410000
    154          1           0       17.810000   20.380000   13.770000
    155          8           0       17.150000   18.340000   26.380000
    156          1           0       17.880000   17.870000   25.980000
    157          1           0       16.430000   18.210000   25.760000
    158          8           0       16.360000   15.540000   23.640000
    159          1           0       16.360000   14.980000   22.860000
    160          1           0       15.920000   15.010000   24.310000
    161          8           0       15.670000   23.310000   15.870000
    162          1           0       15.840000   24.250000   15.960000
    163          1           0       15.180000   23.240000   15.050000
    164          8           0       18.810000   12.970000   21.340000
    165          1           0       19.220000   13.500000   22.020000
    166          1           0       17.870000   13.020000   21.540000
    167          8           0       18.700000   25.410000   14.740000
    168          1           0       18.570000   25.190000   15.660000
    169          1           0       17.900000   25.120000   14.300000
    170          8           0       25.540000   22.170000   23.540000
    171          1           0       26.330000   21.880000   23.990000
    172          1           0       25.850000   22.700000   22.810000
    173          8           0       25.880000   20.180000   15.370000
    174          1           0       25.830000   20.470000   16.280000
    175          1           0       26.370000   20.880000   14.930000
    176          8           0       13.640000   21.050000   24.030000
    177          1           0       12.960000   21.700000   24.190000
    178          1           0       13.880000   21.180000   23.110000
    179          8           0       21.010000   16.440000   26.230000
    180          1           0       20.210000   16.100000   25.840000
    181          1           0       20.710000   16.920000   27.010000
    182          8           0       21.510000   27.590000   19.760000
    183          1           0       21.400000   27.190000   20.620000
    184          1           0       21.330000   26.880000   19.140000
    185          8           0       20.240000   12.970000   19.020000
    186          1           0       20.330000   12.060000   18.750000
    187          1           0       19.760000   12.930000   19.840000
    188          8           0       21.670000   25.800000   15.020000
    189          1           0       20.730000   25.880000   14.880000
    190          1           0       21.760000   25.570000   15.950000
    191          8           0       24.800000   24.370000   16.190000
    192          1           0       25.640000   24.410000   15.730000
    193          1           0       25.030000   24.130000   17.090000
    194          8           0       25.600000   14.640000   19.970000
    195          1           0       26.090000   14.090000   19.360000
    196          1           0       25.490000   15.470000   19.520000
    197          8           0       22.260000   25.670000   24.100000
    198          1           0       21.970000   25.010000   24.720000
    199          1           0       23.180000   25.450000   23.930000
    200          8           0       12.360000   18.840000   21.470000
    201          1           0       12.590000   19.330000   20.680000
    202          1           0       13.200000   18.540000   21.820000
    203          8           0       19.780000   25.480000   25.630000
    204          1           0       19.200000   24.730000   25.520000
    205          1           0       19.200000   26.230000   25.710000
    206          8           0       24.060000   25.970000   21.280000
    207          1           0       24.120000   26.910000   21.480000
[...]
   Z335      44.67313   0.00389   0.00000   0.00150   0.00211  44.67523
   X336      38.19137   0.00315   0.00000  -0.00188  -0.00097  38.19040
   Y336      21.99641   0.00879   0.00000   0.00920   0.00969  22.00610
   Z336      43.21804  -0.00408   0.00000   0.00154   0.00205  43.22008
   X337      38.81497   0.00712   0.00000   0.00337   0.00455  38.81953
   Y337      21.16493   0.00266   0.00000   0.00345   0.00405  21.16898
   Z337      45.88255   0.00339   0.00000   0.00076   0.00124  45.88379
   X338      29.95216  -0.00163   0.00000  -0.00505  -0.00581  29.94635
   Y338      49.96436  -0.00976   0.00000  -0.00665  -0.00676  49.95760
   Z338      29.40414   0.00171   0.00000   0.00102   0.00130  29.40543
   X339      29.00730  -0.00628   0.00000  -0.00629  -0.00694  29.00036
   Y339      50.79584   0.00287   0.00000   0.00143   0.00136  50.79719
   Z339      30.70805   0.00704   0.00000   0.00626   0.00660  30.71465
   X340      30.02775   0.00345   0.00000   0.00610   0.00519  30.03294
   Y340      51.17378   0.00439   0.00000   0.00135   0.00119  51.17497
   Z340      28.06243  -0.00651   0.00000  -0.00432  -0.00409  28.05834
   X341      24.58534   0.00016   0.00000   0.00299   0.00264  24.58798
   Y341      27.07978  -0.01321   0.00000  -0.01043  -0.01055  27.06923
   Z341      30.87813  -0.00278   0.00000  -0.00164  -0.00001  30.87812
   X342      23.18694  -0.00046   0.00000   0.00092   0.00069  23.18763
   Y342      26.94749   0.00443   0.00000   0.00634   0.00624  26.95374
   Z342      32.03086   0.00309   0.00000   0.00196   0.00373  32.03459
   X343      25.32233  -0.00024   0.00000  -0.00379  -0.00411  25.31822
   Y343      28.68604   0.01053   0.00000   0.00749   0.00739  28.69343
   Z343      31.27497  -0.00059   0.00000  -0.00570  -0.00419  31.27077
   X344      26.36168  -0.01150   0.00000  -0.01185  -0.01029  26.35139
   Y344      34.33632  -0.01444   0.00000  -0.01542  -0.01477  34.32156
   Z344      51.45724   0.00562   0.00000   0.00214   0.00334  51.46058
   X345      26.68293   0.00305   0.00000   0.00223   0.00363  26.68656
   Y345      33.86389   0.00021   0.00000   0.00025   0.00084  33.86473
   Z345      49.73759  -0.00643   0.00000  -0.00602  -0.00484  49.73276
   X346      27.41993  -0.00151   0.00000  -0.01192  -0.01035  27.40957
   Y346      35.79141   0.00790   0.00000   0.00249   0.00316  35.79458
   Z346      51.72180   0.00182   0.00000   0.00212   0.00316  51.72496
   X347      53.85719   0.02006   0.00000   0.01267   0.01301  53.87021
   Y347      28.59156   0.01267   0.00000   0.00755   0.00804  28.59960
   Z347      38.19137  -0.00795   0.00000  -0.00408  -0.00534  38.18603
   X348      52.47769  -0.01230   0.00000  -0.00755  -0.00713  52.47056
   Y348      29.40414   0.00472   0.00000   0.00250   0.00301  29.40715
   Z348      39.02284   0.00649   0.00000   0.00412   0.00296  39.02581
   X349      53.38476  -0.00573   0.00000  -0.00263  -0.00228  53.38249
   Y349      26.87191  -0.01632   0.00000  -0.00962  -0.00914  26.86276
   Z349      38.05908   0.00274   0.00000   0.00575   0.00460  38.06368
   X350      40.34565   0.00133   0.00000   0.00669   0.00548  40.35113
   Y350      28.15692   0.01022   0.00000   0.01082   0.01056  28.16748
   Z350      22.05310  -0.02116   0.00000  -0.01900  -0.01893  22.03417
   X351      40.95037  -0.00249   0.00000  -0.00534  -0.00654  40.94382
   Y351      26.45617  -0.00449   0.00000  -0.00216  -0.00241  26.45375
   Z351      21.90193   0.00912   0.00000   0.01188   0.01196  21.91388
   X352      40.21337  -0.00159   0.00000  -0.00245  -0.00349  40.20988
   Y352      28.44038  -0.00624   0.00000  -0.00875  -0.00894  28.43144
   Z352      23.82945   0.00640   0.00000  -0.00278  -0.00271  23.82673
   X353      38.58821   0.00822   0.00000   0.00136   0.00326  38.59147
   Y353      38.53152  -0.02302   0.00000  -0.01770  -0.01676  38.51476
   Z353      55.46346   0.01148   0.00000   0.00709   0.00695  55.47042
   X354      37.20871  -0.01057   0.00000  -0.00259  -0.00077  37.20794
   Y354      39.40079   0.01526   0.00000   0.01159   0.01249  39.41328
   Z354      54.72647  -0.01142   0.00000  -0.00909  -0.00913  54.71734
   X355      39.98660   0.00694   0.00000   0.00359   0.00546  39.99207
   Y355      39.66535   0.00438   0.00000  -0.00237  -0.00142  39.66393
   Z355      55.31228  -0.00190   0.00000  -0.00072  -0.00104  55.31125
   X356      46.10932   0.00780   0.00000   0.01200   0.01119  46.12051
   Y356      51.94857   0.01114   0.00000   0.00578   0.00585  51.95443
   Z356      29.17737  -0.00727   0.00000  -0.00461  -0.00597  29.17140
   X357      46.44947  -0.00502   0.00000  -0.00843  -0.00907  46.44040
   Y357      52.23203  -0.00396   0.00000  -0.00556  -0.00542  52.22661
   Z357      30.93482   0.00491   0.00000   0.00524   0.00383  30.93865
   X358      45.61799  -0.00460   0.00000  -0.00429  -0.00508  45.61291
   Y358      50.21002  -0.00880   0.00000  -0.00318  -0.00312  50.20691
   Z358      29.10178   0.00219   0.00000   0.00306   0.00181  29.10359
   X359      44.06841   0.00266   0.00000   0.00203   0.00358  44.07199
   Y359      25.56799   0.00766   0.00000   0.00651   0.00732  25.57532
   Z359      50.19113   0.02186   0.00000   0.01913   0.01893  50.21006
   X360      43.40701  -0.00404   0.00000  -0.00391  -0.00253  43.40448
   Y360      25.73807  -0.00371   0.00000  -0.00625  -0.00550  25.73257
   Z360      48.50927  -0.00760   0.00000   0.00243   0.00229  48.51156
   X361      45.35343   0.00239   0.00000  -0.00080   0.00074  45.35417
   Y361      24.30188  -0.00445   0.00000  -0.00341  -0.00258  24.29930
   Z361      50.05885  -0.00429   0.00000  -0.00390  -0.00418  50.05467
   X362      24.43416   0.01851   0.00000   0.01250   0.01271  24.44687
   Y362      50.11554   0.00749   0.00000   0.00355   0.00373  50.11927
   Z362      39.45748   0.01495   0.00000   0.01216   0.01297  39.47045
   X363      22.67671  -0.01432   0.00000  -0.00521  -0.00502  22.67170
   Y363      49.79428  -0.00609   0.00000  -0.00550  -0.00534  49.78894
   Z363      39.28741  -0.00513   0.00000  -0.00484  -0.00385  39.28355
   X364      25.17115  -0.00119   0.00000  -0.00259  -0.00252  25.16863
   Y364      49.39744  -0.00196   0.00000   0.00057   0.00071  49.39815
   Z364      37.96460  -0.00640   0.00000  -0.00399  -0.00323  37.96137
   X365      38.04019   0.00688   0.00000   0.00595   0.00452  38.04471
   Y365      44.42746  -0.00277   0.00000   0.00246   0.00217  44.42964
   Z365      21.92082   0.00222   0.00000   0.00365   0.00334  21.92417
   X366      36.49061  -0.01333   0.00000  -0.01167  -0.01309  36.47752
   Y366      45.35343   0.00174   0.00000  -0.00250  -0.00280  45.35063
   Z366      22.05310   0.00084   0.00000   0.00028   0.00009  22.05320
   X367      38.98505   0.00270   0.00000   0.00374   0.00218  38.98723
   Y367      45.29674  -0.00088   0.00000  -0.00227  -0.00259  45.29414
   Z367      20.63581  -0.00441   0.00000  -0.00537  -0.00580  20.63001
   X368      37.26540  -0.00487   0.00000  -0.00149   0.00038  37.26577
   Y368      33.14580  -0.01643   0.00000  -0.01217  -0.01128  33.13452
   Z368      54.46191  -0.01201   0.00000  -0.00958  -0.00940  54.45251
   X369      38.15357   0.00457   0.00000   0.00384   0.00582  38.15939
   Y369      31.95527  -0.00174   0.00000  -0.00152  -0.00058  31.95469
   Z369      55.50126   0.00567   0.00000   0.00639   0.00653  55.50778
   X370      37.79452   0.00589   0.00000   0.00166   0.00356  37.79809
   Y370      34.77096   0.01750   0.00000   0.00993   0.01085  34.78181
   Z370      55.04772   0.00332   0.00000  -0.00246  -0.00239  55.04533
   X371      41.78184   0.00545   0.00000   0.00504   0.00369  41.78553
   Y371      49.01950   0.00462   0.00000   0.00540   0.00520  49.02470
   Z371      23.26253  -0.03031   0.00000  -0.01841  -0.01925  23.24328
   X372      40.40234  -0.00239   0.00000  -0.00257  -0.00397  40.39838
   Y372      48.05574  -0.00199   0.00000  -0.00293  -0.00316  48.05257
   Z372      22.58223   0.00640   0.00000   0.00921   0.00854  22.59077
   X373      41.53618   0.00109   0.00000   0.00867   0.00750  41.54368
   Y373      48.94391  -0.00366   0.00000  -0.00360  -0.00374  48.94017
   Z373      25.03887   0.02473   0.00000   0.01293   0.01212  25.05099
   X374      31.38835  -0.02103   0.00000  -0.01457  -0.01463  31.37372
   Y374      54.40522  -0.00180   0.00000  -0.00209  -0.00190  54.40331
   Z374      37.18981  -0.00167   0.00000  -0.00165  -0.00167  37.18814
   X375      32.88123   0.01323   0.00000   0.00667   0.00671  32.88795
   Y375      54.44301   0.00202   0.00000   0.00274   0.00298  54.44599
   Z375      38.21026   0.00379   0.00000  -0.00082  -0.00099  38.20927
   X376      31.99306   0.00873   0.00000   0.00982   0.00959  32.00265
   Y376      54.53750   0.00153   0.00000   0.00188   0.00202  54.53951
   Z376      35.48906  -0.00433   0.00000  -0.00117  -0.00126  35.48780
   X377      42.15979   0.01416   0.00000   0.01417   0.01459  42.17438
   Y377      55.76582   0.00389   0.00000  -0.00140  -0.00089  55.76493
   Z377      42.34876   0.00878   0.00000   0.00520   0.00408  42.35284
   X378      41.34721  -0.00781   0.00000  -0.00841  -0.00795  41.33926
   Y378      54.15955  -0.00555   0.00000  -0.00186  -0.00136  54.15819
   Z378      42.53774  -0.00349   0.00000  -0.00364  -0.00462  42.53311
   X379      41.70626  -0.00835   0.00000  -0.01026  -0.01001  41.69625
   Y379      56.31384  -0.00337   0.00000  -0.00676  -0.00632  56.30752
   Z379      40.68580  -0.00729   0.00000  -0.00178  -0.00288  40.68293
   X380      22.48774   0.00572   0.00000   0.00336   0.00281  22.49055
   Y380      33.88279  -0.02142   0.00000  -0.01244  -0.01263  33.87016
   Z380      29.57421  -0.02232   0.00000  -0.01624  -0.01465  29.55956
   X381      22.01531  -0.01380   0.00000  -0.01624  -0.01666  21.99865
   Y381      34.75206   0.02821   0.00000   0.02959   0.02945  34.78151
   Z381      31.06710   0.00809   0.00000  -0.01036  -0.00876  31.05834
   X382      22.94128   0.00133   0.00000   0.00305   0.00237  22.94364
   Y382      35.18670   0.00667   0.00000   0.00655   0.00632  35.19302
   Z382      28.40258   0.00188   0.00000   0.00070   0.00220  28.40479
   X383      40.95037   0.00333   0.00000  -0.00233  -0.00111  40.94926
   Y383      52.02416   0.00436   0.00000   0.00281   0.00358  52.02774
   Z383      50.13443   0.00996   0.00000   0.01344   0.01258  50.14701
   X384      39.96771  -0.00051   0.00000   0.00132   0.00243  39.97014
   Y384      53.17689  -0.00117   0.00000  -0.00348  -0.00275  53.17414
   Z384      49.13288  -0.00446   0.00000  -0.00445  -0.00526  49.12762
   X385      40.30786  -0.00132   0.00000   0.00011   0.00131  40.30917
   Y385      50.38010  -0.00192   0.00000   0.00066   0.00141  50.38151
   Z385      49.69980  -0.00582   0.00000  -0.00710  -0.00784  49.69195
         Item               Value     Threshold  Converged?
 Maximum Force            0.036001     0.000450     NO 
 RMS     Force            0.010876     0.000300     NO 
 Maximum Displacement     0.033474     0.001800     NO 
 RMS     Displacement     0.008799     0.001200     NO 
 Predicted change in Energy=-7.617921D-02
 GradGradGradGradGradGradGradGradGradGradGradGradGradGradGradGradGradGrad

 Leave Link  103 at Thu May 17 05:02:33 2018, MaxMem= 14763950080 cpu:      4490.7
 (Enter /cm/shared/gaussian/g09.e01/intel64-sandybridge/g09/l9999.exe)
 1\1\GINC-POPLE03\Force\RPBE1PBE\CC-pVDZ\Br1H256O128(1-)\M.PELUSO\17-Ma
 y-2018\0\\#p PBE1PBE/cc-pvDZ force Counterpoise=2 noSymm\\forces on ch
 loride comput - NWATER: 128\\-1,1\Br,20.,20.,20.\O,18.37,18.34,22.04\H
 ,18.71,18.91,21.34\H,17.42,18.39,21.95\O,20.77,16.99,19.52\H,20.56,17.
 91,19.72\H,21.38,16.73,20.21\O,17.54,19.85,17.97\H,18.35,19.84,18.47\H
 ,17.51,20.72,17.57\O,18.51,22.82,19.62\H,18.96,22.,19.8\H,18.12,22.69,
 18.75\O,21.19,21.69,22.49\H,20.7,21.41,21.71\H,22.04,21.27,22.4\O,21.1
 7,22.65,17.87\H,20.82,21.96,18.44\H,20.4,23.18,17.63\O,16.29,19.86,20.
 51\H,16.26,20.1,19.58\H,16.98,20.4,20.88\O,23.5,20.79,18.09\H,23.19,20
 .51,18.95\H,22.81,21.36,17.76\O,18.11,21.45,23.34\H,18.33,20.85,24.06\
 H,18.96,21.64,22.93\O,18.53,17.05,17.61\H,19.34,16.99,18.12\H,18.18,17
 .91,17.82\O,21.41,17.8,23.42\H,21.09,17.52,24.28\H,20.63,17.9,22.88\O,
 20.64,24.3,21.03\H,20.92,23.5,21.48\H,19.8,24.07,20.64\O,22.69,16.79,2
 1.43\H,22.18,17.04,22.2\H,22.87,15.86,21.55\O,17.89,22.34,16.96\H,18.6
 ,22.41,16.32\H,17.15,22.76,16.54\O,23.83,20.5,22.2\H,24.07,19.61,22.46
 \H,24.18,21.05,22.91\O,23.7,23.03,20.39\H,23.44,22.7,21.25\H,23.42,23.
 95,20.39\O,16.41,23.38,21.55\H,16.79,22.73,22.13\H,16.92,23.31,20.74\O
 ,24.26,16.75,18.78\H,23.42,16.96,19.18\H,24.17,17.01,17.87\O,18.71,17.
 ,24.52\H,18.03,16.37,24.28\H,18.66,17.67,23.85\O,21.69,14.7,17.67\H,21
 .17,13.92,17.87\H,21.27,15.4,18.18\O,15.4,18.18,17.31\H,16.17,18.59,16
 .92\H,15.2,17.45,16.73\O,21.85,25.39,17.79\H,22.78,25.64,17.81\H,21.85
 ,24.44,17.88\O,14.74,17.75,21.77\H,15.14,18.55,21.42\H,14.94,17.08,21.
 11\O,18.91,18.94,14.16\H,19.24,18.55,14.97\H,19.61,18.8,13.52\O,19.99,
 22.26,15.18\H,19.69,22.21,14.27\H,20.94,22.35,15.11\O,21.5,17.25,15.08
 \H,21.96,17.06,14.26\H,22.19,17.43,15.71\O,17.08,14.55,18.72\H,17.85,1
 4.11,19.09\H,17.42,15.36,18.34\O,26.1,21.54,17.93\H,25.33,21.19,18.36\
 H,26.18,22.43,18.27\O,18.15,23.2,25.41\H,17.71,22.89,26.2\H,17.97,22.5
 2,24.76\O,22.96,22.03,15.12\H,23.15,22.77,15.68\H,23.41,21.29,15.52\O,
 19.54,20.82,25.72\H,20.36,20.35,25.88\H,19.26,21.11,26.59\O,25.,18.19,
 23.3\H,25.21,17.7,22.51\H,24.11,17.91,23.52\O,24.29,17.82,16.2\H,24.43
 ,18.76,16.32\H,25.14,17.48,15.94\O,13.79,22.07,21.23\H,13.31,22.87,21.
 44\H,14.69,22.36,21.07\O,17.42,25.86,20.31\H,16.8,26.27,20.91\H,18.17,
 25.63,20.86\O,14.69,22.12,18.02\H,14.88,22.87,18.59\H,15.04,22.38,17.1
 6\O,20.42,26.62,22.21\H,20.51,25.71,21.93\H,20.87,26.65,23.05\O,26.91,
 19.91,20.6\H,27.41,20.23,19.85\H,26.14,20.48,20.63\O,26.3,17.38,20.62\
 H,26.58,18.29,20.6\H,25.6,17.33,19.97\O,22.89,14.14,20.35\H,22.52,14.3
 4,19.49\H,23.84,14.14,20.22\O,17.74,25.54,17.37\H,16.96,26.05,17.13\H,
 17.77,25.59,18.33\O,21.82,23.4,25.82\H,21.07,23.99,25.89\H,21.44,22.57
 ,25.52\O,25.67,24.08,18.9\H,25.97,24.91,19.26\H,24.97,23.8,19.49\O,19.
 73,15.31,14.95\H,20.37,15.99,15.16\H,19.18,15.25,15.73\O,13.38,19.59,1
 8.71\H,13.42,20.54,18.76\H,14.03,19.35,18.05\O,20.08,14.57,23.28\H,20.
 98,14.6,23.61\H,19.57,15.04,23.94\O,14.82,24.29,19.55\H,14.95,25.15,19
 .14\H,15.31,24.34,20.37\O,23.08,18.43,26.29\H,23.37,17.63,26.73\H,22.4
 7,18.12,25.61\O,15.19,18.25,24.59\H,14.64,19.,24.36\H,15.29,17.77,23.7
 7\O,14.85,15.8,19.86\H,14.57,16.31,19.09\H,15.61,15.31,19.55\O,17.41,2
 0.93,13.1\H,17.16,20.31,12.41\H,17.81,20.38,13.77\O,17.15,18.34,26.38\
 H,17.88,17.87,25.98\H,16.43,18.21,25.76\O,16.36,15.54,23.64\H,16.36,14
 .98,22.86\H,15.92,15.01,24.31\O,15.67,23.31,15.87\H,15.84,24.25,15.96\
 H,15.18,23.24,15.05\O,18.81,12.97,21.34\H,19.22,13.5,22.02\H,17.87,13.
 02,21.54\O,18.7,25.41,14.74\H,18.57,25.19,15.66\H,17.9,25.12,14.3\O,25
 .54,22.17,23.54\H,26.33,21.88,23.99\H,25.85,22.7,22.81\O,25.88,20.18,1
 5.37\H,25.83,20.47,16.28\H,26.37,20.88,14.93\O,13.64,21.05,24.03\H,12.
 96,21.7,24.19\H,13.88,21.18,23.11\O,21.01,16.44,26.23\H,20.21,16.1,25.
 84\H,20.71,16.92,27.01\O,21.51,27.59,19.76\H,21.4,27.19,20.62\H,21.33,
 26.88,19.14\O,20.24,12.97,19.02\H,20.33,12.06,18.75\H,19.76,12.93,19.8
 4\O,21.67,25.8,15.02\H,20.73,25.88,14.88\H,21.76,25.57,15.95\O,24.8,24
 .37,16.19\H,25.64,24.41,15.73\H,25.03,24.13,17.09\O,25.6,14.64,19.97\H
 ,26.09,14.09,19.36\H,25.49,15.47,19.52\O,22.26,25.67,24.1\H,21.97,25.0
 1,24.72\H,23.18,25.45,23.93\O,12.36,18.84,21.47\H,12.59,19.33,20.68\H,
 13.2,18.54,21.82\O,19.78,25.48,25.63\H,19.2,24.73,25.52\H,19.2,26.23,2
 5.71\O,24.06,25.97,21.28\H,24.12,26.91,21.48\H,24.33,25.54,22.09\O,12.
 53,16.99,18.14\H,11.91,17.31,17.48\H,13.13,17.71,18.28\O,25.15,14.94,2
 2.67\H,25.76,15.51,23.14\H,25.33,15.09,21.74\O,15.57,24.53,24.41\H,15.
 68,24.93,23.55\H,16.44,24.58,24.81\O,14.7,19.,14.28\H,15.59,19.23,13.9
 9\H,14.21,18.9,13.47\O,15.44,15.95,15.53\H,15.87,15.17,15.88\H,15.95,1
 6.18,14.75\O,21.75,12.25,21.78\H,21.4,11.58,21.19\H,22.21,12.87,21.21\
 O,22.96,13.26,15.65\H,22.49,13.85,16.24\H,23.44,12.67,16.22\O,17.31,13
 .83,15.74\H,17.48,13.49,16.62\H,17.29,13.06,15.18\O,24.84,20.35,26.6\H
 ,24.06,19.79,26.62\H,25.4,19.96,25.93\O,24.12,27.01,18.44\H,23.65,26.8
 5,19.26\H,24.94,27.42,18.71\O,24.83,24.99,23.86\H,25.12,24.16,24.23\H,
 25.31,25.65,24.35\O,11.39,21.47,20.\H,10.98,21.01,20.73\H,12.31,21.55,
 20.24\O,27.69,17.02,18.27\H,28.48,16.5,18.43\H,27.3,17.15,19.13\O,26.7
 4,18.63,25.4\H,27.2,19.41,25.08\H,26.14,18.4,24.69\O,16.24,13.22,21.98
 \H,15.74,13.25,21.17\H,15.84,12.51,22.48\O,23.65,21.99,12.15\H,24.4,22
 .56,11.97\H,23.55,22.02,13.1\O,22.73,13.52,24.\H,23.57,13.76,23.62\H,2
 2.28,13.04,23.3\O,15.55,20.24,27.59\H,15.76,21.16,27.44\H,16.19,19.76,
 27.07\O,16.98,15.7,13.17\H,17.26,15.41,12.3\H,17.69,15.44,13.76\O,14.5
 9,22.35,26.12\H,14.87,23.1,25.59\H,14.33,21.68,25.49\O,20.84,18.13,11.
 66\H,21.55,17.92,12.27\H,20.85,19.08,11.59\O,25.04,23.53,26.35\H,25.31
 ,22.63,26.19\H,24.1,23.54,26.15\O,14.56,22.61,13.44\H,15.12,21.87,13.6
 6\H,14.19,22.39,12.59\O,12.23,15.66,20.97\H,12.72,15.23,21.67\H,12.88,
 15.88,20.31\O,12.69,21.26,15.49\H,12.66,20.67,16.24\H,13.46,20.98,15.\
 O,25.02,19.1,12.85\H,25.02,19.87,13.42\H,25.94,18.96,12.64\O,27.33,23.
 57,21.73\H,27.85,23.54,20.93\H,27.49,24.45,22.09\O,15.44,26.57,22.36\H
 ,14.53,26.32,22.21\H,15.39,27.39,22.86\O,26.36,15.83,16.28\H,26.42,14.
 96,16.67\H,26.86,16.39,16.87\O,27.75,23.52,16.26\H,27.08,23.05,16.76\H
 ,28.53,23.49,16.82\O,20.68,13.15,13.74\H,20.43,13.91,14.27\H,21.49,12.
 83,14.15\O,23.17,16.88,12.9\H,23.59,16.07,13.19\H,23.9,17.49,12.77\O,2
 1.33,20.96,11.6\H,20.71,21.69,11.67\H,22.19,21.38,11.6\O,19.68,29.47,2
 0.19\H,20.17,30.,19.56\H,19.77,28.57,19.87\O,12.08,25.11,18.49\H,12.88
 ,24.63,18.71\H,11.74,24.67,17.71\O,18.6,15.4,27.12\H,17.67,15.22,27.2\
 H,18.78,16.06,27.78\O,18.24,21.93,28.23\H,18.21,22.75,28.72\H,17.97,21
 .26,28.86\O,14.9,26.91,18.53\H,14.18,27.4,18.14\H,15.31,27.52,19.14\O,
 17.26,22.94,11.25\H,17.17,22.38,12.02\H,17.95,22.52,10.73\O,24.74,15.0
 6,14.02\H,24.34,14.38,14.56\H,25.33,15.53,14.61\O,10.8,19.49,17.65\H,1
 1.33,19.59,18.45\H,10.13,20.16,17.73\O,23.71,11.54,17.54\H,23.44,12.06
 ,18.3\H,24.62,11.3,17.72\O,19.83,11.22,23.64\H,20.21,11.64,22.87\H,20.
 54,11.2,24.28\O,15.85,26.44,15.56\H,15.35,26.88,16.25\H,15.89,27.08,14
 .85\O,13.01,14.33,16.34\H,12.27,14.26,16.95\H,13.4,15.18,16.55\O,13.95
 ,18.17,27.23\H,14.12,17.92,26.32\H,14.51,18.94,27.37\O,28.5,15.13,20.2
 1\H,27.77,15.56,20.65\H,28.25,14.22,20.14\O,21.35,14.9,11.67\H,21.67,1
 4.,11.59\H,21.28,15.05,12.61\O,20.42,20.39,29.35\H,19.69,20.85,28.96\H
 ,21.16,20.99,29.27\O,24.4,27.49,15.44\H,24.58,27.64,16.37\H,24.14,26.5
 7,15.4\O,23.32,13.53,26.56\H,22.97,13.62,25.67\H,24.,12.86,26.49\O,12.
 93,26.52,20.88\H,12.,26.35,20.79\H,13.32,26.14,20.09\O,20.13,23.51,11.
 6\H,19.31,24.,11.67\H,20.63,23.97,10.92\O,19.72,17.54,28.82\H,20.19,16
 .91,29.37\H,20.,18.4,29.13\O,22.11,25.94,12.31\H,21.38,25.43,11.95\H,2
 1.98,25.9,13.25\O,16.61,28.79,19.68\H,17.4,28.81,20.22\H,16.93,28.86,1
 8.78\O,22.31,29.51,22.41\H,21.88,28.66,22.51\H,22.07,29.8,21.53\O,11.9
 ,17.93,15.65\H,11.65,18.39,16.44\H,12.14,18.62,15.03\O,21.67,27.53,26.
 53\H,21.15,28.14,26.\H,21.33,26.66,26.3\\Version=ES64L-G09RevE.01\HF=-
 9773.4713362\RMSD=1.810e-09\RMSF=1.088e-02\Dipole=11.7186461,3.5124448
 ,2.8797386\Quadrupole=490.5217393,-148.4108429,-342.1108964,-957.45061
 05,-813.6414677,-1204.6326813\PG=C01 [X(Br1H256O128)]\\@


 What some people mistake for the high cost
 of living is really the cost of living high.
                              -- Doug Larson
 Job cpu time:       7 days 18 hours 19 minutes  9.8 seconds.
 File lengths (MBytes):  RWF=   7285 Int=      0 D2E=      0 Chk=   2411 Scr=      1
 Normal termination of Gaussian 09 at Thu May 17 05:03:19 2018.
