 Entering Gaussian System, Link 0=/cm/shared/gaussian/g09.e01/intel64-sandybridge/g09/g09
 Initial command:
 /cm/shared/gaussian/g09.e01/intel64-sandybridge/g09/l1.exe "/local/scratch/m.peluso/128_wat/order/Gau-35674.inp" -scrdir="/local/scratch/m.peluso/128_wat/order/"
 Entering Link 1 = /cm/shared/gaussian/g09.e01/intel64-sandybridge/g09/l1.exe PID=     35675.
  
 Copyright (c) 1988,1990,1992,1993,1995,1998,2003,2009,2015,
            Gaussian, Inc.  All Rights Reserved.
  
 This is part of the Gaussian(R) 09 program.  It is based on
 the Gaussian(R) 03 system (copyright 2003, Gaussian, Inc.),
 the Gaussian(R) 98 system (copyright 1998, Gaussian, Inc.),
 the Gaussian(R) 94 system (copyright 1995, Gaussian, Inc.),
 the Gaussian 92(TM) system (copyright 1992, Gaussian, Inc.),
 the Gaussian 90(TM) system (copyright 1990, Gaussian, Inc.),
 the Gaussian 88(TM) system (copyright 1988, Gaussian, Inc.),
 the Gaussian 86(TM) system (copyright 1986, Carnegie Mellon
 University), and the Gaussian 82(TM) system (copyright 1983,
 Carnegie Mellon University). Gaussian is a federally registered
 trademark of Gaussian, Inc.
  
 This software contains proprietary and confidential information,
 including trade secrets, belonging to Gaussian, Inc.
  
 This software is provided under written license and may be
 used, copied, transmitted, or stored only in accord with that
 written license.
  
 The following legend is applicable only to US Government
 contracts under FAR:
  
                    RESTRICTED RIGHTS LEGEND
  
 Use, reproduction and disclosure by the US Government is
 subject to restrictions as set forth in subparagraphs (a)
 and (c) of the Commercial Computer Software - Restricted
 Rights clause in FAR 52.227-19.
  
 Gaussian, Inc.
 340 Quinnipiac St., Bldg. 40, Wallingford CT 06492
  
  
 ---------------------------------------------------------------
 Warning -- This program may not be used in any manner that
 competes with the business of Gaussian, Inc. or will provide
 assistance to any competitor of Gaussian, Inc.  The licensee
 of this program is prohibited from giving any competitor of
 Gaussian, Inc. access to this program.  By using this program,
 the user acknowledges that Gaussian, Inc. is engaged in the
 business of creating and licensing software in the field of
 computational chemistry and represents and warrants to the
 licensee that it is not a competitor of Gaussian, Inc. and that
 it will not use this program in any manner prohibited above.
 ---------------------------------------------------------------
  

 Cite this work as:
 Gaussian 09, Revision E.01,
 M. J. Frisch, G. W. Trucks, H. B. Schlegel, G. E. Scuseria, 
 M. A. Robb, J. R. Cheeseman, G. Scalmani, V. Barone, B. Mennucci, 
 G. A. Petersson, H. Nakatsuji, M. Caricato, X. Li, H. P. Hratchian, 
 A. F. Izmaylov, J. Bloino, G. Zheng, J. L. Sonnenberg, M. Hada, 
 M. Ehara, K. Toyota, R. Fukuda, J. Hasegawa, M. Ishida, T. Nakajima, 
 Y. Honda, O. Kitao, H. Nakai, T. Vreven, J. A. Montgomery, Jr., 
 J. E. Peralta, F. Ogliaro, M. Bearpark, J. J. Heyd, E. Brothers, 
 K. N. Kudin, V. N. Staroverov, T. Keith, R. Kobayashi, J. Normand, 
 K. Raghavachari, A. Rendell, J. C. Burant, S. S. Iyengar, J. Tomasi, 
 M. Cossi, N. Rega, J. M. Millam, M. Klene, J. E. Knox, J. B. Cross, 
 V. Bakken, C. Adamo, J. Jaramillo, R. Gomperts, R. E. Stratmann, 
 O. Yazyev, A. J. Austin, R. Cammi, C. Pomelli, J. W. Ochterski, 
 R. L. Martin, K. Morokuma, V. G. Zakrzewski, G. A. Voth, 
 P. Salvador, J. J. Dannenberg, S. Dapprich, A. D. Daniels, 
 O. Farkas, J. B. Foresman, J. V. Ortiz, J. Cioslowski, 
 and D. J. Fox, Gaussian, Inc., Wallingford CT, 2013.
 
 ******************************************
 Gaussian 09:  ES64L-G09RevE.01 30-Nov-2015
                13-May-2018 
 ******************************************
 %Mem=110GB
 %NProcShared=64
 Will use up to   64 processors via shared memory.
 %chk=snap63.chk
 ----------------------------------------------
 #p PBE1PBE/cc-pvDZ force Counterpoise=2 noSymm
 ----------------------------------------------
 1/10=7,30=1,38=1,62=2/1,3;
 2/12=2,15=1,17=6,18=5,40=1/2;
 1/10=7,30=1,38=1,53=2,62=2,63=101/22;
 3/5=16,11=2,16=1,25=1,30=1,71=1,74=-13/1,2,3;
 4//1;
 5/5=2,38=5/2;
 6/7=2,8=2,9=2,10=2,28=1/1;
 7/7=1,29=1,30=1,33=-1/1,2,3,16;
 1/10=7,30=1,53=2,62=2,63=101/22;
 3/5=7,6=11,11=2,16=1,25=1,30=1,71=1,74=-13,82=7/1,2,3;
 4//1;
 5/5=2,38=5/2;
 6/7=2,8=2,9=2,10=2,28=1/1;
 7/7=1,29=1,30=1,33=-1/1,2,3,16;
 1/10=7,30=1,53=2,62=2,63=101/22(-5);
 7/9=1,29=1,44=-1/16;
 1/10=7,30=1,62=2/3;
 99//99;
 Leave Link    1 at Sun May 13 21:56:14 2018, MaxMem= 14763950080 cpu:         4.4
 (Enter /cm/shared/gaussian/g09.e01/intel64-sandybridge/g09/l101.exe)
 ---------------------------------------
 forces on chloride comput - NWATER: 128
 ---------------------------------------
 Symbolic Z-matrix:
 Charge = -1 Multiplicity = 1 in supermolecule
 Charge = -1 Multiplicity = 1 in fragment      1.
 Charge =  0 Multiplicity = 1 in fragment      2.
 Br(Fragment=1)        20.       20.       20. 
 O(Fragment=2)         21.57     21.19     22.28 
 H(Fragment=2)         21.15     21.03     21.43 
 H(Fragment=2)         22.35     20.63     22.26 
 O(Fragment=2)         17.47     18.15     19.49 
 H(Fragment=2)         18.26     18.67     19.66 
 H(Fragment=2)         16.85     18.44     20.16 
 O(Fragment=2)         17.98     22.32     19.14 
 H(Fragment=2)         17.07     22.08     19.31 
 H(Fragment=2)         18.47     21.52     19.32 
 O(Fragment=2)         21.59     22.54     18.88 
 H(Fragment=2)         21.16     21.87     19.41 
 H(Fragment=2)         20.98     22.7      18.15 
 O(Fragment=2)         22.51     19.41     17.77 
 H(Fragment=2)         21.71     19.29     18.29 
 H(Fragment=2)         23.22     19.16     18.37 
 O(Fragment=2)         18.45     17.79     22.38 
 H(Fragment=2)         19.2      17.66     22.96 
 H(Fragment=2)         18.72     18.49     21.79 
 O(Fragment=2)         18.37     20.21     16.5 
 H(Fragment=2)         18.56     19.51     15.89 
 H(Fragment=2)         19.       20.09     17.21 
 O(Fragment=2)         21.57     16.86     20.56 
 H(Fragment=2)         21.63     16.96     21.51 
 H(Fragment=2)         20.67     17.1      20.35 
 O(Fragment=2)         23.34     18.97     21.53 
 H(Fragment=2)         24.2      19.01     21.11 
 H(Fragment=2)         22.89     18.25     21.08 
 O(Fragment=2)         19.47     22.2      24.13 
 H(Fragment=2)         19.88     22.06     24.99 
 H(Fragment=2)         20.12     21.88     23.5 
 O(Fragment=2)         19.99     22.63     16.68 
 H(Fragment=2)         19.12     22.58     17.08 
 H(Fragment=2)         19.92     22.1      15.89 
 O(Fragment=2)         18.17     16.63     17.2 
 H(Fragment=2)         18.5      17.18     16.48 
 H(Fragment=2)         17.93     17.26     17.89 
 O(Fragment=2)         15.91     19.77     17.8 
 H(Fragment=2)         16.01     20.35     18.55 
 H(Fragment=2)         16.77     19.75     17.4 
 O(Fragment=2)         15.94     19.77     21.08 
 H(Fragment=2)         15.79     20.62     20.67 
 H(Fragment=2)         16.02     19.96     22.01 
 O(Fragment=2)         24.06     22.18     18.19 
 H(Fragment=2)         24.14     21.25     17.98 
 H(Fragment=2)         23.13     22.3      18.35 
 O(Fragment=2)         18.6      25.15     19.27 
 H(Fragment=2)         19.07     25.5      18.52 
 H(Fragment=2)         18.39     24.25     19.03 
 O(Fragment=2)         16.58     15.44     20.03 
 H(Fragment=2)         15.86     15.87     20.49 
 H(Fragment=2)         17.24     16.13     19.94 
 O(Fragment=2)         22.59     25.03     19.45 
 H(Fragment=2)         22.31     24.14     19.27 
 H(Fragment=2)         22.7      25.07     20.4 
 O(Fragment=2)         22.86     22.86     24.14 
 H(Fragment=2)         23.73     22.47     24.25 
 H(Fragment=2)         22.43     22.33     23.47 
 O(Fragment=2)         22.94     18.63     15.09 
 H(Fragment=2)         23.83     18.3      15.2 
 H(Fragment=2)         22.61     18.75     15.99 
 O(Fragment=2)         15.98     17.18     23.18 
 H(Fragment=2)         15.22     16.82     22.71 
 H(Fragment=2)         16.62     17.37     22.49 
 O(Fragment=2)         18.26     19.2      25.43 
 H(Fragment=2)         17.69     19.8      25.91 
 H(Fragment=2)         18.71     19.75     24.79 
 O(Fragment=2)         22.52     14.9      18.51 
 H(Fragment=2)         23.39     15.03     18.89 
 H(Fragment=2)         21.95     15.51     18.98 
 O(Fragment=2)         16.57     21.78     24.5 
 H(Fragment=2)         16.78     21.89     25.43 
 H(Fragment=2)         17.38     21.98     24.04 
 O(Fragment=2)         15.09     21.86     19.64 
 H(Fragment=2)         14.43     22.14     19. 
 H(Fragment=2)         14.89     22.37     20.42 
 O(Fragment=2)         21.9      15.84     23.41 
 H(Fragment=2)         21.51     14.97     23.51 
 H(Fragment=2)         21.33     16.42     23.91 
 O(Fragment=2)         16.54     22.03     15.01 
 H(Fragment=2)         16.55     22.87     15.47 
 H(Fragment=2)         16.73     21.38     15.69 
 O(Fragment=2)         19.86     17.17     24.97 
 H(Fragment=2)         19.38     17.95     25.26 
 H(Fragment=2)         19.18     16.52     24.79 
 O(Fragment=2)         23.99     18.24     24.85 
 H(Fragment=2)         24.93     18.08     24.9 
 H(Fragment=2)         23.87     18.66     24. 
 O(Fragment=2)         25.67     19.23     20.49 
 H(Fragment=2)         26.38     19.82     20.76 
 H(Fragment=2)         26.12     18.48     20.11 
 O(Fragment=2)         19.83     26.35     21.76 
 H(Fragment=2)         19.43     25.6      21.31 
 H(Fragment=2)         20.75     26.11     21.86 
 O(Fragment=2)         23.97     22.93     15.59 
 H(Fragment=2)         23.23     23.53     15.57 
 H(Fragment=2)         23.8      22.36     16.34 
 O(Fragment=2)         20.78     24.8      24.38 
 H(Fragment=2)         21.6      24.31     24.27 
 H(Fragment=2)         20.11     24.21     24.04 
 O(Fragment=2)         18.66     18.28     14.58 
 H(Fragment=2)         18.14     18.3      13.77 
 H(Fragment=2)         19.56     18.39     14.29 
 O(Fragment=2)         20.97     19.89     13.68 
 H(Fragment=2)         21.4      19.76     12.83 
 H(Fragment=2)         21.65     19.72     14.33 
 O(Fragment=2)         14.88     22.52     22.27 
 H(Fragment=2)         15.37     22.2      23.04 
 H(Fragment=2)         14.11     22.95     22.64 
 O(Fragment=2)         24.78     16.16     22.55 
 H(Fragment=2)         24.65     15.6      21.78 
 H(Fragment=2)         23.89     16.33     22.86 
 O(Fragment=2)         16.45     25.54     20.84 
 H(Fragment=2)         17.28     25.56     20.37 
 H(Fragment=2)         16.7      25.37     21.75 
 O(Fragment=2)         13.01     18.97     21.22 
 H(Fragment=2)         12.59     19.24     22.04 
 H(Fragment=2)         13.91     19.3      21.3 
 O(Fragment=2)         18.07     15.24     24.16 
 H(Fragment=2)         17.32     15.78     23.91 
 H(Fragment=2)         18.17     14.61     23.44 
 O(Fragment=2)         18.25     14.23     15.91 
 H(Fragment=2)         18.25     15.03     16.44 
 H(Fragment=2)         18.49     13.53     16.52 
 O(Fragment=2)         21.73     18.69     26.52 
 H(Fragment=2)         22.45     18.64     25.89 
 H(Fragment=2)         21.       18.26     26.09 
 O(Fragment=2)         21.23     22.25     26.24 
 H(Fragment=2)         21.95     22.5      25.66 
 H(Fragment=2)         21.64     21.69     26.9 
 O(Fragment=2)         25.95     18.72     17.46 
 H(Fragment=2)         25.45     18.19     16.84 
 H(Fragment=2)         26.28     19.45     16.93 
 O(Fragment=2)         13.39     20.37     16.69 
 H(Fragment=2)         14.17     19.9      16.99 
 H(Fragment=2)         12.66     19.93     17.12 
 O(Fragment=2)         26.63     23.29     19.06 
 H(Fragment=2)         25.73     23.02     18.9 
 H(Fragment=2)         26.85     23.85     18.31 
 O(Fragment=2)         21.11     27.03     18.12 
 H(Fragment=2)         20.93     26.9      17.19 
 H(Fragment=2)         21.51     26.21     18.4 
 O(Fragment=2)         19.31     22.25     13.68 
 H(Fragment=2)         19.89     21.52     13.46 
 H(Fragment=2)         18.53     22.11     13.16 
 O(Fragment=2)         15.56     24.69     17.42 
 H(Fragment=2)         15.67     24.88     18.35 
 H(Fragment=2)         14.77     24.15     17.37 
 O(Fragment=2)         16.17     17.28     25.85 
 H(Fragment=2)         16.21     17.32     24.9 
 H(Fragment=2)         16.06     18.19     26.13 
 O(Fragment=2)         22.52     25.96     22.05 
 H(Fragment=2)         23.19     26.57     21.74 
 H(Fragment=2)         22.59     26.       23. 
 O(Fragment=2)         15.06     17.98     14.48 
 H(Fragment=2)         14.91     17.06     14.7 
 H(Fragment=2)         15.18     18.41     15.32 
 O(Fragment=2)         21.44     16.73     13.22 
 H(Fragment=2)         21.71     17.47     13.76 
 H(Fragment=2)         22.2      16.15     13.21 
 O(Fragment=2)         27.34     20.8      22.26 
 H(Fragment=2)         26.45     21.07     22.47 
 H(Fragment=2)         27.83     20.93     23.07 
 O(Fragment=2)         20.58     13.31     23.01 
 H(Fragment=2)         21.       13.21     22.15 
 H(Fragment=2)         19.68     13.56     22.81 
 O(Fragment=2)         26.7      21.23     16.63 
 H(Fragment=2)         27.1      21.83     16. 
 H(Fragment=2)         26.27     21.81     17.27 
 O(Fragment=2)         15.98     13.48     18.11 
 H(Fragment=2)         16.05     14.24     18.69 
 H(Fragment=2)         15.21     13.01     18.43 
 O(Fragment=2)         14.15     16.18     21.41 
 H(Fragment=2)         13.84     15.55     20.76 
 H(Fragment=2)         13.64     16.97     21.25 
 O(Fragment=2)         17.81     13.18     21.98 
 H(Fragment=2)         17.96     12.24     21.9 
 H(Fragment=2)         17.42     13.44     21.15 
 O(Fragment=2)         23.93     14.24     16.08 
 H(Fragment=2)         23.46     14.62     16.82 
 H(Fragment=2)         23.81     13.3      16.19 
 O(Fragment=2)         25.01     14.72     20.17 
 H(Fragment=2)         25.42     13.9      20.44 
 H(Fragment=2)         25.72     15.36     20.22 
 O(Fragment=2)         25.01     16.9      15.55 
 H(Fragment=2)         25.53     16.79     14.75 
 H(Fragment=2)         24.63     16.04     15.71 
 O(Fragment=2)         25.35     21.91     24.81 
 H(Fragment=2)         25.13     21.37     25.57 
 H(Fragment=2)         26.31     21.89     24.78 
 O(Fragment=2)         17.63     26.19     16.32 
 H(Fragment=2)         17.56     26.78     15.57 
 H(Fragment=2)         16.81     25.69     16.32 
 O(Fragment=2)         25.09     26.44     18.29 
 H(Fragment=2)         25.66     25.84     17.81 
 H(Fragment=2)         24.25     25.98     18.36 
 O(Fragment=2)         19.55     14.45     26.1 
 H(Fragment=2)         18.99     14.81     25.41 
 H(Fragment=2)         19.29     13.53     26.15 
 O(Fragment=2)         27.19     16.81     19.12 
 H(Fragment=2)         27.47     16.14     18.5 
 H(Fragment=2)         27.1      17.6      18.59 
 O(Fragment=2)         20.35     24.94     13.21 
 H(Fragment=2)         20.47     24.89     12.26 
 H(Fragment=2)         20.33     24.02     13.49 
 O(Fragment=2)         13.33     23.16     17.81 
 H(Fragment=2)         12.68     23.41     18.47 
 H(Fragment=2)         12.98     22.35     17.43 
 O(Fragment=2)         17.52     21.98     27.04 
 H(Fragment=2)         18.17     21.72     27.69 
 H(Fragment=2)         17.14     22.79     27.39 
 O(Fragment=2)         24.16     15.85     26.1 
 H(Fragment=2)         25.06     15.55     25.99 
 H(Fragment=2)         24.12     16.68     25.63 
 O(Fragment=2)         26.23     24.19     16.56 
 H(Fragment=2)         26.55     24.89     15.98 
 H(Fragment=2)         25.45     23.85     16.1 
 O(Fragment=2)         15.24     15.04     15.24 
 H(Fragment=2)         15.35     14.61     14.39 
 H(Fragment=2)         16.07     14.87     15.7 
 O(Fragment=2)         20.35     26.59     15.69 
 H(Fragment=2)         20.45     26.12     14.86 
 H(Fragment=2)         19.41     26.55     15.87 
 O(Fragment=2)         16.48     22.6      12.47 
 H(Fragment=2)         15.8      22.05     12.08 
 H(Fragment=2)         16.59     22.26     13.35 
 O(Fragment=2)         20.05     24.64     27.01 
 H(Fragment=2)         20.37     23.74     26.99 
 H(Fragment=2)         20.58     25.1      26.35 
 O(Fragment=2)         26.29     24.42     21.98 
 H(Fragment=2)         26.86     24.24     21.23 
 H(Fragment=2)         26.86     24.81     22.64 
 O(Fragment=2)         19.54     14.46     13.53 
 H(Fragment=2)         19.16     14.4      14.41 
 H(Fragment=2)         20.04     15.27     13.54 
 O(Fragment=2)         19.83     28.84     21.05 
 H(Fragment=2)         20.64     28.88     21.55 
 H(Fragment=2)         19.76     27.92     20.78 
 O(Fragment=2)         15.       19.61     26.56 
 H(Fragment=2)         14.17     19.22     26.83 
 H(Fragment=2)         14.75     20.35     26.01 
 O(Fragment=2)         22.51     20.65     28.29 
 H(Fragment=2)         22.53     20.25     29.16 
 H(Fragment=2)         22.03     20.03     27.75 
 O(Fragment=2)         14.3      14.25     23.24 
 H(Fragment=2)         13.69     13.6      22.91 
 H(Fragment=2)         14.35     14.91     22.56 
 O(Fragment=2)         19.61     27.28     24.6 
 H(Fragment=2)         19.04     26.94     23.92 
 H(Fragment=2)         20.25     26.57     24.76 
 O(Fragment=2)         14.35     26.69     19.31 
 H(Fragment=2)         13.68     27.03     19.91 
 H(Fragment=2)         15.07     26.42     19.89 
 O(Fragment=2)         24.7      23.22     13.02 
 H(Fragment=2)         24.47     22.95     13.91 
 H(Fragment=2)         24.19     24.02     12.87 
 O(Fragment=2)         13.52     22.76     14.36 
 H(Fragment=2)         14.36     22.39     14.63 
 H(Fragment=2)         13.5      22.65     13.41 
 O(Fragment=2)         12.85     17.63     16.5 
 H(Fragment=2)         13.02     16.88     17.07 
 H(Fragment=2)         13.01     17.3      15.62 
 O(Fragment=2)         25.07     26.8      21.29 
 H(Fragment=2)         25.27     26.87     20.36 
 H(Fragment=2)         25.5      26.       21.57 
 O(Fragment=2)         28.39     17.33     21.36 
 H(Fragment=2)         28.57     18.24     21.1 
 H(Fragment=2)         27.81     17.       20.68 
 O(Fragment=2)         28.76     22.04     20.2 
 H(Fragment=2)         28.37     21.67     21. 
 H(Fragment=2)         28.03     22.44     19.74 
 O(Fragment=2)         24.98     20.34     26.86 
 H(Fragment=2)         24.37     20.57     27.57 
 H(Fragment=2)         24.94     19.38     26.81 
 O(Fragment=2)         26.8      15.1      24.26 
 H(Fragment=2)         26.7      14.23     23.87 
 H(Fragment=2)         26.21     15.66     23.75 
 O(Fragment=2)         13.16     19.95     14.18 
 H(Fragment=2)         13.04     20.22     15.09 
 H(Fragment=2)         13.69     19.15     14.24 
 O(Fragment=2)         19.48     20.75     28.74 
 H(Fragment=2)         19.58     20.78     29.69 
 H(Fragment=2)         19.54     19.83     28.52 
 O(Fragment=2)         17.17     15.89     27.99 
 H(Fragment=2)         17.1      16.36     27.16 
 H(Fragment=2)         16.7      15.07     27.84 
 O(Fragment=2)         17.33     18.6      12.01 
 H(Fragment=2)         16.88     17.8      12.28 
 H(Fragment=2)         18.18     18.31     11.68 
 O(Fragment=2)         21.34     11.46     18.95 
 H(Fragment=2)         22.05     11.84     18.42 
 H(Fragment=2)         20.55     11.6      18.42 
 O(Fragment=2)         25.29     24.17     26.52 
 H(Fragment=2)         25.32     23.71     25.68 
 H(Fragment=2)         25.35     25.1      26.29 
 O(Fragment=2)         21.45     15.56     27.65 
 H(Fragment=2)         22.25     15.73     27.16 
 H(Fragment=2)         20.94     14.97     27.1 
 O(Fragment=2)         19.56     17.27     28.82 
 H(Fragment=2)         18.75     16.78     28.65 
 H(Fragment=2)         20.16     16.98     28.14 
 O(Fragment=2)         23.19     25.42     13.81 
 H(Fragment=2)         22.25     25.49     13.65 
 H(Fragment=2)         23.44     26.27     14.16 
 O(Fragment=2)         27.54     15.45     16.58 
 H(Fragment=2)         26.8      16.01     16.33 
 H(Fragment=2)         28.09     15.41     15.79 
 O(Fragment=2)         26.58     18.14     25.43 
 H(Fragment=2)         27.41     17.74     25.18 
 H(Fragment=2)         26.8      18.73     26.14 
 O(Fragment=2)         19.66     17.41     10.93 
 H(Fragment=2)         20.33     17.62     11.58 
 H(Fragment=2)         19.96     16.58     10.54 
 O(Fragment=2)         23.39     15.       13.21 
 H(Fragment=2)         23.61     14.65     14.08 
 H(Fragment=2)         24.17     14.81     12.68 
 O(Fragment=2)         12.91     24.14     23.14 
 H(Fragment=2)         13.37     24.2      23.98 
 H(Fragment=2)         12.75     25.05     22.89 
 O(Fragment=2)         14.14     24.52     25.42 
 H(Fragment=2)         14.49     25.31     25.84 
 H(Fragment=2)         14.61     23.8      25.83 
 O(Fragment=2)         17.44     25.35     12.58 
 H(Fragment=2)         16.86     24.59     12.6 
 H(Fragment=2)         18.26     25.04     12.97 
 O(Fragment=2)         11.25     22.19     22.46 
 H(Fragment=2)         11.84     22.91     22.71 
 H(Fragment=2)         11.72     21.4      22.72 
 O(Fragment=2)         13.21     14.36     19.58 
 H(Fragment=2)         12.7      13.61     19.9 
 H(Fragment=2)         13.19     14.28     18.63 
 O(Fragment=2)         25.79     19.45     13.34 
 H(Fragment=2)         26.25     20.22     12.99 
 H(Fragment=2)         25.34     19.08     12.58 
 O(Fragment=2)         13.04     14.23     17. 
 H(Fragment=2)         13.72     14.76     16.59 
 H(Fragment=2)         12.92     13.49     16.4 
 O(Fragment=2)         11.94     19.57     23.73 
 H(Fragment=2)         12.24     20.16     24.41 
 H(Fragment=2)         12.12     18.69     24.07 
 O(Fragment=2)         16.91     24.48     27.57 
 H(Fragment=2)         17.85     24.52     27.38 
 H(Fragment=2)         16.73     25.29     28.05 
 O(Fragment=2)         18.92     29.09     17.01 
 H(Fragment=2)         18.38     28.34     17.26 
 H(Fragment=2)         18.36     29.59     16.41 
 O(Fragment=2)         10.47     17.82     20.08 
 H(Fragment=2)         11.22     18.35     20.38 
 H(Fragment=2)         10.62     17.71     19.14 
 O(Fragment=2)         16.67     19.68     29.05 
 H(Fragment=2)         17.22     20.45     29.19 
 H(Fragment=2)         16.35     19.77     28.16 
 O(Fragment=2)         21.99     19.81     11.24 
 H(Fragment=2)         22.89     19.49     11.34 
 H(Fragment=2)         21.86     19.88     10.3 
 O(Fragment=2)         14.86     20.6      12.05 
 H(Fragment=2)         14.37     20.1      12.7 
 H(Fragment=2)         15.75     20.24     12.08 
 O(Fragment=2)         18.9      11.43     17.35 
 H(Fragment=2)         18.72     10.68     17.91 
 H(Fragment=2)         18.13     11.5      16.79 
 O(Fragment=2)         28.94     19.65     16.44 
 H(Fragment=2)         28.34     20.39     16.52 
 H(Fragment=2)         29.36     19.77     15.59 
 O(Fragment=2)         22.58     29.42     17.99 
 H(Fragment=2)         21.72     29.72     18.28 
 H(Fragment=2)         22.49     28.46     17.94 
 O(Fragment=2)         21.83     28.93     23.66 
 H(Fragment=2)         21.29     28.16     23.83 
 H(Fragment=2)         21.84     29.42     24.48 
 O(Fragment=2)         16.56     11.88     15.9 
 H(Fragment=2)         16.28     12.38     16.66 
 H(Fragment=2)         15.87     11.23     15.77 
 O(Fragment=2)         23.2      13.15     26.18 
 H(Fragment=2)         22.57     13.17     25.46 
 H(Fragment=2)         23.46     14.06     26.3 
 O(Fragment=2)         21.75     10.48     21.57 
 H(Fragment=2)         20.81     10.45     21.73 
 H(Fragment=2)         21.84     11.04     20.8 
 O(Fragment=2)         29.26     19.19     18.99 
 H(Fragment=2)         29.18     20.07     19.36 
 H(Fragment=2)         29.05     19.3      18.06 
 O(Fragment=2)         12.39     17.04     24.4 
 H(Fragment=2)         13.       16.62     25. 
 H(Fragment=2)         12.15     16.35     23.78 
 
 NAtoms=    385 NQM=      385 NQMF=       0 NMMI=      0 NMMIF=      0
                NMic=       0 NMicF=      0.
                    Isotopes and Nuclear Properties:
 (Nuclear quadrupole moments (NQMom) in fm**2, nuclear magnetic moments (NMagM)
  in nuclear magnetons)

  Atom         1           2           3           4           5           6           7           8           9          10
 IAtWgt=          79          16           1           1          16           1           1          16           1           1
 AtmWgt=  78.9183361  15.9949146   1.0078250   1.0078250  15.9949146   1.0078250   1.0078250  15.9949146   1.0078250   1.0078250
 NucSpn=           3           0           1           1           0           1           1           0           1           1
 AtZEff=   0.0000000   0.0000000   0.0000000   0.0000000   0.0000000   0.0000000   0.0000000   0.0000000   0.0000000   0.0000000
 NQMom=   31.3000000   0.0000000   0.0000000   0.0000000   0.0000000   0.0000000   0.0000000   0.0000000   0.0000000   0.0000000
 NMagM=    2.1063990   0.0000000   2.7928460   2.7928460   0.0000000   2.7928460   2.7928460   0.0000000   2.7928460   2.7928460
 AtZNuc=  35.0000000   8.0000000   1.0000000   1.0000000   8.0000000   1.0000000   1.0000000   8.0000000   1.0000000   1.0000000

  Atom        11          12          13          14          15          16          17          18          19          20
 IAtWgt=          16           1           1          16           1           1          16           1           1          16
 AtmWgt=  15.9949146   1.0078250   1.0078250  15.9949146   1.0078250   1.0078250  15.9949146   1.0078250   1.0078250  15.9949146
 NucSpn=           0           1           1           0           1           1           0           1           1           0
 AtZEff=   0.0000000   0.0000000   0.0000000   0.0000000   0.0000000   0.0000000   0.0000000   0.0000000   0.0000000   0.0000000
 NQMom=    0.0000000   0.0000000   0.0000000   0.0000000   0.0000000   0.0000000   0.0000000   0.0000000   0.0000000   0.0000000
 NMagM=    0.0000000   2.7928460   2.7928460   0.0000000   2.7928460   2.7928460   0.0000000   2.7928460   2.7928460   0.0000000
 AtZNuc=   8.0000000   1.0000000   1.0000000   8.0000000   1.0000000   1.0000000   8.0000000   1.0000000   1.0000000   8.0000000

  Atom        21          22          23          24          25          26          27          28          29          30
 IAtWgt=           1           1          16           1           1          16           1           1          16           1
 AtmWgt=   1.0078250   1.0078250  15.9949146   1.0078250   1.0078250  15.9949146   1.0078250   1.0078250  15.9949146   1.0078250
 NucSpn=           1           1           0           1           1           0           1           1           0           1
 AtZEff=   0.0000000   0.0000000   0.0000000   0.0000000   0.0000000   0.0000000   0.0000000   0.0000000   0.0000000   0.0000000
 NQMom=    0.0000000   0.0000000   0.0000000   0.0000000   0.0000000   0.0000000   0.0000000   0.0000000   0.0000000   0.0000000
 NMagM=    2.7928460   2.7928460   0.0000000   2.7928460   2.7928460   0.0000000   2.7928460   2.7928460   0.0000000   2.7928460
 AtZNuc=   1.0000000   1.0000000   8.0000000   1.0000000   1.0000000   8.0000000   1.0000000   1.0000000   8.0000000   1.0000000

  Atom        31          32          33          34          35          36          37          38          39          40
 IAtWgt=           1          16           1           1          16           1           1          16           1           1
 AtmWgt=   1.0078250  15.9949146   1.0078250   1.0078250  15.9949146   1.0078250   1.0078250  15.9949146   1.0078250   1.0078250
 NucSpn=           1           0           1           1           0           1           1           0           1           1
 AtZEff=   0.0000000   0.0000000   0.0000000   0.0000000   0.0000000   0.0000000   0.0000000   0.0000000   0.0000000   0.0000000
 NQMom=    0.0000000   0.0000000   0.0000000   0.0000000   0.0000000   0.0000000   0.0000000   0.0000000   0.0000000   0.0000000
 NMagM=    2.7928460   0.0000000   2.7928460   2.7928460   0.0000000   2.7928460   2.7928460   0.0000000   2.7928460   2.7928460
 AtZNuc=   1.0000000   8.0000000   1.0000000   1.0000000   8.0000000   1.0000000   1.0000000   8.0000000   1.0000000   1.0000000

  Atom        41          42          43          44          45          46          47          48          49          50
 IAtWgt=          16           1           1          16           1           1          16           1           1          16
 AtmWgt=  15.9949146   1.0078250   1.0078250  15.9949146   1.0078250   1.0078250  15.9949146   1.0078250   1.0078250  15.9949146
 NucSpn=           0           1           1           0           1           1           0           1           1           0
 AtZEff=   0.0000000   0.0000000   0.0000000   0.0000000   0.0000000   0.0000000   0.0000000   0.0000000   0.0000000   0.0000000
 NQMom=    0.0000000   0.0000000   0.0000000   0.0000000   0.0000000   0.0000000   0.0000000   0.0000000   0.0000000   0.0000000
 NMagM=    0.0000000   2.7928460   2.7928460   0.0000000   2.7928460   2.7928460   0.0000000   2.7928460   2.7928460   0.0000000
 AtZNuc=   8.0000000   1.0000000   1.0000000   8.0000000   1.0000000   1.0000000   8.0000000   1.0000000   1.0000000   8.0000000

  Atom        51          52          53          54          55          56          57          58          59          60
 IAtWgt=           1           1          16           1           1          16           1           1          16           1
 AtmWgt=   1.0078250   1.0078250  15.9949146   1.0078250   1.0078250  15.9949146   1.0078250   1.0078250  15.9949146   1.0078250
 NucSpn=           1           1           0           1           1           0           1           1           0           1
 AtZEff=   0.0000000   0.0000000   0.0000000   0.0000000   0.0000000   0.0000000   0.0000000   0.0000000   0.0000000   0.0000000
 NQMom=    0.0000000   0.0000000   0.0000000   0.0000000   0.0000000   0.0000000   0.0000000   0.0000000   0.0000000   0.0000000
 NMagM=    2.7928460   2.7928460   0.0000000   2.7928460   2.7928460   0.0000000   2.7928460   2.7928460   0.0000000   2.7928460
 AtZNuc=   1.0000000   1.0000000   8.0000000   1.0000000   1.0000000   8.0000000   1.0000000   1.0000000   8.0000000   1.0000000

  Atom        61          62          63          64          65          66          67          68          69          70
 IAtWgt=           1          16           1           1          16           1           1          16           1           1
 AtmWgt=   1.0078250  15.9949146   1.0078250   1.0078250  15.9949146   1.0078250   1.0078250  15.9949146   1.0078250   1.0078250
 NucSpn=           1           0           1           1           0           1           1           0           1           1
 AtZEff=   0.0000000   0.0000000   0.0000000   0.0000000   0.0000000   0.0000000   0.0000000   0.0000000   0.0000000   0.0000000
 NQMom=    0.0000000   0.0000000   0.0000000   0.0000000   0.0000000   0.0000000   0.0000000   0.0000000   0.0000000   0.0000000
 NMagM=    2.7928460   0.0000000   2.7928460   2.7928460   0.0000000   2.7928460   2.7928460   0.0000000   2.7928460   2.7928460
 AtZNuc=   1.0000000   8.0000000   1.0000000   1.0000000   8.0000000   1.0000000   1.0000000   8.0000000   1.0000000   1.0000000

  Atom        71          72          73          74          75          76          77          78          79          80
 IAtWgt=          16           1           1          16           1           1          16           1           1          16
 AtmWgt=  15.9949146   1.0078250   1.0078250  15.9949146   1.0078250   1.0078250  15.9949146   1.0078250   1.0078250  15.9949146
 NucSpn=           0           1           1           0           1           1           0           1           1           0
 AtZEff=   0.0000000   0.0000000   0.0000000   0.0000000   0.0000000   0.0000000   0.0000000   0.0000000   0.0000000   0.0000000
 NQMom=    0.0000000   0.0000000   0.0000000   0.0000000   0.0000000   0.0000000   0.0000000   0.0000000   0.0000000   0.0000000
 NMagM=    0.0000000   2.7928460   2.7928460   0.0000000   2.7928460   2.7928460   0.0000000   2.7928460   2.7928460   0.0000000
 AtZNuc=   8.0000000   1.0000000   1.0000000   8.0000000   1.0000000   1.0000000   8.0000000   1.0000000   1.0000000   8.0000000

  Atom        81          82          83          84          85          86          87          88          89          90
 IAtWgt=           1           1          16           1           1          16           1           1          16           1
 AtmWgt=   1.0078250   1.0078250  15.9949146   1.0078250   1.0078250  15.9949146   1.0078250   1.0078250  15.9949146   1.0078250
 NucSpn=           1           1           0           1           1           0           1           1           0           1
 AtZEff=   0.0000000   0.0000000   0.0000000   0.0000000   0.0000000   0.0000000   0.0000000   0.0000000   0.0000000   0.0000000
 NQMom=    0.0000000   0.0000000   0.0000000   0.0000000   0.0000000   0.0000000   0.0000000   0.0000000   0.0000000   0.0000000
 NMagM=    2.7928460   2.7928460   0.0000000   2.7928460   2.7928460   0.0000000   2.7928460   2.7928460   0.0000000   2.7928460
 AtZNuc=   1.0000000   1.0000000   8.0000000   1.0000000   1.0000000   8.0000000   1.0000000   1.0000000   8.0000000   1.0000000

  Atom        91          92          93          94          95          96          97          98          99         100
 IAtWgt=           1          16           1           1          16           1           1          16           1           1
 AtmWgt=   1.0078250  15.9949146   1.0078250   1.0078250  15.9949146   1.0078250   1.0078250  15.9949146   1.0078250   1.0078250
 NucSpn=           1           0           1           1           0           1           1           0           1           1
 AtZEff=   0.0000000   0.0000000   0.0000000   0.0000000   0.0000000   0.0000000   0.0000000   0.0000000   0.0000000   0.0000000
 NQMom=    0.0000000   0.0000000   0.0000000   0.0000000   0.0000000   0.0000000   0.0000000   0.0000000   0.0000000   0.0000000
 NMagM=    2.7928460   0.0000000   2.7928460   2.7928460   0.0000000   2.7928460   2.7928460   0.0000000   2.7928460   2.7928460
 AtZNuc=   1.0000000   8.0000000   1.0000000   1.0000000   8.0000000   1.0000000   1.0000000   8.0000000   1.0000000   1.0000000

  Atom       101         102         103         104         105         106         107         108         109         110
 IAtWgt=          16           1           1          16           1           1          16           1           1          16
 AtmWgt=  15.9949146   1.0078250   1.0078250  15.9949146   1.0078250   1.0078250  15.9949146   1.0078250   1.0078250  15.9949146
 NucSpn=           0           1           1           0           1           1           0           1           1           0
 AtZEff=   0.0000000   0.0000000   0.0000000   0.0000000   0.0000000   0.0000000   0.0000000   0.0000000   0.0000000   0.0000000
 NQMom=    0.0000000   0.0000000   0.0000000   0.0000000   0.0000000   0.0000000   0.0000000   0.0000000   0.0000000   0.0000000
 NMagM=    0.0000000   2.7928460   2.7928460   0.0000000   2.7928460   2.7928460   0.0000000   2.7928460   2.7928460   0.0000000
 AtZNuc=   8.0000000   1.0000000   1.0000000   8.0000000   1.0000000   1.0000000   8.0000000   1.0000000   1.0000000   8.0000000

  Atom       111         112         113         114         115         116         117         118         119         120
 IAtWgt=           1           1          16           1           1          16           1           1          16           1
 AtmWgt=   1.0078250   1.0078250  15.9949146   1.0078250   1.0078250  15.9949146   1.0078250   1.0078250  15.9949146   1.0078250
 NucSpn=           1           1           0           1           1           0           1           1           0           1
 AtZEff=   0.0000000   0.0000000   0.0000000   0.0000000   0.0000000   0.0000000   0.0000000   0.0000000   0.0000000   0.0000000
 NQMom=    0.0000000   0.0000000   0.0000000   0.0000000   0.0000000   0.0000000   0.0000000   0.0000000   0.0000000   0.0000000
 NMagM=    2.7928460   2.7928460   0.0000000   2.7928460   2.7928460   0.0000000   2.7928460   2.7928460   0.0000000   2.7928460
 AtZNuc=   1.0000000   1.0000000   8.0000000   1.0000000   1.0000000   8.0000000   1.0000000   1.0000000   8.0000000   1.0000000

  Atom       121         122         123         124         125         126         127         128         129         130
 IAtWgt=           1          16           1           1          16           1           1          16           1           1
 AtmWgt=   1.0078250  15.9949146   1.0078250   1.0078250  15.9949146   1.0078250   1.0078250  15.9949146   1.0078250   1.0078250
 NucSpn=           1           0           1           1           0           1           1           0           1           1
 AtZEff=   0.0000000   0.0000000   0.0000000   0.0000000   0.0000000   0.0000000   0.0000000   0.0000000   0.0000000   0.0000000
 NQMom=    0.0000000   0.0000000   0.0000000   0.0000000   0.0000000   0.0000000   0.0000000   0.0000000   0.0000000   0.0000000
 NMagM=    2.7928460   0.0000000   2.7928460   2.7928460   0.0000000   2.7928460   2.7928460   0.0000000   2.7928460   2.7928460
 AtZNuc=   1.0000000   8.0000000   1.0000000   1.0000000   8.0000000   1.0000000   1.0000000   8.0000000   1.0000000   1.0000000

  Atom       131         132         133         134         135         136         137         138         139         140
 IAtWgt=          16           1           1          16           1           1          16           1           1          16
 AtmWgt=  15.9949146   1.0078250   1.0078250  15.9949146   1.0078250   1.0078250  15.9949146   1.0078250   1.0078250  15.9949146
 NucSpn=           0           1           1           0           1           1           0           1           1           0
 AtZEff=   0.0000000   0.0000000   0.0000000   0.0000000   0.0000000   0.0000000   0.0000000   0.0000000   0.0000000   0.0000000
 NQMom=    0.0000000   0.0000000   0.0000000   0.0000000   0.0000000   0.0000000   0.0000000   0.0000000   0.0000000   0.0000000
 NMagM=    0.0000000   2.7928460   2.7928460   0.0000000   2.7928460   2.7928460   0.0000000   2.7928460   2.7928460   0.0000000
 AtZNuc=   8.0000000   1.0000000   1.0000000   8.0000000   1.0000000   1.0000000   8.0000000   1.0000000   1.0000000   8.0000000

  Atom       141         142         143         144         145         146         147         148         149         150
 IAtWgt=           1           1          16           1           1          16           1           1          16           1
 AtmWgt=   1.0078250   1.0078250  15.9949146   1.0078250   1.0078250  15.9949146   1.0078250   1.0078250  15.9949146   1.0078250
 NucSpn=           1           1           0           1           1           0           1           1           0           1
 AtZEff=   0.0000000   0.0000000   0.0000000   0.0000000   0.0000000   0.0000000   0.0000000   0.0000000   0.0000000   0.0000000
 NQMom=    0.0000000   0.0000000   0.0000000   0.0000000   0.0000000   0.0000000   0.0000000   0.0000000   0.0000000   0.0000000
 NMagM=    2.7928460   2.7928460   0.0000000   2.7928460   2.7928460   0.0000000   2.7928460   2.7928460   0.0000000   2.7928460
 AtZNuc=   1.0000000   1.0000000   8.0000000   1.0000000   1.0000000   8.0000000   1.0000000   1.0000000   8.0000000   1.0000000

  Atom       151         152         153         154         155         156         157         158         159         160
 IAtWgt=           1          16           1           1          16           1           1          16           1           1
 AtmWgt=   1.0078250  15.9949146   1.0078250   1.0078250  15.9949146   1.0078250   1.0078250  15.9949146   1.0078250   1.0078250
 NucSpn=           1           0           1           1           0           1           1           0           1           1
 AtZEff=   0.0000000   0.0000000   0.0000000   0.0000000   0.0000000   0.0000000   0.0000000   0.0000000   0.0000000   0.0000000
 NQMom=    0.0000000   0.0000000   0.0000000   0.0000000   0.0000000   0.0000000   0.0000000   0.0000000   0.0000000   0.0000000
 NMagM=    2.7928460   0.0000000   2.7928460   2.7928460   0.0000000   2.7928460   2.7928460   0.0000000   2.7928460   2.7928460
 AtZNuc=   1.0000000   8.0000000   1.0000000   1.0000000   8.0000000   1.0000000   1.0000000   8.0000000   1.0000000   1.0000000

  Atom       161         162         163         164         165         166         167         168         169         170
 IAtWgt=          16           1           1          16           1           1          16           1           1          16
 AtmWgt=  15.9949146   1.0078250   1.0078250  15.9949146   1.0078250   1.0078250  15.9949146   1.0078250   1.0078250  15.9949146
 NucSpn=           0           1           1           0           1           1           0           1           1           0
 AtZEff=   0.0000000   0.0000000   0.0000000   0.0000000   0.0000000   0.0000000   0.0000000   0.0000000   0.0000000   0.0000000
 NQMom=    0.0000000   0.0000000   0.0000000   0.0000000   0.0000000   0.0000000   0.0000000   0.0000000   0.0000000   0.0000000
 NMagM=    0.0000000   2.7928460   2.7928460   0.0000000   2.7928460   2.7928460   0.0000000   2.7928460   2.7928460   0.0000000
 AtZNuc=   8.0000000   1.0000000   1.0000000   8.0000000   1.0000000   1.0000000   8.0000000   1.0000000   1.0000000   8.0000000

  Atom       171         172         173         174         175         176         177         178         179         180
 IAtWgt=           1           1          16           1           1          16           1           1          16           1
 AtmWgt=   1.0078250   1.0078250  15.9949146   1.0078250   1.0078250  15.9949146   1.0078250   1.0078250  15.9949146   1.0078250
 NucSpn=           1           1           0           1           1           0           1           1           0           1
 AtZEff=   0.0000000   0.0000000   0.0000000   0.0000000   0.0000000   0.0000000   0.0000000   0.0000000   0.0000000   0.0000000
 NQMom=    0.0000000   0.0000000   0.0000000   0.0000000   0.0000000   0.0000000   0.0000000   0.0000000   0.0000000   0.0000000
 NMagM=    2.7928460   2.7928460   0.0000000   2.7928460   2.7928460   0.0000000   2.7928460   2.7928460   0.0000000   2.7928460
 AtZNuc=   1.0000000   1.0000000   8.0000000   1.0000000   1.0000000   8.0000000   1.0000000   1.0000000   8.0000000   1.0000000

  Atom       181         182         183         184         185         186         187         188         189         190
 IAtWgt=           1          16           1           1          16           1           1          16           1           1
 AtmWgt=   1.0078250  15.9949146   1.0078250   1.0078250  15.9949146   1.0078250   1.0078250  15.9949146   1.0078250   1.0078250
 NucSpn=           1           0           1           1           0           1           1           0           1           1
 AtZEff=   0.0000000   0.0000000   0.0000000   0.0000000   0.0000000   0.0000000   0.0000000   0.0000000   0.0000000   0.0000000
 NQMom=    0.0000000   0.0000000   0.0000000   0.0000000   0.0000000   0.0000000   0.0000000   0.0000000   0.0000000   0.0000000
 NMagM=    2.7928460   0.0000000   2.7928460   2.7928460   0.0000000   2.7928460   2.7928460   0.0000000   2.7928460   2.7928460
 AtZNuc=   1.0000000   8.0000000   1.0000000   1.0000000   8.0000000   1.0000000   1.0000000   8.0000000   1.0000000   1.0000000

  Atom       191         192         193         194         195         196         197         198         199         200
 IAtWgt=          16           1           1          16           1           1          16           1           1          16
 AtmWgt=  15.9949146   1.0078250   1.0078250  15.9949146   1.0078250   1.0078250  15.9949146   1.0078250   1.0078250  15.9949146
 NucSpn=           0           1           1           0           1           1           0           1           1           0
 AtZEff=   0.0000000   0.0000000   0.0000000   0.0000000   0.0000000   0.0000000   0.0000000   0.0000000   0.0000000   0.0000000
 NQMom=    0.0000000   0.0000000   0.0000000   0.0000000   0.0000000   0.0000000   0.0000000   0.0000000   0.0000000   0.0000000
 NMagM=    0.0000000   2.7928460   2.7928460   0.0000000   2.7928460   2.7928460   0.0000000   2.7928460   2.7928460   0.0000000
 AtZNuc=   8.0000000   1.0000000   1.0000000   8.0000000   1.0000000   1.0000000   8.0000000   1.0000000   1.0000000   8.0000000

  Atom       201         202         203         204         205         206         207         208         209         210
 IAtWgt=           1           1          16           1           1          16           1           1          16           1
 AtmWgt=   1.0078250   1.0078250  15.9949146   1.0078250   1.0078250  15.9949146   1.0078250   1.0078250  15.9949146   1.0078250
 NucSpn=           1           1           0           1           1           0           1           1           0           1
 AtZEff=   0.0000000   0.0000000   0.0000000   0.0000000   0.0000000   0.0000000   0.0000000   0.0000000   0.0000000   0.0000000
 NQMom=    0.0000000   0.0000000   0.0000000   0.0000000   0.0000000   0.0000000   0.0000000   0.0000000   0.0000000   0.0000000
 NMagM=    2.7928460   2.7928460   0.0000000   2.7928460   2.7928460   0.0000000   2.7928460   2.7928460   0.0000000   2.7928460
 AtZNuc=   1.0000000   1.0000000   8.0000000   1.0000000   1.0000000   8.0000000   1.0000000   1.0000000   8.0000000   1.0000000

  Atom       211         212         213         214         215         216         217         218         219         220
 IAtWgt=           1          16           1           1          16           1           1          16           1           1
 AtmWgt=   1.0078250  15.9949146   1.0078250   1.0078250  15.9949146   1.0078250   1.0078250  15.9949146   1.0078250   1.0078250
 NucSpn=           1           0           1           1           0           1           1           0           1           1
 AtZEff=   0.0000000   0.0000000   0.0000000   0.0000000   0.0000000   0.0000000   0.0000000   0.0000000   0.0000000   0.0000000
 NQMom=    0.0000000   0.0000000   0.0000000   0.0000000   0.0000000   0.0000000   0.0000000   0.0000000   0.0000000   0.0000000
 NMagM=    2.7928460   0.0000000   2.7928460   2.7928460   0.0000000   2.7928460   2.7928460   0.0000000   2.7928460   2.7928460
 AtZNuc=   1.0000000   8.0000000   1.0000000   1.0000000   8.0000000   1.0000000   1.0000000   8.0000000   1.0000000   1.0000000

  Atom       221         222         223         224         225         226         227         228         229         230
 IAtWgt=          16           1           1          16           1           1          16           1           1          16
 AtmWgt=  15.9949146   1.0078250   1.0078250  15.9949146   1.0078250   1.0078250  15.9949146   1.0078250   1.0078250  15.9949146
 NucSpn=           0           1           1           0           1           1           0           1           1           0
 AtZEff=   0.0000000   0.0000000   0.0000000   0.0000000   0.0000000   0.0000000   0.0000000   0.0000000   0.0000000   0.0000000
 NQMom=    0.0000000   0.0000000   0.0000000   0.0000000   0.0000000   0.0000000   0.0000000   0.0000000   0.0000000   0.0000000
 NMagM=    0.0000000   2.7928460   2.7928460   0.0000000   2.7928460   2.7928460   0.0000000   2.7928460   2.7928460   0.0000000
 AtZNuc=   8.0000000   1.0000000   1.0000000   8.0000000   1.0000000   1.0000000   8.0000000   1.0000000   1.0000000   8.0000000

  Atom       231         232         233         234         235         236         237         238         239         240
 IAtWgt=           1           1          16           1           1          16           1           1          16           1
 AtmWgt=   1.0078250   1.0078250  15.9949146   1.0078250   1.0078250  15.9949146   1.0078250   1.0078250  15.9949146   1.0078250
 NucSpn=           1           1           0           1           1           0           1           1           0           1
 AtZEff=   0.0000000   0.0000000   0.0000000   0.0000000   0.0000000   0.0000000   0.0000000   0.0000000   0.0000000   0.0000000
 NQMom=    0.0000000   0.0000000   0.0000000   0.0000000   0.0000000   0.0000000   0.0000000   0.0000000   0.0000000   0.0000000
 NMagM=    2.7928460   2.7928460   0.0000000   2.7928460   2.7928460   0.0000000   2.7928460   2.7928460   0.0000000   2.7928460
 AtZNuc=   1.0000000   1.0000000   8.0000000   1.0000000   1.0000000   8.0000000   1.0000000   1.0000000   8.0000000   1.0000000

  Atom       241         242         243         244         245         246         247         248         249         250
 IAtWgt=           1          16           1           1          16           1           1          16           1           1
 AtmWgt=   1.0078250  15.9949146   1.0078250   1.0078250  15.9949146   1.0078250   1.0078250  15.9949146   1.0078250   1.0078250
 NucSpn=           1           0           1           1           0           1           1           0           1           1
 AtZEff=   0.0000000   0.0000000   0.0000000   0.0000000   0.0000000   0.0000000   0.0000000   0.0000000   0.0000000   0.0000000
 NQMom=    0.0000000   0.0000000   0.0000000   0.0000000   0.0000000   0.0000000   0.0000000   0.0000000   0.0000000   0.0000000
 NMagM=    2.7928460   0.0000000   2.7928460   2.7928460   0.0000000   2.7928460   2.7928460   0.0000000   2.7928460   2.7928460
 AtZNuc=   1.0000000   8.0000000   1.0000000   1.0000000   8.0000000   1.0000000   1.0000000   8.0000000   1.0000000   1.0000000

  Atom       251         252         253         254         255         256         257         258         259         260
 IAtWgt=          16           1           1          16           1           1          16           1           1          16
 AtmWgt=  15.9949146   1.0078250   1.0078250  15.9949146   1.0078250   1.0078250  15.9949146   1.0078250   1.0078250  15.9949146
 NucSpn=           0           1           1           0           1           1           0           1           1           0
 AtZEff=   0.0000000   0.0000000   0.0000000   0.0000000   0.0000000   0.0000000   0.0000000   0.0000000   0.0000000   0.0000000
 NQMom=    0.0000000   0.0000000   0.0000000   0.0000000   0.0000000   0.0000000   0.0000000   0.0000000   0.0000000   0.0000000
 NMagM=    0.0000000   2.7928460   2.7928460   0.0000000   2.7928460   2.7928460   0.0000000   2.7928460   2.7928460   0.0000000
 AtZNuc=   8.0000000   1.0000000   1.0000000   8.0000000   1.0000000   1.0000000   8.0000000   1.0000000   1.0000000   8.0000000

  Atom       261         262         263         264         265         266         267         268         269         270
 IAtWgt=           1           1          16           1           1          16           1           1          16           1
 AtmWgt=   1.0078250   1.0078250  15.9949146   1.0078250   1.0078250  15.9949146   1.0078250   1.0078250  15.9949146   1.0078250
 NucSpn=           1           1           0           1           1           0           1           1           0           1
 AtZEff=   0.0000000   0.0000000   0.0000000   0.0000000   0.0000000   0.0000000   0.0000000   0.0000000   0.0000000   0.0000000
 NQMom=    0.0000000   0.0000000   0.0000000   0.0000000   0.0000000   0.0000000   0.0000000   0.0000000   0.0000000   0.0000000
 NMagM=    2.7928460   2.7928460   0.0000000   2.7928460   2.7928460   0.0000000   2.7928460   2.7928460   0.0000000   2.7928460
 AtZNuc=   1.0000000   1.0000000   8.0000000   1.0000000   1.0000000   8.0000000   1.0000000   1.0000000   8.0000000   1.0000000

  Atom       271         272         273         274         275         276         277         278         279         280
 IAtWgt=           1          16           1           1          16           1           1          16           1           1
 AtmWgt=   1.0078250  15.9949146   1.0078250   1.0078250  15.9949146   1.0078250   1.0078250  15.9949146   1.0078250   1.0078250
 NucSpn=           1           0           1           1           0           1           1           0           1           1
 AtZEff=   0.0000000   0.0000000   0.0000000   0.0000000   0.0000000   0.0000000   0.0000000   0.0000000   0.0000000   0.0000000
 NQMom=    0.0000000   0.0000000   0.0000000   0.0000000   0.0000000   0.0000000   0.0000000   0.0000000   0.0000000   0.0000000
 NMagM=    2.7928460   0.0000000   2.7928460   2.7928460   0.0000000   2.7928460   2.7928460   0.0000000   2.7928460   2.7928460
 AtZNuc=   1.0000000   8.0000000   1.0000000   1.0000000   8.0000000   1.0000000   1.0000000   8.0000000   1.0000000   1.0000000

  Atom       281         282         283         284         285         286         287         288         289         290
 IAtWgt=          16           1           1          16           1           1          16           1           1          16
 AtmWgt=  15.9949146   1.0078250   1.0078250  15.9949146   1.0078250   1.0078250  15.9949146   1.0078250   1.0078250  15.9949146
 NucSpn=           0           1           1           0           1           1           0           1           1           0
 AtZEff=   0.0000000   0.0000000   0.0000000   0.0000000   0.0000000   0.0000000   0.0000000   0.0000000   0.0000000   0.0000000
 NQMom=    0.0000000   0.0000000   0.0000000   0.0000000   0.0000000   0.0000000   0.0000000   0.0000000   0.0000000   0.0000000
 NMagM=    0.0000000   2.7928460   2.7928460   0.0000000   2.7928460   2.7928460   0.0000000   2.7928460   2.7928460   0.0000000
 AtZNuc=   8.0000000   1.0000000   1.0000000   8.0000000   1.0000000   1.0000000   8.0000000   1.0000000   1.0000000   8.0000000

  Atom       291         292         293         294         295         296         297         298         299         300
 IAtWgt=           1           1          16           1           1          16           1           1          16           1
 AtmWgt=   1.0078250   1.0078250  15.9949146   1.0078250   1.0078250  15.9949146   1.0078250   1.0078250  15.9949146   1.0078250
 NucSpn=           1           1           0           1           1           0           1           1           0           1
 AtZEff=   0.0000000   0.0000000   0.0000000   0.0000000   0.0000000   0.0000000   0.0000000   0.0000000   0.0000000   0.0000000
 NQMom=    0.0000000   0.0000000   0.0000000   0.0000000   0.0000000   0.0000000   0.0000000   0.0000000   0.0000000   0.0000000
 NMagM=    2.7928460   2.7928460   0.0000000   2.7928460   2.7928460   0.0000000   2.7928460   2.7928460   0.0000000   2.7928460
 AtZNuc=   1.0000000   1.0000000   8.0000000   1.0000000   1.0000000   8.0000000   1.0000000   1.0000000   8.0000000   1.0000000

  Atom       301         302         303         304         305         306         307         308         309         310
 IAtWgt=           1          16           1           1          16           1           1          16           1           1
 AtmWgt=   1.0078250  15.9949146   1.0078250   1.0078250  15.9949146   1.0078250   1.0078250  15.9949146   1.0078250   1.0078250
 NucSpn=           1           0           1           1           0           1           1           0           1           1
 AtZEff=   0.0000000   0.0000000   0.0000000   0.0000000   0.0000000   0.0000000   0.0000000   0.0000000   0.0000000   0.0000000
 NQMom=    0.0000000   0.0000000   0.0000000   0.0000000   0.0000000   0.0000000   0.0000000   0.0000000   0.0000000   0.0000000
 NMagM=    2.7928460   0.0000000   2.7928460   2.7928460   0.0000000   2.7928460   2.7928460   0.0000000   2.7928460   2.7928460
 AtZNuc=   1.0000000   8.0000000   1.0000000   1.0000000   8.0000000   1.0000000   1.0000000   8.0000000   1.0000000   1.0000000

  Atom       311         312         313         314         315         316         317         318         319         320
 IAtWgt=          16           1           1          16           1           1          16           1           1          16
 AtmWgt=  15.9949146   1.0078250   1.0078250  15.9949146   1.0078250   1.0078250  15.9949146   1.0078250   1.0078250  15.9949146
 NucSpn=           0           1           1           0           1           1           0           1           1           0
 AtZEff=   0.0000000   0.0000000   0.0000000   0.0000000   0.0000000   0.0000000   0.0000000   0.0000000   0.0000000   0.0000000
 NQMom=    0.0000000   0.0000000   0.0000000   0.0000000   0.0000000   0.0000000   0.0000000   0.0000000   0.0000000   0.0000000
 NMagM=    0.0000000   2.7928460   2.7928460   0.0000000   2.7928460   2.7928460   0.0000000   2.7928460   2.7928460   0.0000000
 AtZNuc=   8.0000000   1.0000000   1.0000000   8.0000000   1.0000000   1.0000000   8.0000000   1.0000000   1.0000000   8.0000000

  Atom       321         322         323         324         325         326         327         328         329         330
 IAtWgt=           1           1          16           1           1          16           1           1          16           1
 AtmWgt=   1.0078250   1.0078250  15.9949146   1.0078250   1.0078250  15.9949146   1.0078250   1.0078250  15.9949146   1.0078250
 NucSpn=           1           1           0           1           1           0           1           1           0           1
 AtZEff=   0.0000000   0.0000000   0.0000000   0.0000000   0.0000000   0.0000000   0.0000000   0.0000000   0.0000000   0.0000000
 NQMom=    0.0000000   0.0000000   0.0000000   0.0000000   0.0000000   0.0000000   0.0000000   0.0000000   0.0000000   0.0000000
 NMagM=    2.7928460   2.7928460   0.0000000   2.7928460   2.7928460   0.0000000   2.7928460   2.7928460   0.0000000   2.7928460
 AtZNuc=   1.0000000   1.0000000   8.0000000   1.0000000   1.0000000   8.0000000   1.0000000   1.0000000   8.0000000   1.0000000

  Atom       331         332         333         334         335         336         337         338         339         340
 IAtWgt=           1          16           1           1          16           1           1          16           1           1
 AtmWgt=   1.0078250  15.9949146   1.0078250   1.0078250  15.9949146   1.0078250   1.0078250  15.9949146   1.0078250   1.0078250
 NucSpn=           1           0           1           1           0           1           1           0           1           1
 AtZEff=   0.0000000   0.0000000   0.0000000   0.0000000   0.0000000   0.0000000   0.0000000   0.0000000   0.0000000   0.0000000
 NQMom=    0.0000000   0.0000000   0.0000000   0.0000000   0.0000000   0.0000000   0.0000000   0.0000000   0.0000000   0.0000000
 NMagM=    2.7928460   0.0000000   2.7928460   2.7928460   0.0000000   2.7928460   2.7928460   0.0000000   2.7928460   2.7928460
 AtZNuc=   1.0000000   8.0000000   1.0000000   1.0000000   8.0000000   1.0000000   1.0000000   8.0000000   1.0000000   1.0000000

  Atom       341         342         343         344         345         346         347         348         349         350
 IAtWgt=          16           1           1          16           1           1          16           1           1          16
 AtmWgt=  15.9949146   1.0078250   1.0078250  15.9949146   1.0078250   1.0078250  15.9949146   1.0078250   1.0078250  15.9949146
 NucSpn=           0           1           1           0           1           1           0           1           1           0
 AtZEff=   0.0000000   0.0000000   0.0000000   0.0000000   0.0000000   0.0000000   0.0000000   0.0000000   0.0000000   0.0000000
 NQMom=    0.0000000   0.0000000   0.0000000   0.0000000   0.0000000   0.0000000   0.0000000   0.0000000   0.0000000   0.0000000
 NMagM=    0.0000000   2.7928460   2.7928460   0.0000000   2.7928460   2.7928460   0.0000000   2.7928460   2.7928460   0.0000000
 AtZNuc=   8.0000000   1.0000000   1.0000000   8.0000000   1.0000000   1.0000000   8.0000000   1.0000000   1.0000000   8.0000000

  Atom       351         352         353         354         355         356         357         358         359         360
 IAtWgt=           1           1          16           1           1          16           1           1          16           1
 AtmWgt=   1.0078250   1.0078250  15.9949146   1.0078250   1.0078250  15.9949146   1.0078250   1.0078250  15.9949146   1.0078250
 NucSpn=           1           1           0           1           1           0           1           1           0           1
 AtZEff=   0.0000000   0.0000000   0.0000000   0.0000000   0.0000000   0.0000000   0.0000000   0.0000000   0.0000000   0.0000000
 NQMom=    0.0000000   0.0000000   0.0000000   0.0000000   0.0000000   0.0000000   0.0000000   0.0000000   0.0000000   0.0000000
 NMagM=    2.7928460   2.7928460   0.0000000   2.7928460   2.7928460   0.0000000   2.7928460   2.7928460   0.0000000   2.7928460
 AtZNuc=   1.0000000   1.0000000   8.0000000   1.0000000   1.0000000   8.0000000   1.0000000   1.0000000   8.0000000   1.0000000

  Atom       361         362         363         364         365         366         367         368         369         370
 IAtWgt=           1          16           1           1          16           1           1          16           1           1
 AtmWgt=   1.0078250  15.9949146   1.0078250   1.0078250  15.9949146   1.0078250   1.0078250  15.9949146   1.0078250   1.0078250
 NucSpn=           1           0           1           1           0           1           1           0           1           1
 AtZEff=   0.0000000   0.0000000   0.0000000   0.0000000   0.0000000   0.0000000   0.0000000   0.0000000   0.0000000   0.0000000
 NQMom=    0.0000000   0.0000000   0.0000000   0.0000000   0.0000000   0.0000000   0.0000000   0.0000000   0.0000000   0.0000000
 NMagM=    2.7928460   0.0000000   2.7928460   2.7928460   0.0000000   2.7928460   2.7928460   0.0000000   2.7928460   2.7928460
 AtZNuc=   1.0000000   8.0000000   1.0000000   1.0000000   8.0000000   1.0000000   1.0000000   8.0000000   1.0000000   1.0000000

  Atom       371         372         373         374         375         376         377         378         379         380
 IAtWgt=          16           1           1          16           1           1          16           1           1          16
 AtmWgt=  15.9949146   1.0078250   1.0078250  15.9949146   1.0078250   1.0078250  15.9949146   1.0078250   1.0078250  15.9949146
 NucSpn=           0           1           1           0           1           1           0           1           1           0
 AtZEff=   0.0000000   0.0000000   0.0000000   0.0000000   0.0000000   0.0000000   0.0000000   0.0000000   0.0000000   0.0000000
 NQMom=    0.0000000   0.0000000   0.0000000   0.0000000   0.0000000   0.0000000   0.0000000   0.0000000   0.0000000   0.0000000
 NMagM=    0.0000000   2.7928460   2.7928460   0.0000000   2.7928460   2.7928460   0.0000000   2.7928460   2.7928460   0.0000000
 AtZNuc=   8.0000000   1.0000000   1.0000000   8.0000000   1.0000000   1.0000000   8.0000000   1.0000000   1.0000000   8.0000000

  Atom       381         382         383         384         385
 IAtWgt=           1           1          16           1           1
 AtmWgt=   1.0078250   1.0078250  15.9949146   1.0078250   1.0078250
 NucSpn=           1           1           0           1           1
 AtZEff=   0.0000000   0.0000000   0.0000000   0.0000000   0.0000000
 NQMom=    0.0000000   0.0000000   0.0000000   0.0000000   0.0000000
 NMagM=    2.7928460   2.7928460   0.0000000   2.7928460   2.7928460
 AtZNuc=   1.0000000   1.0000000   8.0000000   1.0000000   1.0000000
 Leave Link  101 at Sun May 13 21:56:15 2018, MaxMem= 14763950080 cpu:        33.2
 (Enter /cm/shared/gaussian/g09.e01/intel64-sandybridge/g09/l103.exe)

 GradGradGradGradGradGradGradGradGradGradGradGradGradGradGradGradGradGrad
 Berny optimization.
 Initialization pass.
 Trust Radius=3.00D-01 FncErr=1.00D-07 GrdErr=1.00D-07
 Number of steps in this run=      2 maximum allowed number of steps=      2.
 GradGradGradGradGradGradGradGradGradGradGradGradGradGradGradGradGradGrad

 Leave Link  103 at Sun May 13 21:56:15 2018, MaxMem= 14763950080 cpu:         3.7
 (Enter /cm/shared/gaussian/g09.e01/intel64-sandybridge/g09/l202.exe)
 Symmetry turned off by external request.
 Stoichiometry    BrH256O128(1-)
 Framework group  C1[X(BrH256O128)]
 Deg. of freedom  1149
 Full point group                 C1      NOp   1
                          Input orientation:                          
 ---------------------------------------------------------------------
 Center     Atomic      Atomic             Coordinates (Angstroms)
 Number     Number       Type             X           Y           Z
 ---------------------------------------------------------------------
      1         35           0       20.000000   20.000000   20.000000
      2          8           0       21.570000   21.190000   22.280000
      3          1           0       21.150000   21.030000   21.430000
      4          1           0       22.350000   20.630000   22.260000
      5          8           0       17.470000   18.150000   19.490000
      6          1           0       18.260000   18.670000   19.660000
      7          1           0       16.850000   18.440000   20.160000
      8          8           0       17.980000   22.320000   19.140000
      9          1           0       17.070000   22.080000   19.310000
     10          1           0       18.470000   21.520000   19.320000
     11          8           0       21.590000   22.540000   18.880000
     12          1           0       21.160000   21.870000   19.410000
     13          1           0       20.980000   22.700000   18.150000
     14          8           0       22.510000   19.410000   17.770000
     15          1           0       21.710000   19.290000   18.290000
     16          1           0       23.220000   19.160000   18.370000
     17          8           0       18.450000   17.790000   22.380000
     18          1           0       19.200000   17.660000   22.960000
     19          1           0       18.720000   18.490000   21.790000
     20          8           0       18.370000   20.210000   16.500000
     21          1           0       18.560000   19.510000   15.890000
     22          1           0       19.000000   20.090000   17.210000
     23          8           0       21.570000   16.860000   20.560000
     24          1           0       21.630000   16.960000   21.510000
     25          1           0       20.670000   17.100000   20.350000
     26          8           0       23.340000   18.970000   21.530000
     27          1           0       24.200000   19.010000   21.110000
     28          1           0       22.890000   18.250000   21.080000
     29          8           0       19.470000   22.200000   24.130000
     30          1           0       19.880000   22.060000   24.990000
     31          1           0       20.120000   21.880000   23.500000
     32          8           0       19.990000   22.630000   16.680000
     33          1           0       19.120000   22.580000   17.080000
     34          1           0       19.920000   22.100000   15.890000
     35          8           0       18.170000   16.630000   17.200000
     36          1           0       18.500000   17.180000   16.480000
     37          1           0       17.930000   17.260000   17.890000
     38          8           0       15.910000   19.770000   17.800000
     39          1           0       16.010000   20.350000   18.550000
     40          1           0       16.770000   19.750000   17.400000
     41          8           0       15.940000   19.770000   21.080000
     42          1           0       15.790000   20.620000   20.670000
     43          1           0       16.020000   19.960000   22.010000
     44          8           0       24.060000   22.180000   18.190000
     45          1           0       24.140000   21.250000   17.980000
     46          1           0       23.130000   22.300000   18.350000
     47          8           0       18.600000   25.150000   19.270000
     48          1           0       19.070000   25.500000   18.520000
     49          1           0       18.390000   24.250000   19.030000
     50          8           0       16.580000   15.440000   20.030000
     51          1           0       15.860000   15.870000   20.490000
     52          1           0       17.240000   16.130000   19.940000
     53          8           0       22.590000   25.030000   19.450000
     54          1           0       22.310000   24.140000   19.270000
     55          1           0       22.700000   25.070000   20.400000
     56          8           0       22.860000   22.860000   24.140000
     57          1           0       23.730000   22.470000   24.250000
     58          1           0       22.430000   22.330000   23.470000
     59          8           0       22.940000   18.630000   15.090000
     60          1           0       23.830000   18.300000   15.200000
     61          1           0       22.610000   18.750000   15.990000
     62          8           0       15.980000   17.180000   23.180000
     63          1           0       15.220000   16.820000   22.710000
     64          1           0       16.620000   17.370000   22.490000
     65          8           0       18.260000   19.200000   25.430000
     66          1           0       17.690000   19.800000   25.910000
     67          1           0       18.710000   19.750000   24.790000
     68          8           0       22.520000   14.900000   18.510000
     69          1           0       23.390000   15.030000   18.890000
     70          1           0       21.950000   15.510000   18.980000
     71          8           0       16.570000   21.780000   24.500000
     72          1           0       16.780000   21.890000   25.430000
     73          1           0       17.380000   21.980000   24.040000
     74          8           0       15.090000   21.860000   19.640000
     75          1           0       14.430000   22.140000   19.000000
     76          1           0       14.890000   22.370000   20.420000
     77          8           0       21.900000   15.840000   23.410000
     78          1           0       21.510000   14.970000   23.510000
     79          1           0       21.330000   16.420000   23.910000
     80          8           0       16.540000   22.030000   15.010000
     81          1           0       16.550000   22.870000   15.470000
     82          1           0       16.730000   21.380000   15.690000
     83          8           0       19.860000   17.170000   24.970000
     84          1           0       19.380000   17.950000   25.260000
     85          1           0       19.180000   16.520000   24.790000
     86          8           0       23.990000   18.240000   24.850000
     87          1           0       24.930000   18.080000   24.900000
     88          1           0       23.870000   18.660000   24.000000
     89          8           0       25.670000   19.230000   20.490000
     90          1           0       26.380000   19.820000   20.760000
     91          1           0       26.120000   18.480000   20.110000
     92          8           0       19.830000   26.350000   21.760000
     93          1           0       19.430000   25.600000   21.310000
     94          1           0       20.750000   26.110000   21.860000
     95          8           0       23.970000   22.930000   15.590000
     96          1           0       23.230000   23.530000   15.570000
     97          1           0       23.800000   22.360000   16.340000
     98          8           0       20.780000   24.800000   24.380000
     99          1           0       21.600000   24.310000   24.270000
    100          1           0       20.110000   24.210000   24.040000
    101          8           0       18.660000   18.280000   14.580000
    102          1           0       18.140000   18.300000   13.770000
    103          1           0       19.560000   18.390000   14.290000
    104          8           0       20.970000   19.890000   13.680000
    105          1           0       21.400000   19.760000   12.830000
    106          1           0       21.650000   19.720000   14.330000
    107          8           0       14.880000   22.520000   22.270000
    108          1           0       15.370000   22.200000   23.040000
    109          1           0       14.110000   22.950000   22.640000
    110          8           0       24.780000   16.160000   22.550000
    111          1           0       24.650000   15.600000   21.780000
    112          1           0       23.890000   16.330000   22.860000
    113          8           0       16.450000   25.540000   20.840000
    114          1           0       17.280000   25.560000   20.370000
    115          1           0       16.700000   25.370000   21.750000
    116          8           0       13.010000   18.970000   21.220000
    117          1           0       12.590000   19.240000   22.040000
    118          1           0       13.910000   19.300000   21.300000
    119          8           0       18.070000   15.240000   24.160000
    120          1           0       17.320000   15.780000   23.910000
    121          1           0       18.170000   14.610000   23.440000
    122          8           0       18.250000   14.230000   15.910000
    123          1           0       18.250000   15.030000   16.440000
    124          1           0       18.490000   13.530000   16.520000
    125          8           0       21.730000   18.690000   26.520000
    126          1           0       22.450000   18.640000   25.890000
    127          1           0       21.000000   18.260000   26.090000
    128          8           0       21.230000   22.250000   26.240000
    129          1           0       21.950000   22.500000   25.660000
    130          1           0       21.640000   21.690000   26.900000
    131          8           0       25.950000   18.720000   17.460000
    132          1           0       25.450000   18.190000   16.840000
    133          1           0       26.280000   19.450000   16.930000
    134          8           0       13.390000   20.370000   16.690000
    135          1           0       14.170000   19.900000   16.990000
    136          1           0       12.660000   19.930000   17.120000
    137          8           0       26.630000   23.290000   19.060000
    138          1           0       25.730000   23.020000   18.900000
    139          1           0       26.850000   23.850000   18.310000
    140          8           0       21.110000   27.030000   18.120000
    141          1           0       20.930000   26.900000   17.190000
    142          1           0       21.510000   26.210000   18.400000
    143          8           0       19.310000   22.250000   13.680000
    144          1           0       19.890000   21.520000   13.460000
    145          1           0       18.530000   22.110000   13.160000
    146          8           0       15.560000   24.690000   17.420000
    147          1           0       15.670000   24.880000   18.350000
    148          1           0       14.770000   24.150000   17.370000
    149          8           0       16.170000   17.280000   25.850000
    150          1           0       16.210000   17.320000   24.900000
    151          1           0       16.060000   18.190000   26.130000
    152          8           0       22.520000   25.960000   22.050000
    153          1           0       23.190000   26.570000   21.740000
    154          1           0       22.590000   26.000000   23.000000
    155          8           0       15.060000   17.980000   14.480000
    156          1           0       14.910000   17.060000   14.700000
    157          1           0       15.180000   18.410000   15.320000
    158          8           0       21.440000   16.730000   13.220000
    159          1           0       21.710000   17.470000   13.760000
    160          1           0       22.200000   16.150000   13.210000
    161          8           0       27.340000   20.800000   22.260000
    162          1           0       26.450000   21.070000   22.470000
    163          1           0       27.830000   20.930000   23.070000
    164          8           0       20.580000   13.310000   23.010000
    165          1           0       21.000000   13.210000   22.150000
    166          1           0       19.680000   13.560000   22.810000
    167          8           0       26.700000   21.230000   16.630000
    168          1           0       27.100000   21.830000   16.000000
    169          1           0       26.270000   21.810000   17.270000
    170          8           0       15.980000   13.480000   18.110000
    171          1           0       16.050000   14.240000   18.690000
    172          1           0       15.210000   13.010000   18.430000
    173          8           0       14.150000   16.180000   21.410000
    174          1           0       13.840000   15.550000   20.760000
    175          1           0       13.640000   16.970000   21.250000
    176          8           0       17.810000   13.180000   21.980000
    177          1           0       17.960000   12.240000   21.900000
    178          1           0       17.420000   13.440000   21.150000
    179          8           0       23.930000   14.240000   16.080000
    180          1           0       23.460000   14.620000   16.820000
    181          1           0       23.810000   13.300000   16.190000
    182          8           0       25.010000   14.720000   20.170000
    183          1           0       25.420000   13.900000   20.440000
    184          1           0       25.720000   15.360000   20.220000
    185          8           0       25.010000   16.900000   15.550000
    186          1           0       25.530000   16.790000   14.750000
    187          1           0       24.630000   16.040000   15.710000
    188          8           0       25.350000   21.910000   24.810000
    189          1           0       25.130000   21.370000   25.570000
    190          1           0       26.310000   21.890000   24.780000
    191          8           0       17.630000   26.190000   16.320000
    192          1           0       17.560000   26.780000   15.570000
    193          1           0       16.810000   25.690000   16.320000
    194          8           0       25.090000   26.440000   18.290000
    195          1           0       25.660000   25.840000   17.810000
    196          1           0       24.250000   25.980000   18.360000
    197          8           0       19.550000   14.450000   26.100000
    198          1           0       18.990000   14.810000   25.410000
    199          1           0       19.290000   13.530000   26.150000
    200          8           0       27.190000   16.810000   19.120000
    201          1           0       27.470000   16.140000   18.500000
    202          1           0       27.100000   17.600000   18.590000
    203          8           0       20.350000   24.940000   13.210000
    204          1           0       20.470000   24.890000   12.260000
    205          1           0       20.330000   24.020000   13.490000
    206          8           0       13.330000   23.160000   17.810000
    207          1           0       12.680000   23.410000   18.470000
[...]
   Y335      26.89080  -0.00331   0.00000   0.00332   0.00313  26.89393
   Z335      32.12534   0.00792   0.00000  -0.00025  -0.00013  32.12521
   X336      25.92704   0.01945   0.00000   0.01756   0.01818  25.94523
   Y336      27.89236   0.00396   0.00000  -0.00347  -0.00365  27.88870
   Z336      31.35056  -0.01512   0.00000  -0.01527  -0.01515  31.33541
   X337      24.41526   0.00034   0.00000  -0.00082  -0.00014  24.41512
   Y337      25.49241  -0.00122   0.00000  -0.00034  -0.00056  25.49185
   Z337      30.99151  -0.00325   0.00000  -0.00257  -0.00241  30.98909
   X338      22.56333  -0.00536   0.00000  -0.00057  -0.00039  22.56294
   Y338      36.98194   0.00996   0.00000   0.00633   0.00644  36.98838
   Z338      44.84320  -0.01679   0.00000  -0.00955  -0.00974  44.83346
   X339      23.13025   0.00407   0.00000   0.00206   0.00220  23.13245
   Y339      38.09688   0.01064   0.00000   0.00947   0.00963  38.10650
   Z339      46.12821   0.01038   0.00000   0.00698   0.00678  46.13499
   X340      22.90348   0.00169   0.00000  -0.00139  -0.00120  22.90229
   Y340      35.31898  -0.01908   0.00000  -0.01371  -0.01357  35.30541
   Z340      45.48571   0.00533   0.00000   0.00122   0.00108  45.48679
   X341      31.95527  -0.01531   0.00000  -0.00472  -0.00484  31.95043
   Y341      46.26050  -0.00220   0.00000   0.00067   0.00112  46.26162
   Z341      52.09975  -0.00190   0.00000  -0.00473  -0.00496  52.09479
   X342      33.73161   0.02228   0.00000   0.01690   0.01678  33.74840
   Y342      46.33608   0.00699   0.00000   0.00977   0.01024  46.34632
   Z342      51.74070  -0.00812   0.00000  -0.00985  -0.01004  51.73066
   X343      31.61512   0.00065   0.00000   0.00101   0.00084  31.61596
   Y343      47.79117   0.00253   0.00000   0.00045   0.00092  47.79209
   Z343      53.00682   0.00457   0.00000   0.00599   0.00572  53.01254
   X344      35.75362   0.00744   0.00000   0.00428   0.00447  35.75809
   Y344      54.97213   0.00554   0.00000   0.00170   0.00169  54.97382
   Z344      32.14424  -0.00305   0.00000  -0.00316  -0.00353  32.14071
   X345      34.73317  -0.00555   0.00000  -0.00306  -0.00286  34.73031
   Y345      53.55484  -0.00779   0.00000  -0.00484  -0.00486  53.54998
   Z345      32.61667   0.00445   0.00000   0.00515   0.00480  32.62148
   X346      34.69537  -0.00294   0.00000  -0.00362  -0.00342  34.69195
   Y346      55.91700   0.00038   0.00000  -0.00005  -0.00010  55.91689
   Z346      31.01041  -0.00117   0.00000  -0.00058  -0.00099  31.00941
   X347      19.78543  -0.00359   0.00000  -0.00098  -0.00059  19.78484
   Y347      33.67492  -0.00397   0.00000  -0.00446  -0.00457  33.67035
   Z347      37.94570   0.00697   0.00000   0.00512   0.00496  37.95066
   X348      21.20273   0.00429   0.00000   0.00344   0.00380  21.20653
   Y348      34.67647   0.00247   0.00000   0.00197   0.00190  34.67837
   Z348      38.51262  -0.00193   0.00000  -0.00320  -0.00336  38.50926
   X349      20.06889   0.00317   0.00000   0.00285   0.00329  20.07218
   Y349      33.46705   0.00147   0.00000   0.00267   0.00252  33.46957
   Z349      36.16936  -0.00580   0.00000  -0.00281  -0.00296  36.16640
   X350      31.50173  -0.00136   0.00000  -0.00405  -0.00409  31.49764
   Y350      37.18981  -0.00891   0.00000  -0.00594  -0.00542  37.18439
   Z350      54.89654   0.01884   0.00000   0.01238   0.01238  54.90893
   X351      32.54108   0.00515   0.00000   0.00515   0.00508  32.54616
   Y351      38.64490   0.00388   0.00000  -0.00012   0.00042  38.64532
   Z351      55.16111  -0.00385   0.00000  -0.00546  -0.00547  55.15564
   X352      30.89702  -0.00631   0.00000  -0.00527  -0.00527  30.89175
   Y352      37.35989   0.00506   0.00000   0.00449   0.00495  37.36484
   Z352      53.21469  -0.01519   0.00000  -0.00732  -0.00734  53.20735
   X353      41.55508   0.00429   0.00000   0.00446   0.00516  41.56024
   Y353      37.43547  -0.00228   0.00000  -0.00269  -0.00290  37.43258
   Z353      21.24052   0.00945   0.00000   0.00335   0.00357  21.24409
   X354      43.25583   0.00444   0.00000   0.00660   0.00730  43.26314
   Y354      36.83076  -0.00029   0.00000  -0.00024  -0.00042  36.83034
   Z354      21.42949  -0.00150   0.00000  -0.00301  -0.00274  21.42676
   X355      41.30941  -0.00491   0.00000  -0.00679  -0.00605  41.30337
   Y355      37.56776   0.00037   0.00000  -0.00025  -0.00051  37.56725
   Z355      19.46418  -0.01212   0.00000  -0.00815  -0.00793  19.45625
   X356      28.08133   0.00514   0.00000   0.00320   0.00384  28.08517
   Y356      38.92836   0.00393   0.00000  -0.00564  -0.00602  38.92234
   Z356      22.77120  -0.02042   0.00000  -0.02047  -0.02059  22.75061
   X357      27.15536  -0.01325   0.00000  -0.01283  -0.01220  27.14317
   Y357      37.98350   0.00261   0.00000   0.01504   0.01468  37.99818
   Z357      23.99952   0.01610   0.00000   0.01375   0.01364  24.01316
   X358      29.76319   0.00692   0.00000   0.00565   0.00631  29.76949
   Y358      38.24806  -0.01071   0.00000  -0.01542  -0.01577  38.23229
   Z358      22.82789  -0.00031   0.00000  -0.00085  -0.00091  22.82698
   X359      35.71582   0.02334   0.00000   0.01153   0.01222  35.72804
   Y359      21.59957   0.00748   0.00000   0.00477   0.00477  21.60434
   Z359      32.78675   0.01038   0.00000   0.00644   0.00694  32.79369
   X360      35.37567  -0.00440   0.00000  -0.00434  -0.00365  35.37202
   Y360      20.18228  -0.00913   0.00000  -0.00699  -0.00697  20.17531
   Z360      33.84500   0.00581   0.00000   0.00410   0.00464  33.84963
   X361      34.26073  -0.01926   0.00000  -0.00985  -0.00914  34.25159
   Y361      21.73185  -0.00075   0.00000  -0.00191  -0.00196  21.72989
   Z361      31.72850  -0.01761   0.00000  -0.01452  -0.01405  31.71445
   X362      54.68867   0.00385   0.00000  -0.00308  -0.00259  54.68608
   Y362      37.13312  -0.00966   0.00000  -0.00664  -0.00639  37.12673
   Z362      31.06710  -0.00868   0.00000  -0.01372  -0.01320  31.05389
   X363      53.55484  -0.01229   0.00000  -0.01108  -0.01062  53.54422
   Y363      38.53152   0.00990   0.00000   0.00528   0.00552  38.53703
   Z363      31.21828   0.00576   0.00000   0.00682   0.00727  31.22555
   X364      55.48236   0.00569   0.00000   0.00802   0.00854  55.49090
   Y364      37.35989  -0.00047   0.00000   0.00014   0.00036  37.36025
   Z364      29.46083  -0.00527   0.00000  -0.00852  -0.00799  29.45284
   X365      42.67002   0.01944   0.00000   0.01428   0.01442  42.68443
   Y365      55.59574   0.00832   0.00000   0.00792   0.00807  55.60381
   Z365      33.99617  -0.00685   0.00000  -0.00604  -0.00627  33.98991
   X366      41.04485  -0.01089   0.00000  -0.00499  -0.00487  41.03998
   Y366      56.16266  -0.00593   0.00000  -0.01008  -0.00995  56.15271
   Z366      34.54419   0.00345   0.00000   0.00181   0.00153  34.54572
   X367      42.49994  -0.01122   0.00000  -0.01426  -0.01410  42.48584
   Y367      53.78161  -0.00147   0.00000   0.00318   0.00332  53.78492
   Z367      33.90169   0.00485   0.00000   0.00726   0.00708  33.90876
   X368      41.25272   0.01886   0.00000   0.02001   0.01992  41.27264
   Y368      54.66978   0.00340   0.00000  -0.00471  -0.00431  54.66547
   Z368      44.71092  -0.01563   0.00000  -0.00960  -0.00983  44.70109
   X369      40.23227  -0.01852   0.00000  -0.02102  -0.02109  40.21118
   Y369      53.21469  -0.00482   0.00000   0.00448   0.00487  53.21956
   Z369      45.03217   0.00547   0.00000   0.00330   0.00308  45.03525
   X370      41.27162  -0.00490   0.00000  -0.00645  -0.00658  41.26504
   Y370      55.59574   0.00145   0.00000  -0.00102  -0.00057  55.59517
   Z370      46.26050   0.00686   0.00000   0.00135   0.00109  46.26159
   X371      31.29386   0.01054   0.00000   0.00499   0.00573  31.29959
   Y371      22.44995  -0.01103   0.00000  -0.00786  -0.00800  22.44195
   Z371      30.04665  -0.01513   0.00000  -0.00566  -0.00527  30.04137
   X372      30.76474  -0.00508   0.00000  -0.00127  -0.00058  30.76416
   Y372      23.39481   0.02058   0.00000   0.02049   0.02038  23.41519
   Z372      31.48284   0.01778   0.00000   0.00829   0.00864  31.49147
   X373      29.98995  -0.00396   0.00000  -0.00343  -0.00266  29.98729
   Y373      21.22162  -0.00701   0.00000  -0.00803  -0.00820  21.21343
   Z373      29.80098  -0.00131   0.00000  -0.00156  -0.00117  29.79981
   X374      43.84165   0.00177   0.00000   0.00135   0.00162  43.84327
   Y374      24.84990  -0.02088   0.00000  -0.01441  -0.01384  24.83606
   Z374      49.47303   0.00529   0.00000   0.00231   0.00291  49.47594
   X375      42.65112  -0.00479   0.00000  -0.00356  -0.00326  42.64786
   Y375      24.88769   0.00444   0.00000   0.00433   0.00484  24.89253
   Z375      48.11243  -0.00539   0.00000  -0.00355  -0.00297  48.10945
   X376      44.33298   0.00043   0.00000  -0.00301  -0.00277  44.33020
   Y376      26.56955   0.01668   0.00000   0.00874   0.00932  26.57887
   Z376      49.69980  -0.00229   0.00000  -0.00463  -0.00406  49.69573
   X377      41.10154   0.01281   0.00000   0.00893   0.00947  41.11102
   Y377      19.80433  -0.00511   0.00000   0.00056   0.00085  19.80518
   Z377      40.76139   0.01384   0.00000   0.01041   0.01108  40.77248
   X378      39.32520  -0.00851   0.00000  -0.00401  -0.00347  39.32173
   Y378      19.74764   0.00193   0.00000   0.00196   0.00224  19.74988
   Z378      41.06375   0.00006   0.00000  -0.00018   0.00045  41.06420
   X379      41.27162  -0.00546   0.00000  -0.00854  -0.00798  41.26364
   Y379      20.86258   0.00307   0.00000  -0.00366  -0.00340  20.85918
   Z379      39.30630  -0.01459   0.00000  -0.01342  -0.01277  39.29353
   X380      55.29339  -0.00257   0.00000  -0.00970  -0.00931  55.28408
   Y380      36.26384  -0.01339   0.00000  -0.00828  -0.00789  36.25596
   Z380      35.88590   0.01828   0.00000   0.02012   0.02068  35.90658
   X381      55.14221  -0.00065   0.00000   0.00011   0.00047  55.14268
   Y381      37.92680   0.01596   0.00000   0.01477   0.01517  37.94197
   Z381      36.58510   0.00283   0.00000   0.00117   0.00168  36.58678
   X382      54.89654   0.00530   0.00000   0.01187   0.01230  54.90884
   Y382      36.47171  -0.00101   0.00000  -0.00510  -0.00477  36.46695
   Z382      34.12845  -0.00708   0.00000   0.00064   0.00118  34.12963
   X383      23.41371  -0.00677   0.00000  -0.00468  -0.00445  23.40926
   Y383      32.20093   0.00732   0.00000   0.00075   0.00091  32.20184
   Z383      46.10932  -0.00085   0.00000   0.00281   0.00277  46.11209
   X384      24.56644   0.01253   0.00000   0.01257   0.01279  24.57923
   Y384      31.40725  -0.00656   0.00000  -0.00489  -0.00468  31.40257
   Z384      47.24315   0.00668   0.00000   0.00321   0.00321  47.24636
   X385      22.96017   0.00075   0.00000   0.00233   0.00260  22.96278
   Y385      30.89702  -0.00548   0.00000  -0.00440  -0.00427  30.89275
   Z385      44.93769  -0.00497   0.00000  -0.00457  -0.00459  44.93310
         Item               Value     Threshold  Converged?
 Maximum Force            0.045066     0.000450     NO 
 RMS     Force            0.010808     0.000300     NO 
 Maximum Displacement     0.033478     0.001800     NO 
 RMS     Displacement     0.008822     0.001200     NO 
 Predicted change in Energy=-7.637809D-02
 GradGradGradGradGradGradGradGradGradGradGradGradGradGradGradGradGradGrad

 Leave Link  103 at Mon May 14 00:27:03 2018, MaxMem= 14763950080 cpu:      2944.0
 (Enter /cm/shared/gaussian/g09.e01/intel64-sandybridge/g09/l9999.exe)
 1\1\GINC-POPLE03\Force\RPBE1PBE\CC-pVDZ\Br1H256O128(1-)\M.PELUSO\14-Ma
 y-2018\0\\#p PBE1PBE/cc-pvDZ force Counterpoise=2 noSymm\\forces on ch
 loride comput - NWATER: 128\\-1,1\Br,20.,20.,20.\O,21.57,21.19,22.28\H
 ,21.15,21.03,21.43\H,22.35,20.63,22.26\O,17.47,18.15,19.49\H,18.26,18.
 67,19.66\H,16.85,18.44,20.16\O,17.98,22.32,19.14\H,17.07,22.08,19.31\H
 ,18.47,21.52,19.32\O,21.59,22.54,18.88\H,21.16,21.87,19.41\H,20.98,22.
 7,18.15\O,22.51,19.41,17.77\H,21.71,19.29,18.29\H,23.22,19.16,18.37\O,
 18.45,17.79,22.38\H,19.2,17.66,22.96\H,18.72,18.49,21.79\O,18.37,20.21
 ,16.5\H,18.56,19.51,15.89\H,19.,20.09,17.21\O,21.57,16.86,20.56\H,21.6
 3,16.96,21.51\H,20.67,17.1,20.35\O,23.34,18.97,21.53\H,24.2,19.01,21.1
 1\H,22.89,18.25,21.08\O,19.47,22.2,24.13\H,19.88,22.06,24.99\H,20.12,2
 1.88,23.5\O,19.99,22.63,16.68\H,19.12,22.58,17.08\H,19.92,22.1,15.89\O
 ,18.17,16.63,17.2\H,18.5,17.18,16.48\H,17.93,17.26,17.89\O,15.91,19.77
 ,17.8\H,16.01,20.35,18.55\H,16.77,19.75,17.4\O,15.94,19.77,21.08\H,15.
 79,20.62,20.67\H,16.02,19.96,22.01\O,24.06,22.18,18.19\H,24.14,21.25,1
 7.98\H,23.13,22.3,18.35\O,18.6,25.15,19.27\H,19.07,25.5,18.52\H,18.39,
 24.25,19.03\O,16.58,15.44,20.03\H,15.86,15.87,20.49\H,17.24,16.13,19.9
 4\O,22.59,25.03,19.45\H,22.31,24.14,19.27\H,22.7,25.07,20.4\O,22.86,22
 .86,24.14\H,23.73,22.47,24.25\H,22.43,22.33,23.47\O,22.94,18.63,15.09\
 H,23.83,18.3,15.2\H,22.61,18.75,15.99\O,15.98,17.18,23.18\H,15.22,16.8
 2,22.71\H,16.62,17.37,22.49\O,18.26,19.2,25.43\H,17.69,19.8,25.91\H,18
 .71,19.75,24.79\O,22.52,14.9,18.51\H,23.39,15.03,18.89\H,21.95,15.51,1
 8.98\O,16.57,21.78,24.5\H,16.78,21.89,25.43\H,17.38,21.98,24.04\O,15.0
 9,21.86,19.64\H,14.43,22.14,19.\H,14.89,22.37,20.42\O,21.9,15.84,23.41
 \H,21.51,14.97,23.51\H,21.33,16.42,23.91\O,16.54,22.03,15.01\H,16.55,2
 2.87,15.47\H,16.73,21.38,15.69\O,19.86,17.17,24.97\H,19.38,17.95,25.26
 \H,19.18,16.52,24.79\O,23.99,18.24,24.85\H,24.93,18.08,24.9\H,23.87,18
 .66,24.\O,25.67,19.23,20.49\H,26.38,19.82,20.76\H,26.12,18.48,20.11\O,
 19.83,26.35,21.76\H,19.43,25.6,21.31\H,20.75,26.11,21.86\O,23.97,22.93
 ,15.59\H,23.23,23.53,15.57\H,23.8,22.36,16.34\O,20.78,24.8,24.38\H,21.
 6,24.31,24.27\H,20.11,24.21,24.04\O,18.66,18.28,14.58\H,18.14,18.3,13.
 77\H,19.56,18.39,14.29\O,20.97,19.89,13.68\H,21.4,19.76,12.83\H,21.65,
 19.72,14.33\O,14.88,22.52,22.27\H,15.37,22.2,23.04\H,14.11,22.95,22.64
 \O,24.78,16.16,22.55\H,24.65,15.6,21.78\H,23.89,16.33,22.86\O,16.45,25
 .54,20.84\H,17.28,25.56,20.37\H,16.7,25.37,21.75\O,13.01,18.97,21.22\H
 ,12.59,19.24,22.04\H,13.91,19.3,21.3\O,18.07,15.24,24.16\H,17.32,15.78
 ,23.91\H,18.17,14.61,23.44\O,18.25,14.23,15.91\H,18.25,15.03,16.44\H,1
 8.49,13.53,16.52\O,21.73,18.69,26.52\H,22.45,18.64,25.89\H,21.,18.26,2
 6.09\O,21.23,22.25,26.24\H,21.95,22.5,25.66\H,21.64,21.69,26.9\O,25.95
 ,18.72,17.46\H,25.45,18.19,16.84\H,26.28,19.45,16.93\O,13.39,20.37,16.
 69\H,14.17,19.9,16.99\H,12.66,19.93,17.12\O,26.63,23.29,19.06\H,25.73,
 23.02,18.9\H,26.85,23.85,18.31\O,21.11,27.03,18.12\H,20.93,26.9,17.19\
 H,21.51,26.21,18.4\O,19.31,22.25,13.68\H,19.89,21.52,13.46\H,18.53,22.
 11,13.16\O,15.56,24.69,17.42\H,15.67,24.88,18.35\H,14.77,24.15,17.37\O
 ,16.17,17.28,25.85\H,16.21,17.32,24.9\H,16.06,18.19,26.13\O,22.52,25.9
 6,22.05\H,23.19,26.57,21.74\H,22.59,26.,23.\O,15.06,17.98,14.48\H,14.9
 1,17.06,14.7\H,15.18,18.41,15.32\O,21.44,16.73,13.22\H,21.71,17.47,13.
 76\H,22.2,16.15,13.21\O,27.34,20.8,22.26\H,26.45,21.07,22.47\H,27.83,2
 0.93,23.07\O,20.58,13.31,23.01\H,21.,13.21,22.15\H,19.68,13.56,22.81\O
 ,26.7,21.23,16.63\H,27.1,21.83,16.\H,26.27,21.81,17.27\O,15.98,13.48,1
 8.11\H,16.05,14.24,18.69\H,15.21,13.01,18.43\O,14.15,16.18,21.41\H,13.
 84,15.55,20.76\H,13.64,16.97,21.25\O,17.81,13.18,21.98\H,17.96,12.24,2
 1.9\H,17.42,13.44,21.15\O,23.93,14.24,16.08\H,23.46,14.62,16.82\H,23.8
 1,13.3,16.19\O,25.01,14.72,20.17\H,25.42,13.9,20.44\H,25.72,15.36,20.2
 2\O,25.01,16.9,15.55\H,25.53,16.79,14.75\H,24.63,16.04,15.71\O,25.35,2
 1.91,24.81\H,25.13,21.37,25.57\H,26.31,21.89,24.78\O,17.63,26.19,16.32
 \H,17.56,26.78,15.57\H,16.81,25.69,16.32\O,25.09,26.44,18.29\H,25.66,2
 5.84,17.81\H,24.25,25.98,18.36\O,19.55,14.45,26.1\H,18.99,14.81,25.41\
 H,19.29,13.53,26.15\O,27.19,16.81,19.12\H,27.47,16.14,18.5\H,27.1,17.6
 ,18.59\O,20.35,24.94,13.21\H,20.47,24.89,12.26\H,20.33,24.02,13.49\O,1
 3.33,23.16,17.81\H,12.68,23.41,18.47\H,12.98,22.35,17.43\O,17.52,21.98
 ,27.04\H,18.17,21.72,27.69\H,17.14,22.79,27.39\O,24.16,15.85,26.1\H,25
 .06,15.55,25.99\H,24.12,16.68,25.63\O,26.23,24.19,16.56\H,26.55,24.89,
 15.98\H,25.45,23.85,16.1\O,15.24,15.04,15.24\H,15.35,14.61,14.39\H,16.
 07,14.87,15.7\O,20.35,26.59,15.69\H,20.45,26.12,14.86\H,19.41,26.55,15
 .87\O,16.48,22.6,12.47\H,15.8,22.05,12.08\H,16.59,22.26,13.35\O,20.05,
 24.64,27.01\H,20.37,23.74,26.99\H,20.58,25.1,26.35\O,26.29,24.42,21.98
 \H,26.86,24.24,21.23\H,26.86,24.81,22.64\O,19.54,14.46,13.53\H,19.16,1
 4.4,14.41\H,20.04,15.27,13.54\O,19.83,28.84,21.05\H,20.64,28.88,21.55\
 H,19.76,27.92,20.78\O,15.,19.61,26.56\H,14.17,19.22,26.83\H,14.75,20.3
 5,26.01\O,22.51,20.65,28.29\H,22.53,20.25,29.16\H,22.03,20.03,27.75\O,
 14.3,14.25,23.24\H,13.69,13.6,22.91\H,14.35,14.91,22.56\O,19.61,27.28,
 24.6\H,19.04,26.94,23.92\H,20.25,26.57,24.76\O,14.35,26.69,19.31\H,13.
 68,27.03,19.91\H,15.07,26.42,19.89\O,24.7,23.22,13.02\H,24.47,22.95,13
 .91\H,24.19,24.02,12.87\O,13.52,22.76,14.36\H,14.36,22.39,14.63\H,13.5
 ,22.65,13.41\O,12.85,17.63,16.5\H,13.02,16.88,17.07\H,13.01,17.3,15.62
 \O,25.07,26.8,21.29\H,25.27,26.87,20.36\H,25.5,26.,21.57\O,28.39,17.33
 ,21.36\H,28.57,18.24,21.1\H,27.81,17.,20.68\O,28.76,22.04,20.2\H,28.37
 ,21.67,21.\H,28.03,22.44,19.74\O,24.98,20.34,26.86\H,24.37,20.57,27.57
 \H,24.94,19.38,26.81\O,26.8,15.1,24.26\H,26.7,14.23,23.87\H,26.21,15.6
 6,23.75\O,13.16,19.95,14.18\H,13.04,20.22,15.09\H,13.69,19.15,14.24\O,
 19.48,20.75,28.74\H,19.58,20.78,29.69\H,19.54,19.83,28.52\O,17.17,15.8
 9,27.99\H,17.1,16.36,27.16\H,16.7,15.07,27.84\O,17.33,18.6,12.01\H,16.
 88,17.8,12.28\H,18.18,18.31,11.68\O,21.34,11.46,18.95\H,22.05,11.84,18
 .42\H,20.55,11.6,18.42\O,25.29,24.17,26.52\H,25.32,23.71,25.68\H,25.35
 ,25.1,26.29\O,21.45,15.56,27.65\H,22.25,15.73,27.16\H,20.94,14.97,27.1
 \O,19.56,17.27,28.82\H,18.75,16.78,28.65\H,20.16,16.98,28.14\O,23.19,2
 5.42,13.81\H,22.25,25.49,13.65\H,23.44,26.27,14.16\O,27.54,15.45,16.58
 \H,26.8,16.01,16.33\H,28.09,15.41,15.79\O,26.58,18.14,25.43\H,27.41,17
 .74,25.18\H,26.8,18.73,26.14\O,19.66,17.41,10.93\H,20.33,17.62,11.58\H
 ,19.96,16.58,10.54\O,23.39,15.,13.21\H,23.61,14.65,14.08\H,24.17,14.81
 ,12.68\O,12.91,24.14,23.14\H,13.37,24.2,23.98\H,12.75,25.05,22.89\O,14
 .14,24.52,25.42\H,14.49,25.31,25.84\H,14.61,23.8,25.83\O,17.44,25.35,1
 2.58\H,16.86,24.59,12.6\H,18.26,25.04,12.97\O,11.25,22.19,22.46\H,11.8
 4,22.91,22.71\H,11.72,21.4,22.72\O,13.21,14.36,19.58\H,12.7,13.61,19.9
 \H,13.19,14.28,18.63\O,25.79,19.45,13.34\H,26.25,20.22,12.99\H,25.34,1
 9.08,12.58\O,13.04,14.23,17.\H,13.72,14.76,16.59\H,12.92,13.49,16.4\O,
 11.94,19.57,23.73\H,12.24,20.16,24.41\H,12.12,18.69,24.07\O,16.91,24.4
 8,27.57\H,17.85,24.52,27.38\H,16.73,25.29,28.05\O,18.92,29.09,17.01\H,
 18.38,28.34,17.26\H,18.36,29.59,16.41\O,10.47,17.82,20.08\H,11.22,18.3
 5,20.38\H,10.62,17.71,19.14\O,16.67,19.68,29.05\H,17.22,20.45,29.19\H,
 16.35,19.77,28.16\O,21.99,19.81,11.24\H,22.89,19.49,11.34\H,21.86,19.8
 8,10.3\O,14.86,20.6,12.05\H,14.37,20.1,12.7\H,15.75,20.24,12.08\O,18.9
 ,11.43,17.35\H,18.72,10.68,17.91\H,18.13,11.5,16.79\O,28.94,19.65,16.4
 4\H,28.34,20.39,16.52\H,29.36,19.77,15.59\O,22.58,29.42,17.99\H,21.72,
 29.72,18.28\H,22.49,28.46,17.94\O,21.83,28.93,23.66\H,21.29,28.16,23.8
 3\H,21.84,29.42,24.48\O,16.56,11.88,15.9\H,16.28,12.38,16.66\H,15.87,1
 1.23,15.77\O,23.2,13.15,26.18\H,22.57,13.17,25.46\H,23.46,14.06,26.3\O
 ,21.75,10.48,21.57\H,20.81,10.45,21.73\H,21.84,11.04,20.8\O,29.26,19.1
 9,18.99\H,29.18,20.07,19.36\H,29.05,19.3,18.06\O,12.39,17.04,24.4\H,13
 .,16.62,25.\H,12.15,16.35,23.78\\Version=ES64L-G09RevE.01\HF=-9773.479
 567\RMSD=2.133e-09\RMSF=1.081e-02\Dipole=0.7867059,-12.5711675,-5.9044
 394\Quadrupole=567.8624418,-576.1959249,8.3334831,-1799.8448917,-1747.
 6269025,-1965.4760753\PG=C01 [X(Br1H256O128)]\\@


 NOTHING MAKES A PERSON MORE PRODUCTIVE THAN THE LAST MINUTE.
 Job cpu time:       6 days 14 hours  7 minutes 54.9 seconds.
 File lengths (MBytes):  RWF=   7285 Int=      0 D2E=      0 Chk=   2411 Scr=      1
 Normal termination of Gaussian 09 at Mon May 14 00:27:32 2018.
