 Entering Gaussian System, Link 0=/cm/shared/gaussian/g09.e01/intel64-sandybridge/g09/g09
 Initial command:
 /cm/shared/gaussian/g09.e01/intel64-sandybridge/g09/l1.exe "/local/scratch/m.peluso/128_wat/order/Gau-61732.inp" -scrdir="/local/scratch/m.peluso/128_wat/order/"
 Entering Link 1 = /cm/shared/gaussian/g09.e01/intel64-sandybridge/g09/l1.exe PID=     61733.
  
 Copyright (c) 1988,1990,1992,1993,1995,1998,2003,2009,2015,
            Gaussian, Inc.  All Rights Reserved.
  
 This is part of the Gaussian(R) 09 program.  It is based on
 the Gaussian(R) 03 system (copyright 2003, Gaussian, Inc.),
 the Gaussian(R) 98 system (copyright 1998, Gaussian, Inc.),
 the Gaussian(R) 94 system (copyright 1995, Gaussian, Inc.),
 the Gaussian 92(TM) system (copyright 1992, Gaussian, Inc.),
 the Gaussian 90(TM) system (copyright 1990, Gaussian, Inc.),
 the Gaussian 88(TM) system (copyright 1988, Gaussian, Inc.),
 the Gaussian 86(TM) system (copyright 1986, Carnegie Mellon
 University), and the Gaussian 82(TM) system (copyright 1983,
 Carnegie Mellon University). Gaussian is a federally registered
 trademark of Gaussian, Inc.
  
 This software contains proprietary and confidential information,
 including trade secrets, belonging to Gaussian, Inc.
  
 This software is provided under written license and may be
 used, copied, transmitted, or stored only in accord with that
 written license.
  
 The following legend is applicable only to US Government
 contracts under FAR:
  
                    RESTRICTED RIGHTS LEGEND
  
 Use, reproduction and disclosure by the US Government is
 subject to restrictions as set forth in subparagraphs (a)
 and (c) of the Commercial Computer Software - Restricted
 Rights clause in FAR 52.227-19.
  
 Gaussian, Inc.
 340 Quinnipiac St., Bldg. 40, Wallingford CT 06492
  
  
 ---------------------------------------------------------------
 Warning -- This program may not be used in any manner that
 competes with the business of Gaussian, Inc. or will provide
 assistance to any competitor of Gaussian, Inc.  The licensee
 of this program is prohibited from giving any competitor of
 Gaussian, Inc. access to this program.  By using this program,
 the user acknowledges that Gaussian, Inc. is engaged in the
 business of creating and licensing software in the field of
 computational chemistry and represents and warrants to the
 licensee that it is not a competitor of Gaussian, Inc. and that
 it will not use this program in any manner prohibited above.
 ---------------------------------------------------------------
  

 Cite this work as:
 Gaussian 09, Revision E.01,
 M. J. Frisch, G. W. Trucks, H. B. Schlegel, G. E. Scuseria, 
 M. A. Robb, J. R. Cheeseman, G. Scalmani, V. Barone, B. Mennucci, 
 G. A. Petersson, H. Nakatsuji, M. Caricato, X. Li, H. P. Hratchian, 
 A. F. Izmaylov, J. Bloino, G. Zheng, J. L. Sonnenberg, M. Hada, 
 M. Ehara, K. Toyota, R. Fukuda, J. Hasegawa, M. Ishida, T. Nakajima, 
 Y. Honda, O. Kitao, H. Nakai, T. Vreven, J. A. Montgomery, Jr., 
 J. E. Peralta, F. Ogliaro, M. Bearpark, J. J. Heyd, E. Brothers, 
 K. N. Kudin, V. N. Staroverov, T. Keith, R. Kobayashi, J. Normand, 
 K. Raghavachari, A. Rendell, J. C. Burant, S. S. Iyengar, J. Tomasi, 
 M. Cossi, N. Rega, J. M. Millam, M. Klene, J. E. Knox, J. B. Cross, 
 V. Bakken, C. Adamo, J. Jaramillo, R. Gomperts, R. E. Stratmann, 
 O. Yazyev, A. J. Austin, R. Cammi, C. Pomelli, J. W. Ochterski, 
 R. L. Martin, K. Morokuma, V. G. Zakrzewski, G. A. Voth, 
 P. Salvador, J. J. Dannenberg, S. Dapprich, A. D. Daniels, 
 O. Farkas, J. B. Foresman, J. V. Ortiz, J. Cioslowski, 
 and D. J. Fox, Gaussian, Inc., Wallingford CT, 2013.
 
 ******************************************
 Gaussian 09:  ES64L-G09RevE.01 30-Nov-2015
                14-May-2018 
 ******************************************
 %Mem=110GB
 %NProcShared=64
 Will use up to   64 processors via shared memory.
 %chk=snap98.chk
 ----------------------------------------------
 #p PBE1PBE/cc-pvDZ force Counterpoise=2 noSymm
 ----------------------------------------------
 1/10=7,30=1,38=1,62=2/1,3;
 2/12=2,15=1,17=6,18=5,40=1/2;
 1/10=7,30=1,38=1,53=2,62=2,63=101/22;
 3/5=16,11=2,16=1,25=1,30=1,71=1,74=-13/1,2,3;
 4//1;
 5/5=2,38=5/2;
 6/7=2,8=2,9=2,10=2,28=1/1;
 7/7=1,29=1,30=1,33=-1/1,2,3,16;
 1/10=7,30=1,53=2,62=2,63=101/22;
 3/5=7,6=11,11=2,16=1,25=1,30=1,71=1,74=-13,82=7/1,2,3;
 4//1;
 5/5=2,38=5/2;
 6/7=2,8=2,9=2,10=2,28=1/1;
 7/7=1,29=1,30=1,33=-1/1,2,3,16;
 1/10=7,30=1,53=2,62=2,63=101/22(-5);
 7/9=1,29=1,44=-1/16;
 1/10=7,30=1,62=2/3;
 99//99;
 Leave Link    1 at Mon May 14 03:33:23 2018, MaxMem= 14763950080 cpu:         8.5
 (Enter /cm/shared/gaussian/g09.e01/intel64-sandybridge/g09/l101.exe)
 ---------------------------------------
 forces on chloride comput - NWATER: 128
 ---------------------------------------
 Symbolic Z-matrix:
 Charge = -1 Multiplicity = 1 in supermolecule
 Charge = -1 Multiplicity = 1 in fragment      1.
 Charge =  0 Multiplicity = 1 in fragment      2.
 Br(Fragment=1)        20.       20.       20. 
 O(Fragment=2)         19.55     16.97     20.22 
 H(Fragment=2)         19.48     17.92     20.35 
 H(Fragment=2)         19.79     16.87     19.3 
 O(Fragment=2)         18.76     22.59     18.74 
 H(Fragment=2)         19.06     21.77     19.14 
 H(Fragment=2)         18.77     23.22     19.46 
 O(Fragment=2)         22.86     20.63     18.95 
 H(Fragment=2)         22.06     20.23     19.29 
 H(Fragment=2)         22.58     21.48     18.62 
 O(Fragment=2)         19.02     18.58     17.22 
 H(Fragment=2)         19.04     17.63     17.19 
 H(Fragment=2)         19.29     18.81     18.11 
 O(Fragment=2)         19.64     19.16     23.28 
 H(Fragment=2)         19.55     19.3      22.33 
 H(Fragment=2)         20.31     19.78     23.55 
 O(Fragment=2)         22.33     22.13     21.98 
 H(Fragment=2)         22.74     22.78     21.41 
 H(Fragment=2)         21.77     21.62     21.4 
 O(Fragment=2)         21.46     21.64     16.87 
 H(Fragment=2)         21.18     20.78     16.55 
 H(Fragment=2)         20.81     21.88     17.52 
 O(Fragment=2)         16.21     17.79     20.62 
 H(Fragment=2)         16.26     17.       21.16 
 H(Fragment=2)         17.08     17.86     20.22 
 O(Fragment=2)         23.37     18.11     20.74 
 H(Fragment=2)         23.5      19.01     20.45 
 H(Fragment=2)         23.75     17.58     20.04 
 O(Fragment=2)         16.11     22.17     17.98 
 H(Fragment=2)         17.04     22.25     18.21 
 H(Fragment=2)         15.98     21.23     17.84 
 O(Fragment=2)         19.24     20.24     15.14 
 H(Fragment=2)         19.45     19.59     15.81 
 H(Fragment=2)         18.71     19.77     14.5 
 O(Fragment=2)         21.01     16.32     17.9 
 H(Fragment=2)         20.97     16.8      17.07 
 H(Fragment=2)         21.43     15.49     17.67 
 O(Fragment=2)         15.89     22.69     20.82 
 H(Fragment=2)         16.18     22.23     20.03 
 H(Fragment=2)         15.62     23.55     20.51 
 O(Fragment=2)         17.47     19.45     24.62 
 H(Fragment=2)         18.01     19.03     23.95 
 H(Fragment=2)         17.74     19.03     25.44 
 O(Fragment=2)         20.77     14.84     21.18 
 H(Fragment=2)         20.23     15.49     20.73 
 H(Fragment=2)         21.27     15.34     21.82 
 O(Fragment=2)         19.       24.54     20.69 
 H(Fragment=2)         19.07     24.2      21.58 
 H(Fragment=2)         18.57     25.39     20.79 
 O(Fragment=2)         17.4      22.21     23.9 
 H(Fragment=2)         17.26     22.26     22.96 
 H(Fragment=2)         17.57     21.29     24.08 
 O(Fragment=2)         22.9      18.53     23.67 
 H(Fragment=2)         22.86     19.36     24.14 
 H(Fragment=2)         23.46     18.71     22.92 
 O(Fragment=2)         23.23     23.42     19.55 
 H(Fragment=2)         22.74     24.22     19.35 
 H(Fragment=2)         23.98     23.44     18.95 
 O(Fragment=2)         25.55     20.53     19.03 
 H(Fragment=2)         24.61     20.69     18.98 
 H(Fragment=2)         25.75     20.61     19.97 
 O(Fragment=2)         23.11     19.27     16.3 
 H(Fragment=2)         23.39     20.12     16.64 
 H(Fragment=2)         22.98     19.42     15.36 
 O(Fragment=2)         22.06     21.12     24.6 
 H(Fragment=2)         22.25     21.73     23.9 
 H(Fragment=2)         21.16     21.31     24.85 
 O(Fragment=2)         23.93     17.06     18.35 
 H(Fragment=2)         23.08     16.62     18.38 
 H(Fragment=2)         23.83     17.71     17.65 
 O(Fragment=2)         19.2      24.99     17.18 
 H(Fragment=2)         18.89     24.12     17.4 
 H(Fragment=2)         19.48     24.93     16.27 
 O(Fragment=2)         14.48     19.7      19.04 
 H(Fragment=2)         15.02     19.33     19.74 
 H(Fragment=2)         13.63     19.28     19.15 
 O(Fragment=2)         22.84     15.98     22.56 
 H(Fragment=2)         22.78     16.76     23.11 
 H(Fragment=2)         23.05     16.32     21.69 
 O(Fragment=2)         20.67     16.76     24.66 
 H(Fragment=2)         20.14     17.52     24.42 
 H(Fragment=2)         21.35     16.73     23.99 
 O(Fragment=2)         25.33     21.36     21.7 
 H(Fragment=2)         25.67     20.93     22.48 
 H(Fragment=2)         24.44     21.62     21.93 
 O(Fragment=2)         22.64     23.54     15.6 
 H(Fragment=2)         22.24     23.02     16.3 
 H(Fragment=2)         23.3      22.96     15.22 
 O(Fragment=2)         17.86     14.32     19.99 
 H(Fragment=2)         18.61     14.89     20.19 
 H(Fragment=2)         17.15     14.67     20.53 
 O(Fragment=2)         19.73     22.42     25.46 
 H(Fragment=2)         20.01     23.27     25.8 
 H(Fragment=2)         19.23     22.64     24.67 
 O(Fragment=2)         15.32     19.63     16.3 
 H(Fragment=2)         15.18     19.34     17.2 
 H(Fragment=2)         15.91     18.97     15.93 
 O(Fragment=2)         21.5      25.45     18.95 
 H(Fragment=2)         21.39     25.78     19.84 
 H(Fragment=2)         20.61     25.43     18.59 
 O(Fragment=2)         14.05     19.02     21.99 
 H(Fragment=2)         14.76     18.53     21.57 
 H(Fragment=2)         14.47     19.83     22.27 
 O(Fragment=2)         18.07     22.48     14.2 
 H(Fragment=2)         18.58     21.78     14.6 
 H(Fragment=2)         17.58     22.87     14.92 
 O(Fragment=2)         21.37     13.32     18.99 
 H(Fragment=2)         21.1      13.9      19.7 
 H(Fragment=2)         20.8      12.55     19.07 
 O(Fragment=2)         16.79     24.12     15.79 
 H(Fragment=2)         16.82     24.92     16.31 
 H(Fragment=2)         16.35     23.48     16.34 
 O(Fragment=2)         16.88     15.56     16.87 
 H(Fragment=2)         16.97     16.15     16.12 
 H(Fragment=2)         17.48     14.83     16.67 
 O(Fragment=2)         16.24     15.46     22.19 
 H(Fragment=2)         15.87     14.58     22.06 
 H(Fragment=2)         16.03     15.68     23.09 
 O(Fragment=2)         20.98     21.37     13.29 
 H(Fragment=2)         20.48     20.69     13.75 
 H(Fragment=2)         21.76     20.92     12.97 
 O(Fragment=2)         13.83     21.86     22.89 
 H(Fragment=2)         13.13     21.88     22.24 
 H(Fragment=2)         14.6      22.19     22.42 
 O(Fragment=2)         16.88     17.36     14.84 
 H(Fragment=2)         17.37     18.09     14.47 
 H(Fragment=2)         16.52     16.9      14.08 
 O(Fragment=2)         20.06     24.31     14.63 
 H(Fragment=2)         20.86     23.84     14.86 
 H(Fragment=2)         19.61     23.74     14. 
 O(Fragment=2)         26.34     18.34     17.15 
 H(Fragment=2)         27.25     18.39     17.45 
 H(Fragment=2)         25.93     19.14     17.49 
 O(Fragment=2)         13.53     23.25     18. 
 H(Fragment=2)         14.46     23.04     18.11 
 H(Fragment=2)         13.08     22.41     18.1 
 O(Fragment=2)         21.72     17.65     13.68 
 H(Fragment=2)         22.17     17.22     14.41 
 H(Fragment=2)         22.09     18.53     13.66 
 O(Fragment=2)         16.91     25.05     24.26 
 H(Fragment=2)         16.6      25.21     25.15 
 H(Fragment=2)         16.8      24.1      24.13 
 O(Fragment=2)         22.58     15.78     15.49 
 H(Fragment=2)         23.5      15.72     15.24 
 H(Fragment=2)         22.36     14.89     15.77 
 O(Fragment=2)         21.55     25.69     23.27 
 H(Fragment=2)         21.51     26.19     22.45 
 H(Fragment=2)         22.44     25.34     23.3 
 O(Fragment=2)         20.33     13.1      23.35 
 H(Fragment=2)         20.35     13.83     22.72 
 H(Fragment=2)         19.52     12.64     23.16 
 O(Fragment=2)         15.77     25.32     19.46 
 H(Fragment=2)         16.32     25.97     19.9 
 H(Fragment=2)         15.91     25.48     18.52 
 O(Fragment=2)         14.77     20.66     25.12 
 H(Fragment=2)         15.47     20.01     25.11 
 H(Fragment=2)         14.58     20.84     24.2 
 O(Fragment=2)         23.56     20.86     26.85 
 H(Fragment=2)         22.99     21.05     26.1 
 H(Fragment=2)         24.39     21.26     26.61 
 O(Fragment=2)         23.48     26.01     16.95 
 H(Fragment=2)         23.22     25.12     16.72 
 H(Fragment=2)         22.72     26.37     17.42 
 O(Fragment=2)         14.45     15.19     19.36 
 H(Fragment=2)         14.8      15.46     18.52 
 H(Fragment=2)         14.3      16.       19.84 
 O(Fragment=2)         18.76     18.54     13.28 
 H(Fragment=2)         19.37     17.8      13.2 
 H(Fragment=2)         18.41     18.65     12.39 
 O(Fragment=2)         18.35     12.63     18.01 
 H(Fragment=2)         18.03     13.44     18.41 
 H(Fragment=2)         18.86     12.91     17.25 
 O(Fragment=2)         14.15     21.78     14.99 
 H(Fragment=2)         14.61     21.24     15.63 
 H(Fragment=2)         14.25     21.31     14.17 
 O(Fragment=2)         26.04     15.59     17.44 
 H(Fragment=2)         25.13     15.72     17.69 
 H(Fragment=2)         26.38     16.47     17.3 
 O(Fragment=2)         19.41     14.64     25.84 
 H(Fragment=2)         19.65     15.48     25.43 
 H(Fragment=2)         19.71     13.98     25.21 
 O(Fragment=2)         26.36     24.11     21.18 
 H(Fragment=2)         26.17     23.19     21.34 
 H(Fragment=2)         25.95     24.3      20.34 
 O(Fragment=2)         24.16     25.38     22.81 
 H(Fragment=2)         24.66     24.88     22.17 
 H(Fragment=2)         24.19     26.28     22.5 
 O(Fragment=2)         25.55     24.13     18.45 
 H(Fragment=2)         25.39     24.86     17.86 
 H(Fragment=2)         26.06     23.5      17.93 
 O(Fragment=2)         19.02     27.53     17.58 
 H(Fragment=2)         19.09     26.58     17.46 
 H(Fragment=2)         18.35     27.79     16.94 
 O(Fragment=2)         26.27     15.78     20.12 
 H(Fragment=2)         26.99     15.21     19.87 
 H(Fragment=2)         25.9      16.09     19.29 
 O(Fragment=2)         25.74     20.82     24.16 
 H(Fragment=2)         26.24     20.21     24.7 
 H(Fragment=2)         25.71     21.63     24.67 
 O(Fragment=2)         23.3      19.92     13.65 
 H(Fragment=2)         23.83     19.32     13.12 
 H(Fragment=2)         23.81     20.72     13.69 
 O(Fragment=2)         22.48     16.15     26.62 
 H(Fragment=2)         21.77     16.63     26.2 
 H(Fragment=2)         22.97     16.83     27.1 
 O(Fragment=2)         16.27     15.44     24.85 
 H(Fragment=2)         16.89     15.97     25.35 
 H(Fragment=2)         16.59     14.55     24.94 
 O(Fragment=2)         17.46     26.88     20.96 
 H(Fragment=2)         17.66     27.67     20.46 
 H(Fragment=2)         17.55     27.13     21.87 
 O(Fragment=2)         22.47     13.27     16.56 
 H(Fragment=2)         22.76     12.36     16.56 
 H(Fragment=2)         21.88     13.33     17.31 
 O(Fragment=2)         18.84     18.41     27.19 
 H(Fragment=2)         18.85     17.75     27.88 
 H(Fragment=2)         18.68     19.24     27.64 
 O(Fragment=2)         19.31     13.91     15.49 
 H(Fragment=2)         20.21     14.19     15.33 
 H(Fragment=2)         19.07     13.4      14.72 
 O(Fragment=2)         20.55     25.23     26.06 
 H(Fragment=2)         20.67     25.41     25.13 
 H(Fragment=2)         21.44     25.17     26.41 
 O(Fragment=2)         25.95     15.13     23.26 
 H(Fragment=2)         25.02     15.34     23.16 
 H(Fragment=2)         26.34     15.36     22.41 
 O(Fragment=2)         28.17     21.85     18.73 
 H(Fragment=2)         27.35     21.4      18.92 
 H(Fragment=2)         28.78     21.54     19.4 
 O(Fragment=2)         21.58     27.44     20.88 
 H(Fragment=2)         20.8      27.98     20.96 
 H(Fragment=2)         22.29     28.06     20.73 
 O(Fragment=2)         25.68     17.17     14.59 
 H(Fragment=2)         25.68     17.62     15.44 
 H(Fragment=2)         26.12     16.33     14.76 
 O(Fragment=2)         12.16     17.29     21.53 
 H(Fragment=2)         11.92     17.3      20.6 
 H(Fragment=2)         12.71     18.07     21.64 
 O(Fragment=2)         18.83     21.65     28.43 
 H(Fragment=2)         18.93     21.62     27.47 
 H(Fragment=2)         18.71     22.57     28.63 
 O(Fragment=2)         18.5      27.35     23.43 
 H(Fragment=2)         19.04     27.65     24.16 
 H(Fragment=2)         18.12     26.52     23.74 
 O(Fragment=2)         27.98     17.85     21.76 
 H(Fragment=2)         28.31     16.99     22. 
 H(Fragment=2)         27.44     17.7      20.98 
 O(Fragment=2)         25.2      22.12     14.49 
 H(Fragment=2)         25.65     22.92     14.21 
 H(Fragment=2)         25.65     21.42     14.02 
 O(Fragment=2)         14.33     14.41     16.5 
 H(Fragment=2)         14.52     13.58     16.94 
 H(Fragment=2)         15.18     14.86     16.46 
 O(Fragment=2)         23.25     24.75     26.52 
 H(Fragment=2)         23.43     24.07     25.87 
 H(Fragment=2)         23.23     24.28     27.35 
 O(Fragment=2)         13.71     16.6      24.86 
 H(Fragment=2)         14.66     16.51     24.73 
 H(Fragment=2)         13.4      15.71     25.03 
 O(Fragment=2)         20.52     15.83     12.4 
 H(Fragment=2)         20.59     14.94     12.73 
 H(Fragment=2)         21.15     16.33     12.93 
 O(Fragment=2)         12.18     18.26     19. 
 H(Fragment=2)         12.06     17.82     18.16 
 H(Fragment=2)         11.51     18.94     19.02 
 O(Fragment=2)         14.03     23.4      25.39 
 H(Fragment=2)         13.17     23.32     25.82 
 H(Fragment=2)         14.28     22.5      25.18 
 O(Fragment=2)         21.77     26.18     13.65 
 H(Fragment=2)         21.8      26.83     14.35 
 H(Fragment=2)         21.31     25.44     14.03 
 O(Fragment=2)         22.94     13.63     25.24 
 H(Fragment=2)         22.76     14.49     25.62 
 H(Fragment=2)         22.36     13.57     24.48 
 O(Fragment=2)         23.91     18.3      27.5 
 H(Fragment=2)         23.86     19.22     27.24 
 H(Fragment=2)         24.84     18.11     27.5 
 O(Fragment=2)         16.18     17.44     26.86 
 H(Fragment=2)         15.27     17.7      26.77 
 H(Fragment=2)         16.59     18.16     27.35 
 O(Fragment=2)         17.29     24.74     12.93 
 H(Fragment=2)         17.66     23.87     12.76 
 H(Fragment=2)         17.11     24.75     13.87 
 O(Fragment=2)         15.24     27.1      23.59 
 H(Fragment=2)         15.71     27.85     23.21 
 H(Fragment=2)         15.84     26.37     23.48 
 O(Fragment=2)         16.01     26.64     16.69 
 H(Fragment=2)         15.54     26.67     15.86 
 H(Fragment=2)         16.02     27.55     17. 
 O(Fragment=2)         11.77     21.74     20.7 
 H(Fragment=2)         11.51     21.13     20. 
 H(Fragment=2)         11.43     22.59     20.42 
 O(Fragment=2)         13.12     26.07     18.28 
 H(Fragment=2)         13.86     25.84     18.85 
 H(Fragment=2)         12.87     25.24     17.88 
 O(Fragment=2)         19.87     22.82     10.9 
 H(Fragment=2)         20.03     22.11     10.29 
 H(Fragment=2)         20.       22.42     11.77 
 O(Fragment=2)         27.43     24.25     23.57 
 H(Fragment=2)         28.2      23.69     23.59 
 H(Fragment=2)         27.09     24.17     22.68 
 O(Fragment=2)         15.51     12.22     17.71 
 H(Fragment=2)         16.44     12.45     17.62 
 H(Fragment=2)         15.49     11.27     17.6 
 O(Fragment=2)         21.32     20.77     29.08 
 H(Fragment=2)         22.       20.67     28.42 
 H(Fragment=2)         20.68     21.36     28.67 
 O(Fragment=2)         19.07     24.28     28.22 
 H(Fragment=2)         19.63     24.78     28.81 
 H(Fragment=2)         19.29     24.59     27.34 
 O(Fragment=2)         14.19     19.46     27.33 
 H(Fragment=2)         14.2      20.12     28.03 
 H(Fragment=2)         14.13     19.96     26.52 
 O(Fragment=2)         19.17     10.72     19.87 
 H(Fragment=2)         18.95     11.32     19.15 
 H(Fragment=2)         18.84     9.87      19.59 
 O(Fragment=2)         28.33     21.78     15.3 
 H(Fragment=2)         28.35     22.73     15.42 
 H(Fragment=2)         27.43     21.53     15.51 
 O(Fragment=2)         11.38     21.32     15.91 
 H(Fragment=2)         12.28     21.05     15.75 
 H(Fragment=2)         11.02     21.5      15.04 
 O(Fragment=2)         21.52     18.9      10.92 
 H(Fragment=2)         22.37     19.33     10.82 
 H(Fragment=2)         21.69     18.14     11.47 
 O(Fragment=2)         17.99     29.07     19.71 
 H(Fragment=2)         18.22     28.65     18.89 
 H(Fragment=2)         18.67     29.74     19.83 
 O(Fragment=2)         28.86     19.62     23.58 
 H(Fragment=2)         28.44     19.22     24.34 
 H(Fragment=2)         28.41     19.24     22.83 
 O(Fragment=2)         13.71     24.42     14.11 
 H(Fragment=2)         14.02     23.58     14.45 
 H(Fragment=2)         13.76     24.34     13.16 
 O(Fragment=2)         25.98     23.2      25.81 
 H(Fragment=2)         26.42     23.71     25.13 
 H(Fragment=2)         26.43     23.45     26.62 
 O(Fragment=2)         24.76     18.23     12.19 
 H(Fragment=2)         24.84     17.49     11.59 
 H(Fragment=2)         25.22     17.97     12.98 
 O(Fragment=2)         22.22     11.02     22.74 
 H(Fragment=2)         22.39     11.3      21.84 
 H(Fragment=2)         21.72     11.74     23.13 
 O(Fragment=2)         15.51     18.13     12.04 
 H(Fragment=2)         15.26     18.33     11.14 
 H(Fragment=2)         15.08     18.8      12.56 
 O(Fragment=2)         13.42     12.76     19.2 
 H(Fragment=2)         13.6      13.65     19.51 
 H(Fragment=2)         14.21     12.5      18.73 
 O(Fragment=2)         19.88     29.44     22.11 
 H(Fragment=2)         19.59     28.67     22.61 
 H(Fragment=2)         19.26     30.13     22.36 
 O(Fragment=2)         12.21     15.99     16.77 
 H(Fragment=2)         11.96     16.12     15.85 
 H(Fragment=2)         12.9      15.32     16.73 
 O(Fragment=2)         21.1      29.4      17.42 
 H(Fragment=2)         20.55     28.9      18.01 
 H(Fragment=2)         20.62     30.21     17.26 
 O(Fragment=2)         28.85     18.15     18.41 
 H(Fragment=2)         29.47     17.45     18.22 
 H(Fragment=2)         29.18     18.56     19.21 
 O(Fragment=2)         10.96     20.67     18.47 
 H(Fragment=2)         10.99     20.59     17.52 
 H(Fragment=2)         10.15     21.14     18.65 
 O(Fragment=2)         26.69     12.92     17.42 
 H(Fragment=2)         26.37     13.82     17.39 
 H(Fragment=2)         26.94     12.78     18.34 
 O(Fragment=2)         17.78     11.69     23.42 
 H(Fragment=2)         17.95     10.74     23.42 
 H(Fragment=2)         16.99     11.78     23.95 
 O(Fragment=2)         10.14     19.98     22.73 
 H(Fragment=2)         11.02     20.11     22.38 
 H(Fragment=2)         9.6       20.63     22.28 
 O(Fragment=2)         16.96     19.84     29.13 
 H(Fragment=2)         17.5      20.61     28.93 
 H(Fragment=2)         16.06     20.13     28.99 
 O(Fragment=2)         11.27     18.39     24.73 
 H(Fragment=2)         11.05     19.08     24.11 
 H(Fragment=2)         12.02     17.94     24.33 
 O(Fragment=2)         17.08     14.       27.51 
 H(Fragment=2)         17.44     13.18     27.87 
 H(Fragment=2)         17.85     14.46     27.17 
 O(Fragment=2)         28.28     24.21     17.26 
 H(Fragment=2)         28.4      23.51     17.9 
 H(Fragment=2)         29.16     24.49     17.04 
 
 NAtoms=    385 NQM=      385 NQMF=       0 NMMI=      0 NMMIF=      0
                NMic=       0 NMicF=      0.
                    Isotopes and Nuclear Properties:
 (Nuclear quadrupole moments (NQMom) in fm**2, nuclear magnetic moments (NMagM)
  in nuclear magnetons)

  Atom         1           2           3           4           5           6           7           8           9          10
 IAtWgt=          79          16           1           1          16           1           1          16           1           1
 AtmWgt=  78.9183361  15.9949146   1.0078250   1.0078250  15.9949146   1.0078250   1.0078250  15.9949146   1.0078250   1.0078250
 NucSpn=           3           0           1           1           0           1           1           0           1           1
 AtZEff=   0.0000000   0.0000000   0.0000000   0.0000000   0.0000000   0.0000000   0.0000000   0.0000000   0.0000000   0.0000000
 NQMom=   31.3000000   0.0000000   0.0000000   0.0000000   0.0000000   0.0000000   0.0000000   0.0000000   0.0000000   0.0000000
 NMagM=    2.1063990   0.0000000   2.7928460   2.7928460   0.0000000   2.7928460   2.7928460   0.0000000   2.7928460   2.7928460
 AtZNuc=  35.0000000   8.0000000   1.0000000   1.0000000   8.0000000   1.0000000   1.0000000   8.0000000   1.0000000   1.0000000

  Atom        11          12          13          14          15          16          17          18          19          20
 IAtWgt=          16           1           1          16           1           1          16           1           1          16
 AtmWgt=  15.9949146   1.0078250   1.0078250  15.9949146   1.0078250   1.0078250  15.9949146   1.0078250   1.0078250  15.9949146
 NucSpn=           0           1           1           0           1           1           0           1           1           0
 AtZEff=   0.0000000   0.0000000   0.0000000   0.0000000   0.0000000   0.0000000   0.0000000   0.0000000   0.0000000   0.0000000
 NQMom=    0.0000000   0.0000000   0.0000000   0.0000000   0.0000000   0.0000000   0.0000000   0.0000000   0.0000000   0.0000000
 NMagM=    0.0000000   2.7928460   2.7928460   0.0000000   2.7928460   2.7928460   0.0000000   2.7928460   2.7928460   0.0000000
 AtZNuc=   8.0000000   1.0000000   1.0000000   8.0000000   1.0000000   1.0000000   8.0000000   1.0000000   1.0000000   8.0000000

  Atom        21          22          23          24          25          26          27          28          29          30
 IAtWgt=           1           1          16           1           1          16           1           1          16           1
 AtmWgt=   1.0078250   1.0078250  15.9949146   1.0078250   1.0078250  15.9949146   1.0078250   1.0078250  15.9949146   1.0078250
 NucSpn=           1           1           0           1           1           0           1           1           0           1
 AtZEff=   0.0000000   0.0000000   0.0000000   0.0000000   0.0000000   0.0000000   0.0000000   0.0000000   0.0000000   0.0000000
 NQMom=    0.0000000   0.0000000   0.0000000   0.0000000   0.0000000   0.0000000   0.0000000   0.0000000   0.0000000   0.0000000
 NMagM=    2.7928460   2.7928460   0.0000000   2.7928460   2.7928460   0.0000000   2.7928460   2.7928460   0.0000000   2.7928460
 AtZNuc=   1.0000000   1.0000000   8.0000000   1.0000000   1.0000000   8.0000000   1.0000000   1.0000000   8.0000000   1.0000000

  Atom        31          32          33          34          35          36          37          38          39          40
 IAtWgt=           1          16           1           1          16           1           1          16           1           1
 AtmWgt=   1.0078250  15.9949146   1.0078250   1.0078250  15.9949146   1.0078250   1.0078250  15.9949146   1.0078250   1.0078250
 NucSpn=           1           0           1           1           0           1           1           0           1           1
 AtZEff=   0.0000000   0.0000000   0.0000000   0.0000000   0.0000000   0.0000000   0.0000000   0.0000000   0.0000000   0.0000000
 NQMom=    0.0000000   0.0000000   0.0000000   0.0000000   0.0000000   0.0000000   0.0000000   0.0000000   0.0000000   0.0000000
 NMagM=    2.7928460   0.0000000   2.7928460   2.7928460   0.0000000   2.7928460   2.7928460   0.0000000   2.7928460   2.7928460
 AtZNuc=   1.0000000   8.0000000   1.0000000   1.0000000   8.0000000   1.0000000   1.0000000   8.0000000   1.0000000   1.0000000

  Atom        41          42          43          44          45          46          47          48          49          50
 IAtWgt=          16           1           1          16           1           1          16           1           1          16
 AtmWgt=  15.9949146   1.0078250   1.0078250  15.9949146   1.0078250   1.0078250  15.9949146   1.0078250   1.0078250  15.9949146
 NucSpn=           0           1           1           0           1           1           0           1           1           0
 AtZEff=   0.0000000   0.0000000   0.0000000   0.0000000   0.0000000   0.0000000   0.0000000   0.0000000   0.0000000   0.0000000
 NQMom=    0.0000000   0.0000000   0.0000000   0.0000000   0.0000000   0.0000000   0.0000000   0.0000000   0.0000000   0.0000000
 NMagM=    0.0000000   2.7928460   2.7928460   0.0000000   2.7928460   2.7928460   0.0000000   2.7928460   2.7928460   0.0000000
 AtZNuc=   8.0000000   1.0000000   1.0000000   8.0000000   1.0000000   1.0000000   8.0000000   1.0000000   1.0000000   8.0000000

  Atom        51          52          53          54          55          56          57          58          59          60
 IAtWgt=           1           1          16           1           1          16           1           1          16           1
 AtmWgt=   1.0078250   1.0078250  15.9949146   1.0078250   1.0078250  15.9949146   1.0078250   1.0078250  15.9949146   1.0078250
 NucSpn=           1           1           0           1           1           0           1           1           0           1
 AtZEff=   0.0000000   0.0000000   0.0000000   0.0000000   0.0000000   0.0000000   0.0000000   0.0000000   0.0000000   0.0000000
 NQMom=    0.0000000   0.0000000   0.0000000   0.0000000   0.0000000   0.0000000   0.0000000   0.0000000   0.0000000   0.0000000
 NMagM=    2.7928460   2.7928460   0.0000000   2.7928460   2.7928460   0.0000000   2.7928460   2.7928460   0.0000000   2.7928460
 AtZNuc=   1.0000000   1.0000000   8.0000000   1.0000000   1.0000000   8.0000000   1.0000000   1.0000000   8.0000000   1.0000000

  Atom        61          62          63          64          65          66          67          68          69          70
 IAtWgt=           1          16           1           1          16           1           1          16           1           1
 AtmWgt=   1.0078250  15.9949146   1.0078250   1.0078250  15.9949146   1.0078250   1.0078250  15.9949146   1.0078250   1.0078250
 NucSpn=           1           0           1           1           0           1           1           0           1           1
 AtZEff=   0.0000000   0.0000000   0.0000000   0.0000000   0.0000000   0.0000000   0.0000000   0.0000000   0.0000000   0.0000000
 NQMom=    0.0000000   0.0000000   0.0000000   0.0000000   0.0000000   0.0000000   0.0000000   0.0000000   0.0000000   0.0000000
 NMagM=    2.7928460   0.0000000   2.7928460   2.7928460   0.0000000   2.7928460   2.7928460   0.0000000   2.7928460   2.7928460
 AtZNuc=   1.0000000   8.0000000   1.0000000   1.0000000   8.0000000   1.0000000   1.0000000   8.0000000   1.0000000   1.0000000

  Atom        71          72          73          74          75          76          77          78          79          80
 IAtWgt=          16           1           1          16           1           1          16           1           1          16
 AtmWgt=  15.9949146   1.0078250   1.0078250  15.9949146   1.0078250   1.0078250  15.9949146   1.0078250   1.0078250  15.9949146
 NucSpn=           0           1           1           0           1           1           0           1           1           0
 AtZEff=   0.0000000   0.0000000   0.0000000   0.0000000   0.0000000   0.0000000   0.0000000   0.0000000   0.0000000   0.0000000
 NQMom=    0.0000000   0.0000000   0.0000000   0.0000000   0.0000000   0.0000000   0.0000000   0.0000000   0.0000000   0.0000000
 NMagM=    0.0000000   2.7928460   2.7928460   0.0000000   2.7928460   2.7928460   0.0000000   2.7928460   2.7928460   0.0000000
 AtZNuc=   8.0000000   1.0000000   1.0000000   8.0000000   1.0000000   1.0000000   8.0000000   1.0000000   1.0000000   8.0000000

  Atom        81          82          83          84          85          86          87          88          89          90
 IAtWgt=           1           1          16           1           1          16           1           1          16           1
 AtmWgt=   1.0078250   1.0078250  15.9949146   1.0078250   1.0078250  15.9949146   1.0078250   1.0078250  15.9949146   1.0078250
 NucSpn=           1           1           0           1           1           0           1           1           0           1
 AtZEff=   0.0000000   0.0000000   0.0000000   0.0000000   0.0000000   0.0000000   0.0000000   0.0000000   0.0000000   0.0000000
 NQMom=    0.0000000   0.0000000   0.0000000   0.0000000   0.0000000   0.0000000   0.0000000   0.0000000   0.0000000   0.0000000
 NMagM=    2.7928460   2.7928460   0.0000000   2.7928460   2.7928460   0.0000000   2.7928460   2.7928460   0.0000000   2.7928460
 AtZNuc=   1.0000000   1.0000000   8.0000000   1.0000000   1.0000000   8.0000000   1.0000000   1.0000000   8.0000000   1.0000000

  Atom        91          92          93          94          95          96          97          98          99         100
 IAtWgt=           1          16           1           1          16           1           1          16           1           1
 AtmWgt=   1.0078250  15.9949146   1.0078250   1.0078250  15.9949146   1.0078250   1.0078250  15.9949146   1.0078250   1.0078250
 NucSpn=           1           0           1           1           0           1           1           0           1           1
 AtZEff=   0.0000000   0.0000000   0.0000000   0.0000000   0.0000000   0.0000000   0.0000000   0.0000000   0.0000000   0.0000000
 NQMom=    0.0000000   0.0000000   0.0000000   0.0000000   0.0000000   0.0000000   0.0000000   0.0000000   0.0000000   0.0000000
 NMagM=    2.7928460   0.0000000   2.7928460   2.7928460   0.0000000   2.7928460   2.7928460   0.0000000   2.7928460   2.7928460
 AtZNuc=   1.0000000   8.0000000   1.0000000   1.0000000   8.0000000   1.0000000   1.0000000   8.0000000   1.0000000   1.0000000

  Atom       101         102         103         104         105         106         107         108         109         110
 IAtWgt=          16           1           1          16           1           1          16           1           1          16
 AtmWgt=  15.9949146   1.0078250   1.0078250  15.9949146   1.0078250   1.0078250  15.9949146   1.0078250   1.0078250  15.9949146
 NucSpn=           0           1           1           0           1           1           0           1           1           0
 AtZEff=   0.0000000   0.0000000   0.0000000   0.0000000   0.0000000   0.0000000   0.0000000   0.0000000   0.0000000   0.0000000
 NQMom=    0.0000000   0.0000000   0.0000000   0.0000000   0.0000000   0.0000000   0.0000000   0.0000000   0.0000000   0.0000000
 NMagM=    0.0000000   2.7928460   2.7928460   0.0000000   2.7928460   2.7928460   0.0000000   2.7928460   2.7928460   0.0000000
 AtZNuc=   8.0000000   1.0000000   1.0000000   8.0000000   1.0000000   1.0000000   8.0000000   1.0000000   1.0000000   8.0000000

  Atom       111         112         113         114         115         116         117         118         119         120
 IAtWgt=           1           1          16           1           1          16           1           1          16           1
 AtmWgt=   1.0078250   1.0078250  15.9949146   1.0078250   1.0078250  15.9949146   1.0078250   1.0078250  15.9949146   1.0078250
 NucSpn=           1           1           0           1           1           0           1           1           0           1
 AtZEff=   0.0000000   0.0000000   0.0000000   0.0000000   0.0000000   0.0000000   0.0000000   0.0000000   0.0000000   0.0000000
 NQMom=    0.0000000   0.0000000   0.0000000   0.0000000   0.0000000   0.0000000   0.0000000   0.0000000   0.0000000   0.0000000
 NMagM=    2.7928460   2.7928460   0.0000000   2.7928460   2.7928460   0.0000000   2.7928460   2.7928460   0.0000000   2.7928460
 AtZNuc=   1.0000000   1.0000000   8.0000000   1.0000000   1.0000000   8.0000000   1.0000000   1.0000000   8.0000000   1.0000000

  Atom       121         122         123         124         125         126         127         128         129         130
 IAtWgt=           1          16           1           1          16           1           1          16           1           1
 AtmWgt=   1.0078250  15.9949146   1.0078250   1.0078250  15.9949146   1.0078250   1.0078250  15.9949146   1.0078250   1.0078250
 NucSpn=           1           0           1           1           0           1           1           0           1           1
 AtZEff=   0.0000000   0.0000000   0.0000000   0.0000000   0.0000000   0.0000000   0.0000000   0.0000000   0.0000000   0.0000000
 NQMom=    0.0000000   0.0000000   0.0000000   0.0000000   0.0000000   0.0000000   0.0000000   0.0000000   0.0000000   0.0000000
 NMagM=    2.7928460   0.0000000   2.7928460   2.7928460   0.0000000   2.7928460   2.7928460   0.0000000   2.7928460   2.7928460
 AtZNuc=   1.0000000   8.0000000   1.0000000   1.0000000   8.0000000   1.0000000   1.0000000   8.0000000   1.0000000   1.0000000

  Atom       131         132         133         134         135         136         137         138         139         140
 IAtWgt=          16           1           1          16           1           1          16           1           1          16
 AtmWgt=  15.9949146   1.0078250   1.0078250  15.9949146   1.0078250   1.0078250  15.9949146   1.0078250   1.0078250  15.9949146
 NucSpn=           0           1           1           0           1           1           0           1           1           0
 AtZEff=   0.0000000   0.0000000   0.0000000   0.0000000   0.0000000   0.0000000   0.0000000   0.0000000   0.0000000   0.0000000
 NQMom=    0.0000000   0.0000000   0.0000000   0.0000000   0.0000000   0.0000000   0.0000000   0.0000000   0.0000000   0.0000000
 NMagM=    0.0000000   2.7928460   2.7928460   0.0000000   2.7928460   2.7928460   0.0000000   2.7928460   2.7928460   0.0000000
 AtZNuc=   8.0000000   1.0000000   1.0000000   8.0000000   1.0000000   1.0000000   8.0000000   1.0000000   1.0000000   8.0000000

  Atom       141         142         143         144         145         146         147         148         149         150
 IAtWgt=           1           1          16           1           1          16           1           1          16           1
 AtmWgt=   1.0078250   1.0078250  15.9949146   1.0078250   1.0078250  15.9949146   1.0078250   1.0078250  15.9949146   1.0078250
 NucSpn=           1           1           0           1           1           0           1           1           0           1
 AtZEff=   0.0000000   0.0000000   0.0000000   0.0000000   0.0000000   0.0000000   0.0000000   0.0000000   0.0000000   0.0000000
 NQMom=    0.0000000   0.0000000   0.0000000   0.0000000   0.0000000   0.0000000   0.0000000   0.0000000   0.0000000   0.0000000
 NMagM=    2.7928460   2.7928460   0.0000000   2.7928460   2.7928460   0.0000000   2.7928460   2.7928460   0.0000000   2.7928460
 AtZNuc=   1.0000000   1.0000000   8.0000000   1.0000000   1.0000000   8.0000000   1.0000000   1.0000000   8.0000000   1.0000000

  Atom       151         152         153         154         155         156         157         158         159         160
 IAtWgt=           1          16           1           1          16           1           1          16           1           1
 AtmWgt=   1.0078250  15.9949146   1.0078250   1.0078250  15.9949146   1.0078250   1.0078250  15.9949146   1.0078250   1.0078250
 NucSpn=           1           0           1           1           0           1           1           0           1           1
 AtZEff=   0.0000000   0.0000000   0.0000000   0.0000000   0.0000000   0.0000000   0.0000000   0.0000000   0.0000000   0.0000000
 NQMom=    0.0000000   0.0000000   0.0000000   0.0000000   0.0000000   0.0000000   0.0000000   0.0000000   0.0000000   0.0000000
 NMagM=    2.7928460   0.0000000   2.7928460   2.7928460   0.0000000   2.7928460   2.7928460   0.0000000   2.7928460   2.7928460
 AtZNuc=   1.0000000   8.0000000   1.0000000   1.0000000   8.0000000   1.0000000   1.0000000   8.0000000   1.0000000   1.0000000

  Atom       161         162         163         164         165         166         167         168         169         170
 IAtWgt=          16           1           1          16           1           1          16           1           1          16
 AtmWgt=  15.9949146   1.0078250   1.0078250  15.9949146   1.0078250   1.0078250  15.9949146   1.0078250   1.0078250  15.9949146
 NucSpn=           0           1           1           0           1           1           0           1           1           0
 AtZEff=   0.0000000   0.0000000   0.0000000   0.0000000   0.0000000   0.0000000   0.0000000   0.0000000   0.0000000   0.0000000
 NQMom=    0.0000000   0.0000000   0.0000000   0.0000000   0.0000000   0.0000000   0.0000000   0.0000000   0.0000000   0.0000000
 NMagM=    0.0000000   2.7928460   2.7928460   0.0000000   2.7928460   2.7928460   0.0000000   2.7928460   2.7928460   0.0000000
 AtZNuc=   8.0000000   1.0000000   1.0000000   8.0000000   1.0000000   1.0000000   8.0000000   1.0000000   1.0000000   8.0000000

  Atom       171         172         173         174         175         176         177         178         179         180
 IAtWgt=           1           1          16           1           1          16           1           1          16           1
 AtmWgt=   1.0078250   1.0078250  15.9949146   1.0078250   1.0078250  15.9949146   1.0078250   1.0078250  15.9949146   1.0078250
 NucSpn=           1           1           0           1           1           0           1           1           0           1
 AtZEff=   0.0000000   0.0000000   0.0000000   0.0000000   0.0000000   0.0000000   0.0000000   0.0000000   0.0000000   0.0000000
 NQMom=    0.0000000   0.0000000   0.0000000   0.0000000   0.0000000   0.0000000   0.0000000   0.0000000   0.0000000   0.0000000
 NMagM=    2.7928460   2.7928460   0.0000000   2.7928460   2.7928460   0.0000000   2.7928460   2.7928460   0.0000000   2.7928460
 AtZNuc=   1.0000000   1.0000000   8.0000000   1.0000000   1.0000000   8.0000000   1.0000000   1.0000000   8.0000000   1.0000000

  Atom       181         182         183         184         185         186         187         188         189         190
 IAtWgt=           1          16           1           1          16           1           1          16           1           1
 AtmWgt=   1.0078250  15.9949146   1.0078250   1.0078250  15.9949146   1.0078250   1.0078250  15.9949146   1.0078250   1.0078250
 NucSpn=           1           0           1           1           0           1           1           0           1           1
 AtZEff=   0.0000000   0.0000000   0.0000000   0.0000000   0.0000000   0.0000000   0.0000000   0.0000000   0.0000000   0.0000000
 NQMom=    0.0000000   0.0000000   0.0000000   0.0000000   0.0000000   0.0000000   0.0000000   0.0000000   0.0000000   0.0000000
 NMagM=    2.7928460   0.0000000   2.7928460   2.7928460   0.0000000   2.7928460   2.7928460   0.0000000   2.7928460   2.7928460
 AtZNuc=   1.0000000   8.0000000   1.0000000   1.0000000   8.0000000   1.0000000   1.0000000   8.0000000   1.0000000   1.0000000

  Atom       191         192         193         194         195         196         197         198         199         200
 IAtWgt=          16           1           1          16           1           1          16           1           1          16
 AtmWgt=  15.9949146   1.0078250   1.0078250  15.9949146   1.0078250   1.0078250  15.9949146   1.0078250   1.0078250  15.9949146
 NucSpn=           0           1           1           0           1           1           0           1           1           0
 AtZEff=   0.0000000   0.0000000   0.0000000   0.0000000   0.0000000   0.0000000   0.0000000   0.0000000   0.0000000   0.0000000
 NQMom=    0.0000000   0.0000000   0.0000000   0.0000000   0.0000000   0.0000000   0.0000000   0.0000000   0.0000000   0.0000000
 NMagM=    0.0000000   2.7928460   2.7928460   0.0000000   2.7928460   2.7928460   0.0000000   2.7928460   2.7928460   0.0000000
 AtZNuc=   8.0000000   1.0000000   1.0000000   8.0000000   1.0000000   1.0000000   8.0000000   1.0000000   1.0000000   8.0000000

  Atom       201         202         203         204         205         206         207         208         209         210
 IAtWgt=           1           1          16           1           1          16           1           1          16           1
 AtmWgt=   1.0078250   1.0078250  15.9949146   1.0078250   1.0078250  15.9949146   1.0078250   1.0078250  15.9949146   1.0078250
 NucSpn=           1           1           0           1           1           0           1           1           0           1
 AtZEff=   0.0000000   0.0000000   0.0000000   0.0000000   0.0000000   0.0000000   0.0000000   0.0000000   0.0000000   0.0000000
 NQMom=    0.0000000   0.0000000   0.0000000   0.0000000   0.0000000   0.0000000   0.0000000   0.0000000   0.0000000   0.0000000
 NMagM=    2.7928460   2.7928460   0.0000000   2.7928460   2.7928460   0.0000000   2.7928460   2.7928460   0.0000000   2.7928460
 AtZNuc=   1.0000000   1.0000000   8.0000000   1.0000000   1.0000000   8.0000000   1.0000000   1.0000000   8.0000000   1.0000000

  Atom       211         212         213         214         215         216         217         218         219         220
 IAtWgt=           1          16           1           1          16           1           1          16           1           1
 AtmWgt=   1.0078250  15.9949146   1.0078250   1.0078250  15.9949146   1.0078250   1.0078250  15.9949146   1.0078250   1.0078250
 NucSpn=           1           0           1           1           0           1           1           0           1           1
 AtZEff=   0.0000000   0.0000000   0.0000000   0.0000000   0.0000000   0.0000000   0.0000000   0.0000000   0.0000000   0.0000000
 NQMom=    0.0000000   0.0000000   0.0000000   0.0000000   0.0000000   0.0000000   0.0000000   0.0000000   0.0000000   0.0000000
 NMagM=    2.7928460   0.0000000   2.7928460   2.7928460   0.0000000   2.7928460   2.7928460   0.0000000   2.7928460   2.7928460
 AtZNuc=   1.0000000   8.0000000   1.0000000   1.0000000   8.0000000   1.0000000   1.0000000   8.0000000   1.0000000   1.0000000

  Atom       221         222         223         224         225         226         227         228         229         230
 IAtWgt=          16           1           1          16           1           1          16           1           1          16
 AtmWgt=  15.9949146   1.0078250   1.0078250  15.9949146   1.0078250   1.0078250  15.9949146   1.0078250   1.0078250  15.9949146
 NucSpn=           0           1           1           0           1           1           0           1           1           0
 AtZEff=   0.0000000   0.0000000   0.0000000   0.0000000   0.0000000   0.0000000   0.0000000   0.0000000   0.0000000   0.0000000
 NQMom=    0.0000000   0.0000000   0.0000000   0.0000000   0.0000000   0.0000000   0.0000000   0.0000000   0.0000000   0.0000000
 NMagM=    0.0000000   2.7928460   2.7928460   0.0000000   2.7928460   2.7928460   0.0000000   2.7928460   2.7928460   0.0000000
 AtZNuc=   8.0000000   1.0000000   1.0000000   8.0000000   1.0000000   1.0000000   8.0000000   1.0000000   1.0000000   8.0000000

  Atom       231         232         233         234         235         236         237         238         239         240
 IAtWgt=           1           1          16           1           1          16           1           1          16           1
 AtmWgt=   1.0078250   1.0078250  15.9949146   1.0078250   1.0078250  15.9949146   1.0078250   1.0078250  15.9949146   1.0078250
 NucSpn=           1           1           0           1           1           0           1           1           0           1
 AtZEff=   0.0000000   0.0000000   0.0000000   0.0000000   0.0000000   0.0000000   0.0000000   0.0000000   0.0000000   0.0000000
 NQMom=    0.0000000   0.0000000   0.0000000   0.0000000   0.0000000   0.0000000   0.0000000   0.0000000   0.0000000   0.0000000
 NMagM=    2.7928460   2.7928460   0.0000000   2.7928460   2.7928460   0.0000000   2.7928460   2.7928460   0.0000000   2.7928460
 AtZNuc=   1.0000000   1.0000000   8.0000000   1.0000000   1.0000000   8.0000000   1.0000000   1.0000000   8.0000000   1.0000000

  Atom       241         242         243         244         245         246         247         248         249         250
 IAtWgt=           1          16           1           1          16           1           1          16           1           1
 AtmWgt=   1.0078250  15.9949146   1.0078250   1.0078250  15.9949146   1.0078250   1.0078250  15.9949146   1.0078250   1.0078250
 NucSpn=           1           0           1           1           0           1           1           0           1           1
 AtZEff=   0.0000000   0.0000000   0.0000000   0.0000000   0.0000000   0.0000000   0.0000000   0.0000000   0.0000000   0.0000000
 NQMom=    0.0000000   0.0000000   0.0000000   0.0000000   0.0000000   0.0000000   0.0000000   0.0000000   0.0000000   0.0000000
 NMagM=    2.7928460   0.0000000   2.7928460   2.7928460   0.0000000   2.7928460   2.7928460   0.0000000   2.7928460   2.7928460
 AtZNuc=   1.0000000   8.0000000   1.0000000   1.0000000   8.0000000   1.0000000   1.0000000   8.0000000   1.0000000   1.0000000

  Atom       251         252         253         254         255         256         257         258         259         260
 IAtWgt=          16           1           1          16           1           1          16           1           1          16
 AtmWgt=  15.9949146   1.0078250   1.0078250  15.9949146   1.0078250   1.0078250  15.9949146   1.0078250   1.0078250  15.9949146
 NucSpn=           0           1           1           0           1           1           0           1           1           0
 AtZEff=   0.0000000   0.0000000   0.0000000   0.0000000   0.0000000   0.0000000   0.0000000   0.0000000   0.0000000   0.0000000
 NQMom=    0.0000000   0.0000000   0.0000000   0.0000000   0.0000000   0.0000000   0.0000000   0.0000000   0.0000000   0.0000000
 NMagM=    0.0000000   2.7928460   2.7928460   0.0000000   2.7928460   2.7928460   0.0000000   2.7928460   2.7928460   0.0000000
 AtZNuc=   8.0000000   1.0000000   1.0000000   8.0000000   1.0000000   1.0000000   8.0000000   1.0000000   1.0000000   8.0000000

  Atom       261         262         263         264         265         266         267         268         269         270
 IAtWgt=           1           1          16           1           1          16           1           1          16           1
 AtmWgt=   1.0078250   1.0078250  15.9949146   1.0078250   1.0078250  15.9949146   1.0078250   1.0078250  15.9949146   1.0078250
 NucSpn=           1           1           0           1           1           0           1           1           0           1
 AtZEff=   0.0000000   0.0000000   0.0000000   0.0000000   0.0000000   0.0000000   0.0000000   0.0000000   0.0000000   0.0000000
 NQMom=    0.0000000   0.0000000   0.0000000   0.0000000   0.0000000   0.0000000   0.0000000   0.0000000   0.0000000   0.0000000
 NMagM=    2.7928460   2.7928460   0.0000000   2.7928460   2.7928460   0.0000000   2.7928460   2.7928460   0.0000000   2.7928460
 AtZNuc=   1.0000000   1.0000000   8.0000000   1.0000000   1.0000000   8.0000000   1.0000000   1.0000000   8.0000000   1.0000000

  Atom       271         272         273         274         275         276         277         278         279         280
 IAtWgt=           1          16           1           1          16           1           1          16           1           1
 AtmWgt=   1.0078250  15.9949146   1.0078250   1.0078250  15.9949146   1.0078250   1.0078250  15.9949146   1.0078250   1.0078250
 NucSpn=           1           0           1           1           0           1           1           0           1           1
 AtZEff=   0.0000000   0.0000000   0.0000000   0.0000000   0.0000000   0.0000000   0.0000000   0.0000000   0.0000000   0.0000000
 NQMom=    0.0000000   0.0000000   0.0000000   0.0000000   0.0000000   0.0000000   0.0000000   0.0000000   0.0000000   0.0000000
 NMagM=    2.7928460   0.0000000   2.7928460   2.7928460   0.0000000   2.7928460   2.7928460   0.0000000   2.7928460   2.7928460
 AtZNuc=   1.0000000   8.0000000   1.0000000   1.0000000   8.0000000   1.0000000   1.0000000   8.0000000   1.0000000   1.0000000

  Atom       281         282         283         284         285         286         287         288         289         290
 IAtWgt=          16           1           1          16           1           1          16           1           1          16
 AtmWgt=  15.9949146   1.0078250   1.0078250  15.9949146   1.0078250   1.0078250  15.9949146   1.0078250   1.0078250  15.9949146
 NucSpn=           0           1           1           0           1           1           0           1           1           0
 AtZEff=   0.0000000   0.0000000   0.0000000   0.0000000   0.0000000   0.0000000   0.0000000   0.0000000   0.0000000   0.0000000
 NQMom=    0.0000000   0.0000000   0.0000000   0.0000000   0.0000000   0.0000000   0.0000000   0.0000000   0.0000000   0.0000000
 NMagM=    0.0000000   2.7928460   2.7928460   0.0000000   2.7928460   2.7928460   0.0000000   2.7928460   2.7928460   0.0000000
 AtZNuc=   8.0000000   1.0000000   1.0000000   8.0000000   1.0000000   1.0000000   8.0000000   1.0000000   1.0000000   8.0000000

  Atom       291         292         293         294         295         296         297         298         299         300
 IAtWgt=           1           1          16           1           1          16           1           1          16           1
 AtmWgt=   1.0078250   1.0078250  15.9949146   1.0078250   1.0078250  15.9949146   1.0078250   1.0078250  15.9949146   1.0078250
 NucSpn=           1           1           0           1           1           0           1           1           0           1
 AtZEff=   0.0000000   0.0000000   0.0000000   0.0000000   0.0000000   0.0000000   0.0000000   0.0000000   0.0000000   0.0000000
 NQMom=    0.0000000   0.0000000   0.0000000   0.0000000   0.0000000   0.0000000   0.0000000   0.0000000   0.0000000   0.0000000
 NMagM=    2.7928460   2.7928460   0.0000000   2.7928460   2.7928460   0.0000000   2.7928460   2.7928460   0.0000000   2.7928460
 AtZNuc=   1.0000000   1.0000000   8.0000000   1.0000000   1.0000000   8.0000000   1.0000000   1.0000000   8.0000000   1.0000000

  Atom       301         302         303         304         305         306         307         308         309         310
 IAtWgt=           1          16           1           1          16           1           1          16           1           1
 AtmWgt=   1.0078250  15.9949146   1.0078250   1.0078250  15.9949146   1.0078250   1.0078250  15.9949146   1.0078250   1.0078250
 NucSpn=           1           0           1           1           0           1           1           0           1           1
 AtZEff=   0.0000000   0.0000000   0.0000000   0.0000000   0.0000000   0.0000000   0.0000000   0.0000000   0.0000000   0.0000000
 NQMom=    0.0000000   0.0000000   0.0000000   0.0000000   0.0000000   0.0000000   0.0000000   0.0000000   0.0000000   0.0000000
 NMagM=    2.7928460   0.0000000   2.7928460   2.7928460   0.0000000   2.7928460   2.7928460   0.0000000   2.7928460   2.7928460
 AtZNuc=   1.0000000   8.0000000   1.0000000   1.0000000   8.0000000   1.0000000   1.0000000   8.0000000   1.0000000   1.0000000

  Atom       311         312         313         314         315         316         317         318         319         320
 IAtWgt=          16           1           1          16           1           1          16           1           1          16
 AtmWgt=  15.9949146   1.0078250   1.0078250  15.9949146   1.0078250   1.0078250  15.9949146   1.0078250   1.0078250  15.9949146
 NucSpn=           0           1           1           0           1           1           0           1           1           0
 AtZEff=   0.0000000   0.0000000   0.0000000   0.0000000   0.0000000   0.0000000   0.0000000   0.0000000   0.0000000   0.0000000
 NQMom=    0.0000000   0.0000000   0.0000000   0.0000000   0.0000000   0.0000000   0.0000000   0.0000000   0.0000000   0.0000000
 NMagM=    0.0000000   2.7928460   2.7928460   0.0000000   2.7928460   2.7928460   0.0000000   2.7928460   2.7928460   0.0000000
 AtZNuc=   8.0000000   1.0000000   1.0000000   8.0000000   1.0000000   1.0000000   8.0000000   1.0000000   1.0000000   8.0000000

  Atom       321         322         323         324         325         326         327         328         329         330
 IAtWgt=           1           1          16           1           1          16           1           1          16           1
 AtmWgt=   1.0078250   1.0078250  15.9949146   1.0078250   1.0078250  15.9949146   1.0078250   1.0078250  15.9949146   1.0078250
 NucSpn=           1           1           0           1           1           0           1           1           0           1
 AtZEff=   0.0000000   0.0000000   0.0000000   0.0000000   0.0000000   0.0000000   0.0000000   0.0000000   0.0000000   0.0000000
 NQMom=    0.0000000   0.0000000   0.0000000   0.0000000   0.0000000   0.0000000   0.0000000   0.0000000   0.0000000   0.0000000
 NMagM=    2.7928460   2.7928460   0.0000000   2.7928460   2.7928460   0.0000000   2.7928460   2.7928460   0.0000000   2.7928460
 AtZNuc=   1.0000000   1.0000000   8.0000000   1.0000000   1.0000000   8.0000000   1.0000000   1.0000000   8.0000000   1.0000000

  Atom       331         332         333         334         335         336         337         338         339         340
 IAtWgt=           1          16           1           1          16           1           1          16           1           1
 AtmWgt=   1.0078250  15.9949146   1.0078250   1.0078250  15.9949146   1.0078250   1.0078250  15.9949146   1.0078250   1.0078250
 NucSpn=           1           0           1           1           0           1           1           0           1           1
 AtZEff=   0.0000000   0.0000000   0.0000000   0.0000000   0.0000000   0.0000000   0.0000000   0.0000000   0.0000000   0.0000000
 NQMom=    0.0000000   0.0000000   0.0000000   0.0000000   0.0000000   0.0000000   0.0000000   0.0000000   0.0000000   0.0000000
 NMagM=    2.7928460   0.0000000   2.7928460   2.7928460   0.0000000   2.7928460   2.7928460   0.0000000   2.7928460   2.7928460
 AtZNuc=   1.0000000   8.0000000   1.0000000   1.0000000   8.0000000   1.0000000   1.0000000   8.0000000   1.0000000   1.0000000

  Atom       341         342         343         344         345         346         347         348         349         350
 IAtWgt=          16           1           1          16           1           1          16           1           1          16
 AtmWgt=  15.9949146   1.0078250   1.0078250  15.9949146   1.0078250   1.0078250  15.9949146   1.0078250   1.0078250  15.9949146
 NucSpn=           0           1           1           0           1           1           0           1           1           0
 AtZEff=   0.0000000   0.0000000   0.0000000   0.0000000   0.0000000   0.0000000   0.0000000   0.0000000   0.0000000   0.0000000
 NQMom=    0.0000000   0.0000000   0.0000000   0.0000000   0.0000000   0.0000000   0.0000000   0.0000000   0.0000000   0.0000000
 NMagM=    0.0000000   2.7928460   2.7928460   0.0000000   2.7928460   2.7928460   0.0000000   2.7928460   2.7928460   0.0000000
 AtZNuc=   8.0000000   1.0000000   1.0000000   8.0000000   1.0000000   1.0000000   8.0000000   1.0000000   1.0000000   8.0000000

  Atom       351         352         353         354         355         356         357         358         359         360
 IAtWgt=           1           1          16           1           1          16           1           1          16           1
 AtmWgt=   1.0078250   1.0078250  15.9949146   1.0078250   1.0078250  15.9949146   1.0078250   1.0078250  15.9949146   1.0078250
 NucSpn=           1           1           0           1           1           0           1           1           0           1
 AtZEff=   0.0000000   0.0000000   0.0000000   0.0000000   0.0000000   0.0000000   0.0000000   0.0000000   0.0000000   0.0000000
 NQMom=    0.0000000   0.0000000   0.0000000   0.0000000   0.0000000   0.0000000   0.0000000   0.0000000   0.0000000   0.0000000
 NMagM=    2.7928460   2.7928460   0.0000000   2.7928460   2.7928460   0.0000000   2.7928460   2.7928460   0.0000000   2.7928460
 AtZNuc=   1.0000000   1.0000000   8.0000000   1.0000000   1.0000000   8.0000000   1.0000000   1.0000000   8.0000000   1.0000000

  Atom       361         362         363         364         365         366         367         368         369         370
 IAtWgt=           1          16           1           1          16           1           1          16           1           1
 AtmWgt=   1.0078250  15.9949146   1.0078250   1.0078250  15.9949146   1.0078250   1.0078250  15.9949146   1.0078250   1.0078250
 NucSpn=           1           0           1           1           0           1           1           0           1           1
 AtZEff=   0.0000000   0.0000000   0.0000000   0.0000000   0.0000000   0.0000000   0.0000000   0.0000000   0.0000000   0.0000000
 NQMom=    0.0000000   0.0000000   0.0000000   0.0000000   0.0000000   0.0000000   0.0000000   0.0000000   0.0000000   0.0000000
 NMagM=    2.7928460   0.0000000   2.7928460   2.7928460   0.0000000   2.7928460   2.7928460   0.0000000   2.7928460   2.7928460
 AtZNuc=   1.0000000   8.0000000   1.0000000   1.0000000   8.0000000   1.0000000   1.0000000   8.0000000   1.0000000   1.0000000

  Atom       371         372         373         374         375         376         377         378         379         380
 IAtWgt=          16           1           1          16           1           1          16           1           1          16
 AtmWgt=  15.9949146   1.0078250   1.0078250  15.9949146   1.0078250   1.0078250  15.9949146   1.0078250   1.0078250  15.9949146
 NucSpn=           0           1           1           0           1           1           0           1           1           0
 AtZEff=   0.0000000   0.0000000   0.0000000   0.0000000   0.0000000   0.0000000   0.0000000   0.0000000   0.0000000   0.0000000
 NQMom=    0.0000000   0.0000000   0.0000000   0.0000000   0.0000000   0.0000000   0.0000000   0.0000000   0.0000000   0.0000000
 NMagM=    0.0000000   2.7928460   2.7928460   0.0000000   2.7928460   2.7928460   0.0000000   2.7928460   2.7928460   0.0000000
 AtZNuc=   8.0000000   1.0000000   1.0000000   8.0000000   1.0000000   1.0000000   8.0000000   1.0000000   1.0000000   8.0000000

  Atom       381         382         383         384         385
 IAtWgt=           1           1          16           1           1
 AtmWgt=   1.0078250   1.0078250  15.9949146   1.0078250   1.0078250
 NucSpn=           1           1           0           1           1
 AtZEff=   0.0000000   0.0000000   0.0000000   0.0000000   0.0000000
 NQMom=    0.0000000   0.0000000   0.0000000   0.0000000   0.0000000
 NMagM=    2.7928460   2.7928460   0.0000000   2.7928460   2.7928460
 AtZNuc=   1.0000000   1.0000000   8.0000000   1.0000000   1.0000000
 Leave Link  101 at Mon May 14 03:33:24 2018, MaxMem= 14763950080 cpu:        33.2
 (Enter /cm/shared/gaussian/g09.e01/intel64-sandybridge/g09/l103.exe)

 GradGradGradGradGradGradGradGradGradGradGradGradGradGradGradGradGradGrad
 Berny optimization.
 Initialization pass.
 Trust Radius=3.00D-01 FncErr=1.00D-07 GrdErr=1.00D-07
 Number of steps in this run=      2 maximum allowed number of steps=      2.
 GradGradGradGradGradGradGradGradGradGradGradGradGradGradGradGradGradGrad

 Leave Link  103 at Mon May 14 03:33:24 2018, MaxMem= 14763950080 cpu:         3.7
 (Enter /cm/shared/gaussian/g09.e01/intel64-sandybridge/g09/l202.exe)
 Symmetry turned off by external request.
 Stoichiometry    BrH256O128(1-)
 Framework group  C1[X(BrH256O128)]
 Deg. of freedom  1149
 Full point group                 C1      NOp   1
                          Input orientation:                          
 ---------------------------------------------------------------------
 Center     Atomic      Atomic             Coordinates (Angstroms)
 Number     Number       Type             X           Y           Z
 ---------------------------------------------------------------------
      1         35           0       20.000000   20.000000   20.000000
      2          8           0       19.550000   16.970000   20.220000
      3          1           0       19.480000   17.920000   20.350000
      4          1           0       19.790000   16.870000   19.300000
      5          8           0       18.760000   22.590000   18.740000
      6          1           0       19.060000   21.770000   19.140000
      7          1           0       18.770000   23.220000   19.460000
      8          8           0       22.860000   20.630000   18.950000
      9          1           0       22.060000   20.230000   19.290000
     10          1           0       22.580000   21.480000   18.620000
     11          8           0       19.020000   18.580000   17.220000
     12          1           0       19.040000   17.630000   17.190000
     13          1           0       19.290000   18.810000   18.110000
     14          8           0       19.640000   19.160000   23.280000
     15          1           0       19.550000   19.300000   22.330000
     16          1           0       20.310000   19.780000   23.550000
     17          8           0       22.330000   22.130000   21.980000
     18          1           0       22.740000   22.780000   21.410000
     19          1           0       21.770000   21.620000   21.400000
     20          8           0       21.460000   21.640000   16.870000
     21          1           0       21.180000   20.780000   16.550000
     22          1           0       20.810000   21.880000   17.520000
     23          8           0       16.210000   17.790000   20.620000
     24          1           0       16.260000   17.000000   21.160000
     25          1           0       17.080000   17.860000   20.220000
     26          8           0       23.370000   18.110000   20.740000
     27          1           0       23.500000   19.010000   20.450000
     28          1           0       23.750000   17.580000   20.040000
     29          8           0       16.110000   22.170000   17.980000
     30          1           0       17.040000   22.250000   18.210000
     31          1           0       15.980000   21.230000   17.840000
     32          8           0       19.240000   20.240000   15.140000
     33          1           0       19.450000   19.590000   15.810000
     34          1           0       18.710000   19.770000   14.500000
     35          8           0       21.010000   16.320000   17.900000
     36          1           0       20.970000   16.800000   17.070000
     37          1           0       21.430000   15.490000   17.670000
     38          8           0       15.890000   22.690000   20.820000
     39          1           0       16.180000   22.230000   20.030000
     40          1           0       15.620000   23.550000   20.510000
     41          8           0       17.470000   19.450000   24.620000
     42          1           0       18.010000   19.030000   23.950000
     43          1           0       17.740000   19.030000   25.440000
     44          8           0       20.770000   14.840000   21.180000
     45          1           0       20.230000   15.490000   20.730000
     46          1           0       21.270000   15.340000   21.820000
     47          8           0       19.000000   24.540000   20.690000
     48          1           0       19.070000   24.200000   21.580000
     49          1           0       18.570000   25.390000   20.790000
     50          8           0       17.400000   22.210000   23.900000
     51          1           0       17.260000   22.260000   22.960000
     52          1           0       17.570000   21.290000   24.080000
     53          8           0       22.900000   18.530000   23.670000
     54          1           0       22.860000   19.360000   24.140000
     55          1           0       23.460000   18.710000   22.920000
     56          8           0       23.230000   23.420000   19.550000
     57          1           0       22.740000   24.220000   19.350000
     58          1           0       23.980000   23.440000   18.950000
     59          8           0       25.550000   20.530000   19.030000
     60          1           0       24.610000   20.690000   18.980000
     61          1           0       25.750000   20.610000   19.970000
     62          8           0       23.110000   19.270000   16.300000
     63          1           0       23.390000   20.120000   16.640000
     64          1           0       22.980000   19.420000   15.360000
     65          8           0       22.060000   21.120000   24.600000
     66          1           0       22.250000   21.730000   23.900000
     67          1           0       21.160000   21.310000   24.850000
     68          8           0       23.930000   17.060000   18.350000
     69          1           0       23.080000   16.620000   18.380000
     70          1           0       23.830000   17.710000   17.650000
     71          8           0       19.200000   24.990000   17.180000
     72          1           0       18.890000   24.120000   17.400000
     73          1           0       19.480000   24.930000   16.270000
     74          8           0       14.480000   19.700000   19.040000
     75          1           0       15.020000   19.330000   19.740000
     76          1           0       13.630000   19.280000   19.150000
     77          8           0       22.840000   15.980000   22.560000
     78          1           0       22.780000   16.760000   23.110000
     79          1           0       23.050000   16.320000   21.690000
     80          8           0       20.670000   16.760000   24.660000
     81          1           0       20.140000   17.520000   24.420000
     82          1           0       21.350000   16.730000   23.990000
     83          8           0       25.330000   21.360000   21.700000
     84          1           0       25.670000   20.930000   22.480000
     85          1           0       24.440000   21.620000   21.930000
     86          8           0       22.640000   23.540000   15.600000
     87          1           0       22.240000   23.020000   16.300000
     88          1           0       23.300000   22.960000   15.220000
     89          8           0       17.860000   14.320000   19.990000
     90          1           0       18.610000   14.890000   20.190000
     91          1           0       17.150000   14.670000   20.530000
     92          8           0       19.730000   22.420000   25.460000
     93          1           0       20.010000   23.270000   25.800000
     94          1           0       19.230000   22.640000   24.670000
     95          8           0       15.320000   19.630000   16.300000
     96          1           0       15.180000   19.340000   17.200000
     97          1           0       15.910000   18.970000   15.930000
     98          8           0       21.500000   25.450000   18.950000
     99          1           0       21.390000   25.780000   19.840000
    100          1           0       20.610000   25.430000   18.590000
    101          8           0       14.050000   19.020000   21.990000
    102          1           0       14.760000   18.530000   21.570000
    103          1           0       14.470000   19.830000   22.270000
    104          8           0       18.070000   22.480000   14.200000
    105          1           0       18.580000   21.780000   14.600000
    106          1           0       17.580000   22.870000   14.920000
    107          8           0       21.370000   13.320000   18.990000
    108          1           0       21.100000   13.900000   19.700000
    109          1           0       20.800000   12.550000   19.070000
    110          8           0       16.790000   24.120000   15.790000
    111          1           0       16.820000   24.920000   16.310000
    112          1           0       16.350000   23.480000   16.340000
    113          8           0       16.880000   15.560000   16.870000
    114          1           0       16.970000   16.150000   16.120000
    115          1           0       17.480000   14.830000   16.670000
    116          8           0       16.240000   15.460000   22.190000
    117          1           0       15.870000   14.580000   22.060000
    118          1           0       16.030000   15.680000   23.090000
    119          8           0       20.980000   21.370000   13.290000
    120          1           0       20.480000   20.690000   13.750000
    121          1           0       21.760000   20.920000   12.970000
    122          8           0       13.830000   21.860000   22.890000
    123          1           0       13.130000   21.880000   22.240000
    124          1           0       14.600000   22.190000   22.420000
    125          8           0       16.880000   17.360000   14.840000
    126          1           0       17.370000   18.090000   14.470000
    127          1           0       16.520000   16.900000   14.080000
    128          8           0       20.060000   24.310000   14.630000
    129          1           0       20.860000   23.840000   14.860000
    130          1           0       19.610000   23.740000   14.000000
    131          8           0       26.340000   18.340000   17.150000
    132          1           0       27.250000   18.390000   17.450000
    133          1           0       25.930000   19.140000   17.490000
    134          8           0       13.530000   23.250000   18.000000
    135          1           0       14.460000   23.040000   18.110000
    136          1           0       13.080000   22.410000   18.100000
    137          8           0       21.720000   17.650000   13.680000
    138          1           0       22.170000   17.220000   14.410000
    139          1           0       22.090000   18.530000   13.660000
    140          8           0       16.910000   25.050000   24.260000
    141          1           0       16.600000   25.210000   25.150000
    142          1           0       16.800000   24.100000   24.130000
    143          8           0       22.580000   15.780000   15.490000
    144          1           0       23.500000   15.720000   15.240000
    145          1           0       22.360000   14.890000   15.770000
    146          8           0       21.550000   25.690000   23.270000
    147          1           0       21.510000   26.190000   22.450000
    148          1           0       22.440000   25.340000   23.300000
    149          8           0       20.330000   13.100000   23.350000
    150          1           0       20.350000   13.830000   22.720000
    151          1           0       19.520000   12.640000   23.160000
    152          8           0       15.770000   25.320000   19.460000
    153          1           0       16.320000   25.970000   19.900000
    154          1           0       15.910000   25.480000   18.520000
    155          8           0       14.770000   20.660000   25.120000
    156          1           0       15.470000   20.010000   25.110000
    157          1           0       14.580000   20.840000   24.200000
    158          8           0       23.560000   20.860000   26.850000
    159          1           0       22.990000   21.050000   26.100000
    160          1           0       24.390000   21.260000   26.610000
    161          8           0       23.480000   26.010000   16.950000
    162          1           0       23.220000   25.120000   16.720000
    163          1           0       22.720000   26.370000   17.420000
    164          8           0       14.450000   15.190000   19.360000
    165          1           0       14.800000   15.460000   18.520000
    166          1           0       14.300000   16.000000   19.840000
    167          8           0       18.760000   18.540000   13.280000
    168          1           0       19.370000   17.800000   13.200000
    169          1           0       18.410000   18.650000   12.390000
    170          8           0       18.350000   12.630000   18.010000
    171          1           0       18.030000   13.440000   18.410000
    172          1           0       18.860000   12.910000   17.250000
    173          8           0       14.150000   21.780000   14.990000
    174          1           0       14.610000   21.240000   15.630000
    175          1           0       14.250000   21.310000   14.170000
    176          8           0       26.040000   15.590000   17.440000
    177          1           0       25.130000   15.720000   17.690000
    178          1           0       26.380000   16.470000   17.300000
    179          8           0       19.410000   14.640000   25.840000
    180          1           0       19.650000   15.480000   25.430000
    181          1           0       19.710000   13.980000   25.210000
    182          8           0       26.360000   24.110000   21.180000
    183          1           0       26.170000   23.190000   21.340000
    184          1           0       25.950000   24.300000   20.340000
    185          8           0       24.160000   25.380000   22.810000
    186          1           0       24.660000   24.880000   22.170000
    187          1           0       24.190000   26.280000   22.500000
    188          8           0       25.550000   24.130000   18.450000
    189          1           0       25.390000   24.860000   17.860000
    190          1           0       26.060000   23.500000   17.930000
    191          8           0       19.020000   27.530000   17.580000
    192          1           0       19.090000   26.580000   17.460000
    193          1           0       18.350000   27.790000   16.940000
    194          8           0       26.270000   15.780000   20.120000
    195          1           0       26.990000   15.210000   19.870000
    196          1           0       25.900000   16.090000   19.290000
    197          8           0       25.740000   20.820000   24.160000
    198          1           0       26.240000   20.210000   24.700000
    199          1           0       25.710000   21.630000   24.670000
    200          8           0       23.300000   19.920000   13.650000
    201          1           0       23.830000   19.320000   13.120000
    202          1           0       23.810000   20.720000   13.690000
    203          8           0       22.480000   16.150000   26.620000
    204          1           0       21.770000   16.630000   26.200000
    205          1           0       22.970000   16.830000   27.100000
    206          8           0       16.270000   15.440000   24.850000
    207          1           0       16.890000   15.970000   25.350000
[...]
   Z335      48.77383   0.00999   0.00000   0.00168   0.00188  48.77571
   X336      49.92656   0.01034   0.00000   0.00396   0.00417  49.93073
   Y336      44.80541   0.01371   0.00000   0.00867   0.00758  44.81299
   Z336      47.48882  -0.02204   0.00000  -0.01836  -0.01810  47.47071
   X337      49.94546   0.00136   0.00000  -0.00111  -0.00087  49.94459
   Y337      44.31408   0.00019   0.00000  -0.00095  -0.00224  44.31184
   Z337      50.30451   0.00380   0.00000   0.00192   0.00214  50.30665
   X338      46.78962  -0.01088   0.00000  -0.00087  -0.00130  46.78832
   Y338      34.44971   0.01865   0.00000   0.01264   0.01339  34.46310
   Z338      23.03576  -0.01481   0.00000  -0.00424  -0.00468  23.03108
   X339      46.94080  -0.00174   0.00000  -0.00466  -0.00514  46.93566
   Y339      33.05131  -0.00480   0.00000  -0.00103  -0.00019  33.05112
   Z339      21.90193  -0.00338   0.00000  -0.00179  -0.00234  21.89958
   X340      47.65889   0.01597   0.00000   0.01256   0.01214  47.67103
   Y340      33.95838  -0.01603   0.00000  -0.01755  -0.01693  33.94145
   Z340      24.52865   0.02236   0.00000   0.01467   0.01418  24.54282
   X341      41.98971   0.00790   0.00000   0.00643   0.00601  41.99573
   Y341      20.82478  -0.01651   0.00000  -0.01045  -0.01103  20.81376
   Z341      42.97237   0.00221   0.00000   0.00419   0.00284  42.97521
   X342      42.31097  -0.00196   0.00000  -0.00304  -0.00347  42.30749
   Y342      21.35391   0.00589   0.00000   0.00621   0.00575  21.35965
   Z342      41.27162  -0.00392   0.00000   0.00004  -0.00127  41.27035
   X343      41.04485  -0.00834   0.00000  -0.00631  -0.00669  41.03816
   Y343      22.18538   0.01022   0.00000   0.00526   0.00465  22.19003
   Z343      43.70937   0.00064   0.00000  -0.00206  -0.00330  43.70607
   X344      29.30965   0.01337   0.00000   0.01133   0.01089  29.32054
   Y344      34.26073  -0.01373   0.00000  -0.00922  -0.00805  34.25269
   Z344      22.75230   0.00440   0.00000   0.00457   0.00440  22.75670
   X345      28.83722  -0.00277   0.00000  -0.00032  -0.00077  28.83645
   Y345      34.63868   0.00232   0.00000  -0.00079   0.00053  34.63921
   Z345      21.05155  -0.00852   0.00000  -0.00364  -0.00378  21.04777
   X346      28.49707  -0.00714   0.00000  -0.00379  -0.00419  28.49288
   Y346      35.52685   0.01048   0.00000   0.00486   0.00599  35.53284
   Z346      23.73496   0.00714   0.00000   0.00473   0.00467  23.73963
   X347      25.36012  -0.02445   0.00000  -0.02271  -0.02316  25.33696
   Y347      24.11291  -0.01694   0.00000  -0.01548  -0.01518  24.09772
   Z347      36.28274   0.00568   0.00000   0.00913   0.00829  36.29103
   X348      25.70028   0.00451   0.00000   0.00098   0.00058  25.70085
   Y348      25.79476   0.00830   0.00000   0.00116   0.00140  25.79616
   Z348      36.86856  -0.00260   0.00000  -0.00654  -0.00727  36.86129
   X349      26.85301   0.00697   0.00000   0.00078   0.00030  26.85331
   Y349      23.62158   0.00467   0.00000   0.00665   0.00697  23.62854
   Z349      35.39457   0.00414   0.00000   0.01234   0.01144  35.40601
   X350      37.56776   0.01030   0.00000   0.00921   0.00958  37.57733
   Y350      55.63354   0.00314   0.00000   0.00265   0.00226  55.63580
   Z350      41.78184  -0.00586   0.00000  -0.00481  -0.00357  41.77828
   X351      37.01973  -0.00694   0.00000  -0.00837  -0.00802  37.01171
   Y351      54.17845  -0.00557   0.00000  -0.00317  -0.00362  54.17483
   Z351      42.72671  -0.00025   0.00000  -0.00625  -0.00511  42.72160
   X352      36.39613  -0.00336   0.00000  -0.00200  -0.00159  36.39453
   Y352      56.93745   0.00085   0.00000  -0.00096  -0.00136  56.93609
   Z352      42.25428   0.00067   0.00000  -0.00194  -0.00059  42.25369
   X353      23.07356  -0.01793   0.00000  -0.01142  -0.01181  23.06175
   Y353      30.21672   0.02146   0.00000   0.01735   0.01803  30.23475
   Z353      31.69071   0.00298   0.00000   0.00347   0.00311  31.69382
   X354      22.60112   0.00077   0.00000   0.00036  -0.00005  22.60108
   Y354      30.46239  -0.00155   0.00000  -0.00203  -0.00122  30.46117
   Z354      29.95216  -0.00099   0.00000  -0.00172  -0.00205  29.95011
   X355      24.37747   0.01374   0.00000   0.00633   0.00591  24.38338
   Y355      28.95060  -0.01099   0.00000  -0.00209  -0.00144  28.94917
   Z355      31.61512   0.00237   0.00000   0.00690   0.00643  31.62155
   X356      39.87322   0.02218   0.00000   0.01868   0.01890  39.89213
   Y356      55.55795   0.00657   0.00000   0.00783   0.00803  55.56598
   Z356      32.91903  -0.00448   0.00000   0.00294   0.00413  32.92316
   X357      38.83387  -0.01361   0.00000  -0.01010  -0.00989  38.82398
   Y357      54.61309  -0.01307   0.00000  -0.01263  -0.01249  54.60060
   Z357      34.03397   0.00396   0.00000  -0.00704  -0.00589  34.02807
   X358      38.96615  -0.00606   0.00000  -0.00500  -0.00475  38.96141
   Y358      57.08863   0.00587   0.00000   0.00316   0.00340  57.09203
   Z358      32.61667  -0.00133   0.00000  -0.00267  -0.00134  32.61533
   X359      54.51860  -0.01177   0.00000  -0.00767  -0.00791  54.51068
   Y359      34.29853   0.00388   0.00000   0.00181   0.00153  34.30006
   Z359      34.78986  -0.00545   0.00000  -0.00241  -0.00299  34.78687
   X360      55.69023   0.00789   0.00000   0.00544   0.00516  55.69539
   Y360      32.97572  -0.00719   0.00000  -0.00373  -0.00401  32.97171
   Z360      34.43081  -0.00138   0.00000  -0.00043  -0.00112  34.42969
   X361      55.14221   0.00146   0.00000  -0.00124  -0.00144  55.14077
   Y361      35.07332   0.00226   0.00000   0.00105   0.00065  35.07396
   Z361      36.30164   0.00778   0.00000   0.00631   0.00578  36.30742
   X362      20.71140  -0.00003   0.00000  -0.00905  -0.00918  20.70222
   Y362      39.06064  -0.01136   0.00000  -0.01690  -0.01640  39.04424
   Z362      34.90324   0.02050   0.00000   0.00872   0.00904  34.91228
   X363      20.76809   0.00280   0.00000   0.00534   0.00517  20.77326
   Y363      38.90946   0.00610   0.00000   0.01160   0.01223  38.92169
   Z363      33.10800  -0.02717   0.00000  -0.02041  -0.02011  33.08789
   X364      19.18072  -0.01208   0.00000  -0.01193  -0.01203  19.16869
   Y364      39.94881   0.00525   0.00000   0.00371   0.00422  39.95303
   Z364      35.24339  -0.00187   0.00000  -0.00391  -0.00350  35.23989
   X365      50.43679   0.00507   0.00000   0.00312   0.00262  50.43941
   Y365      24.41526  -0.01862   0.00000  -0.01321  -0.01326  24.40200
   Z365      32.91903  -0.00183   0.00000  -0.00070  -0.00193  32.91710
   X366      49.83208  -0.00078   0.00000   0.00461   0.00415  49.83623
   Y366      26.11602   0.01390   0.00000   0.00694   0.00691  26.12293
   Z366      32.86234   0.00117   0.00000   0.00165   0.00056  32.86290
   X367      50.90922  -0.00213   0.00000  -0.00259  -0.00307  50.90615
   Y367      24.15070   0.00133   0.00000   0.00070   0.00052  24.15122
   Z367      34.65758   0.00001   0.00000   0.00162   0.00036  34.65794
   X368      33.59933   0.00813   0.00000   0.00531   0.00494  33.60427
   Y368      22.09090  -0.00055   0.00000   0.00088   0.00040  22.09130
   Z368      44.25739  -0.00695   0.00000  -0.00369  -0.00481  44.25257
   X369      33.92058   0.00063   0.00000   0.00172   0.00131  33.92190
   Y369      20.29566   0.00043   0.00000   0.00069   0.00020  20.29586
   Z369      44.25739  -0.00094   0.00000  -0.00105  -0.00231  44.25508
   X370      32.10645  -0.00631   0.00000  -0.00173  -0.00207  32.10437
   Y370      22.26097   0.00132   0.00000   0.00198   0.00146  22.26244
   Z370      45.25894   0.00639   0.00000   0.00563   0.00455  45.26349
   X371      19.16182  -0.00746   0.00000  -0.00366  -0.00368  19.15814
   Y371      37.75673  -0.00609   0.00000  -0.00423  -0.00427  37.75245
   Z371      42.95348   0.00491   0.00000   0.00002   0.00027  42.95374
   X372      20.82478   0.00821   0.00000   0.00398   0.00394  20.82873
   Y372      38.00239   0.00427   0.00000   0.00455   0.00452  38.00691
   Z372      42.29207  -0.00897   0.00000  -0.01032  -0.01008  42.28199
   X373      18.14137   0.00138   0.00000   0.00336   0.00335  18.14472
   Y373      38.98505   0.00603   0.00000   0.00699   0.00703  38.99208
   Z373      42.10310  -0.00227   0.00000  -0.00133  -0.00097  42.10212
   X374      32.04976  -0.00160   0.00000  -0.00113  -0.00097  32.04879
   Y374      37.49217  -0.01613   0.00000  -0.00942  -0.01064  37.48152
   Z374      55.04772   0.00395   0.00000   0.00204   0.00206  55.04978
   X375      33.07021   0.00918   0.00000   0.00715   0.00734  33.07755
   Y375      38.94726   0.01075   0.00000   0.00593   0.00471  38.95197
   Z375      54.66978  -0.00110   0.00000   0.00156   0.00166  54.67144
   X376      30.34900  -0.00695   0.00000  -0.00549  -0.00531  30.34369
   Y376      38.04019  -0.00026   0.00000  -0.00254  -0.00371  38.03648
   Z376      54.78316  -0.00455   0.00000  -0.00662  -0.00654  54.77662
   X377      21.29721   0.00171   0.00000   0.00487   0.00484  21.30205
   Y377      34.75206  -0.00476   0.00000  -0.00134  -0.00171  34.75035
   Z377      46.73293   0.01286   0.00000   0.01142   0.01141  46.74434
   X378      20.88147  -0.00730   0.00000  -0.00979  -0.00981  20.87166
   Y378      36.05597   0.00488   0.00000  -0.00033  -0.00060  36.05537
   Z378      45.56130  -0.00564   0.00000  -0.00164  -0.00154  45.55976
   X379      22.71451   0.00589   0.00000   0.00550   0.00543  22.71994
   Y379      33.90169  -0.00465   0.00000  -0.00507  -0.00542  33.89627
   Z379      45.97704  -0.00061   0.00000   0.00161   0.00152  45.97856
   X380      32.27652  -0.01406   0.00000  -0.00852  -0.00866  32.26786
   Y380      26.45617  -0.00697   0.00000  -0.00223  -0.00323  26.45293
   Z380      51.98637   0.00313   0.00000   0.00061  -0.00018  51.98619
   X381      32.95682   0.00297   0.00000   0.00393   0.00376  32.96059
   Y381      24.90659   0.00283   0.00000   0.00388   0.00281  24.90940
   Z381      52.66667  -0.00189   0.00000  -0.00167  -0.00257  52.66409
   X382      33.73161   0.01407   0.00000   0.01010   0.00997  33.74158
   Y382      27.32544   0.00187   0.00000  -0.00249  -0.00349  27.32195
   Z382      51.34386  -0.00647   0.00000  -0.00545  -0.00620  51.33766
   X383      53.44146  -0.01756   0.00000  -0.01041  -0.01042  53.43104
   Y383      45.75027   0.00878   0.00000   0.00263   0.00253  45.75280
   Z383      32.61667  -0.01376   0.00000  -0.01183  -0.01157  32.60510
   X384      53.66822   0.00137   0.00000  -0.00197  -0.00200  53.66623
   Y384      44.42746  -0.01685   0.00000  -0.01250  -0.01268  44.41478
   Z384      33.82610   0.01159   0.00000   0.00483   0.00499  33.83109
   X385      55.10441   0.01417   0.00000   0.00890   0.00889  55.11331
   Y385      46.27939   0.00489   0.00000   0.00477   0.00467  46.28406
   Z385      32.20093  -0.00241   0.00000  -0.00154  -0.00126  32.19967
         Item               Value     Threshold  Converged?
 Maximum Force            0.038539     0.000450     NO 
 RMS     Force            0.010853     0.000300     NO 
 Maximum Displacement     0.031541     0.001800     NO 
 RMS     Displacement     0.008812     0.001200     NO 
 Predicted change in Energy=-7.608217D-02
 GradGradGradGradGradGradGradGradGradGradGradGradGradGradGradGradGradGrad

 Leave Link  103 at Mon May 14 06:12:42 2018, MaxMem= 14763950080 cpu:      3752.5
 (Enter /cm/shared/gaussian/g09.e01/intel64-sandybridge/g09/l9999.exe)
 1\1\GINC-POPLE03\Force\RPBE1PBE\CC-pVDZ\Br1H256O128(1-)\M.PELUSO\14-Ma
 y-2018\0\\#p PBE1PBE/cc-pvDZ force Counterpoise=2 noSymm\\forces on ch
 loride comput - NWATER: 128\\-1,1\Br,20.,20.,20.\O,19.55,16.97,20.22\H
 ,19.48,17.92,20.35\H,19.79,16.87,19.3\O,18.76,22.59,18.74\H,19.06,21.7
 7,19.14\H,18.77,23.22,19.46\O,22.86,20.63,18.95\H,22.06,20.23,19.29\H,
 22.58,21.48,18.62\O,19.02,18.58,17.22\H,19.04,17.63,17.19\H,19.29,18.8
 1,18.11\O,19.64,19.16,23.28\H,19.55,19.3,22.33\H,20.31,19.78,23.55\O,2
 2.33,22.13,21.98\H,22.74,22.78,21.41\H,21.77,21.62,21.4\O,21.46,21.64,
 16.87\H,21.18,20.78,16.55\H,20.81,21.88,17.52\O,16.21,17.79,20.62\H,16
 .26,17.,21.16\H,17.08,17.86,20.22\O,23.37,18.11,20.74\H,23.5,19.01,20.
 45\H,23.75,17.58,20.04\O,16.11,22.17,17.98\H,17.04,22.25,18.21\H,15.98
 ,21.23,17.84\O,19.24,20.24,15.14\H,19.45,19.59,15.81\H,18.71,19.77,14.
 5\O,21.01,16.32,17.9\H,20.97,16.8,17.07\H,21.43,15.49,17.67\O,15.89,22
 .69,20.82\H,16.18,22.23,20.03\H,15.62,23.55,20.51\O,17.47,19.45,24.62\
 H,18.01,19.03,23.95\H,17.74,19.03,25.44\O,20.77,14.84,21.18\H,20.23,15
 .49,20.73\H,21.27,15.34,21.82\O,19.,24.54,20.69\H,19.07,24.2,21.58\H,1
 8.57,25.39,20.79\O,17.4,22.21,23.9\H,17.26,22.26,22.96\H,17.57,21.29,2
 4.08\O,22.9,18.53,23.67\H,22.86,19.36,24.14\H,23.46,18.71,22.92\O,23.2
 3,23.42,19.55\H,22.74,24.22,19.35\H,23.98,23.44,18.95\O,25.55,20.53,19
 .03\H,24.61,20.69,18.98\H,25.75,20.61,19.97\O,23.11,19.27,16.3\H,23.39
 ,20.12,16.64\H,22.98,19.42,15.36\O,22.06,21.12,24.6\H,22.25,21.73,23.9
 \H,21.16,21.31,24.85\O,23.93,17.06,18.35\H,23.08,16.62,18.38\H,23.83,1
 7.71,17.65\O,19.2,24.99,17.18\H,18.89,24.12,17.4\H,19.48,24.93,16.27\O
 ,14.48,19.7,19.04\H,15.02,19.33,19.74\H,13.63,19.28,19.15\O,22.84,15.9
 8,22.56\H,22.78,16.76,23.11\H,23.05,16.32,21.69\O,20.67,16.76,24.66\H,
 20.14,17.52,24.42\H,21.35,16.73,23.99\O,25.33,21.36,21.7\H,25.67,20.93
 ,22.48\H,24.44,21.62,21.93\O,22.64,23.54,15.6\H,22.24,23.02,16.3\H,23.
 3,22.96,15.22\O,17.86,14.32,19.99\H,18.61,14.89,20.19\H,17.15,14.67,20
 .53\O,19.73,22.42,25.46\H,20.01,23.27,25.8\H,19.23,22.64,24.67\O,15.32
 ,19.63,16.3\H,15.18,19.34,17.2\H,15.91,18.97,15.93\O,21.5,25.45,18.95\
 H,21.39,25.78,19.84\H,20.61,25.43,18.59\O,14.05,19.02,21.99\H,14.76,18
 .53,21.57\H,14.47,19.83,22.27\O,18.07,22.48,14.2\H,18.58,21.78,14.6\H,
 17.58,22.87,14.92\O,21.37,13.32,18.99\H,21.1,13.9,19.7\H,20.8,12.55,19
 .07\O,16.79,24.12,15.79\H,16.82,24.92,16.31\H,16.35,23.48,16.34\O,16.8
 8,15.56,16.87\H,16.97,16.15,16.12\H,17.48,14.83,16.67\O,16.24,15.46,22
 .19\H,15.87,14.58,22.06\H,16.03,15.68,23.09\O,20.98,21.37,13.29\H,20.4
 8,20.69,13.75\H,21.76,20.92,12.97\O,13.83,21.86,22.89\H,13.13,21.88,22
 .24\H,14.6,22.19,22.42\O,16.88,17.36,14.84\H,17.37,18.09,14.47\H,16.52
 ,16.9,14.08\O,20.06,24.31,14.63\H,20.86,23.84,14.86\H,19.61,23.74,14.\
 O,26.34,18.34,17.15\H,27.25,18.39,17.45\H,25.93,19.14,17.49\O,13.53,23
 .25,18.\H,14.46,23.04,18.11\H,13.08,22.41,18.1\O,21.72,17.65,13.68\H,2
 2.17,17.22,14.41\H,22.09,18.53,13.66\O,16.91,25.05,24.26\H,16.6,25.21,
 25.15\H,16.8,24.1,24.13\O,22.58,15.78,15.49\H,23.5,15.72,15.24\H,22.36
 ,14.89,15.77\O,21.55,25.69,23.27\H,21.51,26.19,22.45\H,22.44,25.34,23.
 3\O,20.33,13.1,23.35\H,20.35,13.83,22.72\H,19.52,12.64,23.16\O,15.77,2
 5.32,19.46\H,16.32,25.97,19.9\H,15.91,25.48,18.52\O,14.77,20.66,25.12\
 H,15.47,20.01,25.11\H,14.58,20.84,24.2\O,23.56,20.86,26.85\H,22.99,21.
 05,26.1\H,24.39,21.26,26.61\O,23.48,26.01,16.95\H,23.22,25.12,16.72\H,
 22.72,26.37,17.42\O,14.45,15.19,19.36\H,14.8,15.46,18.52\H,14.3,16.,19
 .84\O,18.76,18.54,13.28\H,19.37,17.8,13.2\H,18.41,18.65,12.39\O,18.35,
 12.63,18.01\H,18.03,13.44,18.41\H,18.86,12.91,17.25\O,14.15,21.78,14.9
 9\H,14.61,21.24,15.63\H,14.25,21.31,14.17\O,26.04,15.59,17.44\H,25.13,
 15.72,17.69\H,26.38,16.47,17.3\O,19.41,14.64,25.84\H,19.65,15.48,25.43
 \H,19.71,13.98,25.21\O,26.36,24.11,21.18\H,26.17,23.19,21.34\H,25.95,2
 4.3,20.34\O,24.16,25.38,22.81\H,24.66,24.88,22.17\H,24.19,26.28,22.5\O
 ,25.55,24.13,18.45\H,25.39,24.86,17.86\H,26.06,23.5,17.93\O,19.02,27.5
 3,17.58\H,19.09,26.58,17.46\H,18.35,27.79,16.94\O,26.27,15.78,20.12\H,
 26.99,15.21,19.87\H,25.9,16.09,19.29\O,25.74,20.82,24.16\H,26.24,20.21
 ,24.7\H,25.71,21.63,24.67\O,23.3,19.92,13.65\H,23.83,19.32,13.12\H,23.
 81,20.72,13.69\O,22.48,16.15,26.62\H,21.77,16.63,26.2\H,22.97,16.83,27
 .1\O,16.27,15.44,24.85\H,16.89,15.97,25.35\H,16.59,14.55,24.94\O,17.46
 ,26.88,20.96\H,17.66,27.67,20.46\H,17.55,27.13,21.87\O,22.47,13.27,16.
 56\H,22.76,12.36,16.56\H,21.88,13.33,17.31\O,18.84,18.41,27.19\H,18.85
 ,17.75,27.88\H,18.68,19.24,27.64\O,19.31,13.91,15.49\H,20.21,14.19,15.
 33\H,19.07,13.4,14.72\O,20.55,25.23,26.06\H,20.67,25.41,25.13\H,21.44,
 25.17,26.41\O,25.95,15.13,23.26\H,25.02,15.34,23.16\H,26.34,15.36,22.4
 1\O,28.17,21.85,18.73\H,27.35,21.4,18.92\H,28.78,21.54,19.4\O,21.58,27
 .44,20.88\H,20.8,27.98,20.96\H,22.29,28.06,20.73\O,25.68,17.17,14.59\H
 ,25.68,17.62,15.44\H,26.12,16.33,14.76\O,12.16,17.29,21.53\H,11.92,17.
 3,20.6\H,12.71,18.07,21.64\O,18.83,21.65,28.43\H,18.93,21.62,27.47\H,1
 8.71,22.57,28.63\O,18.5,27.35,23.43\H,19.04,27.65,24.16\H,18.12,26.52,
 23.74\O,27.98,17.85,21.76\H,28.31,16.99,22.\H,27.44,17.7,20.98\O,25.2,
 22.12,14.49\H,25.65,22.92,14.21\H,25.65,21.42,14.02\O,14.33,14.41,16.5
 \H,14.52,13.58,16.94\H,15.18,14.86,16.46\O,23.25,24.75,26.52\H,23.43,2
 4.07,25.87\H,23.23,24.28,27.35\O,13.71,16.6,24.86\H,14.66,16.51,24.73\
 H,13.4,15.71,25.03\O,20.52,15.83,12.4\H,20.59,14.94,12.73\H,21.15,16.3
 3,12.93\O,12.18,18.26,19.\H,12.06,17.82,18.16\H,11.51,18.94,19.02\O,14
 .03,23.4,25.39\H,13.17,23.32,25.82\H,14.28,22.5,25.18\O,21.77,26.18,13
 .65\H,21.8,26.83,14.35\H,21.31,25.44,14.03\O,22.94,13.63,25.24\H,22.76
 ,14.49,25.62\H,22.36,13.57,24.48\O,23.91,18.3,27.5\H,23.86,19.22,27.24
 \H,24.84,18.11,27.5\O,16.18,17.44,26.86\H,15.27,17.7,26.77\H,16.59,18.
 16,27.35\O,17.29,24.74,12.93\H,17.66,23.87,12.76\H,17.11,24.75,13.87\O
 ,15.24,27.1,23.59\H,15.71,27.85,23.21\H,15.84,26.37,23.48\O,16.01,26.6
 4,16.69\H,15.54,26.67,15.86\H,16.02,27.55,17.\O,11.77,21.74,20.7\H,11.
 51,21.13,20.\H,11.43,22.59,20.42\O,13.12,26.07,18.28\H,13.86,25.84,18.
 85\H,12.87,25.24,17.88\O,19.87,22.82,10.9\H,20.03,22.11,10.29\H,20.,22
 .42,11.77\O,27.43,24.25,23.57\H,28.2,23.69,23.59\H,27.09,24.17,22.68\O
 ,15.51,12.22,17.71\H,16.44,12.45,17.62\H,15.49,11.27,17.6\O,21.32,20.7
 7,29.08\H,22.,20.67,28.42\H,20.68,21.36,28.67\O,19.07,24.28,28.22\H,19
 .63,24.78,28.81\H,19.29,24.59,27.34\O,14.19,19.46,27.33\H,14.2,20.12,2
 8.03\H,14.13,19.96,26.52\O,19.17,10.72,19.87\H,18.95,11.32,19.15\H,18.
 84,9.87,19.59\O,28.33,21.78,15.3\H,28.35,22.73,15.42\H,27.43,21.53,15.
 51\O,11.38,21.32,15.91\H,12.28,21.05,15.75\H,11.02,21.5,15.04\O,21.52,
 18.9,10.92\H,22.37,19.33,10.82\H,21.69,18.14,11.47\O,17.99,29.07,19.71
 \H,18.22,28.65,18.89\H,18.67,29.74,19.83\O,28.86,19.62,23.58\H,28.44,1
 9.22,24.34\H,28.41,19.24,22.83\O,13.71,24.42,14.11\H,14.02,23.58,14.45
 \H,13.76,24.34,13.16\O,25.98,23.2,25.81\H,26.42,23.71,25.13\H,26.43,23
 .45,26.62\O,24.76,18.23,12.19\H,24.84,17.49,11.59\H,25.22,17.97,12.98\
 O,22.22,11.02,22.74\H,22.39,11.3,21.84\H,21.72,11.74,23.13\O,15.51,18.
 13,12.04\H,15.26,18.33,11.14\H,15.08,18.8,12.56\O,13.42,12.76,19.2\H,1
 3.6,13.65,19.51\H,14.21,12.5,18.73\O,19.88,29.44,22.11\H,19.59,28.67,2
 2.61\H,19.26,30.13,22.36\O,12.21,15.99,16.77\H,11.96,16.12,15.85\H,12.
 9,15.32,16.73\O,21.1,29.4,17.42\H,20.55,28.9,18.01\H,20.62,30.21,17.26
 \O,28.85,18.15,18.41\H,29.47,17.45,18.22\H,29.18,18.56,19.21\O,10.96,2
 0.67,18.47\H,10.99,20.59,17.52\H,10.15,21.14,18.65\O,26.69,12.92,17.42
 \H,26.37,13.82,17.39\H,26.94,12.78,18.34\O,17.78,11.69,23.42\H,17.95,1
 0.74,23.42\H,16.99,11.78,23.95\O,10.14,19.98,22.73\H,11.02,20.11,22.38
 \H,9.6,20.63,22.28\O,16.96,19.84,29.13\H,17.5,20.61,28.93\H,16.06,20.1
 3,28.99\O,11.27,18.39,24.73\H,11.05,19.08,24.11\H,12.02,17.94,24.33\O,
 17.08,14.,27.51\H,17.44,13.18,27.87\H,17.85,14.46,27.17\O,28.28,24.21,
 17.26\H,28.4,23.51,17.9\H,29.16,24.49,17.04\\Version=ES64L-G09RevE.01\
 HF=-9773.4164639\RMSD=1.625e-09\RMSF=1.085e-02\Dipole=11.425897,3.4752
 731,-11.6831241\Quadrupole=823.8388761,201.6142824,-1025.4531585,-845.
 7942021,-1354.8384996,-1516.9793779\PG=C01 [X(Br1H256O128)]\\@


 K N O W I N G  IS A BARRIER WHICH PREVENTS LEARNING

                     -- TEACHING OF THE BENE GESSERIT
 Job cpu time:       6 days 22 hours 53 minutes 14.6 seconds.
 File lengths (MBytes):  RWF=   7285 Int=      0 D2E=      0 Chk=   2411 Scr=      1
 Normal termination of Gaussian 09 at Mon May 14 06:13:17 2018.
