 Entering Gaussian System, Link 0=/cm/shared/gaussian/g09.e01/intel64-sandybridge/g09/g09
 Initial command:
 /cm/shared/gaussian/g09.e01/intel64-sandybridge/g09/l1.exe "/local/scratch/m.peluso/128_wat/order/Gau-15374.inp" -scrdir="/local/scratch/m.peluso/128_wat/order/"
 Entering Link 1 = /cm/shared/gaussian/g09.e01/intel64-sandybridge/g09/l1.exe PID=     15375.
  
 Copyright (c) 1988,1990,1992,1993,1995,1998,2003,2009,2015,
            Gaussian, Inc.  All Rights Reserved.
  
 This is part of the Gaussian(R) 09 program.  It is based on
 the Gaussian(R) 03 system (copyright 2003, Gaussian, Inc.),
 the Gaussian(R) 98 system (copyright 1998, Gaussian, Inc.),
 the Gaussian(R) 94 system (copyright 1995, Gaussian, Inc.),
 the Gaussian 92(TM) system (copyright 1992, Gaussian, Inc.),
 the Gaussian 90(TM) system (copyright 1990, Gaussian, Inc.),
 the Gaussian 88(TM) system (copyright 1988, Gaussian, Inc.),
 the Gaussian 86(TM) system (copyright 1986, Carnegie Mellon
 University), and the Gaussian 82(TM) system (copyright 1983,
 Carnegie Mellon University). Gaussian is a federally registered
 trademark of Gaussian, Inc.
  
 This software contains proprietary and confidential information,
 including trade secrets, belonging to Gaussian, Inc.
  
 This software is provided under written license and may be
 used, copied, transmitted, or stored only in accord with that
 written license.
  
 The following legend is applicable only to US Government
 contracts under FAR:
  
                    RESTRICTED RIGHTS LEGEND
  
 Use, reproduction and disclosure by the US Government is
 subject to restrictions as set forth in subparagraphs (a)
 and (c) of the Commercial Computer Software - Restricted
 Rights clause in FAR 52.227-19.
  
 Gaussian, Inc.
 340 Quinnipiac St., Bldg. 40, Wallingford CT 06492
  
  
 ---------------------------------------------------------------
 Warning -- This program may not be used in any manner that
 competes with the business of Gaussian, Inc. or will provide
 assistance to any competitor of Gaussian, Inc.  The licensee
 of this program is prohibited from giving any competitor of
 Gaussian, Inc. access to this program.  By using this program,
 the user acknowledges that Gaussian, Inc. is engaged in the
 business of creating and licensing software in the field of
 computational chemistry and represents and warrants to the
 licensee that it is not a competitor of Gaussian, Inc. and that
 it will not use this program in any manner prohibited above.
 ---------------------------------------------------------------
  

 Cite this work as:
 Gaussian 09, Revision E.01,
 M. J. Frisch, G. W. Trucks, H. B. Schlegel, G. E. Scuseria, 
 M. A. Robb, J. R. Cheeseman, G. Scalmani, V. Barone, B. Mennucci, 
 G. A. Petersson, H. Nakatsuji, M. Caricato, X. Li, H. P. Hratchian, 
 A. F. Izmaylov, J. Bloino, G. Zheng, J. L. Sonnenberg, M. Hada, 
 M. Ehara, K. Toyota, R. Fukuda, J. Hasegawa, M. Ishida, T. Nakajima, 
 Y. Honda, O. Kitao, H. Nakai, T. Vreven, J. A. Montgomery, Jr., 
 J. E. Peralta, F. Ogliaro, M. Bearpark, J. J. Heyd, E. Brothers, 
 K. N. Kudin, V. N. Staroverov, T. Keith, R. Kobayashi, J. Normand, 
 K. Raghavachari, A. Rendell, J. C. Burant, S. S. Iyengar, J. Tomasi, 
 M. Cossi, N. Rega, J. M. Millam, M. Klene, J. E. Knox, J. B. Cross, 
 V. Bakken, C. Adamo, J. Jaramillo, R. Gomperts, R. E. Stratmann, 
 O. Yazyev, A. J. Austin, R. Cammi, C. Pomelli, J. W. Ochterski, 
 R. L. Martin, K. Morokuma, V. G. Zakrzewski, G. A. Voth, 
 P. Salvador, J. J. Dannenberg, S. Dapprich, A. D. Daniels, 
 O. Farkas, J. B. Foresman, J. V. Ortiz, J. Cioslowski, 
 and D. J. Fox, Gaussian, Inc., Wallingford CT, 2013.
 
 ******************************************
 Gaussian 09:  ES64L-G09RevE.01 30-Nov-2015
                12-May-2018 
 ******************************************
 %Mem=110GB
 %NProcShared=64
 Will use up to   64 processors via shared memory.
 %chk=snap100.chk
 ----------------------------------------------
 #p PBE1PBE/cc-pvDZ force Counterpoise=2 noSymm
 ----------------------------------------------
 1/10=7,30=1,38=1,62=2/1,3;
 2/12=2,15=1,17=6,18=5,40=1/2;
 1/10=7,30=1,38=1,53=2,62=2,63=101/22;
 3/5=16,11=2,16=1,25=1,30=1,71=1,74=-13/1,2,3;
 4//1;
 5/5=2,38=5/2;
 6/7=2,8=2,9=2,10=2,28=1/1;
 7/7=1,29=1,30=1,33=-1/1,2,3,16;
 1/10=7,30=1,53=2,62=2,63=101/22;
 3/5=7,6=11,11=2,16=1,25=1,30=1,71=1,74=-13,82=7/1,2,3;
 4//1;
 5/5=2,38=5/2;
 6/7=2,8=2,9=2,10=2,28=1/1;
 7/7=1,29=1,30=1,33=-1/1,2,3,16;
 1/10=7,30=1,53=2,62=2,63=101/22(-5);
 7/9=1,29=1,44=-1/16;
 1/10=7,30=1,62=2/3;
 99//99;
 Leave Link    1 at Sat May 12 14:47:04 2018, MaxMem= 14763950080 cpu:        93.6
 (Enter /cm/shared/gaussian/g09.e01/intel64-sandybridge/g09/l101.exe)
 ---------------------------------------
 forces on chloride comput - NWATER: 128
 ---------------------------------------
 Symbolic Z-matrix:
 Charge = -1 Multiplicity = 1 in supermolecule
 Charge = -1 Multiplicity = 1 in fragment      1.
 Charge =  0 Multiplicity = 1 in fragment      2.
 Br(Fragment=1)        20.       20.       20. 
 O(Fragment=2)         19.31     19.58     23.19 
 H(Fragment=2)         18.68     20.31     23.23 
 H(Fragment=2)         19.64     19.61     22.29 
 O(Fragment=2)         20.04     20.48     16.76 
 H(Fragment=2)         19.97     20.56     17.71 
 H(Fragment=2)         20.03     21.38     16.43 
 O(Fragment=2)         17.69     17.48     20.12 
 H(Fragment=2)         16.87     17.92     19.91 
 H(Fragment=2)         18.36     18.16     20.03 
 O(Fragment=2)         22.17     20.61     22.4 
 H(Fragment=2)         22.63     19.8      22.61 
 H(Fragment=2)         21.32     20.33     22.07 
 O(Fragment=2)         20.01     23.21     20.83 
 H(Fragment=2)         19.59     23.71     20.14 
 H(Fragment=2)         19.63     22.34     20.77 
 O(Fragment=2)         16.87     20.99     18.92 
 H(Fragment=2)         17.08     21.18     18. 
 H(Fragment=2)         17.66     20.59     19.27 
 O(Fragment=2)         22.89     21.24     18.05 
 H(Fragment=2)         22.21     20.71     18.46 
 H(Fragment=2)         23.69     21.       18.51 
 O(Fragment=2)         21.       16.81     21.45 
 H(Fragment=2)         20.87     17.43     20.73 
 H(Fragment=2)         21.01     15.95     21.02 
 O(Fragment=2)         22.95     23.02     20.61 
 H(Fragment=2)         22.8      22.16     21. 
 H(Fragment=2)         22.08     23.32     20.35 
 O(Fragment=2)         21.55     18.16     16.35 
 H(Fragment=2)         22.19     18.26     17.06 
 H(Fragment=2)         20.87     18.8      16.56 
 O(Fragment=2)         23.13     17.66     18.51 
 H(Fragment=2)         23.79     16.99     18.3 
 H(Fragment=2)         22.31     17.18     18.58 
 O(Fragment=2)         21.69     23.95     17.9 
 H(Fragment=2)         22.28     24.59     18.3 
 H(Fragment=2)         21.83     23.15     18.41 
 O(Fragment=2)         16.14     21.3      21.59 
 H(Fragment=2)         16.87     21.61     22.13 
 H(Fragment=2)         16.33     21.63     20.71 
 O(Fragment=2)         18.27     15.97     17.63 
 H(Fragment=2)         17.36     16.06     17.35 
 H(Fragment=2)         18.35     16.57     18.37 
 O(Fragment=2)         18.46     16.24     22.75 
 H(Fragment=2)         17.91     16.56     22.02 
 H(Fragment=2)         19.33     16.58     22.55 
 O(Fragment=2)         18.05     22.32     23.38 
 H(Fragment=2)         17.36     22.84     23.79 
 H(Fragment=2)         18.55     22.95     22.86 
 O(Fragment=2)         17.22     19.94     16.3 
 H(Fragment=2)         16.83     19.28     15.74 
 H(Fragment=2)         18.14     19.97     16.04 
 O(Fragment=2)         20.47     17.41     24.58 
 H(Fragment=2)         21.29     17.75     24.93 
 H(Fragment=2)         20.17     18.09     23.97 
 O(Fragment=2)         24.02     17.33     21.19 
 H(Fragment=2)         23.62     16.47     21.13 
 H(Fragment=2)         23.78     17.76     20.37 
 O(Fragment=2)         20.96     23.88     23.52 
 H(Fragment=2)         20.81     23.78     22.58 
 H(Fragment=2)         21.9      23.76     23.63 
 O(Fragment=2)         15.32     18.56     19.07 
 H(Fragment=2)         14.5      18.72     19.53 
 H(Fragment=2)         15.52     19.4      18.65 
 O(Fragment=2)         21.22     15.66     18.34 
 H(Fragment=2)         21.76     14.86     18.29 
 H(Fragment=2)         20.33     15.36     18.14 
 O(Fragment=2)         19.27     24.7      18.59 
 H(Fragment=2)         18.8      24.67     17.76 
 H(Fragment=2)         20.19     24.6      18.34 
 O(Fragment=2)         19.42     21.31     25.74 
 H(Fragment=2)         18.83     20.57     25.88 
 H(Fragment=2)         19.31     21.53     24.82 
 O(Fragment=2)         24.8      19.08     16.65 
 H(Fragment=2)         25.7      18.81     16.83 
 H(Fragment=2)         24.33     18.93     17.47 
 O(Fragment=2)         25.11     20.48     19.44 
 H(Fragment=2)         25.56     19.64     19.3 
 H(Fragment=2)         25.14     20.61     20.39 
 O(Fragment=2)         23.06     23.23     15.49 
 H(Fragment=2)         22.67     22.97     16.33 
 H(Fragment=2)         22.48     22.85     14.83 
 O(Fragment=2)         14.95     19.51     23.72 
 H(Fragment=2)         15.22     19.95     22.92 
 H(Fragment=2)         14.4      18.79     23.42 
 O(Fragment=2)         25.13     23.81     18.97 
 H(Fragment=2)         24.39     23.54     19.51 
 H(Fragment=2)         25.13     23.19     18.24 
 O(Fragment=2)         25.1      18.57     23.44 
 H(Fragment=2)         25.97     18.18     23.46 
 H(Fragment=2)         24.65     18.1      22.73 
 O(Fragment=2)         25.33     21.16     22.36 
 H(Fragment=2)         24.78     21.89     22.63 
 H(Fragment=2)         25.05     20.43     22.92 
 O(Fragment=2)         18.79     16.85     14.89 
 H(Fragment=2)         18.35     16.53     15.67 
 H(Fragment=2)         19.5      16.23     14.73 
 O(Fragment=2)         24.19     24.9      21.98 
 H(Fragment=2)         24.99     25.01     21.47 
 H(Fragment=2)         23.72     24.19     21.55 
 O(Fragment=2)         18.17     24.21     16.18 
 H(Fragment=2)         17.65     24.9      15.78 
 H(Fragment=2)         17.88     23.41     15.74 
 O(Fragment=2)         22.9      15.83     15.48 
 H(Fragment=2)         23.5      15.66     16.2 
 H(Fragment=2)         22.38     16.58     15.77 
 O(Fragment=2)         22.02     19.07     13.71 
 H(Fragment=2)         22.98     19.14     13.7 
 H(Fragment=2)         21.83     18.58     14.51 
 O(Fragment=2)         20.94     14.88     23.96 
 H(Fragment=2)         20.58     14.63     23.11 
 H(Fragment=2)         20.56     15.74     24.14 
 O(Fragment=2)         22.48     21.15     25.86 
 H(Fragment=2)         22.47     21.82     25.18 
 H(Fragment=2)         21.57     21.06     26.12 
 O(Fragment=2)         15.6      22.52     16.19 
 H(Fragment=2)         15.75     21.59     16.01 
 H(Fragment=2)         15.01     22.52     16.94 
 O(Fragment=2)         22.87     14.57     20.76 
 H(Fragment=2)         21.99     14.31     21.03 
 H(Fragment=2)         23.12     13.93     20.1 
 O(Fragment=2)         18.7      21.7      14.24 
 H(Fragment=2)         18.64     20.85     13.8 
 H(Fragment=2)         19.55     22.04     13.99 
 O(Fragment=2)         15.97     24.63     20.47 
 H(Fragment=2)         15.83     24.61     21.41 
 H(Fragment=2)         16.73     25.2      20.34 
 O(Fragment=2)         18.22     26.44     20.59 
 H(Fragment=2)         18.29     27.38     20.43 
 H(Fragment=2)         18.77     26.03     19.92 
 O(Fragment=2)         25.49     21.9      16.89 
 H(Fragment=2)         25.26     20.97     16.95 
 H(Fragment=2)         24.69     22.33     16.6 
 O(Fragment=2)         16.22     14.82     20.61 
 H(Fragment=2)         15.67     14.17     21.04 
 H(Fragment=2)         17.12     14.53     20.78 
 O(Fragment=2)         22.93     18.5      25.4 
 H(Fragment=2)         22.92     19.45     25.54 
 H(Fragment=2)         23.68     18.36     24.82 
 O(Fragment=2)         13.78     22.61     20.78 
 H(Fragment=2)         14.51     23.21     20.66 
 H(Fragment=2)         14.13     21.91     21.33 
 O(Fragment=2)         17.2      15.79     25.28 
 H(Fragment=2)         16.26     15.89     25.42 
 H(Fragment=2)         17.36     16.21     24.43 
 O(Fragment=2)         20.56     25.28     14.92 
 H(Fragment=2)         20.2      24.66     15.56 
 H(Fragment=2)         21.37     25.59     15.31 
 O(Fragment=2)         14.54     15.91     22.34 
 H(Fragment=2)         15.14     15.96     21.59 
 H(Fragment=2)         15.09     16.13     23.09 
 O(Fragment=2)         20.25     23.99     26.01 
 H(Fragment=2)         19.88     23.11     26.1 
 H(Fragment=2)         20.38     24.09     25.06 
 O(Fragment=2)         15.99     16.32     16.34 
 H(Fragment=2)         15.91     15.89     15.49 
 H(Fragment=2)         15.49     17.13     16.25 
 O(Fragment=2)         18.26     19.22     13.1 
 H(Fragment=2)         17.37     18.95     13.3 
 H(Fragment=2)         18.81     18.69     13.69 
 O(Fragment=2)         17.86     13.49     23.18 
 H(Fragment=2)         17.       13.4      23.59 
 H(Fragment=2)         17.9      14.39     22.88 
 O(Fragment=2)         17.55     13.35     17.3 
 H(Fragment=2)         17.9      14.24     17.4 
 H(Fragment=2)         16.61     13.44     17.49 
 O(Fragment=2)         16.46     20.5      25.92 
 H(Fragment=2)         15.9      20.11     25.25 
 H(Fragment=2)         16.27     21.43     25.88 
 O(Fragment=2)         13.55     16.19     18.78 
 H(Fragment=2)         14.43     16.55     18.79 
 H(Fragment=2)         13.31     16.12     19.71 
 O(Fragment=2)         23.32     23.55     24.61 
 H(Fragment=2)         24.       23.85     24.01 
 H(Fragment=2)         23.57     23.93     25.46 
 O(Fragment=2)         13.25     18.92     17.11 
 H(Fragment=2)         13.5      19.76     17.5 
 H(Fragment=2)         13.83     18.28     17.52 
 O(Fragment=2)         25.01     15.82     17.77 
 H(Fragment=2)         25.26     15.41     18.6 
 H(Fragment=2)         25.74     15.63     17.19 
 O(Fragment=2)         19.7      26.8      23.05 
 H(Fragment=2)         20.45     26.2      22.99 
 H(Fragment=2)         19.22     26.65     22.24 
 O(Fragment=2)         20.07     19.52     27.8 
 H(Fragment=2)         20.01     20.07     27.01 
 H(Fragment=2)         19.65     18.7      27.54 
 O(Fragment=2)         21.33     21.49     12.85 
 H(Fragment=2)         21.13     21.31     11.93 
 H(Fragment=2)         21.62     20.66     13.21 
 O(Fragment=2)         20.4      13.11     21.29 
 H(Fragment=2)         19.58     13.01     21.76 
 H(Fragment=2)         20.72     12.22     21.15 
 O(Fragment=2)         15.76     24.64     23.21 
 H(Fragment=2)         15.76     25.6      23.18 
 H(Fragment=2)         15.8      24.43     24.14 
 O(Fragment=2)         26.71     18.07     18.88 
 H(Fragment=2)         27.04     17.18     18.72 
 H(Fragment=2)         27.11     18.6      18.19 
 O(Fragment=2)         24.81     19.25     13.92 
 H(Fragment=2)         24.79     19.07     14.86 
 H(Fragment=2)         25.5      19.9      13.81 
 O(Fragment=2)         13.13     21.36     18.42 
 H(Fragment=2)         13.13     21.8      19.27 
 H(Fragment=2)         12.28     21.57     18.03 
 O(Fragment=2)         21.8      16.36     26.87 
 H(Fragment=2)         21.11     16.37     26.21 
 H(Fragment=2)         22.25     17.2      26.76 
 O(Fragment=2)         25.86     14.59     20.21 
 H(Fragment=2)         24.95     14.68     20.51 
 H(Fragment=2)         25.94     13.68     19.94 
 O(Fragment=2)         15.51     18.6      14.43 
 H(Fragment=2)         15.       17.81     14.22 
 H(Fragment=2)         15.13     19.29     13.89 
 O(Fragment=2)         12.74     18.77     20.52 
 H(Fragment=2)         12.43     18.52     21.4 
 H(Fragment=2)         11.97     19.18     20.11 
 O(Fragment=2)         22.62     13.41     17.92 
 H(Fragment=2)         23.54     13.15     17.9 
 H(Fragment=2)         22.13     12.6      17.77 
 O(Fragment=2)         14.05     25.38     18.42 
 H(Fragment=2)         14.77     25.13     19. 
 H(Fragment=2)         13.28     25.35     18.98 
 O(Fragment=2)         22.92     26.66     18.65 
 H(Fragment=2)         22.64     27.28     19.33 
 H(Fragment=2)         22.65     27.08     17.83 
 O(Fragment=2)         20.72     14.82     14.2 
 H(Fragment=2)         20.38     14.       14.58 
 H(Fragment=2)         21.49     15.03     14.72 
 O(Fragment=2)         27.92     21.05     20.15 
 H(Fragment=2)         27.43     21.29     19.37 
 H(Fragment=2)         27.45     21.46     20.87 
 O(Fragment=2)         17.44     23.52     12.88 
 H(Fragment=2)         17.92     22.77     13.23 
 H(Fragment=2)         16.52     23.28     12.95 
 O(Fragment=2)         18.28     17.11     27.65 
 H(Fragment=2)         18.17     16.71     26.78 
 H(Fragment=2)         17.39     17.31     27.93 
 O(Fragment=2)         25.38     25.91     17.16 
 H(Fragment=2)         25.37     25.04     17.56 
 H(Fragment=2)         24.47     26.21     17.23 
 O(Fragment=2)         26.17     26.02     20.26 
 H(Fragment=2)         25.61     25.37     19.86 
 H(Fragment=2)         26.98     25.99     19.75 
 O(Fragment=2)         16.33     15.83     13.53 
 H(Fragment=2)         16.77     15.26     12.91 
 H(Fragment=2)         16.98     16.5      13.74 
 O(Fragment=2)         25.15     21.8      26.79 
 H(Fragment=2)         25.18     21.25     27.57 
 H(Fragment=2)         24.37     21.49     26.32 
 O(Fragment=2)         23.72     25.72     14.84 
 H(Fragment=2)         23.58     24.78     14.92 
 H(Fragment=2)         24.45     25.9      15.44 
 O(Fragment=2)         14.6      13.74     17.99 
 H(Fragment=2)         14.48     14.67     18.22 
 H(Fragment=2)         14.32     13.26     18.77 
 O(Fragment=2)         12.99     20.38     25.49 
 H(Fragment=2)         13.69     20.35     24.83 
 H(Fragment=2)         12.5      21.18     25.29 
 O(Fragment=2)         27.24     16.14     22.11 
 H(Fragment=2)         26.57     15.72     21.57 
 H(Fragment=2)         27.43     16.97     21.68 
 O(Fragment=2)         19.26     26.43     25.62 
 H(Fragment=2)         19.67     25.58     25.74 
 H(Fragment=2)         19.22     26.56     24.67 
 O(Fragment=2)         16.02     23.36     26.17 
 H(Fragment=2)         16.9      23.52     26.52 
 H(Fragment=2)         15.44     23.85     26.74 
 O(Fragment=2)         19.73     12.71     15.66 
 H(Fragment=2)         19.14     12.81     16.41 
 H(Fragment=2)         20.11     11.84     15.77 
 O(Fragment=2)         24.29     15.19     25.64 
 H(Fragment=2)         23.83     14.46     26.07 
 H(Fragment=2)         23.83     15.97     25.93 
 O(Fragment=2)         28.46     18.88     21.72 
 H(Fragment=2)         29.26     18.64     21.27 
 H(Fragment=2)         28.04     19.53     21.16 
 O(Fragment=2)         24.49     27.01     23.62 
 H(Fragment=2)         24.18     27.67     23. 
 H(Fragment=2)         24.36     26.18     23.16 
 O(Fragment=2)         14.96     25.3      15.54 
 H(Fragment=2)         14.66     24.39     15.55 
 H(Fragment=2)         14.61     25.68     16.34 
 O(Fragment=2)         16.09     28.19     18.57 
 H(Fragment=2)         16.56     27.35     18.47 
 H(Fragment=2)         15.49     28.21     17.82 
 O(Fragment=2)         19.89     12.79     25.74 
 H(Fragment=2)         18.96     12.94     25.93 
 H(Fragment=2)         20.13     13.52     25.16 
 O(Fragment=2)         21.91     23.82     28.01 
 H(Fragment=2)         21.26     23.68     27.32 
 H(Fragment=2)         22.57     24.38     27.61 
 O(Fragment=2)         15.82     18.03     27.59 
 H(Fragment=2)         16.04     18.88     27.22 
 H(Fragment=2)         15.33     18.23     28.38 
 O(Fragment=2)         25.09     13.74     23.54 
 H(Fragment=2)         24.95     14.25     24.34 
 H(Fragment=2)         24.2      13.58     23.21 
 O(Fragment=2)         12.48     20.16     14.84 
 H(Fragment=2)         13.27     20.23     14.3 
 H(Fragment=2)         12.79     19.8      15.67 
 O(Fragment=2)         21.07     17.61     11.09 
 H(Fragment=2)         21.2      18.2      11.83 
 H(Fragment=2)         20.14     17.66     10.91 
 O(Fragment=2)         20.51     24.35     11.82 
 H(Fragment=2)         20.26     24.32     12.74 
 H(Fragment=2)         20.03     23.62     11.42 
 O(Fragment=2)         17.82     11.6      20.68 
 H(Fragment=2)         17.74     11.59     21.63 
 H(Fragment=2)         18.76     11.65     20.51 
 O(Fragment=2)         14.68     16.47     25.57 
 H(Fragment=2)         15.12     16.86     26.33 
 H(Fragment=2)         13.76     16.42     25.83 
 O(Fragment=2)         24.52     16.65     12.92 
 H(Fragment=2)         24.29     16.08     13.66 
 H(Fragment=2)         24.7      17.5      13.32 
 O(Fragment=2)         27.58     23.76     21.57 
 H(Fragment=2)         27.62     24.38     22.3 
 H(Fragment=2)         27.61     24.3      20.79 
 O(Fragment=2)         27.82     19.32     16.47 
 H(Fragment=2)         28.77     19.22     16.5 
 H(Fragment=2)         27.68     20.12     15.95 
 O(Fragment=2)         23.78     22.88     11.85 
 H(Fragment=2)         23.57     23.81     11.74 
 H(Fragment=2)         23.02     22.52     12.32 
 O(Fragment=2)         12.15     18.13     23.06 
 H(Fragment=2)         12.       18.52     23.92 
 H(Fragment=2)         11.52     17.41     23.02 
 O(Fragment=2)         12.39     22.87     24.52 
 H(Fragment=2)         11.99     23.48     25.13 
 H(Fragment=2)         13.27     23.21     24.38 
 O(Fragment=2)         11.88     24.65     20.53 
 H(Fragment=2)         12.33     24.84     21.36 
 H(Fragment=2)         12.24     23.81     20.25 
 O(Fragment=2)         17.54     13.77     26.92 
 H(Fragment=2)         17.68     14.46     26.28 
 H(Fragment=2)         16.62     13.53     26.82 
 O(Fragment=2)         11.81     16.09     16.74 
 H(Fragment=2)         12.59     16.27     17.28 
 H(Fragment=2)         11.4      16.94     16.62 
 O(Fragment=2)         21.49     27.87     16.39 
 H(Fragment=2)         20.93     27.82     15.61 
 H(Fragment=2)         21.       28.42     17. 
 O(Fragment=2)         15.65     27.34     23.23 
 H(Fragment=2)         16.09     27.56     22.41 
 H(Fragment=2)         14.9      27.93     23.27 
 O(Fragment=2)         14.55     20.5      12.98 
 H(Fragment=2)         14.72     20.26     12.07 
 H(Fragment=2)         14.68     21.45     13.01 
 O(Fragment=2)         24.1      27.87     21.04 
 H(Fragment=2)         24.78     27.6      20.43 
 H(Fragment=2)         24.01     28.82     20.9 
 O(Fragment=2)         19.41     26.9      12.93 
 H(Fragment=2)         19.69     26.23     13.55 
 H(Fragment=2)         19.42     27.71     13.43 
 O(Fragment=2)         18.32     19.82     10.19 
 H(Fragment=2)         18.43     19.71     11.13 
 H(Fragment=2)         17.75     20.58     10.1 
 O(Fragment=2)         26.86     16.08     24.99 
 H(Fragment=2)         27.07     15.93     24.07 
 H(Fragment=2)         26.03     15.62     25.12 
 O(Fragment=2)         18.       23.61     28.24 
 H(Fragment=2)         18.39     24.48     28.31 
 H(Fragment=2)         18.4      23.1      28.94 
 O(Fragment=2)         24.88     12.19     19.64 
 H(Fragment=2)         25.24     12.12     18.76 
 H(Fragment=2)         24.37     11.38     19.75 
 O(Fragment=2)         20.62     29.39     18.47 
 H(Fragment=2)         20.18     29.2      19.3 
 H(Fragment=2)         20.72     30.34     18.47 
 O(Fragment=2)         27.14     23.65     25.89 
 H(Fragment=2)         26.41     23.02     25.95 
 H(Fragment=2)         27.85     23.15     25.49 
 O(Fragment=2)         12.65     13.99     23.57 
 H(Fragment=2)         12.41     14.28     24.45 
 H(Fragment=2)         13.05     14.75     23.16 
 O(Fragment=2)         27.37     15.8      16.25 
 H(Fragment=2)         26.8      15.5      15.54 
 H(Fragment=2)         28.16     16.1      15.81 
 O(Fragment=2)         18.61     14.03     12.16 
 H(Fragment=2)         19.35     14.19     12.75 
 H(Fragment=2)         18.99     14.12     11.28 
 O(Fragment=2)         27.08     20.75     13.9 
 H(Fragment=2)         28.02     20.62     13.76 
 H(Fragment=2)         26.92     21.66     13.65 
 
 NAtoms=    385 NQM=      385 NQMF=       0 NMMI=      0 NMMIF=      0
                NMic=       0 NMicF=      0.
                    Isotopes and Nuclear Properties:
 (Nuclear quadrupole moments (NQMom) in fm**2, nuclear magnetic moments (NMagM)
  in nuclear magnetons)

  Atom         1           2           3           4           5           6           7           8           9          10
 IAtWgt=          79          16           1           1          16           1           1          16           1           1
 AtmWgt=  78.9183361  15.9949146   1.0078250   1.0078250  15.9949146   1.0078250   1.0078250  15.9949146   1.0078250   1.0078250
 NucSpn=           3           0           1           1           0           1           1           0           1           1
 AtZEff=   0.0000000   0.0000000   0.0000000   0.0000000   0.0000000   0.0000000   0.0000000   0.0000000   0.0000000   0.0000000
 NQMom=   31.3000000   0.0000000   0.0000000   0.0000000   0.0000000   0.0000000   0.0000000   0.0000000   0.0000000   0.0000000
 NMagM=    2.1063990   0.0000000   2.7928460   2.7928460   0.0000000   2.7928460   2.7928460   0.0000000   2.7928460   2.7928460
 AtZNuc=  35.0000000   8.0000000   1.0000000   1.0000000   8.0000000   1.0000000   1.0000000   8.0000000   1.0000000   1.0000000

  Atom        11          12          13          14          15          16          17          18          19          20
 IAtWgt=          16           1           1          16           1           1          16           1           1          16
 AtmWgt=  15.9949146   1.0078250   1.0078250  15.9949146   1.0078250   1.0078250  15.9949146   1.0078250   1.0078250  15.9949146
 NucSpn=           0           1           1           0           1           1           0           1           1           0
 AtZEff=   0.0000000   0.0000000   0.0000000   0.0000000   0.0000000   0.0000000   0.0000000   0.0000000   0.0000000   0.0000000
 NQMom=    0.0000000   0.0000000   0.0000000   0.0000000   0.0000000   0.0000000   0.0000000   0.0000000   0.0000000   0.0000000
 NMagM=    0.0000000   2.7928460   2.7928460   0.0000000   2.7928460   2.7928460   0.0000000   2.7928460   2.7928460   0.0000000
 AtZNuc=   8.0000000   1.0000000   1.0000000   8.0000000   1.0000000   1.0000000   8.0000000   1.0000000   1.0000000   8.0000000

  Atom        21          22          23          24          25          26          27          28          29          30
 IAtWgt=           1           1          16           1           1          16           1           1          16           1
 AtmWgt=   1.0078250   1.0078250  15.9949146   1.0078250   1.0078250  15.9949146   1.0078250   1.0078250  15.9949146   1.0078250
 NucSpn=           1           1           0           1           1           0           1           1           0           1
 AtZEff=   0.0000000   0.0000000   0.0000000   0.0000000   0.0000000   0.0000000   0.0000000   0.0000000   0.0000000   0.0000000
 NQMom=    0.0000000   0.0000000   0.0000000   0.0000000   0.0000000   0.0000000   0.0000000   0.0000000   0.0000000   0.0000000
 NMagM=    2.7928460   2.7928460   0.0000000   2.7928460   2.7928460   0.0000000   2.7928460   2.7928460   0.0000000   2.7928460
 AtZNuc=   1.0000000   1.0000000   8.0000000   1.0000000   1.0000000   8.0000000   1.0000000   1.0000000   8.0000000   1.0000000

  Atom        31          32          33          34          35          36          37          38          39          40
 IAtWgt=           1          16           1           1          16           1           1          16           1           1
 AtmWgt=   1.0078250  15.9949146   1.0078250   1.0078250  15.9949146   1.0078250   1.0078250  15.9949146   1.0078250   1.0078250
 NucSpn=           1           0           1           1           0           1           1           0           1           1
 AtZEff=   0.0000000   0.0000000   0.0000000   0.0000000   0.0000000   0.0000000   0.0000000   0.0000000   0.0000000   0.0000000
 NQMom=    0.0000000   0.0000000   0.0000000   0.0000000   0.0000000   0.0000000   0.0000000   0.0000000   0.0000000   0.0000000
 NMagM=    2.7928460   0.0000000   2.7928460   2.7928460   0.0000000   2.7928460   2.7928460   0.0000000   2.7928460   2.7928460
 AtZNuc=   1.0000000   8.0000000   1.0000000   1.0000000   8.0000000   1.0000000   1.0000000   8.0000000   1.0000000   1.0000000

  Atom        41          42          43          44          45          46          47          48          49          50
 IAtWgt=          16           1           1          16           1           1          16           1           1          16
 AtmWgt=  15.9949146   1.0078250   1.0078250  15.9949146   1.0078250   1.0078250  15.9949146   1.0078250   1.0078250  15.9949146
 NucSpn=           0           1           1           0           1           1           0           1           1           0
 AtZEff=   0.0000000   0.0000000   0.0000000   0.0000000   0.0000000   0.0000000   0.0000000   0.0000000   0.0000000   0.0000000
 NQMom=    0.0000000   0.0000000   0.0000000   0.0000000   0.0000000   0.0000000   0.0000000   0.0000000   0.0000000   0.0000000
 NMagM=    0.0000000   2.7928460   2.7928460   0.0000000   2.7928460   2.7928460   0.0000000   2.7928460   2.7928460   0.0000000
 AtZNuc=   8.0000000   1.0000000   1.0000000   8.0000000   1.0000000   1.0000000   8.0000000   1.0000000   1.0000000   8.0000000

  Atom        51          52          53          54          55          56          57          58          59          60
 IAtWgt=           1           1          16           1           1          16           1           1          16           1
 AtmWgt=   1.0078250   1.0078250  15.9949146   1.0078250   1.0078250  15.9949146   1.0078250   1.0078250  15.9949146   1.0078250
 NucSpn=           1           1           0           1           1           0           1           1           0           1
 AtZEff=   0.0000000   0.0000000   0.0000000   0.0000000   0.0000000   0.0000000   0.0000000   0.0000000   0.0000000   0.0000000
 NQMom=    0.0000000   0.0000000   0.0000000   0.0000000   0.0000000   0.0000000   0.0000000   0.0000000   0.0000000   0.0000000
 NMagM=    2.7928460   2.7928460   0.0000000   2.7928460   2.7928460   0.0000000   2.7928460   2.7928460   0.0000000   2.7928460
 AtZNuc=   1.0000000   1.0000000   8.0000000   1.0000000   1.0000000   8.0000000   1.0000000   1.0000000   8.0000000   1.0000000

  Atom        61          62          63          64          65          66          67          68          69          70
 IAtWgt=           1          16           1           1          16           1           1          16           1           1
 AtmWgt=   1.0078250  15.9949146   1.0078250   1.0078250  15.9949146   1.0078250   1.0078250  15.9949146   1.0078250   1.0078250
 NucSpn=           1           0           1           1           0           1           1           0           1           1
 AtZEff=   0.0000000   0.0000000   0.0000000   0.0000000   0.0000000   0.0000000   0.0000000   0.0000000   0.0000000   0.0000000
 NQMom=    0.0000000   0.0000000   0.0000000   0.0000000   0.0000000   0.0000000   0.0000000   0.0000000   0.0000000   0.0000000
 NMagM=    2.7928460   0.0000000   2.7928460   2.7928460   0.0000000   2.7928460   2.7928460   0.0000000   2.7928460   2.7928460
 AtZNuc=   1.0000000   8.0000000   1.0000000   1.0000000   8.0000000   1.0000000   1.0000000   8.0000000   1.0000000   1.0000000

  Atom        71          72          73          74          75          76          77          78          79          80
 IAtWgt=          16           1           1          16           1           1          16           1           1          16
 AtmWgt=  15.9949146   1.0078250   1.0078250  15.9949146   1.0078250   1.0078250  15.9949146   1.0078250   1.0078250  15.9949146
 NucSpn=           0           1           1           0           1           1           0           1           1           0
 AtZEff=   0.0000000   0.0000000   0.0000000   0.0000000   0.0000000   0.0000000   0.0000000   0.0000000   0.0000000   0.0000000
 NQMom=    0.0000000   0.0000000   0.0000000   0.0000000   0.0000000   0.0000000   0.0000000   0.0000000   0.0000000   0.0000000
 NMagM=    0.0000000   2.7928460   2.7928460   0.0000000   2.7928460   2.7928460   0.0000000   2.7928460   2.7928460   0.0000000
 AtZNuc=   8.0000000   1.0000000   1.0000000   8.0000000   1.0000000   1.0000000   8.0000000   1.0000000   1.0000000   8.0000000

  Atom        81          82          83          84          85          86          87          88          89          90
 IAtWgt=           1           1          16           1           1          16           1           1          16           1
 AtmWgt=   1.0078250   1.0078250  15.9949146   1.0078250   1.0078250  15.9949146   1.0078250   1.0078250  15.9949146   1.0078250
 NucSpn=           1           1           0           1           1           0           1           1           0           1
 AtZEff=   0.0000000   0.0000000   0.0000000   0.0000000   0.0000000   0.0000000   0.0000000   0.0000000   0.0000000   0.0000000
 NQMom=    0.0000000   0.0000000   0.0000000   0.0000000   0.0000000   0.0000000   0.0000000   0.0000000   0.0000000   0.0000000
 NMagM=    2.7928460   2.7928460   0.0000000   2.7928460   2.7928460   0.0000000   2.7928460   2.7928460   0.0000000   2.7928460
 AtZNuc=   1.0000000   1.0000000   8.0000000   1.0000000   1.0000000   8.0000000   1.0000000   1.0000000   8.0000000   1.0000000

  Atom        91          92          93          94          95          96          97          98          99         100
 IAtWgt=           1          16           1           1          16           1           1          16           1           1
 AtmWgt=   1.0078250  15.9949146   1.0078250   1.0078250  15.9949146   1.0078250   1.0078250  15.9949146   1.0078250   1.0078250
 NucSpn=           1           0           1           1           0           1           1           0           1           1
 AtZEff=   0.0000000   0.0000000   0.0000000   0.0000000   0.0000000   0.0000000   0.0000000   0.0000000   0.0000000   0.0000000
 NQMom=    0.0000000   0.0000000   0.0000000   0.0000000   0.0000000   0.0000000   0.0000000   0.0000000   0.0000000   0.0000000
 NMagM=    2.7928460   0.0000000   2.7928460   2.7928460   0.0000000   2.7928460   2.7928460   0.0000000   2.7928460   2.7928460
 AtZNuc=   1.0000000   8.0000000   1.0000000   1.0000000   8.0000000   1.0000000   1.0000000   8.0000000   1.0000000   1.0000000

  Atom       101         102         103         104         105         106         107         108         109         110
 IAtWgt=          16           1           1          16           1           1          16           1           1          16
 AtmWgt=  15.9949146   1.0078250   1.0078250  15.9949146   1.0078250   1.0078250  15.9949146   1.0078250   1.0078250  15.9949146
 NucSpn=           0           1           1           0           1           1           0           1           1           0
 AtZEff=   0.0000000   0.0000000   0.0000000   0.0000000   0.0000000   0.0000000   0.0000000   0.0000000   0.0000000   0.0000000
 NQMom=    0.0000000   0.0000000   0.0000000   0.0000000   0.0000000   0.0000000   0.0000000   0.0000000   0.0000000   0.0000000
 NMagM=    0.0000000   2.7928460   2.7928460   0.0000000   2.7928460   2.7928460   0.0000000   2.7928460   2.7928460   0.0000000
 AtZNuc=   8.0000000   1.0000000   1.0000000   8.0000000   1.0000000   1.0000000   8.0000000   1.0000000   1.0000000   8.0000000

  Atom       111         112         113         114         115         116         117         118         119         120
 IAtWgt=           1           1          16           1           1          16           1           1          16           1
 AtmWgt=   1.0078250   1.0078250  15.9949146   1.0078250   1.0078250  15.9949146   1.0078250   1.0078250  15.9949146   1.0078250
 NucSpn=           1           1           0           1           1           0           1           1           0           1
 AtZEff=   0.0000000   0.0000000   0.0000000   0.0000000   0.0000000   0.0000000   0.0000000   0.0000000   0.0000000   0.0000000
 NQMom=    0.0000000   0.0000000   0.0000000   0.0000000   0.0000000   0.0000000   0.0000000   0.0000000   0.0000000   0.0000000
 NMagM=    2.7928460   2.7928460   0.0000000   2.7928460   2.7928460   0.0000000   2.7928460   2.7928460   0.0000000   2.7928460
 AtZNuc=   1.0000000   1.0000000   8.0000000   1.0000000   1.0000000   8.0000000   1.0000000   1.0000000   8.0000000   1.0000000

  Atom       121         122         123         124         125         126         127         128         129         130
 IAtWgt=           1          16           1           1          16           1           1          16           1           1
 AtmWgt=   1.0078250  15.9949146   1.0078250   1.0078250  15.9949146   1.0078250   1.0078250  15.9949146   1.0078250   1.0078250
 NucSpn=           1           0           1           1           0           1           1           0           1           1
 AtZEff=   0.0000000   0.0000000   0.0000000   0.0000000   0.0000000   0.0000000   0.0000000   0.0000000   0.0000000   0.0000000
 NQMom=    0.0000000   0.0000000   0.0000000   0.0000000   0.0000000   0.0000000   0.0000000   0.0000000   0.0000000   0.0000000
 NMagM=    2.7928460   0.0000000   2.7928460   2.7928460   0.0000000   2.7928460   2.7928460   0.0000000   2.7928460   2.7928460
 AtZNuc=   1.0000000   8.0000000   1.0000000   1.0000000   8.0000000   1.0000000   1.0000000   8.0000000   1.0000000   1.0000000

  Atom       131         132         133         134         135         136         137         138         139         140
 IAtWgt=          16           1           1          16           1           1          16           1           1          16
 AtmWgt=  15.9949146   1.0078250   1.0078250  15.9949146   1.0078250   1.0078250  15.9949146   1.0078250   1.0078250  15.9949146
 NucSpn=           0           1           1           0           1           1           0           1           1           0
 AtZEff=   0.0000000   0.0000000   0.0000000   0.0000000   0.0000000   0.0000000   0.0000000   0.0000000   0.0000000   0.0000000
 NQMom=    0.0000000   0.0000000   0.0000000   0.0000000   0.0000000   0.0000000   0.0000000   0.0000000   0.0000000   0.0000000
 NMagM=    0.0000000   2.7928460   2.7928460   0.0000000   2.7928460   2.7928460   0.0000000   2.7928460   2.7928460   0.0000000
 AtZNuc=   8.0000000   1.0000000   1.0000000   8.0000000   1.0000000   1.0000000   8.0000000   1.0000000   1.0000000   8.0000000

  Atom       141         142         143         144         145         146         147         148         149         150
 IAtWgt=           1           1          16           1           1          16           1           1          16           1
 AtmWgt=   1.0078250   1.0078250  15.9949146   1.0078250   1.0078250  15.9949146   1.0078250   1.0078250  15.9949146   1.0078250
 NucSpn=           1           1           0           1           1           0           1           1           0           1
 AtZEff=   0.0000000   0.0000000   0.0000000   0.0000000   0.0000000   0.0000000   0.0000000   0.0000000   0.0000000   0.0000000
 NQMom=    0.0000000   0.0000000   0.0000000   0.0000000   0.0000000   0.0000000   0.0000000   0.0000000   0.0000000   0.0000000
 NMagM=    2.7928460   2.7928460   0.0000000   2.7928460   2.7928460   0.0000000   2.7928460   2.7928460   0.0000000   2.7928460
 AtZNuc=   1.0000000   1.0000000   8.0000000   1.0000000   1.0000000   8.0000000   1.0000000   1.0000000   8.0000000   1.0000000

  Atom       151         152         153         154         155         156         157         158         159         160
 IAtWgt=           1          16           1           1          16           1           1          16           1           1
 AtmWgt=   1.0078250  15.9949146   1.0078250   1.0078250  15.9949146   1.0078250   1.0078250  15.9949146   1.0078250   1.0078250
 NucSpn=           1           0           1           1           0           1           1           0           1           1
 AtZEff=   0.0000000   0.0000000   0.0000000   0.0000000   0.0000000   0.0000000   0.0000000   0.0000000   0.0000000   0.0000000
 NQMom=    0.0000000   0.0000000   0.0000000   0.0000000   0.0000000   0.0000000   0.0000000   0.0000000   0.0000000   0.0000000
 NMagM=    2.7928460   0.0000000   2.7928460   2.7928460   0.0000000   2.7928460   2.7928460   0.0000000   2.7928460   2.7928460
 AtZNuc=   1.0000000   8.0000000   1.0000000   1.0000000   8.0000000   1.0000000   1.0000000   8.0000000   1.0000000   1.0000000

  Atom       161         162         163         164         165         166         167         168         169         170
 IAtWgt=          16           1           1          16           1           1          16           1           1          16
 AtmWgt=  15.9949146   1.0078250   1.0078250  15.9949146   1.0078250   1.0078250  15.9949146   1.0078250   1.0078250  15.9949146
 NucSpn=           0           1           1           0           1           1           0           1           1           0
 AtZEff=   0.0000000   0.0000000   0.0000000   0.0000000   0.0000000   0.0000000   0.0000000   0.0000000   0.0000000   0.0000000
 NQMom=    0.0000000   0.0000000   0.0000000   0.0000000   0.0000000   0.0000000   0.0000000   0.0000000   0.0000000   0.0000000
 NMagM=    0.0000000   2.7928460   2.7928460   0.0000000   2.7928460   2.7928460   0.0000000   2.7928460   2.7928460   0.0000000
 AtZNuc=   8.0000000   1.0000000   1.0000000   8.0000000   1.0000000   1.0000000   8.0000000   1.0000000   1.0000000   8.0000000

  Atom       171         172         173         174         175         176         177         178         179         180
 IAtWgt=           1           1          16           1           1          16           1           1          16           1
 AtmWgt=   1.0078250   1.0078250  15.9949146   1.0078250   1.0078250  15.9949146   1.0078250   1.0078250  15.9949146   1.0078250
 NucSpn=           1           1           0           1           1           0           1           1           0           1
 AtZEff=   0.0000000   0.0000000   0.0000000   0.0000000   0.0000000   0.0000000   0.0000000   0.0000000   0.0000000   0.0000000
 NQMom=    0.0000000   0.0000000   0.0000000   0.0000000   0.0000000   0.0000000   0.0000000   0.0000000   0.0000000   0.0000000
 NMagM=    2.7928460   2.7928460   0.0000000   2.7928460   2.7928460   0.0000000   2.7928460   2.7928460   0.0000000   2.7928460
 AtZNuc=   1.0000000   1.0000000   8.0000000   1.0000000   1.0000000   8.0000000   1.0000000   1.0000000   8.0000000   1.0000000

  Atom       181         182         183         184         185         186         187         188         189         190
 IAtWgt=           1          16           1           1          16           1           1          16           1           1
 AtmWgt=   1.0078250  15.9949146   1.0078250   1.0078250  15.9949146   1.0078250   1.0078250  15.9949146   1.0078250   1.0078250
 NucSpn=           1           0           1           1           0           1           1           0           1           1
 AtZEff=   0.0000000   0.0000000   0.0000000   0.0000000   0.0000000   0.0000000   0.0000000   0.0000000   0.0000000   0.0000000
 NQMom=    0.0000000   0.0000000   0.0000000   0.0000000   0.0000000   0.0000000   0.0000000   0.0000000   0.0000000   0.0000000
 NMagM=    2.7928460   0.0000000   2.7928460   2.7928460   0.0000000   2.7928460   2.7928460   0.0000000   2.7928460   2.7928460
 AtZNuc=   1.0000000   8.0000000   1.0000000   1.0000000   8.0000000   1.0000000   1.0000000   8.0000000   1.0000000   1.0000000

  Atom       191         192         193         194         195         196         197         198         199         200
 IAtWgt=          16           1           1          16           1           1          16           1           1          16
 AtmWgt=  15.9949146   1.0078250   1.0078250  15.9949146   1.0078250   1.0078250  15.9949146   1.0078250   1.0078250  15.9949146
 NucSpn=           0           1           1           0           1           1           0           1           1           0
 AtZEff=   0.0000000   0.0000000   0.0000000   0.0000000   0.0000000   0.0000000   0.0000000   0.0000000   0.0000000   0.0000000
 NQMom=    0.0000000   0.0000000   0.0000000   0.0000000   0.0000000   0.0000000   0.0000000   0.0000000   0.0000000   0.0000000
 NMagM=    0.0000000   2.7928460   2.7928460   0.0000000   2.7928460   2.7928460   0.0000000   2.7928460   2.7928460   0.0000000
 AtZNuc=   8.0000000   1.0000000   1.0000000   8.0000000   1.0000000   1.0000000   8.0000000   1.0000000   1.0000000   8.0000000

  Atom       201         202         203         204         205         206         207         208         209         210
 IAtWgt=           1           1          16           1           1          16           1           1          16           1
 AtmWgt=   1.0078250   1.0078250  15.9949146   1.0078250   1.0078250  15.9949146   1.0078250   1.0078250  15.9949146   1.0078250
 NucSpn=           1           1           0           1           1           0           1           1           0           1
 AtZEff=   0.0000000   0.0000000   0.0000000   0.0000000   0.0000000   0.0000000   0.0000000   0.0000000   0.0000000   0.0000000
 NQMom=    0.0000000   0.0000000   0.0000000   0.0000000   0.0000000   0.0000000   0.0000000   0.0000000   0.0000000   0.0000000
 NMagM=    2.7928460   2.7928460   0.0000000   2.7928460   2.7928460   0.0000000   2.7928460   2.7928460   0.0000000   2.7928460
 AtZNuc=   1.0000000   1.0000000   8.0000000   1.0000000   1.0000000   8.0000000   1.0000000   1.0000000   8.0000000   1.0000000

  Atom       211         212         213         214         215         216         217         218         219         220
 IAtWgt=           1          16           1           1          16           1           1          16           1           1
 AtmWgt=   1.0078250  15.9949146   1.0078250   1.0078250  15.9949146   1.0078250   1.0078250  15.9949146   1.0078250   1.0078250
 NucSpn=           1           0           1           1           0           1           1           0           1           1
 AtZEff=   0.0000000   0.0000000   0.0000000   0.0000000   0.0000000   0.0000000   0.0000000   0.0000000   0.0000000   0.0000000
 NQMom=    0.0000000   0.0000000   0.0000000   0.0000000   0.0000000   0.0000000   0.0000000   0.0000000   0.0000000   0.0000000
 NMagM=    2.7928460   0.0000000   2.7928460   2.7928460   0.0000000   2.7928460   2.7928460   0.0000000   2.7928460   2.7928460
 AtZNuc=   1.0000000   8.0000000   1.0000000   1.0000000   8.0000000   1.0000000   1.0000000   8.0000000   1.0000000   1.0000000

  Atom       221         222         223         224         225         226         227         228         229         230
 IAtWgt=          16           1           1          16           1           1          16           1           1          16
 AtmWgt=  15.9949146   1.0078250   1.0078250  15.9949146   1.0078250   1.0078250  15.9949146   1.0078250   1.0078250  15.9949146
 NucSpn=           0           1           1           0           1           1           0           1           1           0
 AtZEff=   0.0000000   0.0000000   0.0000000   0.0000000   0.0000000   0.0000000   0.0000000   0.0000000   0.0000000   0.0000000
 NQMom=    0.0000000   0.0000000   0.0000000   0.0000000   0.0000000   0.0000000   0.0000000   0.0000000   0.0000000   0.0000000
 NMagM=    0.0000000   2.7928460   2.7928460   0.0000000   2.7928460   2.7928460   0.0000000   2.7928460   2.7928460   0.0000000
 AtZNuc=   8.0000000   1.0000000   1.0000000   8.0000000   1.0000000   1.0000000   8.0000000   1.0000000   1.0000000   8.0000000

  Atom       231         232         233         234         235         236         237         238         239         240
 IAtWgt=           1           1          16           1           1          16           1           1          16           1
 AtmWgt=   1.0078250   1.0078250  15.9949146   1.0078250   1.0078250  15.9949146   1.0078250   1.0078250  15.9949146   1.0078250
 NucSpn=           1           1           0           1           1           0           1           1           0           1
 AtZEff=   0.0000000   0.0000000   0.0000000   0.0000000   0.0000000   0.0000000   0.0000000   0.0000000   0.0000000   0.0000000
 NQMom=    0.0000000   0.0000000   0.0000000   0.0000000   0.0000000   0.0000000   0.0000000   0.0000000   0.0000000   0.0000000
 NMagM=    2.7928460   2.7928460   0.0000000   2.7928460   2.7928460   0.0000000   2.7928460   2.7928460   0.0000000   2.7928460
 AtZNuc=   1.0000000   1.0000000   8.0000000   1.0000000   1.0000000   8.0000000   1.0000000   1.0000000   8.0000000   1.0000000

  Atom       241         242         243         244         245         246         247         248         249         250
 IAtWgt=           1          16           1           1          16           1           1          16           1           1
 AtmWgt=   1.0078250  15.9949146   1.0078250   1.0078250  15.9949146   1.0078250   1.0078250  15.9949146   1.0078250   1.0078250
 NucSpn=           1           0           1           1           0           1           1           0           1           1
 AtZEff=   0.0000000   0.0000000   0.0000000   0.0000000   0.0000000   0.0000000   0.0000000   0.0000000   0.0000000   0.0000000
 NQMom=    0.0000000   0.0000000   0.0000000   0.0000000   0.0000000   0.0000000   0.0000000   0.0000000   0.0000000   0.0000000
 NMagM=    2.7928460   0.0000000   2.7928460   2.7928460   0.0000000   2.7928460   2.7928460   0.0000000   2.7928460   2.7928460
 AtZNuc=   1.0000000   8.0000000   1.0000000   1.0000000   8.0000000   1.0000000   1.0000000   8.0000000   1.0000000   1.0000000

  Atom       251         252         253         254         255         256         257         258         259         260
 IAtWgt=          16           1           1          16           1           1          16           1           1          16
 AtmWgt=  15.9949146   1.0078250   1.0078250  15.9949146   1.0078250   1.0078250  15.9949146   1.0078250   1.0078250  15.9949146
 NucSpn=           0           1           1           0           1           1           0           1           1           0
 AtZEff=   0.0000000   0.0000000   0.0000000   0.0000000   0.0000000   0.0000000   0.0000000   0.0000000   0.0000000   0.0000000
 NQMom=    0.0000000   0.0000000   0.0000000   0.0000000   0.0000000   0.0000000   0.0000000   0.0000000   0.0000000   0.0000000
 NMagM=    0.0000000   2.7928460   2.7928460   0.0000000   2.7928460   2.7928460   0.0000000   2.7928460   2.7928460   0.0000000
 AtZNuc=   8.0000000   1.0000000   1.0000000   8.0000000   1.0000000   1.0000000   8.0000000   1.0000000   1.0000000   8.0000000

  Atom       261         262         263         264         265         266         267         268         269         270
 IAtWgt=           1           1          16           1           1          16           1           1          16           1
 AtmWgt=   1.0078250   1.0078250  15.9949146   1.0078250   1.0078250  15.9949146   1.0078250   1.0078250  15.9949146   1.0078250
 NucSpn=           1           1           0           1           1           0           1           1           0           1
 AtZEff=   0.0000000   0.0000000   0.0000000   0.0000000   0.0000000   0.0000000   0.0000000   0.0000000   0.0000000   0.0000000
 NQMom=    0.0000000   0.0000000   0.0000000   0.0000000   0.0000000   0.0000000   0.0000000   0.0000000   0.0000000   0.0000000
 NMagM=    2.7928460   2.7928460   0.0000000   2.7928460   2.7928460   0.0000000   2.7928460   2.7928460   0.0000000   2.7928460
 AtZNuc=   1.0000000   1.0000000   8.0000000   1.0000000   1.0000000   8.0000000   1.0000000   1.0000000   8.0000000   1.0000000

  Atom       271         272         273         274         275         276         277         278         279         280
 IAtWgt=           1          16           1           1          16           1           1          16           1           1
 AtmWgt=   1.0078250  15.9949146   1.0078250   1.0078250  15.9949146   1.0078250   1.0078250  15.9949146   1.0078250   1.0078250
 NucSpn=           1           0           1           1           0           1           1           0           1           1
 AtZEff=   0.0000000   0.0000000   0.0000000   0.0000000   0.0000000   0.0000000   0.0000000   0.0000000   0.0000000   0.0000000
 NQMom=    0.0000000   0.0000000   0.0000000   0.0000000   0.0000000   0.0000000   0.0000000   0.0000000   0.0000000   0.0000000
 NMagM=    2.7928460   0.0000000   2.7928460   2.7928460   0.0000000   2.7928460   2.7928460   0.0000000   2.7928460   2.7928460
 AtZNuc=   1.0000000   8.0000000   1.0000000   1.0000000   8.0000000   1.0000000   1.0000000   8.0000000   1.0000000   1.0000000

  Atom       281         282         283         284         285         286         287         288         289         290
 IAtWgt=          16           1           1          16           1           1          16           1           1          16
 AtmWgt=  15.9949146   1.0078250   1.0078250  15.9949146   1.0078250   1.0078250  15.9949146   1.0078250   1.0078250  15.9949146
 NucSpn=           0           1           1           0           1           1           0           1           1           0
 AtZEff=   0.0000000   0.0000000   0.0000000   0.0000000   0.0000000   0.0000000   0.0000000   0.0000000   0.0000000   0.0000000
 NQMom=    0.0000000   0.0000000   0.0000000   0.0000000   0.0000000   0.0000000   0.0000000   0.0000000   0.0000000   0.0000000
 NMagM=    0.0000000   2.7928460   2.7928460   0.0000000   2.7928460   2.7928460   0.0000000   2.7928460   2.7928460   0.0000000
 AtZNuc=   8.0000000   1.0000000   1.0000000   8.0000000   1.0000000   1.0000000   8.0000000   1.0000000   1.0000000   8.0000000

  Atom       291         292         293         294         295         296         297         298         299         300
 IAtWgt=           1           1          16           1           1          16           1           1          16           1
 AtmWgt=   1.0078250   1.0078250  15.9949146   1.0078250   1.0078250  15.9949146   1.0078250   1.0078250  15.9949146   1.0078250
 NucSpn=           1           1           0           1           1           0           1           1           0           1
 AtZEff=   0.0000000   0.0000000   0.0000000   0.0000000   0.0000000   0.0000000   0.0000000   0.0000000   0.0000000   0.0000000
 NQMom=    0.0000000   0.0000000   0.0000000   0.0000000   0.0000000   0.0000000   0.0000000   0.0000000   0.0000000   0.0000000
 NMagM=    2.7928460   2.7928460   0.0000000   2.7928460   2.7928460   0.0000000   2.7928460   2.7928460   0.0000000   2.7928460
 AtZNuc=   1.0000000   1.0000000   8.0000000   1.0000000   1.0000000   8.0000000   1.0000000   1.0000000   8.0000000   1.0000000

  Atom       301         302         303         304         305         306         307         308         309         310
 IAtWgt=           1          16           1           1          16           1           1          16           1           1
 AtmWgt=   1.0078250  15.9949146   1.0078250   1.0078250  15.9949146   1.0078250   1.0078250  15.9949146   1.0078250   1.0078250
 NucSpn=           1           0           1           1           0           1           1           0           1           1
 AtZEff=   0.0000000   0.0000000   0.0000000   0.0000000   0.0000000   0.0000000   0.0000000   0.0000000   0.0000000   0.0000000
 NQMom=    0.0000000   0.0000000   0.0000000   0.0000000   0.0000000   0.0000000   0.0000000   0.0000000   0.0000000   0.0000000
 NMagM=    2.7928460   0.0000000   2.7928460   2.7928460   0.0000000   2.7928460   2.7928460   0.0000000   2.7928460   2.7928460
 AtZNuc=   1.0000000   8.0000000   1.0000000   1.0000000   8.0000000   1.0000000   1.0000000   8.0000000   1.0000000   1.0000000

  Atom       311         312         313         314         315         316         317         318         319         320
 IAtWgt=          16           1           1          16           1           1          16           1           1          16
 AtmWgt=  15.9949146   1.0078250   1.0078250  15.9949146   1.0078250   1.0078250  15.9949146   1.0078250   1.0078250  15.9949146
 NucSpn=           0           1           1           0           1           1           0           1           1           0
 AtZEff=   0.0000000   0.0000000   0.0000000   0.0000000   0.0000000   0.0000000   0.0000000   0.0000000   0.0000000   0.0000000
 NQMom=    0.0000000   0.0000000   0.0000000   0.0000000   0.0000000   0.0000000   0.0000000   0.0000000   0.0000000   0.0000000
 NMagM=    0.0000000   2.7928460   2.7928460   0.0000000   2.7928460   2.7928460   0.0000000   2.7928460   2.7928460   0.0000000
 AtZNuc=   8.0000000   1.0000000   1.0000000   8.0000000   1.0000000   1.0000000   8.0000000   1.0000000   1.0000000   8.0000000

  Atom       321         322         323         324         325         326         327         328         329         330
 IAtWgt=           1           1          16           1           1          16           1           1          16           1
 AtmWgt=   1.0078250   1.0078250  15.9949146   1.0078250   1.0078250  15.9949146   1.0078250   1.0078250  15.9949146   1.0078250
 NucSpn=           1           1           0           1           1           0           1           1           0           1
 AtZEff=   0.0000000   0.0000000   0.0000000   0.0000000   0.0000000   0.0000000   0.0000000   0.0000000   0.0000000   0.0000000
 NQMom=    0.0000000   0.0000000   0.0000000   0.0000000   0.0000000   0.0000000   0.0000000   0.0000000   0.0000000   0.0000000
 NMagM=    2.7928460   2.7928460   0.0000000   2.7928460   2.7928460   0.0000000   2.7928460   2.7928460   0.0000000   2.7928460
 AtZNuc=   1.0000000   1.0000000   8.0000000   1.0000000   1.0000000   8.0000000   1.0000000   1.0000000   8.0000000   1.0000000

  Atom       331         332         333         334         335         336         337         338         339         340
 IAtWgt=           1          16           1           1          16           1           1          16           1           1
 AtmWgt=   1.0078250  15.9949146   1.0078250   1.0078250  15.9949146   1.0078250   1.0078250  15.9949146   1.0078250   1.0078250
 NucSpn=           1           0           1           1           0           1           1           0           1           1
 AtZEff=   0.0000000   0.0000000   0.0000000   0.0000000   0.0000000   0.0000000   0.0000000   0.0000000   0.0000000   0.0000000
 NQMom=    0.0000000   0.0000000   0.0000000   0.0000000   0.0000000   0.0000000   0.0000000   0.0000000   0.0000000   0.0000000
 NMagM=    2.7928460   0.0000000   2.7928460   2.7928460   0.0000000   2.7928460   2.7928460   0.0000000   2.7928460   2.7928460
 AtZNuc=   1.0000000   8.0000000   1.0000000   1.0000000   8.0000000   1.0000000   1.0000000   8.0000000   1.0000000   1.0000000

  Atom       341         342         343         344         345         346         347         348         349         350
 IAtWgt=          16           1           1          16           1           1          16           1           1          16
 AtmWgt=  15.9949146   1.0078250   1.0078250  15.9949146   1.0078250   1.0078250  15.9949146   1.0078250   1.0078250  15.9949146
 NucSpn=           0           1           1           0           1           1           0           1           1           0
 AtZEff=   0.0000000   0.0000000   0.0000000   0.0000000   0.0000000   0.0000000   0.0000000   0.0000000   0.0000000   0.0000000
 NQMom=    0.0000000   0.0000000   0.0000000   0.0000000   0.0000000   0.0000000   0.0000000   0.0000000   0.0000000   0.0000000
 NMagM=    0.0000000   2.7928460   2.7928460   0.0000000   2.7928460   2.7928460   0.0000000   2.7928460   2.7928460   0.0000000
 AtZNuc=   8.0000000   1.0000000   1.0000000   8.0000000   1.0000000   1.0000000   8.0000000   1.0000000   1.0000000   8.0000000

  Atom       351         352         353         354         355         356         357         358         359         360
 IAtWgt=           1           1          16           1           1          16           1           1          16           1
 AtmWgt=   1.0078250   1.0078250  15.9949146   1.0078250   1.0078250  15.9949146   1.0078250   1.0078250  15.9949146   1.0078250
 NucSpn=           1           1           0           1           1           0           1           1           0           1
 AtZEff=   0.0000000   0.0000000   0.0000000   0.0000000   0.0000000   0.0000000   0.0000000   0.0000000   0.0000000   0.0000000
 NQMom=    0.0000000   0.0000000   0.0000000   0.0000000   0.0000000   0.0000000   0.0000000   0.0000000   0.0000000   0.0000000
 NMagM=    2.7928460   2.7928460   0.0000000   2.7928460   2.7928460   0.0000000   2.7928460   2.7928460   0.0000000   2.7928460
 AtZNuc=   1.0000000   1.0000000   8.0000000   1.0000000   1.0000000   8.0000000   1.0000000   1.0000000   8.0000000   1.0000000

  Atom       361         362         363         364         365         366         367         368         369         370
 IAtWgt=           1          16           1           1          16           1           1          16           1           1
 AtmWgt=   1.0078250  15.9949146   1.0078250   1.0078250  15.9949146   1.0078250   1.0078250  15.9949146   1.0078250   1.0078250
 NucSpn=           1           0           1           1           0           1           1           0           1           1
 AtZEff=   0.0000000   0.0000000   0.0000000   0.0000000   0.0000000   0.0000000   0.0000000   0.0000000   0.0000000   0.0000000
 NQMom=    0.0000000   0.0000000   0.0000000   0.0000000   0.0000000   0.0000000   0.0000000   0.0000000   0.0000000   0.0000000
 NMagM=    2.7928460   0.0000000   2.7928460   2.7928460   0.0000000   2.7928460   2.7928460   0.0000000   2.7928460   2.7928460
 AtZNuc=   1.0000000   8.0000000   1.0000000   1.0000000   8.0000000   1.0000000   1.0000000   8.0000000   1.0000000   1.0000000

  Atom       371         372         373         374         375         376         377         378         379         380
 IAtWgt=          16           1           1          16           1           1          16           1           1          16
 AtmWgt=  15.9949146   1.0078250   1.0078250  15.9949146   1.0078250   1.0078250  15.9949146   1.0078250   1.0078250  15.9949146
 NucSpn=           0           1           1           0           1           1           0           1           1           0
 AtZEff=   0.0000000   0.0000000   0.0000000   0.0000000   0.0000000   0.0000000   0.0000000   0.0000000   0.0000000   0.0000000
 NQMom=    0.0000000   0.0000000   0.0000000   0.0000000   0.0000000   0.0000000   0.0000000   0.0000000   0.0000000   0.0000000
 NMagM=    0.0000000   2.7928460   2.7928460   0.0000000   2.7928460   2.7928460   0.0000000   2.7928460   2.7928460   0.0000000
 AtZNuc=   8.0000000   1.0000000   1.0000000   8.0000000   1.0000000   1.0000000   8.0000000   1.0000000   1.0000000   8.0000000

  Atom       381         382         383         384         385
 IAtWgt=           1           1          16           1           1
 AtmWgt=   1.0078250   1.0078250  15.9949146   1.0078250   1.0078250
 NucSpn=           1           1           0           1           1
 AtZEff=   0.0000000   0.0000000   0.0000000   0.0000000   0.0000000
 NQMom=    0.0000000   0.0000000   0.0000000   0.0000000   0.0000000
 NMagM=    2.7928460   2.7928460   0.0000000   2.7928460   2.7928460
 AtZNuc=   1.0000000   1.0000000   8.0000000   1.0000000   1.0000000
 Leave Link  101 at Sat May 12 14:47:06 2018, MaxMem= 14763950080 cpu:       103.1
 (Enter /cm/shared/gaussian/g09.e01/intel64-sandybridge/g09/l103.exe)

 GradGradGradGradGradGradGradGradGradGradGradGradGradGradGradGradGradGrad
 Berny optimization.
 Initialization pass.
 Trust Radius=3.00D-01 FncErr=1.00D-07 GrdErr=1.00D-07
 Number of steps in this run=      2 maximum allowed number of steps=      2.
 GradGradGradGradGradGradGradGradGradGradGradGradGradGradGradGradGradGrad

 Leave Link  103 at Sat May 12 14:47:06 2018, MaxMem= 14763950080 cpu:         3.7
 (Enter /cm/shared/gaussian/g09.e01/intel64-sandybridge/g09/l202.exe)
 Symmetry turned off by external request.
 Stoichiometry    BrH256O128(1-)
 Framework group  C1[X(BrH256O128)]
 Deg. of freedom  1149
 Full point group                 C1      NOp   1
                          Input orientation:                          
 ---------------------------------------------------------------------
 Center     Atomic      Atomic             Coordinates (Angstroms)
 Number     Number       Type             X           Y           Z
 ---------------------------------------------------------------------
      1         35           0       20.000000   20.000000   20.000000
      2          8           0       19.310000   19.580000   23.190000
      3          1           0       18.680000   20.310000   23.230000
      4          1           0       19.640000   19.610000   22.290000
      5          8           0       20.040000   20.480000   16.760000
      6          1           0       19.970000   20.560000   17.710000
      7          1           0       20.030000   21.380000   16.430000
      8          8           0       17.690000   17.480000   20.120000
      9          1           0       16.870000   17.920000   19.910000
     10          1           0       18.360000   18.160000   20.030000
     11          8           0       22.170000   20.610000   22.400000
     12          1           0       22.630000   19.800000   22.610000
     13          1           0       21.320000   20.330000   22.070000
     14          8           0       20.010000   23.210000   20.830000
     15          1           0       19.590000   23.710000   20.140000
     16          1           0       19.630000   22.340000   20.770000
     17          8           0       16.870000   20.990000   18.920000
     18          1           0       17.080000   21.180000   18.000000
     19          1           0       17.660000   20.590000   19.270000
     20          8           0       22.890000   21.240000   18.050000
     21          1           0       22.210000   20.710000   18.460000
     22          1           0       23.690000   21.000000   18.510000
     23          8           0       21.000000   16.810000   21.450000
     24          1           0       20.870000   17.430000   20.730000
     25          1           0       21.010000   15.950000   21.020000
     26          8           0       22.950000   23.020000   20.610000
     27          1           0       22.800000   22.160000   21.000000
     28          1           0       22.080000   23.320000   20.350000
     29          8           0       21.550000   18.160000   16.350000
     30          1           0       22.190000   18.260000   17.060000
     31          1           0       20.870000   18.800000   16.560000
     32          8           0       23.130000   17.660000   18.510000
     33          1           0       23.790000   16.990000   18.300000
     34          1           0       22.310000   17.180000   18.580000
     35          8           0       21.690000   23.950000   17.900000
     36          1           0       22.280000   24.590000   18.300000
     37          1           0       21.830000   23.150000   18.410000
     38          8           0       16.140000   21.300000   21.590000
     39          1           0       16.870000   21.610000   22.130000
     40          1           0       16.330000   21.630000   20.710000
     41          8           0       18.270000   15.970000   17.630000
     42          1           0       17.360000   16.060000   17.350000
     43          1           0       18.350000   16.570000   18.370000
     44          8           0       18.460000   16.240000   22.750000
     45          1           0       17.910000   16.560000   22.020000
     46          1           0       19.330000   16.580000   22.550000
     47          8           0       18.050000   22.320000   23.380000
     48          1           0       17.360000   22.840000   23.790000
     49          1           0       18.550000   22.950000   22.860000
     50          8           0       17.220000   19.940000   16.300000
     51          1           0       16.830000   19.280000   15.740000
     52          1           0       18.140000   19.970000   16.040000
     53          8           0       20.470000   17.410000   24.580000
     54          1           0       21.290000   17.750000   24.930000
     55          1           0       20.170000   18.090000   23.970000
     56          8           0       24.020000   17.330000   21.190000
     57          1           0       23.620000   16.470000   21.130000
     58          1           0       23.780000   17.760000   20.370000
     59          8           0       20.960000   23.880000   23.520000
     60          1           0       20.810000   23.780000   22.580000
     61          1           0       21.900000   23.760000   23.630000
     62          8           0       15.320000   18.560000   19.070000
     63          1           0       14.500000   18.720000   19.530000
     64          1           0       15.520000   19.400000   18.650000
     65          8           0       21.220000   15.660000   18.340000
     66          1           0       21.760000   14.860000   18.290000
     67          1           0       20.330000   15.360000   18.140000
     68          8           0       19.270000   24.700000   18.590000
     69          1           0       18.800000   24.670000   17.760000
     70          1           0       20.190000   24.600000   18.340000
     71          8           0       19.420000   21.310000   25.740000
     72          1           0       18.830000   20.570000   25.880000
     73          1           0       19.310000   21.530000   24.820000
     74          8           0       24.800000   19.080000   16.650000
     75          1           0       25.700000   18.810000   16.830000
     76          1           0       24.330000   18.930000   17.470000
     77          8           0       25.110000   20.480000   19.440000
     78          1           0       25.560000   19.640000   19.300000
     79          1           0       25.140000   20.610000   20.390000
     80          8           0       23.060000   23.230000   15.490000
     81          1           0       22.670000   22.970000   16.330000
     82          1           0       22.480000   22.850000   14.830000
     83          8           0       14.950000   19.510000   23.720000
     84          1           0       15.220000   19.950000   22.920000
     85          1           0       14.400000   18.790000   23.420000
     86          8           0       25.130000   23.810000   18.970000
     87          1           0       24.390000   23.540000   19.510000
     88          1           0       25.130000   23.190000   18.240000
     89          8           0       25.100000   18.570000   23.440000
     90          1           0       25.970000   18.180000   23.460000
     91          1           0       24.650000   18.100000   22.730000
     92          8           0       25.330000   21.160000   22.360000
     93          1           0       24.780000   21.890000   22.630000
     94          1           0       25.050000   20.430000   22.920000
     95          8           0       18.790000   16.850000   14.890000
     96          1           0       18.350000   16.530000   15.670000
     97          1           0       19.500000   16.230000   14.730000
     98          8           0       24.190000   24.900000   21.980000
     99          1           0       24.990000   25.010000   21.470000
    100          1           0       23.720000   24.190000   21.550000
    101          8           0       18.170000   24.210000   16.180000
    102          1           0       17.650000   24.900000   15.780000
    103          1           0       17.880000   23.410000   15.740000
    104          8           0       22.900000   15.830000   15.480000
    105          1           0       23.500000   15.660000   16.200000
    106          1           0       22.380000   16.580000   15.770000
    107          8           0       22.020000   19.070000   13.710000
    108          1           0       22.980000   19.140000   13.700000
    109          1           0       21.830000   18.580000   14.510000
    110          8           0       20.940000   14.880000   23.960000
    111          1           0       20.580000   14.630000   23.110000
    112          1           0       20.560000   15.740000   24.140000
    113          8           0       22.480000   21.150000   25.860000
    114          1           0       22.470000   21.820000   25.180000
    115          1           0       21.570000   21.060000   26.120000
    116          8           0       15.600000   22.520000   16.190000
    117          1           0       15.750000   21.590000   16.010000
    118          1           0       15.010000   22.520000   16.940000
    119          8           0       22.870000   14.570000   20.760000
    120          1           0       21.990000   14.310000   21.030000
    121          1           0       23.120000   13.930000   20.100000
    122          8           0       18.700000   21.700000   14.240000
    123          1           0       18.640000   20.850000   13.800000
    124          1           0       19.550000   22.040000   13.990000
    125          8           0       15.970000   24.630000   20.470000
    126          1           0       15.830000   24.610000   21.410000
    127          1           0       16.730000   25.200000   20.340000
    128          8           0       18.220000   26.440000   20.590000
    129          1           0       18.290000   27.380000   20.430000
    130          1           0       18.770000   26.030000   19.920000
    131          8           0       25.490000   21.900000   16.890000
    132          1           0       25.260000   20.970000   16.950000
    133          1           0       24.690000   22.330000   16.600000
    134          8           0       16.220000   14.820000   20.610000
    135          1           0       15.670000   14.170000   21.040000
    136          1           0       17.120000   14.530000   20.780000
    137          8           0       22.930000   18.500000   25.400000
    138          1           0       22.920000   19.450000   25.540000
    139          1           0       23.680000   18.360000   24.820000
    140          8           0       13.780000   22.610000   20.780000
    141          1           0       14.510000   23.210000   20.660000
    142          1           0       14.130000   21.910000   21.330000
    143          8           0       17.200000   15.790000   25.280000
    144          1           0       16.260000   15.890000   25.420000
    145          1           0       17.360000   16.210000   24.430000
    146          8           0       20.560000   25.280000   14.920000
    147          1           0       20.200000   24.660000   15.560000
    148          1           0       21.370000   25.590000   15.310000
    149          8           0       14.540000   15.910000   22.340000
    150          1           0       15.140000   15.960000   21.590000
    151          1           0       15.090000   16.130000   23.090000
    152          8           0       20.250000   23.990000   26.010000
    153          1           0       19.880000   23.110000   26.100000
    154          1           0       20.380000   24.090000   25.060000
    155          8           0       15.990000   16.320000   16.340000
    156          1           0       15.910000   15.890000   15.490000
    157          1           0       15.490000   17.130000   16.250000
    158          8           0       18.260000   19.220000   13.100000
    159          1           0       17.370000   18.950000   13.300000
    160          1           0       18.810000   18.690000   13.690000
    161          8           0       17.860000   13.490000   23.180000
    162          1           0       17.000000   13.400000   23.590000
    163          1           0       17.900000   14.390000   22.880000
    164          8           0       17.550000   13.350000   17.300000
    165          1           0       17.900000   14.240000   17.400000
    166          1           0       16.610000   13.440000   17.490000
    167          8           0       16.460000   20.500000   25.920000
    168          1           0       15.900000   20.110000   25.250000
    169          1           0       16.270000   21.430000   25.880000
    170          8           0       13.550000   16.190000   18.780000
    171          1           0       14.430000   16.550000   18.790000
    172          1           0       13.310000   16.120000   19.710000
    173          8           0       23.320000   23.550000   24.610000
    174          1           0       24.000000   23.850000   24.010000
    175          1           0       23.570000   23.930000   25.460000
    176          8           0       13.250000   18.920000   17.110000
    177          1           0       13.500000   19.760000   17.500000
    178          1           0       13.830000   18.280000   17.520000
    179          8           0       25.010000   15.820000   17.770000
    180          1           0       25.260000   15.410000   18.600000
    181          1           0       25.740000   15.630000   17.190000
    182          8           0       19.700000   26.800000   23.050000
    183          1           0       20.450000   26.200000   22.990000
    184          1           0       19.220000   26.650000   22.240000
    185          8           0       20.070000   19.520000   27.800000
    186          1           0       20.010000   20.070000   27.010000
    187          1           0       19.650000   18.700000   27.540000
    188          8           0       21.330000   21.490000   12.850000
    189          1           0       21.130000   21.310000   11.930000
    190          1           0       21.620000   20.660000   13.210000
    191          8           0       20.400000   13.110000   21.290000
    192          1           0       19.580000   13.010000   21.760000
    193          1           0       20.720000   12.220000   21.150000
    194          8           0       15.760000   24.640000   23.210000
    195          1           0       15.760000   25.600000   23.180000
    196          1           0       15.800000   24.430000   24.140000
    197          8           0       26.710000   18.070000   18.880000
    198          1           0       27.040000   17.180000   18.720000
    199          1           0       27.110000   18.600000   18.190000
    200          8           0       24.810000   19.250000   13.920000
    201          1           0       24.790000   19.070000   14.860000
    202          1           0       25.500000   19.900000   13.810000
    203          8           0       13.130000   21.360000   18.420000
    204          1           0       13.130000   21.800000   19.270000
    205          1           0       12.280000   21.570000   18.030000
    206          8           0       21.800000   16.360000   26.870000
    207          1           0       21.110000   16.370000   26.210000
[...]
   Z335      50.87143   0.01921   0.00000   0.01312   0.01198  50.88341
   X336      33.41036   0.00069   0.00000  -0.00062  -0.00090  33.40946
   Y336      27.32544   0.01767   0.00000   0.01058   0.00990  27.33534
   Z336      49.66200  -0.01312   0.00000  -0.00203  -0.00309  49.65891
   X337      31.40725  -0.00706   0.00000  -0.00608  -0.00636  31.40089
   Y337      25.56799  -0.00054   0.00000  -0.00059  -0.00136  25.56664
   Z337      50.68245  -0.00284   0.00000  -0.00187  -0.00310  50.67936
   X338      22.31767   0.00060   0.00000  -0.00321  -0.00299  22.31467
   Y338      30.40569  -0.01335   0.00000  -0.00806  -0.00802  30.39768
   Z338      31.63402  -0.00611   0.00000  -0.00858  -0.00983  31.62418
   X339      23.79165  -0.00520   0.00000  -0.01038  -0.01020  23.78145
   Y339      30.74584  -0.00088   0.00000  -0.00383  -0.00381  30.74204
   Z339      32.65447   0.00208   0.00000   0.00348   0.00229  32.65675
   X340      21.54288  -0.00175   0.00000   0.00153   0.00172  21.54460
   Y340      32.01196   0.01394   0.00000   0.01121   0.01126  32.02322
   Z340      31.40725  -0.00065   0.00000   0.00030  -0.00089  31.40636
   X341      40.61021   0.00899   0.00000   0.00593   0.00576  40.61598
   Y341      52.66667  -0.00744   0.00000  -0.00448  -0.00407  52.66260
   Z341      30.97261  -0.00531   0.00000  -0.00199  -0.00154  30.97107
   X342      39.55197   0.00153   0.00000   0.00459   0.00447  39.55644
   Y342      52.57218  -0.00467   0.00000  -0.00853  -0.00806  52.56412
   Z342      29.49862  -0.00378   0.00000  -0.00458  -0.00416  29.49446
   X343      39.68425  -0.00781   0.00000  -0.00519  -0.00542  39.67883
   Y343      53.70602   0.00793   0.00000   0.00427   0.00461  53.71062
   Z343      32.12534   0.01041   0.00000   0.00755   0.00803  32.13338
   X344      29.57421   0.00544   0.00000   0.00533   0.00479  29.57900
   Y344      51.66511  -0.00887   0.00000  -0.00436  -0.00481  51.66031
   Z344      43.89834   0.00565   0.00000   0.00103   0.00110  43.89943
   X345      30.40569   0.00461   0.00000   0.00472   0.00421  30.40991
   Y345      52.08085   0.00519   0.00000   0.00659   0.00623  52.08708
   Z345      42.34876  -0.00906   0.00000  -0.00772  -0.00761  42.34115
   X346      28.15692  -0.00792   0.00000  -0.00469  -0.00525  28.15166
   Y346      52.78005   0.00546   0.00000   0.00225   0.00178  52.78183
   Z346      43.97393  -0.00054   0.00000  -0.00067  -0.00059  43.97334
   X347      27.49552   0.00118   0.00000   0.00261   0.00290  27.49841
   Y347      38.73939   0.00421   0.00000   0.00674   0.00725  38.74663
   Z347      24.52865  -0.00259   0.00000  -0.00793  -0.00860  24.52005
   X348      27.81677  -0.00072   0.00000  -0.00242  -0.00207  27.81469
   Y348      38.28585  -0.00252   0.00000  -0.00156  -0.00096  38.28489
   Z348      22.80899  -0.01135   0.00000  -0.01382  -0.01450  22.79449
   X349      27.74118   0.00120   0.00000   0.00190   0.00215  27.74333
   Y349      40.53463   0.00761   0.00000   0.00995   0.01046  40.54508
   Z349      24.58534   0.00293   0.00000   0.00385   0.00329  24.58863
   X350      45.54240  -0.02425   0.00000  -0.02333  -0.02377  45.51863
   Y350      52.66667   0.01405   0.00000   0.01107   0.01112  52.67779
   Z350      39.75984   0.00515   0.00000  -0.00780  -0.00719  39.75265
   X351      46.82741   0.01768   0.00000   0.01288   0.01248  46.83990
   Y351      52.15644  -0.01062   0.00000  -0.01130  -0.01116  52.14528
   Z351      38.60710  -0.00838   0.00000   0.00164   0.00226  38.60936
   X352      45.37232   0.00275   0.00000   0.00482   0.00436  45.37668
   Y352      54.46191   0.00083   0.00000   0.00766   0.00773  54.46963
   Z352      39.49528  -0.00170   0.00000  -0.00460  -0.00391  39.49137
   X353      36.67958  -0.00756   0.00000  -0.00705  -0.00699  36.67260
   Y353      50.83363   0.00471   0.00000   0.00370   0.00438  50.83801
   Z353      24.43416  -0.01818   0.00000  -0.01124  -0.01100  24.42316
   X354      37.20871   0.00549   0.00000   0.00392   0.00397  37.21268
   Y354      49.56752  -0.00816   0.00000  -0.00283  -0.00220  49.56532
   Z354      25.60579   0.01146   0.00000   0.00631   0.00650  25.61228
   X355      36.69848   0.00045   0.00000   0.00003   0.00004  36.69852
   Y355      52.36431   0.00847   0.00000   0.00615   0.00678  52.37109
   Z355      25.37902   0.00764   0.00000   0.00583   0.00615  25.38517
   X356      34.61978   0.00464   0.00000   0.00236   0.00282  34.62261
   Y356      37.45437  -0.00665   0.00000  -0.00583  -0.00492  37.44945
   Z356      19.25631  -0.01561   0.00000  -0.00668  -0.00719  19.24912
   X357      34.82765   0.00115   0.00000   0.00023   0.00064  34.82829
   Y357      37.24650  -0.00299   0.00000  -0.00456  -0.00374  37.24276
   Z357      21.03265   0.01880   0.00000   0.01382   0.01331  21.04596
   X358      33.54264  -0.00447   0.00000  -0.00158  -0.00114  33.54150
   Y358      38.89056   0.00864   0.00000   0.00594   0.00684  38.89740
   Z358      19.08623   0.00064   0.00000   0.00120   0.00073  19.08696
   X359      50.75804   0.00765   0.00000   0.00809   0.00783  50.76587
   Y359      30.38680   0.00910   0.00000   0.00803   0.00780  30.39459
   Z359      47.22426   0.01168   0.00000   0.00473   0.00435  47.22861
   X360      51.15489   0.00290   0.00000   0.00197   0.00177  51.15666
   Y360      30.10334  -0.00154   0.00000   0.00061   0.00047  30.10381
   Z360      45.48571  -0.01781   0.00000  -0.01413  -0.01451  45.47120
   X361      49.18957  -0.00638   0.00000  -0.00189  -0.00214  49.18743
   Y361      29.51752  -0.00068   0.00000   0.00440   0.00412  29.52165
   Z361      47.46992   0.00468   0.00000   0.00798   0.00751  47.47743
   X362      34.01507  -0.01561   0.00000  -0.01333  -0.01403  34.00104
   Y362      44.61643   0.00059   0.00000   0.00479   0.00394  44.62037
   Z362      53.36587  -0.01261   0.00000  -0.00747  -0.00763  53.35823
   X363      34.75206   0.00916   0.00000   0.01133   0.01059  34.76266
   Y363      46.26050   0.00803   0.00000   0.00540   0.00455  46.26505
   Z363      53.49815   0.00005   0.00000  -0.00219  -0.00224  53.49590
   X364      34.77096   0.00716   0.00000   0.00537   0.00464  34.77560
   Y364      43.65267  -0.00669   0.00000  -0.00416  -0.00507  43.64760
   Z364      54.68867   0.00549   0.00000  -0.00264  -0.00283  54.68584
   X365      47.01639  -0.00981   0.00000  -0.01311  -0.01293  47.00346
   Y365      23.03576   0.00201   0.00000   0.00256   0.00278  23.03854
   Z365      37.11422   0.00172   0.00000  -0.00690  -0.00778  37.10645
   X366      47.69669   0.00737   0.00000   0.00819   0.00843  47.70512
   Y366      22.90348  -0.00683   0.00000  -0.01175  -0.01143  22.89205
   Z366      35.45126  -0.01267   0.00000  -0.01052  -0.01138  35.43988
   X367      46.05263   0.00165   0.00000   0.00288   0.00309  46.05571
   Y367      21.50508  -0.00304   0.00000  -0.00565  -0.00546  21.49963
   Z367      37.32209   0.00354   0.00000   0.00675   0.00577  37.32786
   X368      38.96615   0.00114   0.00000   0.00165   0.00131  38.96746
   Y368      55.53905  -0.00765   0.00000  -0.00373  -0.00355  55.53550
   Z368      34.90324  -0.00134   0.00000   0.00069   0.00124  34.90448
   X369      38.13467  -0.00277   0.00000  -0.00272  -0.00311  38.13157
   Y369      55.18000  -0.00077   0.00000  -0.00078  -0.00069  55.17931
   Z369      36.47171   0.00463   0.00000   0.00414   0.00464  36.47636
   X370      39.15513   0.00138   0.00000   0.00165   0.00127  39.15640
   Y370      57.33429   0.01021   0.00000   0.00722   0.00740  57.34169
   Z370      34.90324  -0.00029   0.00000  -0.00114  -0.00049  34.90275
   X371      51.28717  -0.00284   0.00000  -0.00311  -0.00368  51.28349
   Y371      44.69202   0.01223   0.00000   0.01040   0.01008  44.70211
   Z371      48.92501  -0.00205   0.00000  -0.00841  -0.00804  48.91697
   X372      49.90767  -0.00165   0.00000   0.00236   0.00181  49.90947
   Y372      43.50150  -0.00695   0.00000  -0.00620  -0.00654  43.49495
   Z372      49.03839   0.00653   0.00000   0.01169   0.01196  49.05035
   X373      52.62887   0.00390   0.00000   0.00132   0.00079  52.62966
   Y373      43.74716  -0.00690   0.00000  -0.00619  -0.00644  43.74072
   Z373      48.16912  -0.00303   0.00000  -0.00173  -0.00136  48.16776
   X374      23.90504  -0.00910   0.00000  -0.00769  -0.00780  23.89724
   Y374      26.43727  -0.01588   0.00000  -0.00625  -0.00683  26.43043
   Z374      44.54084   0.00138   0.00000   0.00053  -0.00087  44.53997
   X375      23.45150   0.00009   0.00000   0.00124   0.00107  23.45257
   Y375      26.98529   0.00287   0.00000   0.00310   0.00242  26.98771
   Z375      46.20380   0.00528   0.00000   0.00563   0.00424  46.20805
   X376      24.66093   0.01242   0.00000   0.01288   0.01277  24.67369
   Y376      27.87346   0.01467   0.00000   0.00788   0.00735  27.88081
   Z376      43.76606  -0.00822   0.00000  -0.00488  -0.00619  43.75987
   X377      51.72180  -0.00881   0.00000  -0.00744  -0.00719  51.71462
   Y377      29.85767  -0.00599   0.00000  -0.00941  -0.00877  29.84890
   Z377      30.70805   0.01209   0.00000   0.00642   0.00604  30.71409
   X378      50.64466  -0.00108   0.00000   0.00106   0.00136  50.64602
   Y378      29.29076   0.00054   0.00000   0.00248   0.00316  29.29392
   Z378      29.36634  -0.01288   0.00000  -0.01583  -0.01627  29.35008
   X379      53.21469   0.00780   0.00000   0.00180   0.00207  53.21676
   Y379      30.42459   0.00504   0.00000   0.00424   0.00494  30.42953
   Z379      29.87657  -0.00528   0.00000  -0.00038  -0.00069  29.87588
   X380      35.16780  -0.01405   0.00000  -0.01083  -0.01027  35.15753
   Y380      26.51286  -0.00203   0.00000  -0.00155  -0.00083  26.51203
   Z380      22.97907  -0.00355   0.00000   0.00089  -0.00017  22.97890
   X381      36.56620   0.00985   0.00000   0.00493   0.00544  36.57164
   Y381      26.81521   0.00668   0.00000   0.00887   0.00957  26.82478
   Z381      24.09401   0.00504   0.00000   0.00219   0.00119  24.09520
   X382      35.88590   0.00245   0.00000   0.00109   0.00169  35.88759
   Y382      26.68293   0.00212   0.00000   0.00263   0.00345  26.68639
   Z382      21.31611   0.00021   0.00000   0.00304   0.00201  21.31812
   X383      51.17378   0.00164   0.00000   0.00383   0.00405  51.17784
   Y383      39.21182  -0.00512   0.00000   0.00059   0.00144  39.21325
   Z383      26.26719   0.00935   0.00000   0.01292   0.01301  26.28020
   X384      52.95013   0.00370   0.00000   0.00322   0.00346  52.95358
   Y384      38.96615  -0.00154   0.00000  -0.00293  -0.00203  38.96412
   Z384      26.00263  -0.00626   0.00000  -0.01082  -0.01069  25.99194
   X385      50.87143  -0.00283   0.00000  -0.00323  -0.00303  50.86840
   Y385      40.93147   0.01160   0.00000   0.00866   0.00952  40.94099
   Z385      25.79476  -0.00160   0.00000   0.00025   0.00041  25.79517
         Item               Value     Threshold  Converged?
 Maximum Force            0.040124     0.000450     NO 
 RMS     Force            0.010610     0.000300     NO 
 Maximum Displacement     0.029520     0.001800     NO 
 RMS     Displacement     0.008842     0.001200     NO 
 Predicted change in Energy=-7.383626D-02
 GradGradGradGradGradGradGradGradGradGradGradGradGradGradGradGradGradGrad

 Leave Link  103 at Sat May 12 17:26:13 2018, MaxMem= 14763950080 cpu:      3099.1
 (Enter /cm/shared/gaussian/g09.e01/intel64-sandybridge/g09/l9999.exe)
 1\1\GINC-POPLE03\Force\RPBE1PBE\CC-pVDZ\Br1H256O128(1-)\M.PELUSO\12-Ma
 y-2018\0\\#p PBE1PBE/cc-pvDZ force Counterpoise=2 noSymm\\forces on ch
 loride comput - NWATER: 128\\-1,1\Br,20.,20.,20.\O,19.31,19.58,23.19\H
 ,18.68,20.31,23.23\H,19.64,19.61,22.29\O,20.04,20.48,16.76\H,19.97,20.
 56,17.71\H,20.03,21.38,16.43\O,17.69,17.48,20.12\H,16.87,17.92,19.91\H
 ,18.36,18.16,20.03\O,22.17,20.61,22.4\H,22.63,19.8,22.61\H,21.32,20.33
 ,22.07\O,20.01,23.21,20.83\H,19.59,23.71,20.14\H,19.63,22.34,20.77\O,1
 6.87,20.99,18.92\H,17.08,21.18,18.\H,17.66,20.59,19.27\O,22.89,21.24,1
 8.05\H,22.21,20.71,18.46\H,23.69,21.,18.51\O,21.,16.81,21.45\H,20.87,1
 7.43,20.73\H,21.01,15.95,21.02\O,22.95,23.02,20.61\H,22.8,22.16,21.\H,
 22.08,23.32,20.35\O,21.55,18.16,16.35\H,22.19,18.26,17.06\H,20.87,18.8
 ,16.56\O,23.13,17.66,18.51\H,23.79,16.99,18.3\H,22.31,17.18,18.58\O,21
 .69,23.95,17.9\H,22.28,24.59,18.3\H,21.83,23.15,18.41\O,16.14,21.3,21.
 59\H,16.87,21.61,22.13\H,16.33,21.63,20.71\O,18.27,15.97,17.63\H,17.36
 ,16.06,17.35\H,18.35,16.57,18.37\O,18.46,16.24,22.75\H,17.91,16.56,22.
 02\H,19.33,16.58,22.55\O,18.05,22.32,23.38\H,17.36,22.84,23.79\H,18.55
 ,22.95,22.86\O,17.22,19.94,16.3\H,16.83,19.28,15.74\H,18.14,19.97,16.0
 4\O,20.47,17.41,24.58\H,21.29,17.75,24.93\H,20.17,18.09,23.97\O,24.02,
 17.33,21.19\H,23.62,16.47,21.13\H,23.78,17.76,20.37\O,20.96,23.88,23.5
 2\H,20.81,23.78,22.58\H,21.9,23.76,23.63\O,15.32,18.56,19.07\H,14.5,18
 .72,19.53\H,15.52,19.4,18.65\O,21.22,15.66,18.34\H,21.76,14.86,18.29\H
 ,20.33,15.36,18.14\O,19.27,24.7,18.59\H,18.8,24.67,17.76\H,20.19,24.6,
 18.34\O,19.42,21.31,25.74\H,18.83,20.57,25.88\H,19.31,21.53,24.82\O,24
 .8,19.08,16.65\H,25.7,18.81,16.83\H,24.33,18.93,17.47\O,25.11,20.48,19
 .44\H,25.56,19.64,19.3\H,25.14,20.61,20.39\O,23.06,23.23,15.49\H,22.67
 ,22.97,16.33\H,22.48,22.85,14.83\O,14.95,19.51,23.72\H,15.22,19.95,22.
 92\H,14.4,18.79,23.42\O,25.13,23.81,18.97\H,24.39,23.54,19.51\H,25.13,
 23.19,18.24\O,25.1,18.57,23.44\H,25.97,18.18,23.46\H,24.65,18.1,22.73\
 O,25.33,21.16,22.36\H,24.78,21.89,22.63\H,25.05,20.43,22.92\O,18.79,16
 .85,14.89\H,18.35,16.53,15.67\H,19.5,16.23,14.73\O,24.19,24.9,21.98\H,
 24.99,25.01,21.47\H,23.72,24.19,21.55\O,18.17,24.21,16.18\H,17.65,24.9
 ,15.78\H,17.88,23.41,15.74\O,22.9,15.83,15.48\H,23.5,15.66,16.2\H,22.3
 8,16.58,15.77\O,22.02,19.07,13.71\H,22.98,19.14,13.7\H,21.83,18.58,14.
 51\O,20.94,14.88,23.96\H,20.58,14.63,23.11\H,20.56,15.74,24.14\O,22.48
 ,21.15,25.86\H,22.47,21.82,25.18\H,21.57,21.06,26.12\O,15.6,22.52,16.1
 9\H,15.75,21.59,16.01\H,15.01,22.52,16.94\O,22.87,14.57,20.76\H,21.99,
 14.31,21.03\H,23.12,13.93,20.1\O,18.7,21.7,14.24\H,18.64,20.85,13.8\H,
 19.55,22.04,13.99\O,15.97,24.63,20.47\H,15.83,24.61,21.41\H,16.73,25.2
 ,20.34\O,18.22,26.44,20.59\H,18.29,27.38,20.43\H,18.77,26.03,19.92\O,2
 5.49,21.9,16.89\H,25.26,20.97,16.95\H,24.69,22.33,16.6\O,16.22,14.82,2
 0.61\H,15.67,14.17,21.04\H,17.12,14.53,20.78\O,22.93,18.5,25.4\H,22.92
 ,19.45,25.54\H,23.68,18.36,24.82\O,13.78,22.61,20.78\H,14.51,23.21,20.
 66\H,14.13,21.91,21.33\O,17.2,15.79,25.28\H,16.26,15.89,25.42\H,17.36,
 16.21,24.43\O,20.56,25.28,14.92\H,20.2,24.66,15.56\H,21.37,25.59,15.31
 \O,14.54,15.91,22.34\H,15.14,15.96,21.59\H,15.09,16.13,23.09\O,20.25,2
 3.99,26.01\H,19.88,23.11,26.1\H,20.38,24.09,25.06\O,15.99,16.32,16.34\
 H,15.91,15.89,15.49\H,15.49,17.13,16.25\O,18.26,19.22,13.1\H,17.37,18.
 95,13.3\H,18.81,18.69,13.69\O,17.86,13.49,23.18\H,17.,13.4,23.59\H,17.
 9,14.39,22.88\O,17.55,13.35,17.3\H,17.9,14.24,17.4\H,16.61,13.44,17.49
 \O,16.46,20.5,25.92\H,15.9,20.11,25.25\H,16.27,21.43,25.88\O,13.55,16.
 19,18.78\H,14.43,16.55,18.79\H,13.31,16.12,19.71\O,23.32,23.55,24.61\H
 ,24.,23.85,24.01\H,23.57,23.93,25.46\O,13.25,18.92,17.11\H,13.5,19.76,
 17.5\H,13.83,18.28,17.52\O,25.01,15.82,17.77\H,25.26,15.41,18.6\H,25.7
 4,15.63,17.19\O,19.7,26.8,23.05\H,20.45,26.2,22.99\H,19.22,26.65,22.24
 \O,20.07,19.52,27.8\H,20.01,20.07,27.01\H,19.65,18.7,27.54\O,21.33,21.
 49,12.85\H,21.13,21.31,11.93\H,21.62,20.66,13.21\O,20.4,13.11,21.29\H,
 19.58,13.01,21.76\H,20.72,12.22,21.15\O,15.76,24.64,23.21\H,15.76,25.6
 ,23.18\H,15.8,24.43,24.14\O,26.71,18.07,18.88\H,27.04,17.18,18.72\H,27
 .11,18.6,18.19\O,24.81,19.25,13.92\H,24.79,19.07,14.86\H,25.5,19.9,13.
 81\O,13.13,21.36,18.42\H,13.13,21.8,19.27\H,12.28,21.57,18.03\O,21.8,1
 6.36,26.87\H,21.11,16.37,26.21\H,22.25,17.2,26.76\O,25.86,14.59,20.21\
 H,24.95,14.68,20.51\H,25.94,13.68,19.94\O,15.51,18.6,14.43\H,15.,17.81
 ,14.22\H,15.13,19.29,13.89\O,12.74,18.77,20.52\H,12.43,18.52,21.4\H,11
 .97,19.18,20.11\O,22.62,13.41,17.92\H,23.54,13.15,17.9\H,22.13,12.6,17
 .77\O,14.05,25.38,18.42\H,14.77,25.13,19.\H,13.28,25.35,18.98\O,22.92,
 26.66,18.65\H,22.64,27.28,19.33\H,22.65,27.08,17.83\O,20.72,14.82,14.2
 \H,20.38,14.,14.58\H,21.49,15.03,14.72\O,27.92,21.05,20.15\H,27.43,21.
 29,19.37\H,27.45,21.46,20.87\O,17.44,23.52,12.88\H,17.92,22.77,13.23\H
 ,16.52,23.28,12.95\O,18.28,17.11,27.65\H,18.17,16.71,26.78\H,17.39,17.
 31,27.93\O,25.38,25.91,17.16\H,25.37,25.04,17.56\H,24.47,26.21,17.23\O
 ,26.17,26.02,20.26\H,25.61,25.37,19.86\H,26.98,25.99,19.75\O,16.33,15.
 83,13.53\H,16.77,15.26,12.91\H,16.98,16.5,13.74\O,25.15,21.8,26.79\H,2
 5.18,21.25,27.57\H,24.37,21.49,26.32\O,23.72,25.72,14.84\H,23.58,24.78
 ,14.92\H,24.45,25.9,15.44\O,14.6,13.74,17.99\H,14.48,14.67,18.22\H,14.
 32,13.26,18.77\O,12.99,20.38,25.49\H,13.69,20.35,24.83\H,12.5,21.18,25
 .29\O,27.24,16.14,22.11\H,26.57,15.72,21.57\H,27.43,16.97,21.68\O,19.2
 6,26.43,25.62\H,19.67,25.58,25.74\H,19.22,26.56,24.67\O,16.02,23.36,26
 .17\H,16.9,23.52,26.52\H,15.44,23.85,26.74\O,19.73,12.71,15.66\H,19.14
 ,12.81,16.41\H,20.11,11.84,15.77\O,24.29,15.19,25.64\H,23.83,14.46,26.
 07\H,23.83,15.97,25.93\O,28.46,18.88,21.72\H,29.26,18.64,21.27\H,28.04
 ,19.53,21.16\O,24.49,27.01,23.62\H,24.18,27.67,23.\H,24.36,26.18,23.16
 \O,14.96,25.3,15.54\H,14.66,24.39,15.55\H,14.61,25.68,16.34\O,16.09,28
 .19,18.57\H,16.56,27.35,18.47\H,15.49,28.21,17.82\O,19.89,12.79,25.74\
 H,18.96,12.94,25.93\H,20.13,13.52,25.16\O,21.91,23.82,28.01\H,21.26,23
 .68,27.32\H,22.57,24.38,27.61\O,15.82,18.03,27.59\H,16.04,18.88,27.22\
 H,15.33,18.23,28.38\O,25.09,13.74,23.54\H,24.95,14.25,24.34\H,24.2,13.
 58,23.21\O,12.48,20.16,14.84\H,13.27,20.23,14.3\H,12.79,19.8,15.67\O,2
 1.07,17.61,11.09\H,21.2,18.2,11.83\H,20.14,17.66,10.91\O,20.51,24.35,1
 1.82\H,20.26,24.32,12.74\H,20.03,23.62,11.42\O,17.82,11.6,20.68\H,17.7
 4,11.59,21.63\H,18.76,11.65,20.51\O,14.68,16.47,25.57\H,15.12,16.86,26
 .33\H,13.76,16.42,25.83\O,24.52,16.65,12.92\H,24.29,16.08,13.66\H,24.7
 ,17.5,13.32\O,27.58,23.76,21.57\H,27.62,24.38,22.3\H,27.61,24.3,20.79\
 O,27.82,19.32,16.47\H,28.77,19.22,16.5\H,27.68,20.12,15.95\O,23.78,22.
 88,11.85\H,23.57,23.81,11.74\H,23.02,22.52,12.32\O,12.15,18.13,23.06\H
 ,12.,18.52,23.92\H,11.52,17.41,23.02\O,12.39,22.87,24.52\H,11.99,23.48
 ,25.13\H,13.27,23.21,24.38\O,11.88,24.65,20.53\H,12.33,24.84,21.36\H,1
 2.24,23.81,20.25\O,17.54,13.77,26.92\H,17.68,14.46,26.28\H,16.62,13.53
 ,26.82\O,11.81,16.09,16.74\H,12.59,16.27,17.28\H,11.4,16.94,16.62\O,21
 .49,27.87,16.39\H,20.93,27.82,15.61\H,21.,28.42,17.\O,15.65,27.34,23.2
 3\H,16.09,27.56,22.41\H,14.9,27.93,23.27\O,14.55,20.5,12.98\H,14.72,20
 .26,12.07\H,14.68,21.45,13.01\O,24.1,27.87,21.04\H,24.78,27.6,20.43\H,
 24.01,28.82,20.9\O,19.41,26.9,12.93\H,19.69,26.23,13.55\H,19.42,27.71,
 13.43\O,18.32,19.82,10.19\H,18.43,19.71,11.13\H,17.75,20.58,10.1\O,26.
 86,16.08,24.99\H,27.07,15.93,24.07\H,26.03,15.62,25.12\O,18.,23.61,28.
 24\H,18.39,24.48,28.31\H,18.4,23.1,28.94\O,24.88,12.19,19.64\H,25.24,1
 2.12,18.76\H,24.37,11.38,19.75\O,20.62,29.39,18.47\H,20.18,29.2,19.3\H
 ,20.72,30.34,18.47\O,27.14,23.65,25.89\H,26.41,23.02,25.95\H,27.85,23.
 15,25.49\O,12.65,13.99,23.57\H,12.41,14.28,24.45\H,13.05,14.75,23.16\O
 ,27.37,15.8,16.25\H,26.8,15.5,15.54\H,28.16,16.1,15.81\O,18.61,14.03,1
 2.16\H,19.35,14.19,12.75\H,18.99,14.12,11.28\O,27.08,20.75,13.9\H,28.0
 2,20.62,13.76\H,26.92,21.66,13.65\\Version=ES64L-G09RevE.01\HF=-9773.4
 297801\RMSD=2.129e-09\RMSF=1.061e-02\Dipole=-4.7302694,1.3522184,-2.16
 46546\Quadrupole=-124.9555022,336.2912641,-211.335762,-1651.6603009,-1
 878.0474407,-1380.5370973\PG=C01 [X(Br1H256O128)]\\@


 YOU WILL NEVER "FIND" TIME FOR ANYTHING.
 IF YOU WANT TIME, YOU MUST MAKE IT.

                        -- CHARLES BIXTON
 Job cpu time:       6 days 22 hours 58 minutes 38.8 seconds.
 File lengths (MBytes):  RWF=   7285 Int=      0 D2E=      0 Chk=   2411 Scr=      1
 Normal termination of Gaussian 09 at Sat May 12 17:26:36 2018.
