 Entering Gaussian System, Link 0=/cm/shared/gaussian/g09.e01/intel64-sandybridge/g09/g09
 Initial command:
 /cm/shared/gaussian/g09.e01/intel64-sandybridge/g09/l1.exe "/local/scratch/m.peluso/128_wat/Gau-12504.inp" -scrdir="/local/scratch/m.peluso/128_wat/"
 Entering Link 1 = /cm/shared/gaussian/g09.e01/intel64-sandybridge/g09/l1.exe PID=     12505.
  
 Copyright (c) 1988,1990,1992,1993,1995,1998,2003,2009,2015,
            Gaussian, Inc.  All Rights Reserved.
  
 This is part of the Gaussian(R) 09 program.  It is based on
 the Gaussian(R) 03 system (copyright 2003, Gaussian, Inc.),
 the Gaussian(R) 98 system (copyright 1998, Gaussian, Inc.),
 the Gaussian(R) 94 system (copyright 1995, Gaussian, Inc.),
 the Gaussian 92(TM) system (copyright 1992, Gaussian, Inc.),
 the Gaussian 90(TM) system (copyright 1990, Gaussian, Inc.),
 the Gaussian 88(TM) system (copyright 1988, Gaussian, Inc.),
 the Gaussian 86(TM) system (copyright 1986, Carnegie Mellon
 University), and the Gaussian 82(TM) system (copyright 1983,
 Carnegie Mellon University). Gaussian is a federally registered
 trademark of Gaussian, Inc.
  
 This software contains proprietary and confidential information,
 including trade secrets, belonging to Gaussian, Inc.
  
 This software is provided under written license and may be
 used, copied, transmitted, or stored only in accord with that
 written license.
  
 The following legend is applicable only to US Government
 contracts under FAR:
  
                    RESTRICTED RIGHTS LEGEND
  
 Use, reproduction and disclosure by the US Government is
 subject to restrictions as set forth in subparagraphs (a)
 and (c) of the Commercial Computer Software - Restricted
 Rights clause in FAR 52.227-19.
  
 Gaussian, Inc.
 340 Quinnipiac St., Bldg. 40, Wallingford CT 06492
  
  
 ---------------------------------------------------------------
 Warning -- This program may not be used in any manner that
 competes with the business of Gaussian, Inc. or will provide
 assistance to any competitor of Gaussian, Inc.  The licensee
 of this program is prohibited from giving any competitor of
 Gaussian, Inc. access to this program.  By using this program,
 the user acknowledges that Gaussian, Inc. is engaged in the
 business of creating and licensing software in the field of
 computational chemistry and represents and warrants to the
 licensee that it is not a competitor of Gaussian, Inc. and that
 it will not use this program in any manner prohibited above.
 ---------------------------------------------------------------
  

 Cite this work as:
 Gaussian 09, Revision E.01,
 M. J. Frisch, G. W. Trucks, H. B. Schlegel, G. E. Scuseria, 
 M. A. Robb, J. R. Cheeseman, G. Scalmani, V. Barone, B. Mennucci, 
 G. A. Petersson, H. Nakatsuji, M. Caricato, X. Li, H. P. Hratchian, 
 A. F. Izmaylov, J. Bloino, G. Zheng, J. L. Sonnenberg, M. Hada, 
 M. Ehara, K. Toyota, R. Fukuda, J. Hasegawa, M. Ishida, T. Nakajima, 
 Y. Honda, O. Kitao, H. Nakai, T. Vreven, J. A. Montgomery, Jr., 
 J. E. Peralta, F. Ogliaro, M. Bearpark, J. J. Heyd, E. Brothers, 
 K. N. Kudin, V. N. Staroverov, T. Keith, R. Kobayashi, J. Normand, 
 K. Raghavachari, A. Rendell, J. C. Burant, S. S. Iyengar, J. Tomasi, 
 M. Cossi, N. Rega, J. M. Millam, M. Klene, J. E. Knox, J. B. Cross, 
 V. Bakken, C. Adamo, J. Jaramillo, R. Gomperts, R. E. Stratmann, 
 O. Yazyev, A. J. Austin, R. Cammi, C. Pomelli, J. W. Ochterski, 
 R. L. Martin, K. Morokuma, V. G. Zakrzewski, G. A. Voth, 
 P. Salvador, J. J. Dannenberg, S. Dapprich, A. D. Daniels, 
 O. Farkas, J. B. Foresman, J. V. Ortiz, J. Cioslowski, 
 and D. J. Fox, Gaussian, Inc., Wallingford CT, 2013.
 
 ******************************************
 Gaussian 09:  ES64L-G09RevE.01 30-Nov-2015
                 3-May-2018 
 ******************************************
 %Mem=110GB
 %NProcShared=64
 Will use up to   64 processors via shared memory.
 %chk=snap42.chk
 ----------------------------------------------
 #p PBE1PBE/cc-pvDZ force Counterpoise=2 noSymm
 ----------------------------------------------
 1/10=7,30=1,38=1,62=2/1,3;
 2/12=2,15=1,17=6,18=5,40=1/2;
 1/10=7,30=1,38=1,53=2,62=2,63=101/22;
 3/5=16,11=2,16=1,25=1,30=1,71=1,74=-13/1,2,3;
 4//1;
 5/5=2,38=5/2;
 6/7=2,8=2,9=2,10=2,28=1/1;
 7/7=1,29=1,30=1,33=-1/1,2,3,16;
 1/10=7,30=1,53=2,62=2,63=101/22;
 3/5=7,6=11,11=2,16=1,25=1,30=1,71=1,74=-13,82=7/1,2,3;
 4//1;
 5/5=2,38=5/2;
 6/7=2,8=2,9=2,10=2,28=1/1;
 7/7=1,29=1,30=1,33=-1/1,2,3,16;
 1/10=7,30=1,53=2,62=2,63=101/22(-5);
 7/9=1,29=1,44=-1/16;
 1/10=7,30=1,62=2/3;
 99//99;
 Leave Link    1 at Thu May  3 22:25:05 2018, MaxMem= 14763950080 cpu:         8.6
 (Enter /cm/shared/gaussian/g09.e01/intel64-sandybridge/g09/l101.exe)
 ---------------------------------------
 forces on chloride comput - NWATER: 128
 ---------------------------------------
 Symbolic Z-matrix:
 Charge = -1 Multiplicity = 1 in supermolecule
 Charge = -1 Multiplicity = 1 in fragment      1.
 Charge =  0 Multiplicity = 1 in fragment      2.
 Br(Fragment=1)        20.       20.       20. 
 O(Fragment=2)         23.12     20.3      20.52 
 H(Fragment=2)         22.22     20.19     20.22 
 H(Fragment=2)         23.22     21.25     20.64 
 O(Fragment=2)         20.8      20.14     23.1 
 H(Fragment=2)         20.45     20.13     22.21 
 H(Fragment=2)         21.33     19.35     23.16 
 O(Fragment=2)         18.46     17.47     21.14 
 H(Fragment=2)         18.63     18.28     20.67 
 H(Fragment=2)         19.17     17.4      21.77 
 O(Fragment=2)         20.3      19.42     16.81 
 H(Fragment=2)         20.35     19.52     17.77 
 H(Fragment=2)         19.47     18.97     16.67 
 O(Fragment=2)         20.71     22.84     18.73 
 H(Fragment=2)         20.33     23.09     17.89 
 H(Fragment=2)         20.53     21.9      18.8 
 O(Fragment=2)         17.13     19.61     18.61 
 H(Fragment=2)         17.8      19.86     19.24 
 H(Fragment=2)         17.5      18.85     18.15 
 O(Fragment=2)         17.49     20.45     22.87 
 H(Fragment=2)         16.95     21.22     23.05 
 H(Fragment=2)         18.34     20.82     22.6 
 O(Fragment=2)         23.48     18.13     18.78 
 H(Fragment=2)         23.28     18.75     19.48 
 H(Fragment=2)         24.4      18.31     18.56 
 O(Fragment=2)         19.25     15.39     18.97 
 H(Fragment=2)         19.24     16.22     19.46 
 H(Fragment=2)         20.11     15.37     18.55 
 O(Fragment=2)         23.18     23.03     19.57 
 H(Fragment=2)         22.32     23.06     19.16 
 H(Fragment=2)         23.18     23.76     20.19 
 O(Fragment=2)         22.01     17.8      23.35 
 H(Fragment=2)         21.75     17.16     24. 
 H(Fragment=2)         21.83     17.38     22.51 
 O(Fragment=2)         23.71     20.22     16.84 
 H(Fragment=2)         23.01     19.73     17.27 
 H(Fragment=2)         24.49     20.02     17.36 
 O(Fragment=2)         21.47     16.26     21.17 
 H(Fragment=2)         22.22     16.01     20.64 
 H(Fragment=2)         20.94     15.46     21.23 
 O(Fragment=2)         20.56     24.94     20.59 
 H(Fragment=2)         19.63     25.17     20.59 
 H(Fragment=2)         20.61     24.16     20.03 
 O(Fragment=2)         15.56     18.5      21.23 
 H(Fragment=2)         16.13     18.03     20.62 
 H(Fragment=2)         16.14     19.15     21.64 
 O(Fragment=2)         17.76     18.29     24.05 
 H(Fragment=2)         17.72     19.13     23.6 
 H(Fragment=2)         18.08     17.68     23.39 
 O(Fragment=2)         18.96     23.11     16.12 
 H(Fragment=2)         18.43     22.62     16.75 
 H(Fragment=2)         18.47     23.05     15.3 
 O(Fragment=2)         17.57     20.58     15.36 
 H(Fragment=2)         18.31     20.23     15.86 
 H(Fragment=2)         17.97     21.12     14.68 
 O(Fragment=2)         22.08     16.01     18.21 
 H(Fragment=2)         22.6      16.81     18.23 
 H(Fragment=2)         22.57     15.39     18.76 
 O(Fragment=2)         19.7      22.05     24.82 
 H(Fragment=2)         20.25     21.48     24.27 
 H(Fragment=2)         19.85     22.93     24.47 
 O(Fragment=2)         17.37     24.03     20.25 
 H(Fragment=2)         17.63     23.86     19.34 
 H(Fragment=2)         16.93     24.87     20.22 
 O(Fragment=2)         18.24     17.56     16.55 
 H(Fragment=2)         18.96     16.94     16.47 
 H(Fragment=2)         17.53     17.17     16.02 
 O(Fragment=2)         16.15     16.43     18.52 
 H(Fragment=2)         16.83     16.99     18.14 
 H(Fragment=2)         16.31     15.57     18.12 
 O(Fragment=2)         16.44     22.94     22.57 
 H(Fragment=2)         16.93     23.25     21.82 
 H(Fragment=2)         16.7      23.52     23.29 
 O(Fragment=2)         16.51     15.79     21.74 
 H(Fragment=2)         16.06     15.96     20.91 
 H(Fragment=2)         17.22     16.44     21.76 
 O(Fragment=2)         21.89     19.69     14.66 
 H(Fragment=2)         21.15     19.61     15.26 
 H(Fragment=2)         22.57     20.11     15.18 
 O(Fragment=2)         21.47     16.66     15.44 
 H(Fragment=2)         21.32     16.93     16.35 
 H(Fragment=2)         21.86     17.43     15.03 
 O(Fragment=2)         25.32     19.66     22.2 
 H(Fragment=2)         26.1      19.29     21.78 
 H(Fragment=2)         24.72     19.84     21.49 
 O(Fragment=2)         19.22     16.03     23.45 
 H(Fragment=2)         19.4      15.84     24.37 
 H(Fragment=2)         19.7      15.36     22.96 
 O(Fragment=2)         21.69     23.35     15.93 
 H(Fragment=2)         20.73     23.41     15.95 
 H(Fragment=2)         21.88     22.96     15.07 
 O(Fragment=2)         23.98     19.18     24.52 
 H(Fragment=2)         24.56     19.39     23.79 
 H(Fragment=2)         23.22     18.78     24.11 
 O(Fragment=2)         13.96     18.53     18.71 
 H(Fragment=2)         14.75     18.92     19.07 
 H(Fragment=2)         14.27     17.77     18.21 
 O(Fragment=2)         15.17     21.65     17.22 
 H(Fragment=2)         15.03     21.74     18.16 
 H(Fragment=2)         15.44     20.74     17.1 
 O(Fragment=2)         25.86     21.28     19.36 
 H(Fragment=2)         25.12     21.78     19.01 
 H(Fragment=2)         26.21     21.84     20.06 
 O(Fragment=2)         23.85     24.2      17.31 
 H(Fragment=2)         23.73     23.67     18.1 
 H(Fragment=2)         23.1      23.99     16.76 
 O(Fragment=2)         17.14     21.16     25.5 
 H(Fragment=2)         17.98     21.61     25.39 
 H(Fragment=2)         17.2      20.4      24.92 
 O(Fragment=2)         24.98     16.39     20.96 
 H(Fragment=2)         24.57     16.93     21.63 
 H(Fragment=2)         25.68     15.93     21.41 
 O(Fragment=2)         18.66     25.27     17.89 
 H(Fragment=2)         18.21     25.3      17.05 
 H(Fragment=2)         19.43     25.83     17.77 
 O(Fragment=2)         23.84     22.02     24.88 
 H(Fragment=2)         24.79     22.04     24.87 
 H(Fragment=2)         23.61     21.12     24.65 
 O(Fragment=2)         17.79     24.89     24.05 
 H(Fragment=2)         18.59     24.57     23.63 
 H(Fragment=2)         17.82     25.83     23.92 
 O(Fragment=2)         20.86     24.86     23.43 
 H(Fragment=2)         21.8      24.77     23.59 
 H(Fragment=2)         20.8      25.37     22.62 
 O(Fragment=2)         15.28     19.1      15.71 
 H(Fragment=2)         15.74     19.93     15.69 
 H(Fragment=2)         15.51     18.68     14.88 
 O(Fragment=2)         25.07     22.26     15.66 
 H(Fragment=2)         24.43     21.64     16.02 
 H(Fragment=2)         24.92     23.07     16.15 
 O(Fragment=2)         18.6      17.69     26.47 
 H(Fragment=2)         18.25     18.       25.64 
 H(Fragment=2)         18.78     18.49     26.97 
 O(Fragment=2)         13.66     22.52     21.86 
 H(Fragment=2)         13.61     22.09     22.72 
 H(Fragment=2)         14.6      22.65     21.71 
 O(Fragment=2)         17.29     14.       17.74 
 H(Fragment=2)         17.41     13.48     16.95 
 H(Fragment=2)         18.17     14.28     17.98 
 O(Fragment=2)         23.54     24.57     23.39 
 H(Fragment=2)         24.12     25.06     23.96 
 H(Fragment=2)         23.33     23.77     23.88 
 O(Fragment=2)         19.58     20.42     27.1 
 H(Fragment=2)         19.79     21.04     26.4 
 H(Fragment=2)         20.33     20.46     27.69 
 O(Fragment=2)         20.13     13.83     22.04 
 H(Fragment=2)         19.21     13.56     22.04 
 H(Fragment=2)         20.62     13.01     22.02 
 O(Fragment=2)         23.9      25.69     20.89 
 H(Fragment=2)         23.83     25.02     21.57 
 H(Fragment=2)         23.22     26.32     21.1 
 O(Fragment=2)         12.91     19.44     21.33 
 H(Fragment=2)         13.3      19.75     22.14 
 H(Fragment=2)         13.61     18.95     20.89 
 O(Fragment=2)         25.84     16.26     18.52 
 H(Fragment=2)         25.87     17.11     18.08 
 H(Fragment=2)         25.46     16.45     19.38 
 O(Fragment=2)         16.11     23.45     15.5 
 H(Fragment=2)         15.54     23.08     16.18 
 H(Fragment=2)         15.87     22.98     14.7 
 O(Fragment=2)         26.26     18.88     17.86 
 H(Fragment=2)         26.4      19.73     18.28 
 H(Fragment=2)         26.61     18.99     16.97 
 O(Fragment=2)         21.94     13.6      16.65 
 H(Fragment=2)         21.5      14.05     15.94 
 H(Fragment=2)         21.93     14.22     17.38 
 O(Fragment=2)         15.9      15.85     24.87 
 H(Fragment=2)         15.16     15.33     24.56 
 H(Fragment=2)         16.27     16.24     24.07 
 O(Fragment=2)         14.48     18.81     25.09 
 H(Fragment=2)         14.88     18.29     25.77 
 H(Fragment=2)         14.96     18.59     24.29 
 O(Fragment=2)         20.73     12.42     19.56 
 H(Fragment=2)         20.25     13.13     19.99 
 H(Fragment=2)         21.65     12.7      19.58 
 O(Fragment=2)         23.46     14.06     19.38 
 H(Fragment=2)         24.33     13.91     19.01 
 H(Fragment=2)         23.58     13.91     20.32 
 O(Fragment=2)         26.77     21.73     23.58 
 H(Fragment=2)         26.11     21.15     23.19 
 H(Fragment=2)         26.99     22.34     22.89 
 O(Fragment=2)         23.35     13.91     22.35 
 H(Fragment=2)         23.       14.38     23.1 
 H(Fragment=2)         22.87     13.08     22.34 
 O(Fragment=2)         22.1      22.57     13.36 
 H(Fragment=2)         21.9      21.63     13.37 
 H(Fragment=2)         21.57     22.92     12.64 
 O(Fragment=2)         22.39     14.99     24.66 
 H(Fragment=2)         21.91     15.54     25.29 
 H(Fragment=2)         22.29     14.1      25.01 
 O(Fragment=2)         21.02     16.44     26.71 
 H(Fragment=2)         20.23     16.95     26.52 
 H(Fragment=2)         21.35     16.81     27.53 
 O(Fragment=2)         12.95     21.68     19.24 
 H(Fragment=2)         12.86     20.74     19.39 
 H(Fragment=2)         13.05     22.05     20.12 
 O(Fragment=2)         17.6      12.79     22.09 
 H(Fragment=2)         17.26     13.5      21.55 
 H(Fragment=2)         17.42     12.       21.59 
 O(Fragment=2)         21.82     18.76     12.1 
 H(Fragment=2)         22.08     17.85     12.17 
 H(Fragment=2)         21.94     19.12     12.98 
 O(Fragment=2)         16.9      17.96     13.61 
 H(Fragment=2)         17.11     17.04     13.77 
 H(Fragment=2)         17.64     18.29     13.1 
 O(Fragment=2)         18.15     22.57     13.31 
 H(Fragment=2)         18.27     22.02     12.54 
 H(Fragment=2)         17.82     23.4      12.96 
 O(Fragment=2)         13.69     15.35     21.3 
 H(Fragment=2)         13.2      16.01     21.78 
 H(Fragment=2)         14.52     15.27     21.76 
 O(Fragment=2)         17.07     15.38     14.92 
 H(Fragment=2)         16.26     14.88     14.93 
 H(Fragment=2)         17.75     14.73     15.07 
 O(Fragment=2)         22.82     23.24     27.03 
 H(Fragment=2)         22.53     24.14     26.91 
 H(Fragment=2)         23.05     22.94     26.15 
 O(Fragment=2)         24.02     18.62     27.15 
 H(Fragment=2)         23.32     19.14     27.55 
 H(Fragment=2)         24.04     18.9      26.24 
 O(Fragment=2)         21.15     25.2      26.04 
 H(Fragment=2)         20.98     25.42     25.12 
 H(Fragment=2)         20.27     25.05     26.41 
 O(Fragment=2)         12.84     23.39     16.86 
 H(Fragment=2)         13.72     23.15     17.14 
 H(Fragment=2)         12.28     23.16     17.6 
 O(Fragment=2)         15.       23.27     25.71 
 H(Fragment=2)         14.62     23.3      26.59 
 H(Fragment=2)         15.56     22.5      25.71 
 O(Fragment=2)         16.51     26.17     15.81 
 H(Fragment=2)         15.86     26.57     15.23 
 H(Fragment=2)         16.36     25.23     15.72 
 O(Fragment=2)         13.67     16.66     15.94 
 H(Fragment=2)         13.87     17.58     16.06 
 H(Fragment=2)         12.77     16.56     16.26 
 O(Fragment=2)         12.81     20.23     15.98 
 H(Fragment=2)         13.61     19.84     15.65 
 H(Fragment=2)         13.09     21.05     16.39 
 O(Fragment=2)         13.5      21.65     24.19 
 H(Fragment=2)         14.1      22.24     24.65 
 H(Fragment=2)         13.       21.22     24.88 
 O(Fragment=2)         20.55     14.55     13.65 
 H(Fragment=2)         20.95     14.08     12.92 
 H(Fragment=2)         21.15     15.27     13.85 
 O(Fragment=2)         25.18     26.58     17.44 
 H(Fragment=2)         24.83     25.7      17.56 
 H(Fragment=2)         25.84     26.48     16.76 
 O(Fragment=2)         19.84     27.44     22.55 
 H(Fragment=2)         20.35     27.76     23.29 
 H(Fragment=2)         18.93     27.46     22.86 
 O(Fragment=2)         17.47     13.31     24.7 
 H(Fragment=2)         17.46     13.01     23.79 
 H(Fragment=2)         17.22     14.24     24.64 
 O(Fragment=2)         22.42     27.94     21.4 
 H(Fragment=2)         21.52     27.64     21.44 
 H(Fragment=2)         22.55     28.42     22.22 
 O(Fragment=2)         15.28     13.1      19.2 
 H(Fragment=2)         14.66     13.83     19.25 
 H(Fragment=2)         15.91     13.37     18.53 
 O(Fragment=2)         21.47     27.14     16.37 
 H(Fragment=2)         22.06     26.51     15.95 
 H(Fragment=2)         21.9      27.37     17.19 
 O(Fragment=2)         25.9      14.7      22.96 
 H(Fragment=2)         25.94     14.37     23.85 
 H(Fragment=2)         25.07     14.39     22.61 
 O(Fragment=2)         27.7      18.26     21.3 
 H(Fragment=2)         28.47     18.54     20.82 
 H(Fragment=2)         27.82     17.32     21.42 
 O(Fragment=2)         25.56     14.42     16.27 
 H(Fragment=2)         25.55     15.34     16.54 
 H(Fragment=2)         25.81     13.94     17.05 
 O(Fragment=2)         14.41     26.26     19.51 
 H(Fragment=2)         13.69     26.59     18.97 
 H(Fragment=2)         14.09     25.44     19.88 
 O(Fragment=2)         15.93     17.33     27.32 
 H(Fragment=2)         16.48     17.03     26.59 
 H(Fragment=2)         16.49     17.95     27.79 
 O(Fragment=2)         19.24     19.02     12.05 
 H(Fragment=2)         20.18     18.85     12. 
 H(Fragment=2)         19.05     19.5      11.24 
 O(Fragment=2)         27.36     23.35     20.69 
 H(Fragment=2)         26.99     24.17     20.36 
 H(Fragment=2)         28.3      23.43     20.53 
 O(Fragment=2)         16.08     26.78     22.14 
 H(Fragment=2)         15.71     26.78     21.26 
 H(Fragment=2)         16.44     27.66     22.25 
 O(Fragment=2)         24.66     21.58     13.09 
 H(Fragment=2)         23.93     22.13     12.79 
 H(Fragment=2)         24.99     22.02     13.87 
 O(Fragment=2)         23.06     27.82     18.55 
 H(Fragment=2)         23.1      28.       19.49 
 H(Fragment=2)         23.71     27.13     18.41 
 O(Fragment=2)         22.06     20.76     28.17 
 H(Fragment=2)         22.57     20.6      28.96 
 H(Fragment=2)         22.49     21.5      27.75 
 O(Fragment=2)         18.53     13.28     15.36 
 H(Fragment=2)         19.29     13.42     14.79 
 H(Fragment=2)         18.36     12.34     15.3 
 O(Fragment=2)         16.36     28.02     18.87 
 H(Fragment=2)         15.72     27.38     19.19 
 H(Fragment=2)         16.93     27.52     18.29 
 O(Fragment=2)         19.13     24.1      27.59 
 H(Fragment=2)         19.73     23.88     28.3 
 H(Fragment=2)         18.56     23.34     27.51 
 O(Fragment=2)         13.06     24.92     23.5 
 H(Fragment=2)         13.44     25.47     24.19 
 H(Fragment=2)         13.63     24.15     23.47 
 O(Fragment=2)         23.13     16.05     12.91 
 H(Fragment=2)         23.29     15.11     12.93 
 H(Fragment=2)         23.81     16.43     13.47 
 O(Fragment=2)         25.48     17.21     13.83 
 H(Fragment=2)         25.93     17.53     14.62 
 H(Fragment=2)         25.67     17.87     13.16 
 O(Fragment=2)         11.38     16.76     19.8 
 H(Fragment=2)         11.54     16.5      20.71 
 H(Fragment=2)         12.03     17.43     19.62 
 O(Fragment=2)         26.58     26.       20.16 
 H(Fragment=2)         25.67     26.22     20.33 
 H(Fragment=2)         26.73     26.3      19.27 
 O(Fragment=2)         27.59     23.03     15.31 
 H(Fragment=2)         26.82     22.57     15.66 
 H(Fragment=2)         27.77     23.71     15.96 
 O(Fragment=2)         12.09     16.93     22.45 
 H(Fragment=2)         11.6      16.75     23.25 
 H(Fragment=2)         12.1      17.88     22.39 
 O(Fragment=2)         29.52     21.34     20.08 
 H(Fragment=2)         28.56     21.43     20.1 
 H(Fragment=2)         29.77     21.61     19.2 
 O(Fragment=2)         26.17     20.68     26.38 
 H(Fragment=2)         26.53     20.05     25.75 
 H(Fragment=2)         25.73     20.13     27.04 
 O(Fragment=2)         20.38     12.77     26.02 
 H(Fragment=2)         19.8      13.14     25.35 
 H(Fragment=2)         19.79     12.38     26.66 
 O(Fragment=2)         12.91     14.51     18.31 
 H(Fragment=2)         12.51     15.08     17.65 
 H(Fragment=2)         12.89     15.02     19.12 
 O(Fragment=2)         14.79     21.64     13.15 
 H(Fragment=2)         14.49     22.53     13. 
 H(Fragment=2)         15.52     21.52     12.55 
 O(Fragment=2)         14.98     26.29     24.94 
 H(Fragment=2)         15.67     25.86     25.44 
 H(Fragment=2)         15.24     26.16     24.02 
 O(Fragment=2)         20.55     10.64     17.43 
 H(Fragment=2)         20.55     11.51     17.83 
 H(Fragment=2)         20.3      10.05     18.15 
 O(Fragment=2)         10.41     19.95     20.59 
 H(Fragment=2)         11.22     19.54     20.87 
 H(Fragment=2)         10.28     20.67     21.21 
 O(Fragment=2)         28.6      15.69     18.46 
 H(Fragment=2)         27.66     15.85     18.41 
 H(Fragment=2)         28.77     15.57     19.39 
 O(Fragment=2)         11.05     23.86     19.7 
 H(Fragment=2)         11.15     24.63     20.26 
 H(Fragment=2)         11.76     23.27     19.97 
 O(Fragment=2)         14.66     13.86     15.56 
 H(Fragment=2)         14.23     14.64     15.92 
 H(Fragment=2)         13.93     13.3      15.29 
 O(Fragment=2)         14.07     18.98     12.77 
 H(Fragment=2)         14.99     18.71     12.79 
 H(Fragment=2)         14.09     19.91     12.97 
 O(Fragment=2)         21.92     11.62     22.23 
 H(Fragment=2)         21.79     11.16     23.05 
 H(Fragment=2)         22.59     11.12     21.77 
 O(Fragment=2)         23.36     13.4      13.96 
 H(Fragment=2)         23.09     12.49     13.84 
 H(Fragment=2)         23.44     13.5      14.91 
 O(Fragment=2)         20.86     29.63     18.79 
 H(Fragment=2)         21.4      28.84     18.91 
 H(Fragment=2)         20.33     29.68     19.59 
 O(Fragment=2)         12.91     20.03     26.9 
 H(Fragment=2)         13.62     19.62     26.4 
 H(Fragment=2)         12.34     19.3      27.15 
 O(Fragment=2)         18.17     27.56     24.65 
 H(Fragment=2)         17.97     28.49     24.76 
 H(Fragment=2)         17.56     27.11     25.23 
 O(Fragment=2)         20.29     24.07     11.55 
 H(Fragment=2)         19.44     24.19     11.97 
 H(Fragment=2)         20.32     24.73     10.86 
 O(Fragment=2)         28.04     15.32     21.19 
 H(Fragment=2)         27.33     14.79     21.54 
 H(Fragment=2)         28.83     14.82     21.39 
 O(Fragment=2)         19.41     28.76     15.32 
 H(Fragment=2)         19.98     28.03     15.58 
 H(Fragment=2)         19.55     29.42     16. 
 
 NAtoms=    385 NQM=      385 NQMF=       0 NMMI=      0 NMMIF=      0
                NMic=       0 NMicF=      0.
                    Isotopes and Nuclear Properties:
 (Nuclear quadrupole moments (NQMom) in fm**2, nuclear magnetic moments (NMagM)
  in nuclear magnetons)

  Atom         1           2           3           4           5           6           7           8           9          10
 IAtWgt=          79          16           1           1          16           1           1          16           1           1
 AtmWgt=  78.9183361  15.9949146   1.0078250   1.0078250  15.9949146   1.0078250   1.0078250  15.9949146   1.0078250   1.0078250
 NucSpn=           3           0           1           1           0           1           1           0           1           1
 AtZEff=   0.0000000   0.0000000   0.0000000   0.0000000   0.0000000   0.0000000   0.0000000   0.0000000   0.0000000   0.0000000
 NQMom=   31.3000000   0.0000000   0.0000000   0.0000000   0.0000000   0.0000000   0.0000000   0.0000000   0.0000000   0.0000000
 NMagM=    2.1063990   0.0000000   2.7928460   2.7928460   0.0000000   2.7928460   2.7928460   0.0000000   2.7928460   2.7928460
 AtZNuc=  35.0000000   8.0000000   1.0000000   1.0000000   8.0000000   1.0000000   1.0000000   8.0000000   1.0000000   1.0000000

  Atom        11          12          13          14          15          16          17          18          19          20
 IAtWgt=          16           1           1          16           1           1          16           1           1          16
 AtmWgt=  15.9949146   1.0078250   1.0078250  15.9949146   1.0078250   1.0078250  15.9949146   1.0078250   1.0078250  15.9949146
 NucSpn=           0           1           1           0           1           1           0           1           1           0
 AtZEff=   0.0000000   0.0000000   0.0000000   0.0000000   0.0000000   0.0000000   0.0000000   0.0000000   0.0000000   0.0000000
 NQMom=    0.0000000   0.0000000   0.0000000   0.0000000   0.0000000   0.0000000   0.0000000   0.0000000   0.0000000   0.0000000
 NMagM=    0.0000000   2.7928460   2.7928460   0.0000000   2.7928460   2.7928460   0.0000000   2.7928460   2.7928460   0.0000000
 AtZNuc=   8.0000000   1.0000000   1.0000000   8.0000000   1.0000000   1.0000000   8.0000000   1.0000000   1.0000000   8.0000000

  Atom        21          22          23          24          25          26          27          28          29          30
 IAtWgt=           1           1          16           1           1          16           1           1          16           1
 AtmWgt=   1.0078250   1.0078250  15.9949146   1.0078250   1.0078250  15.9949146   1.0078250   1.0078250  15.9949146   1.0078250
 NucSpn=           1           1           0           1           1           0           1           1           0           1
 AtZEff=   0.0000000   0.0000000   0.0000000   0.0000000   0.0000000   0.0000000   0.0000000   0.0000000   0.0000000   0.0000000
 NQMom=    0.0000000   0.0000000   0.0000000   0.0000000   0.0000000   0.0000000   0.0000000   0.0000000   0.0000000   0.0000000
 NMagM=    2.7928460   2.7928460   0.0000000   2.7928460   2.7928460   0.0000000   2.7928460   2.7928460   0.0000000   2.7928460
 AtZNuc=   1.0000000   1.0000000   8.0000000   1.0000000   1.0000000   8.0000000   1.0000000   1.0000000   8.0000000   1.0000000

  Atom        31          32          33          34          35          36          37          38          39          40
 IAtWgt=           1          16           1           1          16           1           1          16           1           1
 AtmWgt=   1.0078250  15.9949146   1.0078250   1.0078250  15.9949146   1.0078250   1.0078250  15.9949146   1.0078250   1.0078250
 NucSpn=           1           0           1           1           0           1           1           0           1           1
 AtZEff=   0.0000000   0.0000000   0.0000000   0.0000000   0.0000000   0.0000000   0.0000000   0.0000000   0.0000000   0.0000000
 NQMom=    0.0000000   0.0000000   0.0000000   0.0000000   0.0000000   0.0000000   0.0000000   0.0000000   0.0000000   0.0000000
 NMagM=    2.7928460   0.0000000   2.7928460   2.7928460   0.0000000   2.7928460   2.7928460   0.0000000   2.7928460   2.7928460
 AtZNuc=   1.0000000   8.0000000   1.0000000   1.0000000   8.0000000   1.0000000   1.0000000   8.0000000   1.0000000   1.0000000

  Atom        41          42          43          44          45          46          47          48          49          50
 IAtWgt=          16           1           1          16           1           1          16           1           1          16
 AtmWgt=  15.9949146   1.0078250   1.0078250  15.9949146   1.0078250   1.0078250  15.9949146   1.0078250   1.0078250  15.9949146
 NucSpn=           0           1           1           0           1           1           0           1           1           0
 AtZEff=   0.0000000   0.0000000   0.0000000   0.0000000   0.0000000   0.0000000   0.0000000   0.0000000   0.0000000   0.0000000
 NQMom=    0.0000000   0.0000000   0.0000000   0.0000000   0.0000000   0.0000000   0.0000000   0.0000000   0.0000000   0.0000000
 NMagM=    0.0000000   2.7928460   2.7928460   0.0000000   2.7928460   2.7928460   0.0000000   2.7928460   2.7928460   0.0000000
 AtZNuc=   8.0000000   1.0000000   1.0000000   8.0000000   1.0000000   1.0000000   8.0000000   1.0000000   1.0000000   8.0000000

  Atom        51          52          53          54          55          56          57          58          59          60
 IAtWgt=           1           1          16           1           1          16           1           1          16           1
 AtmWgt=   1.0078250   1.0078250  15.9949146   1.0078250   1.0078250  15.9949146   1.0078250   1.0078250  15.9949146   1.0078250
 NucSpn=           1           1           0           1           1           0           1           1           0           1
 AtZEff=   0.0000000   0.0000000   0.0000000   0.0000000   0.0000000   0.0000000   0.0000000   0.0000000   0.0000000   0.0000000
 NQMom=    0.0000000   0.0000000   0.0000000   0.0000000   0.0000000   0.0000000   0.0000000   0.0000000   0.0000000   0.0000000
 NMagM=    2.7928460   2.7928460   0.0000000   2.7928460   2.7928460   0.0000000   2.7928460   2.7928460   0.0000000   2.7928460
 AtZNuc=   1.0000000   1.0000000   8.0000000   1.0000000   1.0000000   8.0000000   1.0000000   1.0000000   8.0000000   1.0000000

  Atom        61          62          63          64          65          66          67          68          69          70
 IAtWgt=           1          16           1           1          16           1           1          16           1           1
 AtmWgt=   1.0078250  15.9949146   1.0078250   1.0078250  15.9949146   1.0078250   1.0078250  15.9949146   1.0078250   1.0078250
 NucSpn=           1           0           1           1           0           1           1           0           1           1
 AtZEff=   0.0000000   0.0000000   0.0000000   0.0000000   0.0000000   0.0000000   0.0000000   0.0000000   0.0000000   0.0000000
 NQMom=    0.0000000   0.0000000   0.0000000   0.0000000   0.0000000   0.0000000   0.0000000   0.0000000   0.0000000   0.0000000
 NMagM=    2.7928460   0.0000000   2.7928460   2.7928460   0.0000000   2.7928460   2.7928460   0.0000000   2.7928460   2.7928460
 AtZNuc=   1.0000000   8.0000000   1.0000000   1.0000000   8.0000000   1.0000000   1.0000000   8.0000000   1.0000000   1.0000000

  Atom        71          72          73          74          75          76          77          78          79          80
 IAtWgt=          16           1           1          16           1           1          16           1           1          16
 AtmWgt=  15.9949146   1.0078250   1.0078250  15.9949146   1.0078250   1.0078250  15.9949146   1.0078250   1.0078250  15.9949146
 NucSpn=           0           1           1           0           1           1           0           1           1           0
 AtZEff=   0.0000000   0.0000000   0.0000000   0.0000000   0.0000000   0.0000000   0.0000000   0.0000000   0.0000000   0.0000000
 NQMom=    0.0000000   0.0000000   0.0000000   0.0000000   0.0000000   0.0000000   0.0000000   0.0000000   0.0000000   0.0000000
 NMagM=    0.0000000   2.7928460   2.7928460   0.0000000   2.7928460   2.7928460   0.0000000   2.7928460   2.7928460   0.0000000
 AtZNuc=   8.0000000   1.0000000   1.0000000   8.0000000   1.0000000   1.0000000   8.0000000   1.0000000   1.0000000   8.0000000

  Atom        81          82          83          84          85          86          87          88          89          90
 IAtWgt=           1           1          16           1           1          16           1           1          16           1
 AtmWgt=   1.0078250   1.0078250  15.9949146   1.0078250   1.0078250  15.9949146   1.0078250   1.0078250  15.9949146   1.0078250
 NucSpn=           1           1           0           1           1           0           1           1           0           1
 AtZEff=   0.0000000   0.0000000   0.0000000   0.0000000   0.0000000   0.0000000   0.0000000   0.0000000   0.0000000   0.0000000
 NQMom=    0.0000000   0.0000000   0.0000000   0.0000000   0.0000000   0.0000000   0.0000000   0.0000000   0.0000000   0.0000000
 NMagM=    2.7928460   2.7928460   0.0000000   2.7928460   2.7928460   0.0000000   2.7928460   2.7928460   0.0000000   2.7928460
 AtZNuc=   1.0000000   1.0000000   8.0000000   1.0000000   1.0000000   8.0000000   1.0000000   1.0000000   8.0000000   1.0000000

  Atom        91          92          93          94          95          96          97          98          99         100
 IAtWgt=           1          16           1           1          16           1           1          16           1           1
 AtmWgt=   1.0078250  15.9949146   1.0078250   1.0078250  15.9949146   1.0078250   1.0078250  15.9949146   1.0078250   1.0078250
 NucSpn=           1           0           1           1           0           1           1           0           1           1
 AtZEff=   0.0000000   0.0000000   0.0000000   0.0000000   0.0000000   0.0000000   0.0000000   0.0000000   0.0000000   0.0000000
 NQMom=    0.0000000   0.0000000   0.0000000   0.0000000   0.0000000   0.0000000   0.0000000   0.0000000   0.0000000   0.0000000
 NMagM=    2.7928460   0.0000000   2.7928460   2.7928460   0.0000000   2.7928460   2.7928460   0.0000000   2.7928460   2.7928460
 AtZNuc=   1.0000000   8.0000000   1.0000000   1.0000000   8.0000000   1.0000000   1.0000000   8.0000000   1.0000000   1.0000000

  Atom       101         102         103         104         105         106         107         108         109         110
 IAtWgt=          16           1           1          16           1           1          16           1           1          16
 AtmWgt=  15.9949146   1.0078250   1.0078250  15.9949146   1.0078250   1.0078250  15.9949146   1.0078250   1.0078250  15.9949146
 NucSpn=           0           1           1           0           1           1           0           1           1           0
 AtZEff=   0.0000000   0.0000000   0.0000000   0.0000000   0.0000000   0.0000000   0.0000000   0.0000000   0.0000000   0.0000000
 NQMom=    0.0000000   0.0000000   0.0000000   0.0000000   0.0000000   0.0000000   0.0000000   0.0000000   0.0000000   0.0000000
 NMagM=    0.0000000   2.7928460   2.7928460   0.0000000   2.7928460   2.7928460   0.0000000   2.7928460   2.7928460   0.0000000
 AtZNuc=   8.0000000   1.0000000   1.0000000   8.0000000   1.0000000   1.0000000   8.0000000   1.0000000   1.0000000   8.0000000

  Atom       111         112         113         114         115         116         117         118         119         120
 IAtWgt=           1           1          16           1           1          16           1           1          16           1
 AtmWgt=   1.0078250   1.0078250  15.9949146   1.0078250   1.0078250  15.9949146   1.0078250   1.0078250  15.9949146   1.0078250
 NucSpn=           1           1           0           1           1           0           1           1           0           1
 AtZEff=   0.0000000   0.0000000   0.0000000   0.0000000   0.0000000   0.0000000   0.0000000   0.0000000   0.0000000   0.0000000
 NQMom=    0.0000000   0.0000000   0.0000000   0.0000000   0.0000000   0.0000000   0.0000000   0.0000000   0.0000000   0.0000000
 NMagM=    2.7928460   2.7928460   0.0000000   2.7928460   2.7928460   0.0000000   2.7928460   2.7928460   0.0000000   2.7928460
 AtZNuc=   1.0000000   1.0000000   8.0000000   1.0000000   1.0000000   8.0000000   1.0000000   1.0000000   8.0000000   1.0000000

  Atom       121         122         123         124         125         126         127         128         129         130
 IAtWgt=           1          16           1           1          16           1           1          16           1           1
 AtmWgt=   1.0078250  15.9949146   1.0078250   1.0078250  15.9949146   1.0078250   1.0078250  15.9949146   1.0078250   1.0078250
 NucSpn=           1           0           1           1           0           1           1           0           1           1
 AtZEff=   0.0000000   0.0000000   0.0000000   0.0000000   0.0000000   0.0000000   0.0000000   0.0000000   0.0000000   0.0000000
 NQMom=    0.0000000   0.0000000   0.0000000   0.0000000   0.0000000   0.0000000   0.0000000   0.0000000   0.0000000   0.0000000
 NMagM=    2.7928460   0.0000000   2.7928460   2.7928460   0.0000000   2.7928460   2.7928460   0.0000000   2.7928460   2.7928460
 AtZNuc=   1.0000000   8.0000000   1.0000000   1.0000000   8.0000000   1.0000000   1.0000000   8.0000000   1.0000000   1.0000000

  Atom       131         132         133         134         135         136         137         138         139         140
 IAtWgt=          16           1           1          16           1           1          16           1           1          16
 AtmWgt=  15.9949146   1.0078250   1.0078250  15.9949146   1.0078250   1.0078250  15.9949146   1.0078250   1.0078250  15.9949146
 NucSpn=           0           1           1           0           1           1           0           1           1           0
 AtZEff=   0.0000000   0.0000000   0.0000000   0.0000000   0.0000000   0.0000000   0.0000000   0.0000000   0.0000000   0.0000000
 NQMom=    0.0000000   0.0000000   0.0000000   0.0000000   0.0000000   0.0000000   0.0000000   0.0000000   0.0000000   0.0000000
 NMagM=    0.0000000   2.7928460   2.7928460   0.0000000   2.7928460   2.7928460   0.0000000   2.7928460   2.7928460   0.0000000
 AtZNuc=   8.0000000   1.0000000   1.0000000   8.0000000   1.0000000   1.0000000   8.0000000   1.0000000   1.0000000   8.0000000

  Atom       141         142         143         144         145         146         147         148         149         150
 IAtWgt=           1           1          16           1           1          16           1           1          16           1
 AtmWgt=   1.0078250   1.0078250  15.9949146   1.0078250   1.0078250  15.9949146   1.0078250   1.0078250  15.9949146   1.0078250
 NucSpn=           1           1           0           1           1           0           1           1           0           1
 AtZEff=   0.0000000   0.0000000   0.0000000   0.0000000   0.0000000   0.0000000   0.0000000   0.0000000   0.0000000   0.0000000
 NQMom=    0.0000000   0.0000000   0.0000000   0.0000000   0.0000000   0.0000000   0.0000000   0.0000000   0.0000000   0.0000000
 NMagM=    2.7928460   2.7928460   0.0000000   2.7928460   2.7928460   0.0000000   2.7928460   2.7928460   0.0000000   2.7928460
 AtZNuc=   1.0000000   1.0000000   8.0000000   1.0000000   1.0000000   8.0000000   1.0000000   1.0000000   8.0000000   1.0000000

  Atom       151         152         153         154         155         156         157         158         159         160
 IAtWgt=           1          16           1           1          16           1           1          16           1           1
 AtmWgt=   1.0078250  15.9949146   1.0078250   1.0078250  15.9949146   1.0078250   1.0078250  15.9949146   1.0078250   1.0078250
 NucSpn=           1           0           1           1           0           1           1           0           1           1
 AtZEff=   0.0000000   0.0000000   0.0000000   0.0000000   0.0000000   0.0000000   0.0000000   0.0000000   0.0000000   0.0000000
 NQMom=    0.0000000   0.0000000   0.0000000   0.0000000   0.0000000   0.0000000   0.0000000   0.0000000   0.0000000   0.0000000
 NMagM=    2.7928460   0.0000000   2.7928460   2.7928460   0.0000000   2.7928460   2.7928460   0.0000000   2.7928460   2.7928460
 AtZNuc=   1.0000000   8.0000000   1.0000000   1.0000000   8.0000000   1.0000000   1.0000000   8.0000000   1.0000000   1.0000000

  Atom       161         162         163         164         165         166         167         168         169         170
 IAtWgt=          16           1           1          16           1           1          16           1           1          16
 AtmWgt=  15.9949146   1.0078250   1.0078250  15.9949146   1.0078250   1.0078250  15.9949146   1.0078250   1.0078250  15.9949146
 NucSpn=           0           1           1           0           1           1           0           1           1           0
 AtZEff=   0.0000000   0.0000000   0.0000000   0.0000000   0.0000000   0.0000000   0.0000000   0.0000000   0.0000000   0.0000000
 NQMom=    0.0000000   0.0000000   0.0000000   0.0000000   0.0000000   0.0000000   0.0000000   0.0000000   0.0000000   0.0000000
 NMagM=    0.0000000   2.7928460   2.7928460   0.0000000   2.7928460   2.7928460   0.0000000   2.7928460   2.7928460   0.0000000
 AtZNuc=   8.0000000   1.0000000   1.0000000   8.0000000   1.0000000   1.0000000   8.0000000   1.0000000   1.0000000   8.0000000

  Atom       171         172         173         174         175         176         177         178         179         180
 IAtWgt=           1           1          16           1           1          16           1           1          16           1
 AtmWgt=   1.0078250   1.0078250  15.9949146   1.0078250   1.0078250  15.9949146   1.0078250   1.0078250  15.9949146   1.0078250
 NucSpn=           1           1           0           1           1           0           1           1           0           1
 AtZEff=   0.0000000   0.0000000   0.0000000   0.0000000   0.0000000   0.0000000   0.0000000   0.0000000   0.0000000   0.0000000
 NQMom=    0.0000000   0.0000000   0.0000000   0.0000000   0.0000000   0.0000000   0.0000000   0.0000000   0.0000000   0.0000000
 NMagM=    2.7928460   2.7928460   0.0000000   2.7928460   2.7928460   0.0000000   2.7928460   2.7928460   0.0000000   2.7928460
 AtZNuc=   1.0000000   1.0000000   8.0000000   1.0000000   1.0000000   8.0000000   1.0000000   1.0000000   8.0000000   1.0000000

  Atom       181         182         183         184         185         186         187         188         189         190
 IAtWgt=           1          16           1           1          16           1           1          16           1           1
 AtmWgt=   1.0078250  15.9949146   1.0078250   1.0078250  15.9949146   1.0078250   1.0078250  15.9949146   1.0078250   1.0078250
 NucSpn=           1           0           1           1           0           1           1           0           1           1
 AtZEff=   0.0000000   0.0000000   0.0000000   0.0000000   0.0000000   0.0000000   0.0000000   0.0000000   0.0000000   0.0000000
 NQMom=    0.0000000   0.0000000   0.0000000   0.0000000   0.0000000   0.0000000   0.0000000   0.0000000   0.0000000   0.0000000
 NMagM=    2.7928460   0.0000000   2.7928460   2.7928460   0.0000000   2.7928460   2.7928460   0.0000000   2.7928460   2.7928460
 AtZNuc=   1.0000000   8.0000000   1.0000000   1.0000000   8.0000000   1.0000000   1.0000000   8.0000000   1.0000000   1.0000000

  Atom       191         192         193         194         195         196         197         198         199         200
 IAtWgt=          16           1           1          16           1           1          16           1           1          16
 AtmWgt=  15.9949146   1.0078250   1.0078250  15.9949146   1.0078250   1.0078250  15.9949146   1.0078250   1.0078250  15.9949146
 NucSpn=           0           1           1           0           1           1           0           1           1           0
 AtZEff=   0.0000000   0.0000000   0.0000000   0.0000000   0.0000000   0.0000000   0.0000000   0.0000000   0.0000000   0.0000000
 NQMom=    0.0000000   0.0000000   0.0000000   0.0000000   0.0000000   0.0000000   0.0000000   0.0000000   0.0000000   0.0000000
 NMagM=    0.0000000   2.7928460   2.7928460   0.0000000   2.7928460   2.7928460   0.0000000   2.7928460   2.7928460   0.0000000
 AtZNuc=   8.0000000   1.0000000   1.0000000   8.0000000   1.0000000   1.0000000   8.0000000   1.0000000   1.0000000   8.0000000

  Atom       201         202         203         204         205         206         207         208         209         210
 IAtWgt=           1           1          16           1           1          16           1           1          16           1
 AtmWgt=   1.0078250   1.0078250  15.9949146   1.0078250   1.0078250  15.9949146   1.0078250   1.0078250  15.9949146   1.0078250
 NucSpn=           1           1           0           1           1           0           1           1           0           1
 AtZEff=   0.0000000   0.0000000   0.0000000   0.0000000   0.0000000   0.0000000   0.0000000   0.0000000   0.0000000   0.0000000
 NQMom=    0.0000000   0.0000000   0.0000000   0.0000000   0.0000000   0.0000000   0.0000000   0.0000000   0.0000000   0.0000000
 NMagM=    2.7928460   2.7928460   0.0000000   2.7928460   2.7928460   0.0000000   2.7928460   2.7928460   0.0000000   2.7928460
 AtZNuc=   1.0000000   1.0000000   8.0000000   1.0000000   1.0000000   8.0000000   1.0000000   1.0000000   8.0000000   1.0000000

  Atom       211         212         213         214         215         216         217         218         219         220
 IAtWgt=           1          16           1           1          16           1           1          16           1           1
 AtmWgt=   1.0078250  15.9949146   1.0078250   1.0078250  15.9949146   1.0078250   1.0078250  15.9949146   1.0078250   1.0078250
 NucSpn=           1           0           1           1           0           1           1           0           1           1
 AtZEff=   0.0000000   0.0000000   0.0000000   0.0000000   0.0000000   0.0000000   0.0000000   0.0000000   0.0000000   0.0000000
 NQMom=    0.0000000   0.0000000   0.0000000   0.0000000   0.0000000   0.0000000   0.0000000   0.0000000   0.0000000   0.0000000
 NMagM=    2.7928460   0.0000000   2.7928460   2.7928460   0.0000000   2.7928460   2.7928460   0.0000000   2.7928460   2.7928460
 AtZNuc=   1.0000000   8.0000000   1.0000000   1.0000000   8.0000000   1.0000000   1.0000000   8.0000000   1.0000000   1.0000000

  Atom       221         222         223         224         225         226         227         228         229         230
 IAtWgt=          16           1           1          16           1           1          16           1           1          16
 AtmWgt=  15.9949146   1.0078250   1.0078250  15.9949146   1.0078250   1.0078250  15.9949146   1.0078250   1.0078250  15.9949146
 NucSpn=           0           1           1           0           1           1           0           1           1           0
 AtZEff=   0.0000000   0.0000000   0.0000000   0.0000000   0.0000000   0.0000000   0.0000000   0.0000000   0.0000000   0.0000000
 NQMom=    0.0000000   0.0000000   0.0000000   0.0000000   0.0000000   0.0000000   0.0000000   0.0000000   0.0000000   0.0000000
 NMagM=    0.0000000   2.7928460   2.7928460   0.0000000   2.7928460   2.7928460   0.0000000   2.7928460   2.7928460   0.0000000
 AtZNuc=   8.0000000   1.0000000   1.0000000   8.0000000   1.0000000   1.0000000   8.0000000   1.0000000   1.0000000   8.0000000

  Atom       231         232         233         234         235         236         237         238         239         240
 IAtWgt=           1           1          16           1           1          16           1           1          16           1
 AtmWgt=   1.0078250   1.0078250  15.9949146   1.0078250   1.0078250  15.9949146   1.0078250   1.0078250  15.9949146   1.0078250
 NucSpn=           1           1           0           1           1           0           1           1           0           1
 AtZEff=   0.0000000   0.0000000   0.0000000   0.0000000   0.0000000   0.0000000   0.0000000   0.0000000   0.0000000   0.0000000
 NQMom=    0.0000000   0.0000000   0.0000000   0.0000000   0.0000000   0.0000000   0.0000000   0.0000000   0.0000000   0.0000000
 NMagM=    2.7928460   2.7928460   0.0000000   2.7928460   2.7928460   0.0000000   2.7928460   2.7928460   0.0000000   2.7928460
 AtZNuc=   1.0000000   1.0000000   8.0000000   1.0000000   1.0000000   8.0000000   1.0000000   1.0000000   8.0000000   1.0000000

  Atom       241         242         243         244         245         246         247         248         249         250
 IAtWgt=           1          16           1           1          16           1           1          16           1           1
 AtmWgt=   1.0078250  15.9949146   1.0078250   1.0078250  15.9949146   1.0078250   1.0078250  15.9949146   1.0078250   1.0078250
 NucSpn=           1           0           1           1           0           1           1           0           1           1
 AtZEff=   0.0000000   0.0000000   0.0000000   0.0000000   0.0000000   0.0000000   0.0000000   0.0000000   0.0000000   0.0000000
 NQMom=    0.0000000   0.0000000   0.0000000   0.0000000   0.0000000   0.0000000   0.0000000   0.0000000   0.0000000   0.0000000
 NMagM=    2.7928460   0.0000000   2.7928460   2.7928460   0.0000000   2.7928460   2.7928460   0.0000000   2.7928460   2.7928460
 AtZNuc=   1.0000000   8.0000000   1.0000000   1.0000000   8.0000000   1.0000000   1.0000000   8.0000000   1.0000000   1.0000000

  Atom       251         252         253         254         255         256         257         258         259         260
 IAtWgt=          16           1           1          16           1           1          16           1           1          16
 AtmWgt=  15.9949146   1.0078250   1.0078250  15.9949146   1.0078250   1.0078250  15.9949146   1.0078250   1.0078250  15.9949146
 NucSpn=           0           1           1           0           1           1           0           1           1           0
 AtZEff=   0.0000000   0.0000000   0.0000000   0.0000000   0.0000000   0.0000000   0.0000000   0.0000000   0.0000000   0.0000000
 NQMom=    0.0000000   0.0000000   0.0000000   0.0000000   0.0000000   0.0000000   0.0000000   0.0000000   0.0000000   0.0000000
 NMagM=    0.0000000   2.7928460   2.7928460   0.0000000   2.7928460   2.7928460   0.0000000   2.7928460   2.7928460   0.0000000
 AtZNuc=   8.0000000   1.0000000   1.0000000   8.0000000   1.0000000   1.0000000   8.0000000   1.0000000   1.0000000   8.0000000

  Atom       261         262         263         264         265         266         267         268         269         270
 IAtWgt=           1           1          16           1           1          16           1           1          16           1
 AtmWgt=   1.0078250   1.0078250  15.9949146   1.0078250   1.0078250  15.9949146   1.0078250   1.0078250  15.9949146   1.0078250
 NucSpn=           1           1           0           1           1           0           1           1           0           1
 AtZEff=   0.0000000   0.0000000   0.0000000   0.0000000   0.0000000   0.0000000   0.0000000   0.0000000   0.0000000   0.0000000
 NQMom=    0.0000000   0.0000000   0.0000000   0.0000000   0.0000000   0.0000000   0.0000000   0.0000000   0.0000000   0.0000000
 NMagM=    2.7928460   2.7928460   0.0000000   2.7928460   2.7928460   0.0000000   2.7928460   2.7928460   0.0000000   2.7928460
 AtZNuc=   1.0000000   1.0000000   8.0000000   1.0000000   1.0000000   8.0000000   1.0000000   1.0000000   8.0000000   1.0000000

  Atom       271         272         273         274         275         276         277         278         279         280
 IAtWgt=           1          16           1           1          16           1           1          16           1           1
 AtmWgt=   1.0078250  15.9949146   1.0078250   1.0078250  15.9949146   1.0078250   1.0078250  15.9949146   1.0078250   1.0078250
 NucSpn=           1           0           1           1           0           1           1           0           1           1
 AtZEff=   0.0000000   0.0000000   0.0000000   0.0000000   0.0000000   0.0000000   0.0000000   0.0000000   0.0000000   0.0000000
 NQMom=    0.0000000   0.0000000   0.0000000   0.0000000   0.0000000   0.0000000   0.0000000   0.0000000   0.0000000   0.0000000
 NMagM=    2.7928460   0.0000000   2.7928460   2.7928460   0.0000000   2.7928460   2.7928460   0.0000000   2.7928460   2.7928460
 AtZNuc=   1.0000000   8.0000000   1.0000000   1.0000000   8.0000000   1.0000000   1.0000000   8.0000000   1.0000000   1.0000000

  Atom       281         282         283         284         285         286         287         288         289         290
 IAtWgt=          16           1           1          16           1           1          16           1           1          16
 AtmWgt=  15.9949146   1.0078250   1.0078250  15.9949146   1.0078250   1.0078250  15.9949146   1.0078250   1.0078250  15.9949146
 NucSpn=           0           1           1           0           1           1           0           1           1           0
 AtZEff=   0.0000000   0.0000000   0.0000000   0.0000000   0.0000000   0.0000000   0.0000000   0.0000000   0.0000000   0.0000000
 NQMom=    0.0000000   0.0000000   0.0000000   0.0000000   0.0000000   0.0000000   0.0000000   0.0000000   0.0000000   0.0000000
 NMagM=    0.0000000   2.7928460   2.7928460   0.0000000   2.7928460   2.7928460   0.0000000   2.7928460   2.7928460   0.0000000
 AtZNuc=   8.0000000   1.0000000   1.0000000   8.0000000   1.0000000   1.0000000   8.0000000   1.0000000   1.0000000   8.0000000

  Atom       291         292         293         294         295         296         297         298         299         300
 IAtWgt=           1           1          16           1           1          16           1           1          16           1
 AtmWgt=   1.0078250   1.0078250  15.9949146   1.0078250   1.0078250  15.9949146   1.0078250   1.0078250  15.9949146   1.0078250
 NucSpn=           1           1           0           1           1           0           1           1           0           1
 AtZEff=   0.0000000   0.0000000   0.0000000   0.0000000   0.0000000   0.0000000   0.0000000   0.0000000   0.0000000   0.0000000
 NQMom=    0.0000000   0.0000000   0.0000000   0.0000000   0.0000000   0.0000000   0.0000000   0.0000000   0.0000000   0.0000000
 NMagM=    2.7928460   2.7928460   0.0000000   2.7928460   2.7928460   0.0000000   2.7928460   2.7928460   0.0000000   2.7928460
 AtZNuc=   1.0000000   1.0000000   8.0000000   1.0000000   1.0000000   8.0000000   1.0000000   1.0000000   8.0000000   1.0000000

  Atom       301         302         303         304         305         306         307         308         309         310
 IAtWgt=           1          16           1           1          16           1           1          16           1           1
 AtmWgt=   1.0078250  15.9949146   1.0078250   1.0078250  15.9949146   1.0078250   1.0078250  15.9949146   1.0078250   1.0078250
 NucSpn=           1           0           1           1           0           1           1           0           1           1
 AtZEff=   0.0000000   0.0000000   0.0000000   0.0000000   0.0000000   0.0000000   0.0000000   0.0000000   0.0000000   0.0000000
 NQMom=    0.0000000   0.0000000   0.0000000   0.0000000   0.0000000   0.0000000   0.0000000   0.0000000   0.0000000   0.0000000
 NMagM=    2.7928460   0.0000000   2.7928460   2.7928460   0.0000000   2.7928460   2.7928460   0.0000000   2.7928460   2.7928460
 AtZNuc=   1.0000000   8.0000000   1.0000000   1.0000000   8.0000000   1.0000000   1.0000000   8.0000000   1.0000000   1.0000000

  Atom       311         312         313         314         315         316         317         318         319         320
 IAtWgt=          16           1           1          16           1           1          16           1           1          16
 AtmWgt=  15.9949146   1.0078250   1.0078250  15.9949146   1.0078250   1.0078250  15.9949146   1.0078250   1.0078250  15.9949146
 NucSpn=           0           1           1           0           1           1           0           1           1           0
 AtZEff=   0.0000000   0.0000000   0.0000000   0.0000000   0.0000000   0.0000000   0.0000000   0.0000000   0.0000000   0.0000000
 NQMom=    0.0000000   0.0000000   0.0000000   0.0000000   0.0000000   0.0000000   0.0000000   0.0000000   0.0000000   0.0000000
 NMagM=    0.0000000   2.7928460   2.7928460   0.0000000   2.7928460   2.7928460   0.0000000   2.7928460   2.7928460   0.0000000
 AtZNuc=   8.0000000   1.0000000   1.0000000   8.0000000   1.0000000   1.0000000   8.0000000   1.0000000   1.0000000   8.0000000

  Atom       321         322         323         324         325         326         327         328         329         330
 IAtWgt=           1           1          16           1           1          16           1           1          16           1
 AtmWgt=   1.0078250   1.0078250  15.9949146   1.0078250   1.0078250  15.9949146   1.0078250   1.0078250  15.9949146   1.0078250
 NucSpn=           1           1           0           1           1           0           1           1           0           1
 AtZEff=   0.0000000   0.0000000   0.0000000   0.0000000   0.0000000   0.0000000   0.0000000   0.0000000   0.0000000   0.0000000
 NQMom=    0.0000000   0.0000000   0.0000000   0.0000000   0.0000000   0.0000000   0.0000000   0.0000000   0.0000000   0.0000000
 NMagM=    2.7928460   2.7928460   0.0000000   2.7928460   2.7928460   0.0000000   2.7928460   2.7928460   0.0000000   2.7928460
 AtZNuc=   1.0000000   1.0000000   8.0000000   1.0000000   1.0000000   8.0000000   1.0000000   1.0000000   8.0000000   1.0000000

  Atom       331         332         333         334         335         336         337         338         339         340
 IAtWgt=           1          16           1           1          16           1           1          16           1           1
 AtmWgt=   1.0078250  15.9949146   1.0078250   1.0078250  15.9949146   1.0078250   1.0078250  15.9949146   1.0078250   1.0078250
 NucSpn=           1           0           1           1           0           1           1           0           1           1
 AtZEff=   0.0000000   0.0000000   0.0000000   0.0000000   0.0000000   0.0000000   0.0000000   0.0000000   0.0000000   0.0000000
 NQMom=    0.0000000   0.0000000   0.0000000   0.0000000   0.0000000   0.0000000   0.0000000   0.0000000   0.0000000   0.0000000
 NMagM=    2.7928460   0.0000000   2.7928460   2.7928460   0.0000000   2.7928460   2.7928460   0.0000000   2.7928460   2.7928460
 AtZNuc=   1.0000000   8.0000000   1.0000000   1.0000000   8.0000000   1.0000000   1.0000000   8.0000000   1.0000000   1.0000000

  Atom       341         342         343         344         345         346         347         348         349         350
 IAtWgt=          16           1           1          16           1           1          16           1           1          16
 AtmWgt=  15.9949146   1.0078250   1.0078250  15.9949146   1.0078250   1.0078250  15.9949146   1.0078250   1.0078250  15.9949146
 NucSpn=           0           1           1           0           1           1           0           1           1           0
 AtZEff=   0.0000000   0.0000000   0.0000000   0.0000000   0.0000000   0.0000000   0.0000000   0.0000000   0.0000000   0.0000000
 NQMom=    0.0000000   0.0000000   0.0000000   0.0000000   0.0000000   0.0000000   0.0000000   0.0000000   0.0000000   0.0000000
 NMagM=    0.0000000   2.7928460   2.7928460   0.0000000   2.7928460   2.7928460   0.0000000   2.7928460   2.7928460   0.0000000
 AtZNuc=   8.0000000   1.0000000   1.0000000   8.0000000   1.0000000   1.0000000   8.0000000   1.0000000   1.0000000   8.0000000

  Atom       351         352         353         354         355         356         357         358         359         360
 IAtWgt=           1           1          16           1           1          16           1           1          16           1
 AtmWgt=   1.0078250   1.0078250  15.9949146   1.0078250   1.0078250  15.9949146   1.0078250   1.0078250  15.9949146   1.0078250
 NucSpn=           1           1           0           1           1           0           1           1           0           1
 AtZEff=   0.0000000   0.0000000   0.0000000   0.0000000   0.0000000   0.0000000   0.0000000   0.0000000   0.0000000   0.0000000
 NQMom=    0.0000000   0.0000000   0.0000000   0.0000000   0.0000000   0.0000000   0.0000000   0.0000000   0.0000000   0.0000000
 NMagM=    2.7928460   2.7928460   0.0000000   2.7928460   2.7928460   0.0000000   2.7928460   2.7928460   0.0000000   2.7928460
 AtZNuc=   1.0000000   1.0000000   8.0000000   1.0000000   1.0000000   8.0000000   1.0000000   1.0000000   8.0000000   1.0000000

  Atom       361         362         363         364         365         366         367         368         369         370
 IAtWgt=           1          16           1           1          16           1           1          16           1           1
 AtmWgt=   1.0078250  15.9949146   1.0078250   1.0078250  15.9949146   1.0078250   1.0078250  15.9949146   1.0078250   1.0078250
 NucSpn=           1           0           1           1           0           1           1           0           1           1
 AtZEff=   0.0000000   0.0000000   0.0000000   0.0000000   0.0000000   0.0000000   0.0000000   0.0000000   0.0000000   0.0000000
 NQMom=    0.0000000   0.0000000   0.0000000   0.0000000   0.0000000   0.0000000   0.0000000   0.0000000   0.0000000   0.0000000
 NMagM=    2.7928460   0.0000000   2.7928460   2.7928460   0.0000000   2.7928460   2.7928460   0.0000000   2.7928460   2.7928460
 AtZNuc=   1.0000000   8.0000000   1.0000000   1.0000000   8.0000000   1.0000000   1.0000000   8.0000000   1.0000000   1.0000000

  Atom       371         372         373         374         375         376         377         378         379         380
 IAtWgt=          16           1           1          16           1           1          16           1           1          16
 AtmWgt=  15.9949146   1.0078250   1.0078250  15.9949146   1.0078250   1.0078250  15.9949146   1.0078250   1.0078250  15.9949146
 NucSpn=           0           1           1           0           1           1           0           1           1           0
 AtZEff=   0.0000000   0.0000000   0.0000000   0.0000000   0.0000000   0.0000000   0.0000000   0.0000000   0.0000000   0.0000000
 NQMom=    0.0000000   0.0000000   0.0000000   0.0000000   0.0000000   0.0000000   0.0000000   0.0000000   0.0000000   0.0000000
 NMagM=    0.0000000   2.7928460   2.7928460   0.0000000   2.7928460   2.7928460   0.0000000   2.7928460   2.7928460   0.0000000
 AtZNuc=   8.0000000   1.0000000   1.0000000   8.0000000   1.0000000   1.0000000   8.0000000   1.0000000   1.0000000   8.0000000

  Atom       381         382         383         384         385
 IAtWgt=           1           1          16           1           1
 AtmWgt=   1.0078250   1.0078250  15.9949146   1.0078250   1.0078250
 NucSpn=           1           1           0           1           1
 AtZEff=   0.0000000   0.0000000   0.0000000   0.0000000   0.0000000
 NQMom=    0.0000000   0.0000000   0.0000000   0.0000000   0.0000000
 NMagM=    2.7928460   2.7928460   0.0000000   2.7928460   2.7928460
 AtZNuc=   1.0000000   1.0000000   8.0000000   1.0000000   1.0000000
 Leave Link  101 at Thu May  3 22:25:06 2018, MaxMem= 14763950080 cpu:        31.2
 (Enter /cm/shared/gaussian/g09.e01/intel64-sandybridge/g09/l103.exe)

 GradGradGradGradGradGradGradGradGradGradGradGradGradGradGradGradGradGrad
 Berny optimization.
 Initialization pass.
 Trust Radius=3.00D-01 FncErr=1.00D-07 GrdErr=1.00D-07
 Number of steps in this run=      2 maximum allowed number of steps=      2.
 GradGradGradGradGradGradGradGradGradGradGradGradGradGradGradGradGradGrad

 Leave Link  103 at Thu May  3 22:25:06 2018, MaxMem= 14763950080 cpu:         3.8
 (Enter /cm/shared/gaussian/g09.e01/intel64-sandybridge/g09/l202.exe)
 Symmetry turned off by external request.
 Stoichiometry    BrH256O128(1-)
 Framework group  C1[X(BrH256O128)]
 Deg. of freedom  1149
 Full point group                 C1      NOp   1
                          Input orientation:                          
 ---------------------------------------------------------------------
 Center     Atomic      Atomic             Coordinates (Angstroms)
 Number     Number       Type             X           Y           Z
 ---------------------------------------------------------------------
      1         35           0       20.000000   20.000000   20.000000
      2          8           0       23.120000   20.300000   20.520000
      3          1           0       22.220000   20.190000   20.220000
      4          1           0       23.220000   21.250000   20.640000
      5          8           0       20.800000   20.140000   23.100000
      6          1           0       20.450000   20.130000   22.210000
      7          1           0       21.330000   19.350000   23.160000
      8          8           0       18.460000   17.470000   21.140000
      9          1           0       18.630000   18.280000   20.670000
     10          1           0       19.170000   17.400000   21.770000
     11          8           0       20.300000   19.420000   16.810000
     12          1           0       20.350000   19.520000   17.770000
     13          1           0       19.470000   18.970000   16.670000
     14          8           0       20.710000   22.840000   18.730000
     15          1           0       20.330000   23.090000   17.890000
     16          1           0       20.530000   21.900000   18.800000
     17          8           0       17.130000   19.610000   18.610000
     18          1           0       17.800000   19.860000   19.240000
     19          1           0       17.500000   18.850000   18.150000
     20          8           0       17.490000   20.450000   22.870000
     21          1           0       16.950000   21.220000   23.050000
     22          1           0       18.340000   20.820000   22.600000
     23          8           0       23.480000   18.130000   18.780000
     24          1           0       23.280000   18.750000   19.480000
     25          1           0       24.400000   18.310000   18.560000
     26          8           0       19.250000   15.390000   18.970000
     27          1           0       19.240000   16.220000   19.460000
     28          1           0       20.110000   15.370000   18.550000
     29          8           0       23.180000   23.030000   19.570000
     30          1           0       22.320000   23.060000   19.160000
     31          1           0       23.180000   23.760000   20.190000
     32          8           0       22.010000   17.800000   23.350000
     33          1           0       21.750000   17.160000   24.000000
     34          1           0       21.830000   17.380000   22.510000
     35          8           0       23.710000   20.220000   16.840000
     36          1           0       23.010000   19.730000   17.270000
     37          1           0       24.490000   20.020000   17.360000
     38          8           0       21.470000   16.260000   21.170000
     39          1           0       22.220000   16.010000   20.640000
     40          1           0       20.940000   15.460000   21.230000
     41          8           0       20.560000   24.940000   20.590000
     42          1           0       19.630000   25.170000   20.590000
     43          1           0       20.610000   24.160000   20.030000
     44          8           0       15.560000   18.500000   21.230000
     45          1           0       16.130000   18.030000   20.620000
     46          1           0       16.140000   19.150000   21.640000
     47          8           0       17.760000   18.290000   24.050000
     48          1           0       17.720000   19.130000   23.600000
     49          1           0       18.080000   17.680000   23.390000
     50          8           0       18.960000   23.110000   16.120000
     51          1           0       18.430000   22.620000   16.750000
     52          1           0       18.470000   23.050000   15.300000
     53          8           0       17.570000   20.580000   15.360000
     54          1           0       18.310000   20.230000   15.860000
     55          1           0       17.970000   21.120000   14.680000
     56          8           0       22.080000   16.010000   18.210000
     57          1           0       22.600000   16.810000   18.230000
     58          1           0       22.570000   15.390000   18.760000
     59          8           0       19.700000   22.050000   24.820000
     60          1           0       20.250000   21.480000   24.270000
     61          1           0       19.850000   22.930000   24.470000
     62          8           0       17.370000   24.030000   20.250000
     63          1           0       17.630000   23.860000   19.340000
     64          1           0       16.930000   24.870000   20.220000
     65          8           0       18.240000   17.560000   16.550000
     66          1           0       18.960000   16.940000   16.470000
     67          1           0       17.530000   17.170000   16.020000
     68          8           0       16.150000   16.430000   18.520000
     69          1           0       16.830000   16.990000   18.140000
     70          1           0       16.310000   15.570000   18.120000
     71          8           0       16.440000   22.940000   22.570000
     72          1           0       16.930000   23.250000   21.820000
     73          1           0       16.700000   23.520000   23.290000
     74          8           0       16.510000   15.790000   21.740000
     75          1           0       16.060000   15.960000   20.910000
     76          1           0       17.220000   16.440000   21.760000
     77          8           0       21.890000   19.690000   14.660000
     78          1           0       21.150000   19.610000   15.260000
     79          1           0       22.570000   20.110000   15.180000
     80          8           0       21.470000   16.660000   15.440000
     81          1           0       21.320000   16.930000   16.350000
     82          1           0       21.860000   17.430000   15.030000
     83          8           0       25.320000   19.660000   22.200000
     84          1           0       26.100000   19.290000   21.780000
     85          1           0       24.720000   19.840000   21.490000
     86          8           0       19.220000   16.030000   23.450000
     87          1           0       19.400000   15.840000   24.370000
     88          1           0       19.700000   15.360000   22.960000
     89          8           0       21.690000   23.350000   15.930000
     90          1           0       20.730000   23.410000   15.950000
     91          1           0       21.880000   22.960000   15.070000
     92          8           0       23.980000   19.180000   24.520000
     93          1           0       24.560000   19.390000   23.790000
     94          1           0       23.220000   18.780000   24.110000
     95          8           0       13.960000   18.530000   18.710000
     96          1           0       14.750000   18.920000   19.070000
     97          1           0       14.270000   17.770000   18.210000
     98          8           0       15.170000   21.650000   17.220000
     99          1           0       15.030000   21.740000   18.160000
    100          1           0       15.440000   20.740000   17.100000
    101          8           0       25.860000   21.280000   19.360000
    102          1           0       25.120000   21.780000   19.010000
    103          1           0       26.210000   21.840000   20.060000
    104          8           0       23.850000   24.200000   17.310000
    105          1           0       23.730000   23.670000   18.100000
    106          1           0       23.100000   23.990000   16.760000
    107          8           0       17.140000   21.160000   25.500000
    108          1           0       17.980000   21.610000   25.390000
    109          1           0       17.200000   20.400000   24.920000
    110          8           0       24.980000   16.390000   20.960000
    111          1           0       24.570000   16.930000   21.630000
    112          1           0       25.680000   15.930000   21.410000
    113          8           0       18.660000   25.270000   17.890000
    114          1           0       18.210000   25.300000   17.050000
    115          1           0       19.430000   25.830000   17.770000
    116          8           0       23.840000   22.020000   24.880000
    117          1           0       24.790000   22.040000   24.870000
    118          1           0       23.610000   21.120000   24.650000
    119          8           0       17.790000   24.890000   24.050000
    120          1           0       18.590000   24.570000   23.630000
    121          1           0       17.820000   25.830000   23.920000
    122          8           0       20.860000   24.860000   23.430000
    123          1           0       21.800000   24.770000   23.590000
    124          1           0       20.800000   25.370000   22.620000
    125          8           0       15.280000   19.100000   15.710000
    126          1           0       15.740000   19.930000   15.690000
    127          1           0       15.510000   18.680000   14.880000
    128          8           0       25.070000   22.260000   15.660000
    129          1           0       24.430000   21.640000   16.020000
    130          1           0       24.920000   23.070000   16.150000
    131          8           0       18.600000   17.690000   26.470000
    132          1           0       18.250000   18.000000   25.640000
    133          1           0       18.780000   18.490000   26.970000
    134          8           0       13.660000   22.520000   21.860000
    135          1           0       13.610000   22.090000   22.720000
    136          1           0       14.600000   22.650000   21.710000
    137          8           0       17.290000   14.000000   17.740000
    138          1           0       17.410000   13.480000   16.950000
    139          1           0       18.170000   14.280000   17.980000
    140          8           0       23.540000   24.570000   23.390000
    141          1           0       24.120000   25.060000   23.960000
    142          1           0       23.330000   23.770000   23.880000
    143          8           0       19.580000   20.420000   27.100000
    144          1           0       19.790000   21.040000   26.400000
    145          1           0       20.330000   20.460000   27.690000
    146          8           0       20.130000   13.830000   22.040000
    147          1           0       19.210000   13.560000   22.040000
    148          1           0       20.620000   13.010000   22.020000
    149          8           0       23.900000   25.690000   20.890000
    150          1           0       23.830000   25.020000   21.570000
    151          1           0       23.220000   26.320000   21.100000
    152          8           0       12.910000   19.440000   21.330000
    153          1           0       13.300000   19.750000   22.140000
    154          1           0       13.610000   18.950000   20.890000
    155          8           0       25.840000   16.260000   18.520000
    156          1           0       25.870000   17.110000   18.080000
    157          1           0       25.460000   16.450000   19.380000
    158          8           0       16.110000   23.450000   15.500000
    159          1           0       15.540000   23.080000   16.180000
    160          1           0       15.870000   22.980000   14.700000
    161          8           0       26.260000   18.880000   17.860000
    162          1           0       26.400000   19.730000   18.280000
    163          1           0       26.610000   18.990000   16.970000
    164          8           0       21.940000   13.600000   16.650000
    165          1           0       21.500000   14.050000   15.940000
    166          1           0       21.930000   14.220000   17.380000
    167          8           0       15.900000   15.850000   24.870000
    168          1           0       15.160000   15.330000   24.560000
    169          1           0       16.270000   16.240000   24.070000
    170          8           0       14.480000   18.810000   25.090000
    171          1           0       14.880000   18.290000   25.770000
    172          1           0       14.960000   18.590000   24.290000
    173          8           0       20.730000   12.420000   19.560000
    174          1           0       20.250000   13.130000   19.990000
    175          1           0       21.650000   12.700000   19.580000
    176          8           0       23.460000   14.060000   19.380000
    177          1           0       24.330000   13.910000   19.010000
    178          1           0       23.580000   13.910000   20.320000
    179          8           0       26.770000   21.730000   23.580000
    180          1           0       26.110000   21.150000   23.190000
    181          1           0       26.990000   22.340000   22.890000
    182          8           0       23.350000   13.910000   22.350000
    183          1           0       23.000000   14.380000   23.100000
    184          1           0       22.870000   13.080000   22.340000
    185          8           0       22.100000   22.570000   13.360000
    186          1           0       21.900000   21.630000   13.370000
    187          1           0       21.570000   22.920000   12.640000
    188          8           0       22.390000   14.990000   24.660000
    189          1           0       21.910000   15.540000   25.290000
    190          1           0       22.290000   14.100000   25.010000
    191          8           0       21.020000   16.440000   26.710000
    192          1           0       20.230000   16.950000   26.520000
    193          1           0       21.350000   16.810000   27.530000
    194          8           0       12.950000   21.680000   19.240000
    195          1           0       12.860000   20.740000   19.390000
    196          1           0       13.050000   22.050000   20.120000
    197          8           0       17.600000   12.790000   22.090000
    198          1           0       17.260000   13.500000   21.550000
    199          1           0       17.420000   12.000000   21.590000
    200          8           0       21.820000   18.760000   12.100000
    201          1           0       22.080000   17.850000   12.170000
    202          1           0       21.940000   19.120000   12.980000
    203          8           0       16.900000   17.960000   13.610000
    204          1           0       17.110000   17.040000   13.770000
    205          1           0       17.640000   18.290000   13.100000
    206          8           0       18.150000   22.570000   13.310000
    207          1           0       18.270000   22.020000   12.540000
[...]
    228          1           0       14.620000   23.300000   26.590000
    229          1           0       15.560000   22.500000   25.710000
    230          8           0       16.510000   26.170000   15.810000
    231          1           0       15.860000   26.570000   15.230000
    232          1           0       16.360000   25.230000   15.720000
    233          8           0       13.670000   16.660000   15.940000
    234          1           0       13.870000   17.580000   16.060000
    235          1           0       12.770000   16.560000   16.260000
    236          8           0       12.810000   20.230000   15.980000
    237          1           0       13.610000   19.840000   15.650000
    238          1           0       13.090000   21.050000   16.390000
    239          8           0       13.500000   21.650000   24.190000
    240          1           0       14.100000   22.240000   24.650000
    241          1           0       13.000000   21.220000   24.880000
    242          8           0       20.550000   14.550000   13.650000
    243          1           0       20.950000   14.080000   12.920000
    244          1           0       21.150000   15.270000   13.850000
    245          8           0       25.180000   26.580000   17.440000
    246          1           0       24.830000   25.700000   17.560000
    247          1           0       25.840000   26.480000   16.760000
    248          8           0       19.840000   27.440000   22.550000
    249          1           0       20.350000   27.760000   23.290000
    250          1           0       18.930000   27.460000   22.860000
    251          8           0       17.470000   13.310000   24.700000
    252          1           0       17.460000   13.010000   23.790000
    253          1           0       17.220000   14.240000   24.640000
    254          8           0       22.420000   27.940000   21.400000
    255          1           0       21.520000   27.640000   21.440000
    256          1           0       22.550000   28.420000   22.220000
    257          8           0       15.280000   13.100000   19.200000
    258          1           0       14.660000   13.830000   19.250000
    259          1           0       15.910000   13.370000   18.530000
    260          8           0       21.470000   27.140000   16.370000
    261          1           0       22.060000   26.510000   15.950000
    262          1           0       21.900000   27.370000   17.190000
    263          8           0       25.900000   14.700000   22.960000
    264          1           0       25.940000   14.370000   23.850000
    265          1           0       25.070000   14.390000   22.610000
    266          8           0       27.700000   18.260000   21.300000
    267          1           0       28.470000   18.540000   20.820000
    268          1           0       27.820000   17.320000   21.420000
    269          8           0       25.560000   14.420000   16.270000
    270          1           0       25.550000   15.340000   16.540000
    271          1           0       25.810000   13.940000   17.050000
    272          8           0       14.410000   26.260000   19.510000
    273          1           0       13.690000   26.590000   18.970000
    274          1           0       14.090000   25.440000   19.880000
    275          8           0       15.930000   17.330000   27.320000
    276          1           0       16.480000   17.030000   26.590000
    277          1           0       16.490000   17.950000   27.790000
    278          8           0       19.240000   19.020000   12.050000
    279          1           0       20.180000   18.850000   12.000000
    280          1           0       19.050000   19.500000   11.240000
    281          8           0       27.360000   23.350000   20.690000
    282          1           0       26.990000   24.170000   20.360000
    283          1           0       28.300000   23.430000   20.530000
    284          8           0       16.080000   26.780000   22.140000
    285          1           0       15.710000   26.780000   21.260000
    286          1           0       16.440000   27.660000   22.250000
    287          8           0       24.660000   21.580000   13.090000
    288          1           0       23.930000   22.130000   12.790000
    289          1           0       24.990000   22.020000   13.870000
    290          8           0       23.060000   27.820000   18.550000
    291          1           0       23.100000   28.000000   19.490000
    292          1           0       23.710000   27.130000   18.410000
    293          8           0       22.060000   20.760000   28.170000
    294          1           0       22.570000   20.600000   28.960000
    295          1           0       22.490000   21.500000   27.750000
    296          8           0       18.530000   13.280000   15.360000
    297          1           0       19.290000   13.420000   14.790000
    298          1           0       18.360000   12.340000   15.300000
    299          8           0       16.360000   28.020000   18.870000
    300          1           0       15.720000   27.380000   19.190000
    301          1           0       16.930000   27.520000   18.290000
    302          8           0       19.130000   24.100000   27.590000
    303          1           0       19.730000   23.880000   28.300000
    304          1           0       18.560000   23.340000   27.510000
    305          8           0       13.060000   24.920000   23.500000
    306          1           0       13.440000   25.470000   24.190000
    307          1           0       13.630000   24.150000   23.470000
    308          8           0       23.130000   16.050000   12.910000
    309          1           0       23.290000   15.110000   12.930000
    310          1           0       23.810000   16.430000   13.470000
    311          8           0       25.480000   17.210000   13.830000
    312          1           0       25.930000   17.530000   14.620000
    313          1           0       25.670000   17.870000   13.160000
    314          8           0       11.380000   16.760000   19.800000
    315          1           0       11.540000   16.500000   20.710000
    316          1           0       12.030000   17.430000   19.620000
    317          8           0       26.580000   26.000000   20.160000
    318          1           0       25.670000   26.220000   20.330000
    319          1           0       26.730000   26.300000   19.270000
    320          8           0       27.590000   23.030000   15.310000
    321          1           0       26.820000   22.570000   15.660000
    322          1           0       27.770000   23.710000   15.960000
    323          8           0       12.090000   16.930000   22.450000
    324          1           0       11.600000   16.750000   23.250000
    325          1           0       12.100000   17.880000   22.390000
    326          8           0       29.520000   21.340000   20.080000
    327          1           0       28.560000   21.430000   20.100000
    328          1           0       29.770000   21.610000   19.200000
    329          8           0       26.170000   20.680000   26.380000
    330          1           0       26.530000   20.050000   25.750000
    331          1           0       25.730000   20.130000   27.040000
    332          8           0       20.380000   12.770000   26.020000
    333          1           0       19.800000   13.140000   25.350000
    334          1           0       19.790000   12.380000   26.660000
    335          8           0       12.910000   14.510000   18.310000
    336          1           0       12.510000   15.080000   17.650000
    337          1           0       12.890000   15.020000   19.120000
    338          8           0       14.790000   21.640000   13.150000
    339          1           0       14.490000   22.530000   13.000000
    340          1           0       15.520000   21.520000   12.550000
    341          8           0       14.980000   26.290000   24.940000
    342          1           0       15.670000   25.860000   25.440000
    343          1           0       15.240000   26.160000   24.020000
    344          8           0       20.550000   10.640000   17.430000
    345          1           0       20.550000   11.510000   17.830000
    346          1           0       20.300000   10.050000   18.150000
    347          8           0       10.410000   19.950000   20.590000
    348          1           0       11.220000   19.540000   20.870000
    349          1           0       10.280000   20.670000   21.210000
    350          8           0       28.600000   15.690000   18.460000
    351          1           0       27.660000   15.850000   18.410000
    352          1           0       28.770000   15.570000   19.390000
    353          8           0       11.050000   23.860000   19.700000
    354          1           0       11.150000   24.630000   20.260000
    355          1           0       11.760000   23.270000   19.970000
    356          8           0       14.660000   13.860000   15.560000
    357          1           0       14.230000   14.640000   15.920000
    358          1           0       13.930000   13.300000   15.290000
    359          8           0       14.070000   18.980000   12.770000
    360          1           0       14.990000   18.710000   12.790000
    361          1           0       14.090000   19.910000   12.970000
    362          8           0       21.920000   11.620000   22.230000
    363          1           0       21.790000   11.160000   23.050000
    364          1           0       22.590000   11.120000   21.770000
    365          8           0       23.360000   13.400000   13.960000
    366          1           0       23.090000   12.490000   13.840000
    367          1           0       23.440000   13.500000   14.910000
    368          8           0       20.860000   29.630000   18.790000
    369          1           0       21.400000   28.840000   18.910000
    370          1           0       20.330000   29.680000   19.590000
    371          8           0       12.910000   20.030000   26.900000
    372          1           0       13.620000   19.620000   26.400000
    373          1           0       12.340000   19.300000   27.150000
    374          8           0       18.170000   27.560000   24.650000
    375          1           0       17.970000   28.490000   24.760000
    376          1           0       17.560000   27.110000   25.230000
    377          8           0       20.290000   24.070000   11.550000
    378          1           0       19.440000   24.190000   11.970000
    379          1           0       20.320000   24.730000   10.860000
    380          8           0       28.040000   15.320000   21.190000
    381          1           0       27.330000   14.790000   21.540000
    382          1           0       28.830000   14.820000   21.390000
    383          8           0       19.410000   28.760000   15.320000
    384          1           0       19.980000   28.030000   15.580000
    385          1           0       19.550000   29.420000   16.000000
 ---------------------------------------------------------------------
 Rotational constants (GHZ):      0.0061538      0.0059894      0.0056496
 Leave Link  202 at Thu May  3 22:25:06 2018, MaxMem= 14763950080 cpu:         1.0
 (Enter /cm/shared/gaussian/g09.e01/intel64-sandybridge/g09/l122.exe)
 Counterpoise: doing full dimer calculation.
 Leave Link  122 at Thu May  3 22:25:06 2018, MaxMem= 14763950080 cpu:         0.1
 (Enter /cm/shared/gaussian/g09.e01/intel64-sandybridge/g09/l301.exe)
 Standard basis: CC-pVDZ (5D, 7F)
 Ernie: Thresh=  0.10000D-02 Tol=  0.10000D-05 Strict=F.
 Ernie:  279 primitive shells out of 4186 were deleted.
  3099 basis functions,  6163 primitive gaussians,  3229 cartesian basis functions
   658 alpha electrons      658 beta electrons
       nuclear repulsion energy     56213.0070779913 Hartrees.
 IExCor= 1009 DFT=T Ex+Corr=PBE1PBE ExCW=0 ScaHFX=  0.250000
 ScaDFX=  0.750000  0.750000  1.000000  1.000000 ScalE2=  1.000000  1.000000
 IRadAn=      0 IRanWt=     -1 IRanGd=            0 ICorTp=0 IEmpDi=  4
 NAtoms=  385 NActive=  385 NUniq=  385 SFac= 1.00D+00 NAtFMM=   60 NAOKFM=T Big=T
 Integral buffers will be    131072 words long.
 Raffenetti 2 integral format.
 Two-electron integral symmetry is turned off.
 Leave Link  301 at Thu May  3 22:25:06 2018, MaxMem= 14763950080 cpu:         5.2
 (Enter /cm/shared/gaussian/g09.e01/intel64-sandybridge/g09/l302.exe)
 NPDir=0 NMtPBC=     1 NCelOv=     1 NCel=       1 NClECP=     1 NCelD=      1
         NCelK=      1 NCelE2=     1 NClLst=     1 CellRange=     0.0.
 One-electron integrals computed using PRISM.
 NBasis=  3099 RedAO= T EigKep=  1.14D-02  NBF=  3099
 NBsUse=  3099 1.00D-06 EigRej= -1.00D+00 NBFU=  3099
 Precomputing XC quadrature grid using
 IXCGrd= 4 IRadAn=           0 IRanWt=          -1 IRanGd=           0 AccXCQ= 0.00D+00.
 Generated NRdTot=       0 NPtTot=           0 NUsed=           0 NTot=          32
 NSgBfM=  1407  1440  1477  1511  1531 MxSgAt=   385 MxSgA2=   359.
 Leave Link  302 at Thu May  3 22:26:35 2018, MaxMem= 14763950080 cpu:      5687.5
 (Enter /cm/shared/gaussian/g09.e01/intel64-sandybridge/g09/l303.exe)
 DipDrv:  MaxL=1.
 Leave Link  303 at Thu May  3 22:26:40 2018, MaxMem= 14763950080 cpu:       297.0
 (Enter /cm/shared/gaussian/g09.e01/intel64-sandybridge/g09/l401.exe)
 ExpMin= 1.22D-01 ExpMax= 6.40D+05 ExpMxC= 6.18D+03 IAcc=2 IRadAn=         4 AccDes= 0.00D+00
 Harris functional with IExCor= 1009 and IRadAn=       4 diagonalized for initial guess.
 HarFok:  IExCor= 1009 AccDes= 0.00D+00 IRadAn=         4 IDoV= 1 UseB2=F ITyADJ=14
 ICtDFT=  3500011 ScaDFX=  1.000000  1.000000  1.000000  1.000000
 FoFCou: FMM=F IPFlag=           0 FMFlag=      100000 FMFlg1=        2001
         NFxFlg=           0 DoJE=T BraDBF=F KetDBF=T FulRan=T
         wScrn=  0.000000 ICntrl=     500 IOpCl=  0 I1Cent=   200000004 NGrid=           0
         NMat0=    1 NMatS0=      1 NMatT0=    0 NMatD0=    1 NMtDS0=    0 NMtDT0=    0
 Symmetry not used in FoFCou.
 Harris En= -12351.7534958127    
 JPrj=0 DoOrth=F DoCkMO=F.
 Leave Link  401 at Thu May  3 22:27:49 2018, MaxMem= 14763950080 cpu:      4258.9
 (Enter /cm/shared/gaussian/g09.e01/intel64-sandybridge/g09/l502.exe)
 Closed shell SCF:
 Using DIIS extrapolation, IDIIS=  1040.
 Two-electron integral symmetry not used.
 IVT=    31524673 IEndB=    31524673 NGot= 14763950080 MDV= 14742871718
 LenX= 14742871718 LenY= 14732442048
 Requested convergence on RMS density matrix=1.00D-08 within 128 cycles.
 Requested convergence on MAX density matrix=1.00D-06.
 Requested convergence on             energy=1.00D-06.
 No special actions if energy rises.
 Fock matrices will be formed incrementally for  20 cycles.
 Integral accuracy reduced to 1.0D-05 until final iterations.

 Cycle   1  Pass 0  IDiag  1:
 FoFJK:  IHMeth= 1 ICntrl=       0 DoSepK=F KAlg= 0 I1Cent=   0 FoldK=F
 IRaf= 390000000 NMat=   1 IRICut=       1 DoRegI=T DoRafI=F ISym2E= 0.
 FoFCou: FMM=T IPFlag=           0 FMFlag=      100000 FMFlg1=        2001
         NFxFlg=           0 DoJE=F BraDBF=F KetDBF=F FulRan=T
         wScrn=  0.000000 ICntrl=       0 IOpCl=  0 I1Cent=           0 NGrid=           0
         NMat0=    1 NMatS0=      1 NMatT0=    0 NMatD0=    1 NMtDS0=    0 NMtDT0=    0
 Symmetry not used in FoFCou.
 FMM levels:  10  Number of levels for PrismC:   9
 E= -12340.4008213956    
 DIIS: error= 2.73D-02 at cycle   1 NSaved=   1.
 NSaved= 1 IEnMin= 1 EnMin= -12340.4008213956     IErMin= 1 ErrMin= 2.73D-02
 ErrMax= 2.73D-02  0.00D+00 EMaxC= 1.00D-01 BMatC= 1.01D+01 BMatP= 1.01D+01
 IDIUse=3 WtCom= 7.27D-01 WtEn= 2.73D-01
 Coeff-Com:  0.100D+01
 Coeff-En:   0.100D+01
 Coeff:      0.100D+01
 Gap=     0.352 Goal=   None    Shift=    0.000
 GapD=    0.352 DampG=1.000 DampE=0.500 DampFc=0.5000 IDamp=-1.
 Damping current iteration by 5.00D-01
 RMSDP=1.43D-03 MaxDP=1.64D-01              OVMax= 1.99D-01

 Cycle   2  Pass 0  IDiag  1:
 RMSU=  7.05D-04    CP:  9.83D-01
 E= -12343.3738891105     Delta-E=       -2.973067714862 Rises=F Damp=T
 DIIS: error= 8.98D-03 at cycle   2 NSaved=   2.
 NSaved= 2 IEnMin= 2 EnMin= -12343.3738891105     IErMin= 2 ErrMin= 8.98D-03
 ErrMax= 8.98D-03  0.00D+00 EMaxC= 1.00D-01 BMatC= 2.81D-01 BMatP= 1.01D+01
 IDIUse=3 WtCom= 9.10D-01 WtEn= 8.98D-02
 Coeff-Com:  0.114D+00 0.886D+00
 Coeff-En:   0.205D+00 0.795D+00
 Coeff:      0.122D+00 0.878D+00
 Gap=     0.159 Goal=   None    Shift=    0.000
 RMSDP=1.59D-04 MaxDP=2.30D-02 DE=-2.97D+00 OVMax= 1.51D-01

 Cycle   3  Pass 0  IDiag  1:
 RMSU=  1.19D-04    CP:  9.85D-01  8.53D-01
 E= -12347.5802333909     Delta-E=       -4.206344280392 Rises=F Damp=F
 DIIS: error= 8.51D-04 at cycle   3 NSaved=   3.
 NSaved= 3 IEnMin= 3 EnMin= -12347.5802333909     IErMin= 3 ErrMin= 8.51D-04
 ErrMax= 8.51D-04  0.00D+00 EMaxC= 1.00D-01 BMatC= 7.22D-03 BMatP= 2.81D-01
 IDIUse=3 WtCom= 9.91D-01 WtEn= 8.51D-03
 Coeff-Com:  0.123D-01 0.685D-01 0.919D+00
 Coeff-En:   0.000D+00 0.000D+00 0.100D+01
 Coeff:      0.122D-01 0.679D-01 0.920D+00
 Gap=     0.164 Goal=   None    Shift=    0.000
 RMSDP=4.03D-05 MaxDP=1.32D-02 DE=-4.21D+00 OVMax= 9.69D-03

 Cycle   4  Pass 0  IDiag  1:
 RMSU=  3.88D-05    CP:  9.85D-01  8.51D-01  9.10D-01
 E= -12347.5796401918     Delta-E=        0.000593199016 Rises=F Damp=F
 DIIS: error= 1.07D-03 at cycle   4 NSaved=   4.
 NSaved= 4 IEnMin= 3 EnMin= -12347.5802333909     IErMin= 3 ErrMin= 8.51D-04
 ErrMax= 1.07D-03  0.00D+00 EMaxC= 1.00D-01 BMatC= 8.83D-03 BMatP= 7.22D-03
 IDIUse=3 WtCom= 2.34D-01 WtEn= 7.66D-01
 Coeff-Com:  0.141D-02-0.793D-02 0.530D+00 0.477D+00
 Coeff-En:   0.000D+00 0.000D+00 0.523D+00 0.477D+00
 Coeff:      0.330D-03-0.186D-02 0.524D+00 0.477D+00
 Gap=     0.170 Goal=   None    Shift=    0.000
 RMSDP=2.03D-05 MaxDP=5.27D-03 DE= 5.93D-04 OVMax= 5.16D-03

 Cycle   5  Pass 0  IDiag  1:
 RMSU=  6.86D-06    CP:  9.85D-01  8.47D-01  9.64D-01  5.41D-01
 E= -12347.5860052020     Delta-E=       -0.006365010166 Rises=F Damp=F
 DIIS: error= 9.61D-05 at cycle   5 NSaved=   5.
 NSaved= 5 IEnMin= 5 EnMin= -12347.5860052020     IErMin= 5 ErrMin= 9.61D-05
 ErrMax= 9.61D-05  0.00D+00 EMaxC= 1.00D-01 BMatC= 9.03D-05 BMatP= 7.22D-03
 IDIUse=1 WtCom= 1.00D+00 WtEn= 0.00D+00
 Coeff-Com: -0.940D-03-0.207D-02 0.145D+00 0.152D+00 0.706D+00
 Coeff:     -0.940D-03-0.207D-02 0.145D+00 0.152D+00 0.706D+00
 Gap=     0.170 Goal=   None    Shift=    0.000
 RMSDP=2.88D-06 MaxDP=1.45D-03 DE=-6.37D-03 OVMax= 1.24D-03

 Cycle   6  Pass 0  IDiag  1:
 RMSU=  2.02D-06    CP:  9.85D-01  8.48D-01  9.69D-01  5.40D-01  7.62D-01
 E= -12347.5860616395     Delta-E=       -0.000056437450 Rises=F Damp=F
 DIIS: error= 8.55D-05 at cycle   6 NSaved=   6.
 NSaved= 6 IEnMin= 6 EnMin= -12347.5860616395     IErMin= 6 ErrMin= 8.55D-05
 ErrMax= 8.55D-05  0.00D+00 EMaxC= 1.00D-01 BMatC= 7.74D-06 BMatP= 9.03D-05
 IDIUse=1 WtCom= 1.00D+00 WtEn= 0.00D+00
 Coeff-Com: -0.482D-03-0.792D-03 0.364D-01 0.404D-01 0.308D+00 0.617D+00
 Coeff:     -0.482D-03-0.792D-03 0.364D-01 0.404D-01 0.308D+00 0.617D+00
 Gap=     0.170 Goal=   None    Shift=    0.000
 RMSDP=7.85D-07 MaxDP=4.06D-04 DE=-5.64D-05 OVMax= 2.98D-04

 Initial convergence to 1.0D-05 achieved.  Increase integral accuracy.
 Cycle   7  Pass 1  IDiag  1:
 E= -12347.5862324106     Delta-E=       -0.000170771091 Rises=F Damp=F
 DIIS: error= 5.81D-05 at cycle   1 NSaved=   1.
 NSaved= 1 IEnMin= 1 EnMin= -12347.5862324106     IErMin= 1 ErrMin= 5.81D-05
 ErrMax= 5.81D-05  0.00D+00 EMaxC= 1.00D-01 BMatC= 1.97D-05 BMatP= 1.97D-05
 IDIUse=1 WtCom= 1.00D+00 WtEn= 0.00D+00
 Coeff-Com:  0.100D+01
 Coeff:      0.100D+01
 Gap=     0.170 Goal=   None    Shift=    0.000
 RMSDP=7.85D-07 MaxDP=4.06D-04 DE=-1.71D-04 OVMax= 4.08D-04

 Cycle   8  Pass 1  IDiag  1:
 RMSU=  5.00D-06    CP:  1.00D+00
