 Entering Gaussian System, Link 0=/cm/shared/gaussian/g09.e01/intel64-sandybridge/g09/g09
 Initial command:
 /cm/shared/gaussian/g09.e01/intel64-sandybridge/g09/l1.exe "/local/scratch/m.peluso/128_wat/Gau-33920.inp" -scrdir="/local/scratch/m.peluso/128_wat/"
 Entering Link 1 = /cm/shared/gaussian/g09.e01/intel64-sandybridge/g09/l1.exe PID=     33921.
  
 Copyright (c) 1988,1990,1992,1993,1995,1998,2003,2009,2015,
            Gaussian, Inc.  All Rights Reserved.
  
 This is part of the Gaussian(R) 09 program.  It is based on
 the Gaussian(R) 03 system (copyright 2003, Gaussian, Inc.),
 the Gaussian(R) 98 system (copyright 1998, Gaussian, Inc.),
 the Gaussian(R) 94 system (copyright 1995, Gaussian, Inc.),
 the Gaussian 92(TM) system (copyright 1992, Gaussian, Inc.),
 the Gaussian 90(TM) system (copyright 1990, Gaussian, Inc.),
 the Gaussian 88(TM) system (copyright 1988, Gaussian, Inc.),
 the Gaussian 86(TM) system (copyright 1986, Carnegie Mellon
 University), and the Gaussian 82(TM) system (copyright 1983,
 Carnegie Mellon University). Gaussian is a federally registered
 trademark of Gaussian, Inc.
  
 This software contains proprietary and confidential information,
 including trade secrets, belonging to Gaussian, Inc.
  
 This software is provided under written license and may be
 used, copied, transmitted, or stored only in accord with that
 written license.
  
 The following legend is applicable only to US Government
 contracts under FAR:
  
                    RESTRICTED RIGHTS LEGEND
  
 Use, reproduction and disclosure by the US Government is
 subject to restrictions as set forth in subparagraphs (a)
 and (c) of the Commercial Computer Software - Restricted
 Rights clause in FAR 52.227-19.
  
 Gaussian, Inc.
 340 Quinnipiac St., Bldg. 40, Wallingford CT 06492
  
  
 ---------------------------------------------------------------
 Warning -- This program may not be used in any manner that
 competes with the business of Gaussian, Inc. or will provide
 assistance to any competitor of Gaussian, Inc.  The licensee
 of this program is prohibited from giving any competitor of
 Gaussian, Inc. access to this program.  By using this program,
 the user acknowledges that Gaussian, Inc. is engaged in the
 business of creating and licensing software in the field of
 computational chemistry and represents and warrants to the
 licensee that it is not a competitor of Gaussian, Inc. and that
 it will not use this program in any manner prohibited above.
 ---------------------------------------------------------------
  

 Cite this work as:
 Gaussian 09, Revision E.01,
 M. J. Frisch, G. W. Trucks, H. B. Schlegel, G. E. Scuseria, 
 M. A. Robb, J. R. Cheeseman, G. Scalmani, V. Barone, B. Mennucci, 
 G. A. Petersson, H. Nakatsuji, M. Caricato, X. Li, H. P. Hratchian, 
 A. F. Izmaylov, J. Bloino, G. Zheng, J. L. Sonnenberg, M. Hada, 
 M. Ehara, K. Toyota, R. Fukuda, J. Hasegawa, M. Ishida, T. Nakajima, 
 Y. Honda, O. Kitao, H. Nakai, T. Vreven, J. A. Montgomery, Jr., 
 J. E. Peralta, F. Ogliaro, M. Bearpark, J. J. Heyd, E. Brothers, 
 K. N. Kudin, V. N. Staroverov, T. Keith, R. Kobayashi, J. Normand, 
 K. Raghavachari, A. Rendell, J. C. Burant, S. S. Iyengar, J. Tomasi, 
 M. Cossi, N. Rega, J. M. Millam, M. Klene, J. E. Knox, J. B. Cross, 
 V. Bakken, C. Adamo, J. Jaramillo, R. Gomperts, R. E. Stratmann, 
 O. Yazyev, A. J. Austin, R. Cammi, C. Pomelli, J. W. Ochterski, 
 R. L. Martin, K. Morokuma, V. G. Zakrzewski, G. A. Voth, 
 P. Salvador, J. J. Dannenberg, S. Dapprich, A. D. Daniels, 
 O. Farkas, J. B. Foresman, J. V. Ortiz, J. Cioslowski, 
 and D. J. Fox, Gaussian, Inc., Wallingford CT, 2013.
 
 ******************************************
 Gaussian 09:  ES64L-G09RevE.01 30-Nov-2015
                 3-May-2018 
 ******************************************
 %Mem=110GB
 %NProcShared=64
 Will use up to   64 processors via shared memory.
 %chk=snap8.chk
 ----------------------------------------------
 #p PBE1PBE/cc-pvDZ force Counterpoise=2 noSymm
 ----------------------------------------------
 1/10=7,30=1,38=1,62=2/1,3;
 2/12=2,15=1,17=6,18=5,40=1/2;
 1/10=7,30=1,38=1,53=2,62=2,63=101/22;
 3/5=16,11=2,16=1,25=1,30=1,71=1,74=-13/1,2,3;
 4//1;
 5/5=2,38=5/2;
 6/7=2,8=2,9=2,10=2,28=1/1;
 7/7=1,29=1,30=1,33=-1/1,2,3,16;
 1/10=7,30=1,53=2,62=2,63=101/22;
 3/5=7,6=11,11=2,16=1,25=1,30=1,71=1,74=-13,82=7/1,2,3;
 4//1;
 5/5=2,38=5/2;
 6/7=2,8=2,9=2,10=2,28=1/1;
 7/7=1,29=1,30=1,33=-1/1,2,3,16;
 1/10=7,30=1,53=2,62=2,63=101/22(-5);
 7/9=1,29=1,44=-1/16;
 1/10=7,30=1,62=2/3;
 99//99;
 Leave Link    1 at Thu May  3 20:52:42 2018, MaxMem= 14763950080 cpu:         7.8
 (Enter /cm/shared/gaussian/g09.e01/intel64-sandybridge/g09/l101.exe)
 ---------------------------------------
 forces on chloride comput - NWATER: 128
 ---------------------------------------
 Symbolic Z-matrix:
 Charge = -1 Multiplicity = 1 in supermolecule
 Charge = -1 Multiplicity = 1 in fragment      1.
 Charge =  0 Multiplicity = 1 in fragment      2.
 Br(Fragment=1)        20.       20.       20. 
 O(Fragment=2)         20.95     18.01     17.71 
 H(Fragment=2)         20.64     18.49     18.47 
 H(Fragment=2)         21.87     17.81     17.91 
 O(Fragment=2)         22.59     18.71     21.43 
 H(Fragment=2)         21.77     19.03     21.04 
 H(Fragment=2)         22.73     19.28     22.19 
 O(Fragment=2)         18.15     18.65     22.25 
 H(Fragment=2)         18.54     18.97     21.44 
 H(Fragment=2)         17.98     19.44     22.77 
 O(Fragment=2)         21.1      21.41     17.16 
 H(Fragment=2)         20.86     20.91     17.94 
 H(Fragment=2)         20.92     20.81     16.43 
 O(Fragment=2)         17.2      20.36     18.06 
 H(Fragment=2)         17.91     20.29     18.7 
 H(Fragment=2)         17.62     20.69     17.27 
 O(Fragment=2)         20.23     16.72     20.58 
 H(Fragment=2)         19.83     17.48     20.16 
 H(Fragment=2)         20.44     16.13     19.86 
 O(Fragment=2)         20.76     20.8      23.24 
 H(Fragment=2)         20.28     20.5      22.48 
 H(Fragment=2)         20.92     21.73     23.08 
 O(Fragment=2)         18.13     18.19     16.65 
 H(Fragment=2)         19.01     18.56     16.68 
 H(Fragment=2)         17.56     18.95     16.52 
 O(Fragment=2)         20.55     24.02     18.17 
 H(Fragment=2)         21.03     23.21     18.3 
 H(Fragment=2)         21.17     24.6      17.73 
 O(Fragment=2)         23.15     16.77     19.57 
 H(Fragment=2)         22.96     16.13     20.26 
 H(Fragment=2)         22.93     17.61     19.96 
 O(Fragment=2)         17.65     20.99     23.54 
 H(Fragment=2)         18.12     21.78     23.8 
 H(Fragment=2)         17.36     21.17     22.64 
 O(Fragment=2)         20.61     19.38     15.51 
 H(Fragment=2)         20.75     18.89     16.32 
 H(Fragment=2)         21.17     18.95     14.86 
 O(Fragment=2)         16.81     22.46     21.55 
 H(Fragment=2)         17.38     22.84     20.88 
 H(Fragment=2)         16.25     23.19     21.82 
 O(Fragment=2)         18.24     24.01     19.57 
 H(Fragment=2)         19.19     23.89     19.59 
 H(Fragment=2)         18.09     24.76     20.15 
 O(Fragment=2)         17.2      16.53     19.05 
 H(Fragment=2)         17.26     17.34     18.55 
 H(Fragment=2)         16.64     16.75     19.8 
 O(Fragment=2)         20.99     16.88     23.26 
 H(Fragment=2)         20.5      16.71     22.46 
 H(Fragment=2)         21.66     17.52     23.01 
 O(Fragment=2)         24.2      21.6      17.59 
 H(Fragment=2)         23.31     21.28     17.69 
 H(Fragment=2)         24.38     21.53     16.65 
 O(Fragment=2)         18.26     23.16     16.35 
 H(Fragment=2)         18.75     23.1      17.17 
 H(Fragment=2)         18.66     23.9      15.89 
 O(Fragment=2)         16.42     16.4      21.55 
 H(Fragment=2)         17.11     17.       21.83 
 H(Fragment=2)         16.74     15.53     21.77 
 O(Fragment=2)         23.42     19.59     24.04 
 H(Fragment=2)         22.47     19.69     24.16 
 H(Fragment=2)         23.79     20.39     24.4 
 O(Fragment=2)         15.87     23.34     17.96 
 H(Fragment=2)         16.71     23.33     18.41 
 H(Fragment=2)         16.01     22.82     17.17 
 O(Fragment=2)         18.53     14.64     21.67 
 H(Fragment=2)         19.35     14.15     21.76 
 H(Fragment=2)         18.72     15.31     21.02 
 O(Fragment=2)         23.59     23.76     19.31 
 H(Fragment=2)         23.8      22.99     18.78 
 H(Fragment=2)         23.95     24.5      18.82 
 O(Fragment=2)         17.92     16.74     24.46 
 H(Fragment=2)         18.55     17.12     25.08 
 H(Fragment=2)         17.89     17.37     23.74 
 O(Fragment=2)         23.97     23.04     21.83 
 H(Fragment=2)         23.78     23.22     20.91 
 H(Fragment=2)         24.8      22.55     21.81 
 O(Fragment=2)         25.58     18.44     21.08 
 H(Fragment=2)         24.65     18.22     21.11 
 H(Fragment=2)         26.03     17.62     21.28 
 O(Fragment=2)         21.38     25.24     20.83 
 H(Fragment=2)         21.81     24.7      21.49 
 H(Fragment=2)         21.65     24.85     19.99 
 O(Fragment=2)         21.76     23.66     23.39 
 H(Fragment=2)         22.55     23.33     22.97 
 H(Fragment=2)         22.05     24.       24.24 
 O(Fragment=2)         19.01     23.39     24.18 
 H(Fragment=2)         19.81     23.62     23.71 
 H(Fragment=2)         18.51     24.2      24.23 
 O(Fragment=2)         22.21     23.57     15.5 
 H(Fragment=2)         21.56     24.24     15.27 
 H(Fragment=2)         21.75     22.97     16.08 
 O(Fragment=2)         14.22     20.51     21.37 
 H(Fragment=2)         13.92     20.4      20.47 
 H(Fragment=2)         15.04     21.       21.29 
 O(Fragment=2)         21.02     20.98     26.01 
 H(Fragment=2)         20.8      21.04     25.08 
 H(Fragment=2)         20.2      20.7      26.43 
 O(Fragment=2)         20.22     17.7      25.68 
 H(Fragment=2)         20.97     17.75     26.28 
 H(Fragment=2)         20.61     17.7      24.81 
 O(Fragment=2)         20.58     14.6      18.93 
 H(Fragment=2)         21.13     14.01     19.43 
 H(Fragment=2)         21.14     14.92     18.23 
 O(Fragment=2)         17.09     20.83     14.93 
 H(Fragment=2)         17.63     20.53     14.2 
 H(Fragment=2)         17.56     21.58     15.3 
 O(Fragment=2)         17.56     15.55     16.04 
 H(Fragment=2)         17.44     15.06     16.86 
 H(Fragment=2)         17.9      16.4      16.32 
 O(Fragment=2)         25.89     21.       19.93 
 H(Fragment=2)         25.38     21.16     19.14 
 H(Fragment=2)         25.7      20.08     20.15 
 O(Fragment=2)         15.91     19.74     25.06 
 H(Fragment=2)         16.69     20.08     24.62 
 H(Fragment=2)         15.39     19.34     24.37 
 O(Fragment=2)         22.56     15.33     17.06 
 H(Fragment=2)         23.06     15.78     17.73 
 H(Fragment=2)         23.22     14.9      16.52 
 O(Fragment=2)         14.79     18.26     23.13 
 H(Fragment=2)         15.3      17.82     22.45 
 H(Fragment=2)         14.43     19.03     22.69 
 O(Fragment=2)         18.72     25.87     21.33 
 H(Fragment=2)         18.64     26.12     22.25 
 H(Fragment=2)         19.66     25.78     21.18 
 O(Fragment=2)         13.92     20.47     18.2 
 H(Fragment=2)         13.41     19.77     17.79 
 H(Fragment=2)         14.62     20.66     17.57 
 O(Fragment=2)         17.69     13.88     18.41 
 H(Fragment=2)         17.24     14.65     18.76 
 H(Fragment=2)         18.61     14.12     18.42 
 O(Fragment=2)         22.9      15.42     24.54 
 H(Fragment=2)         22.19     15.9      24.11 
 H(Fragment=2)         23.7      15.85     24.25 
 O(Fragment=2)         24.83     17.33     24.41 
 H(Fragment=2)         24.26     18.03     24.09 
 H(Fragment=2)         25.33     17.74     25.12 
 O(Fragment=2)         18.89     20.19     13.1 
 H(Fragment=2)         19.45     20.54     13.8 
 H(Fragment=2)         19.33     19.38     12.83 
 O(Fragment=2)         26.53     18.18     18.35 
 H(Fragment=2)         26.2      18.34     19.23 
 H(Fragment=2)         27.49     18.2      18.45 
 O(Fragment=2)         18.67     20.01     27.06 
 H(Fragment=2)         18.7      19.32     26.39 
 H(Fragment=2)         17.74     20.13     27.24 
 O(Fragment=2)         25.21     19.34     16.05 
 H(Fragment=2)         25.84     20.07     16.01 
 H(Fragment=2)         25.56     18.76     16.73 
 O(Fragment=2)         20.09     27.22     18.22 
 H(Fragment=2)         19.36     27.47     17.65 
 H(Fragment=2)         19.75     26.48     18.73 
 O(Fragment=2)         23.26     19.26     14.12 
 H(Fragment=2)         23.66     19.67     13.35 
 H(Fragment=2)         23.97     19.23     14.76 
 O(Fragment=2)         20.98     13.7      22.56 
 H(Fragment=2)         21.79     13.9      22.09 
 H(Fragment=2)         21.06     14.17     23.39 
 O(Fragment=2)         25.59     15.84     17.47 
 H(Fragment=2)         25.36     16.76     17.52 
 H(Fragment=2)         26.51     15.83     17.2 
 O(Fragment=2)         21.05     15.44     14.55 
 H(Fragment=2)         20.5      15.19     15.3 
 H(Fragment=2)         21.85     15.78     14.95 
 O(Fragment=2)         23.38     14.04     20.9 
 H(Fragment=2)         23.32     13.29     20.31 
 H(Fragment=2)         24.32     14.26     20.91 
 O(Fragment=2)         15.77     25.88     17.36 
 H(Fragment=2)         14.84     26.11     17.48 
 H(Fragment=2)         15.79     24.93     17.42 
 O(Fragment=2)         26.89     19.74     23.53 
 H(Fragment=2)         26.3      19.28     22.94 
 H(Fragment=2)         26.33     20.06     24.24 
 O(Fragment=2)         13.42     18.57     16.18 
 H(Fragment=2)         13.04     18.25     15.36 
 H(Fragment=2)         14.36     18.62     16.01 
 O(Fragment=2)         14.78     24.21     22.31 
 H(Fragment=2)         14.14     23.56     22.6 
 H(Fragment=2)         14.81     24.85     23.02 
 O(Fragment=2)         22.63     26.24     17.76 
 H(Fragment=2)         23.32     26.84     18.02 
 H(Fragment=2)         21.83     26.6      18.15 
 O(Fragment=2)         25.16     24.64     16.28 
 H(Fragment=2)         24.96     25.57     16.22 
 H(Fragment=2)         24.32     24.2      16.09 
 O(Fragment=2)         19.94     23.64     27.24 
 H(Fragment=2)         20.09     23.02     26.52 
 H(Fragment=2)         19.55     23.12     27.94 
 O(Fragment=2)         17.82     14.       24.36 
 H(Fragment=2)         17.63     14.91     24.61 
 H(Fragment=2)         17.87     14.02     23.4 
 O(Fragment=2)         13.01     23.19     18.23 
 H(Fragment=2)         13.89     23.54     18.16 
 H(Fragment=2)         13.12     22.28     18.5 
 O(Fragment=2)         23.55     21.28     27. 
 H(Fragment=2)         22.65     21.13     26.72 
 H(Fragment=2)         23.58     22.21     27.23 
 O(Fragment=2)         16.68     27.23     20.12 
 H(Fragment=2)         16.13     26.58     19.7 
 H(Fragment=2)         17.21     26.73     20.74 
 O(Fragment=2)         19.86     25.41     15.04 
 H(Fragment=2)         20.49     25.95     14.57 
 H(Fragment=2)         19.4      26.02     15.61 
 O(Fragment=2)         12.78     22.37     22.68 
 H(Fragment=2)         12.39     21.92     23.44 
 H(Fragment=2)         13.19     21.67     22.18 
 O(Fragment=2)         14.77     20.72     13.67 
 H(Fragment=2)         14.98     21.2      12.87 
 H(Fragment=2)         15.5      20.9      14.26 
 O(Fragment=2)         26.77     22.53     22.73 
 H(Fragment=2)         27.56     22.3      22.23 
 H(Fragment=2)         26.47     21.71     23.1 
 O(Fragment=2)         21.8      27.53     22.85 
 H(Fragment=2)         21.68     26.86     22.18 
 H(Fragment=2)         21.83     28.35     22.38 
 O(Fragment=2)         15.37     23.17     15.18 
 H(Fragment=2)         15.4      24.03     15.58 
 H(Fragment=2)         15.92     23.25     14.4 
 O(Fragment=2)         14.26     14.43     20.77 
 H(Fragment=2)         14.76     14.95     21.4 
 H(Fragment=2)         13.35     14.69     20.91 
 O(Fragment=2)         14.18     25.58     20.21 
 H(Fragment=2)         14.34     26.38     20.71 
 H(Fragment=2)         14.39     24.87     20.81 
 O(Fragment=2)         28.02     22.37     20.13 
 H(Fragment=2)         27.96     22.91     19.34 
 H(Fragment=2)         27.26     21.8      20.09 
 O(Fragment=2)         25.33     21.37     25.11 
 H(Fragment=2)         26.14     21.61     25.56 
 H(Fragment=2)         24.67     21.37     25.8 
 O(Fragment=2)         23.14     16.78     13.08 
 H(Fragment=2)         24.09     16.8      12.95 
 H(Fragment=2)         22.91     17.67     13.32 
 O(Fragment=2)         24.13     23.67     13.62 
 H(Fragment=2)         23.45     23.78     14.29 
 H(Fragment=2)         24.79     23.12     14.04 
 O(Fragment=2)         15.37     15.73     14.36 
 H(Fragment=2)         16.06     15.66     15.03 
 H(Fragment=2)         15.46     16.61     14.01 
 O(Fragment=2)         18.45     26.4      24.01 
 H(Fragment=2)         17.88     27.18     24.06 
 H(Fragment=2)         18.95     26.42     24.82 
 O(Fragment=2)         16.08     16.99     26.69 
 H(Fragment=2)         16.05     17.84     26.26 
 H(Fragment=2)         16.67     16.46     26.15 
 O(Fragment=2)         18.01     27.03     16.54 
 H(Fragment=2)         17.25     26.52     16.84 
 H(Fragment=2)         17.62     27.77     16.08 
 O(Fragment=2)         23.15     24.32     25.7 
 H(Fragment=2)         23.       24.56     26.62 
 H(Fragment=2)         23.99     24.71     25.48 
 O(Fragment=2)         26.82     16.01     23.31 
 H(Fragment=2)         26.1      16.56     23.6 
 H(Fragment=2)         26.94     15.38     24.02 
 O(Fragment=2)         18.95     15.77     27.22 
 H(Fragment=2)         19.18     16.01     28.11 
 H(Fragment=2)         19.76     15.88     26.72 
 O(Fragment=2)         14.97     18.15     13.33 
 H(Fragment=2)         14.46     18.42     12.57 
 H(Fragment=2)         15.3      18.97     13.7 
 O(Fragment=2)         22.83     12.7      18.42 
 H(Fragment=2)         21.98     12.46     18.04 
 H(Fragment=2)         23.36     12.98     17.67 
 O(Fragment=2)         22.17     17.51     27.36 
 H(Fragment=2)         22.17     17.43     28.31 
 H(Fragment=2)         22.98     17.98     27.16 
 O(Fragment=2)         16.84     11.59     20.56 
 H(Fragment=2)         17.08     12.51     20.44 
 H(Fragment=2)         16.46     11.33     19.73 
 O(Fragment=2)         17.24     24.02     13.31 
 H(Fragment=2)         18.18     23.88     13.15 
 H(Fragment=2)         17.2      24.85     13.78 
 O(Fragment=2)         26.02     14.57     20.94 
 H(Fragment=2)         26.49     14.76     21.75 
 H(Fragment=2)         26.7      14.59     20.26 
 O(Fragment=2)         13.73     14.43     17.86 
 H(Fragment=2)         13.81     14.36     18.81 
 H(Fragment=2)         13.61     15.37     17.7 
 O(Fragment=2)         15.84     21.08     27.71 
 H(Fragment=2)         15.69     22.02     27.77 
 H(Fragment=2)         15.48     20.83     26.86 
 O(Fragment=2)         24.63     18.68     26.85 
 H(Fragment=2)         24.42     19.6      27.03 
 H(Fragment=2)         25.41     18.51     27.37 
 O(Fragment=2)         19.89     23.81     12.5 
 H(Fragment=2)         20.56     23.74     11.82 
 H(Fragment=2)         20.16     24.56     13.03 
 O(Fragment=2)         27.38     24.02     17.81 
 H(Fragment=2)         28.11     23.75     17.25 
 H(Fragment=2)         26.65     24.18     17.2 
 O(Fragment=2)         17.32     13.24     14.42 
 H(Fragment=2)         16.69     12.79     14.97 
 H(Fragment=2)         17.24     14.16     14.68 
 O(Fragment=2)         11.57     18.83     20.99 
 H(Fragment=2)         10.98     19.42     21.47 
 H(Fragment=2)         11.62     19.2      20.11 
 O(Fragment=2)         17.44     21.67     11.42 
 H(Fragment=2)         18.07     21.08     11.84 
 H(Fragment=2)         17.21     22.3      12.09 
 O(Fragment=2)         15.58     13.04     16.45 
 H(Fragment=2)         14.77     13.49     16.7 
 H(Fragment=2)         16.09     12.99     17.26 
 O(Fragment=2)         20.65     16.23     11.53 
 H(Fragment=2)         21.51     16.11     11.13 
 H(Fragment=2)         20.79     16.09     12.47 
 O(Fragment=2)         14.06     14.91     24.17 
 H(Fragment=2)         14.27     15.7      24.67 
 H(Fragment=2)         13.25     15.13     23.7 
 O(Fragment=2)         12.       16.65     22.76 
 H(Fragment=2)         12.11     17.3      22.06 
 H(Fragment=2)         11.18     16.21     22.53 
 O(Fragment=2)         11.18     18.99     17.71 
 H(Fragment=2)         10.54     19.22     17.04 
 H(Fragment=2)         11.96     18.75     17.22 
 O(Fragment=2)         24.01     15.24     27.24 
 H(Fragment=2)         23.48     15.82     26.71 
 H(Fragment=2)         23.43     14.51     27.46 
 O(Fragment=2)         18.97     21.96     29.09 
 H(Fragment=2)         19.09     21.54     29.94 
 H(Fragment=2)         18.78     21.24     28.49 
 O(Fragment=2)         22.33     12.51     25.28 
 H(Fragment=2)         21.87     12.72     26.09 
 H(Fragment=2)         22.6      13.36     24.93 
 O(Fragment=2)         27.48     21.14     15.75 
 H(Fragment=2)         28.08     21.69     16.26 
 H(Fragment=2)         27.97     20.33     15.61 
 O(Fragment=2)         24.31     20.97     12.19 
 H(Fragment=2)         23.86     21.79     12.41 
 H(Fragment=2)         25.21     21.23     12. 
 O(Fragment=2)         19.53     11.79     24.51 
 H(Fragment=2)         20.43     12.05     24.33 
 H(Fragment=2)         19.03     12.6      24.48 
 O(Fragment=2)         12.73     21.81     14.97 
 H(Fragment=2)         13.22     22.63     15.05 
 H(Fragment=2)         13.33     21.22     14.52 
 O(Fragment=2)         24.03     13.35     16.05 
 H(Fragment=2)         23.57     12.79     15.43 
 H(Fragment=2)         24.95     13.1      15.97 
 O(Fragment=2)         25.93     24.83     25.27 
 H(Fragment=2)         26.43     25.65     25.26 
 H(Fragment=2)         26.09     24.43     24.42 
 O(Fragment=2)         18.89     26.17     27. 
 H(Fragment=2)         19.17     25.26     27.03 
 H(Fragment=2)         19.71     26.67     26.95 
 O(Fragment=2)         24.7      28.14     22.18 
 H(Fragment=2)         24.38     27.54     21.5 
 H(Fragment=2)         25.48     27.7      22.54 
 O(Fragment=2)         26.99     26.18     19.51 
 H(Fragment=2)         27.46     26.88     19.05 
 H(Fragment=2)         26.93     25.47     18.87 
 O(Fragment=2)         24.59     27.61     19.22 
 H(Fragment=2)         25.52     27.41     19.32 
 H(Fragment=2)         24.57     28.53     18.95 
 O(Fragment=2)         23.41     27.51     25.24 
 H(Fragment=2)         22.83     27.23     24.53 
 H(Fragment=2)         24.08     28.05     24.82 
 O(Fragment=2)         19.61     19.27     29.88 
 H(Fragment=2)         19.3      18.43     30.22 
 H(Fragment=2)         19.75     19.12     28.95 
 O(Fragment=2)         20.86     11.51     16.94 
 H(Fragment=2)         20.36     11.84     16.19 
 H(Fragment=2)         20.22     11.05     17.48 
 O(Fragment=2)         11.82     16.37     18.83 
 H(Fragment=2)         11.34     17.19     18.92 
 H(Fragment=2)         11.78     16.16     17.89 
 O(Fragment=2)         28.75     16.71     21.61 
 H(Fragment=2)         28.04     16.52     22.22 
 H(Fragment=2)         28.83     17.66     21.62 
 O(Fragment=2)         22.18     26.26     13.85 
 H(Fragment=2)         23.09     26.21     14.15 
 H(Fragment=2)         21.95     27.18     13.94 
 O(Fragment=2)         20.04     12.47     14.7 
 H(Fragment=2)         20.09     11.71     14.12 
 H(Fragment=2)         19.11     12.69     14.72 
 O(Fragment=2)         23.05     19.31     10.54 
 H(Fragment=2)         22.57     19.06     11.32 
 H(Fragment=2)         23.74     19.9      10.86 
 O(Fragment=2)         12.89     26.35     17.76 
 H(Fragment=2)         13.32     26.04     18.56 
 H(Fragment=2)         12.02     26.61     18.05 
 O(Fragment=2)         14.64     25.94     24.4 
 H(Fragment=2)         13.89     26.54     24.42 
 H(Fragment=2)         15.13     26.14     25.19 
 O(Fragment=2)         26.53     22.48     13.75 
 H(Fragment=2)         27.       22.11     14.49 
 H(Fragment=2)         27.16     22.44     13.03 
 
 NAtoms=    385 NQM=      385 NQMF=       0 NMMI=      0 NMMIF=      0
                NMic=       0 NMicF=      0.
                    Isotopes and Nuclear Properties:
 (Nuclear quadrupole moments (NQMom) in fm**2, nuclear magnetic moments (NMagM)
  in nuclear magnetons)

  Atom         1           2           3           4           5           6           7           8           9          10
 IAtWgt=          79          16           1           1          16           1           1          16           1           1
 AtmWgt=  78.9183361  15.9949146   1.0078250   1.0078250  15.9949146   1.0078250   1.0078250  15.9949146   1.0078250   1.0078250
 NucSpn=           3           0           1           1           0           1           1           0           1           1
 AtZEff=   0.0000000   0.0000000   0.0000000   0.0000000   0.0000000   0.0000000   0.0000000   0.0000000   0.0000000   0.0000000
 NQMom=   31.3000000   0.0000000   0.0000000   0.0000000   0.0000000   0.0000000   0.0000000   0.0000000   0.0000000   0.0000000
 NMagM=    2.1063990   0.0000000   2.7928460   2.7928460   0.0000000   2.7928460   2.7928460   0.0000000   2.7928460   2.7928460
 AtZNuc=  35.0000000   8.0000000   1.0000000   1.0000000   8.0000000   1.0000000   1.0000000   8.0000000   1.0000000   1.0000000

  Atom        11          12          13          14          15          16          17          18          19          20
 IAtWgt=          16           1           1          16           1           1          16           1           1          16
 AtmWgt=  15.9949146   1.0078250   1.0078250  15.9949146   1.0078250   1.0078250  15.9949146   1.0078250   1.0078250  15.9949146
 NucSpn=           0           1           1           0           1           1           0           1           1           0
 AtZEff=   0.0000000   0.0000000   0.0000000   0.0000000   0.0000000   0.0000000   0.0000000   0.0000000   0.0000000   0.0000000
 NQMom=    0.0000000   0.0000000   0.0000000   0.0000000   0.0000000   0.0000000   0.0000000   0.0000000   0.0000000   0.0000000
 NMagM=    0.0000000   2.7928460   2.7928460   0.0000000   2.7928460   2.7928460   0.0000000   2.7928460   2.7928460   0.0000000
 AtZNuc=   8.0000000   1.0000000   1.0000000   8.0000000   1.0000000   1.0000000   8.0000000   1.0000000   1.0000000   8.0000000

  Atom        21          22          23          24          25          26          27          28          29          30
 IAtWgt=           1           1          16           1           1          16           1           1          16           1
 AtmWgt=   1.0078250   1.0078250  15.9949146   1.0078250   1.0078250  15.9949146   1.0078250   1.0078250  15.9949146   1.0078250
 NucSpn=           1           1           0           1           1           0           1           1           0           1
 AtZEff=   0.0000000   0.0000000   0.0000000   0.0000000   0.0000000   0.0000000   0.0000000   0.0000000   0.0000000   0.0000000
 NQMom=    0.0000000   0.0000000   0.0000000   0.0000000   0.0000000   0.0000000   0.0000000   0.0000000   0.0000000   0.0000000
 NMagM=    2.7928460   2.7928460   0.0000000   2.7928460   2.7928460   0.0000000   2.7928460   2.7928460   0.0000000   2.7928460
 AtZNuc=   1.0000000   1.0000000   8.0000000   1.0000000   1.0000000   8.0000000   1.0000000   1.0000000   8.0000000   1.0000000

  Atom        31          32          33          34          35          36          37          38          39          40
 IAtWgt=           1          16           1           1          16           1           1          16           1           1
 AtmWgt=   1.0078250  15.9949146   1.0078250   1.0078250  15.9949146   1.0078250   1.0078250  15.9949146   1.0078250   1.0078250
 NucSpn=           1           0           1           1           0           1           1           0           1           1
 AtZEff=   0.0000000   0.0000000   0.0000000   0.0000000   0.0000000   0.0000000   0.0000000   0.0000000   0.0000000   0.0000000
 NQMom=    0.0000000   0.0000000   0.0000000   0.0000000   0.0000000   0.0000000   0.0000000   0.0000000   0.0000000   0.0000000
 NMagM=    2.7928460   0.0000000   2.7928460   2.7928460   0.0000000   2.7928460   2.7928460   0.0000000   2.7928460   2.7928460
 AtZNuc=   1.0000000   8.0000000   1.0000000   1.0000000   8.0000000   1.0000000   1.0000000   8.0000000   1.0000000   1.0000000

  Atom        41          42          43          44          45          46          47          48          49          50
 IAtWgt=          16           1           1          16           1           1          16           1           1          16
 AtmWgt=  15.9949146   1.0078250   1.0078250  15.9949146   1.0078250   1.0078250  15.9949146   1.0078250   1.0078250  15.9949146
 NucSpn=           0           1           1           0           1           1           0           1           1           0
 AtZEff=   0.0000000   0.0000000   0.0000000   0.0000000   0.0000000   0.0000000   0.0000000   0.0000000   0.0000000   0.0000000
 NQMom=    0.0000000   0.0000000   0.0000000   0.0000000   0.0000000   0.0000000   0.0000000   0.0000000   0.0000000   0.0000000
 NMagM=    0.0000000   2.7928460   2.7928460   0.0000000   2.7928460   2.7928460   0.0000000   2.7928460   2.7928460   0.0000000
 AtZNuc=   8.0000000   1.0000000   1.0000000   8.0000000   1.0000000   1.0000000   8.0000000   1.0000000   1.0000000   8.0000000

  Atom        51          52          53          54          55          56          57          58          59          60
 IAtWgt=           1           1          16           1           1          16           1           1          16           1
 AtmWgt=   1.0078250   1.0078250  15.9949146   1.0078250   1.0078250  15.9949146   1.0078250   1.0078250  15.9949146   1.0078250
 NucSpn=           1           1           0           1           1           0           1           1           0           1
 AtZEff=   0.0000000   0.0000000   0.0000000   0.0000000   0.0000000   0.0000000   0.0000000   0.0000000   0.0000000   0.0000000
 NQMom=    0.0000000   0.0000000   0.0000000   0.0000000   0.0000000   0.0000000   0.0000000   0.0000000   0.0000000   0.0000000
 NMagM=    2.7928460   2.7928460   0.0000000   2.7928460   2.7928460   0.0000000   2.7928460   2.7928460   0.0000000   2.7928460
 AtZNuc=   1.0000000   1.0000000   8.0000000   1.0000000   1.0000000   8.0000000   1.0000000   1.0000000   8.0000000   1.0000000

  Atom        61          62          63          64          65          66          67          68          69          70
 IAtWgt=           1          16           1           1          16           1           1          16           1           1
 AtmWgt=   1.0078250  15.9949146   1.0078250   1.0078250  15.9949146   1.0078250   1.0078250  15.9949146   1.0078250   1.0078250
 NucSpn=           1           0           1           1           0           1           1           0           1           1
 AtZEff=   0.0000000   0.0000000   0.0000000   0.0000000   0.0000000   0.0000000   0.0000000   0.0000000   0.0000000   0.0000000
 NQMom=    0.0000000   0.0000000   0.0000000   0.0000000   0.0000000   0.0000000   0.0000000   0.0000000   0.0000000   0.0000000
 NMagM=    2.7928460   0.0000000   2.7928460   2.7928460   0.0000000   2.7928460   2.7928460   0.0000000   2.7928460   2.7928460
 AtZNuc=   1.0000000   8.0000000   1.0000000   1.0000000   8.0000000   1.0000000   1.0000000   8.0000000   1.0000000   1.0000000

  Atom        71          72          73          74          75          76          77          78          79          80
 IAtWgt=          16           1           1          16           1           1          16           1           1          16
 AtmWgt=  15.9949146   1.0078250   1.0078250  15.9949146   1.0078250   1.0078250  15.9949146   1.0078250   1.0078250  15.9949146
 NucSpn=           0           1           1           0           1           1           0           1           1           0
 AtZEff=   0.0000000   0.0000000   0.0000000   0.0000000   0.0000000   0.0000000   0.0000000   0.0000000   0.0000000   0.0000000
 NQMom=    0.0000000   0.0000000   0.0000000   0.0000000   0.0000000   0.0000000   0.0000000   0.0000000   0.0000000   0.0000000
 NMagM=    0.0000000   2.7928460   2.7928460   0.0000000   2.7928460   2.7928460   0.0000000   2.7928460   2.7928460   0.0000000
 AtZNuc=   8.0000000   1.0000000   1.0000000   8.0000000   1.0000000   1.0000000   8.0000000   1.0000000   1.0000000   8.0000000

  Atom        81          82          83          84          85          86          87          88          89          90
 IAtWgt=           1           1          16           1           1          16           1           1          16           1
 AtmWgt=   1.0078250   1.0078250  15.9949146   1.0078250   1.0078250  15.9949146   1.0078250   1.0078250  15.9949146   1.0078250
 NucSpn=           1           1           0           1           1           0           1           1           0           1
 AtZEff=   0.0000000   0.0000000   0.0000000   0.0000000   0.0000000   0.0000000   0.0000000   0.0000000   0.0000000   0.0000000
 NQMom=    0.0000000   0.0000000   0.0000000   0.0000000   0.0000000   0.0000000   0.0000000   0.0000000   0.0000000   0.0000000
 NMagM=    2.7928460   2.7928460   0.0000000   2.7928460   2.7928460   0.0000000   2.7928460   2.7928460   0.0000000   2.7928460
 AtZNuc=   1.0000000   1.0000000   8.0000000   1.0000000   1.0000000   8.0000000   1.0000000   1.0000000   8.0000000   1.0000000

  Atom        91          92          93          94          95          96          97          98          99         100
 IAtWgt=           1          16           1           1          16           1           1          16           1           1
 AtmWgt=   1.0078250  15.9949146   1.0078250   1.0078250  15.9949146   1.0078250   1.0078250  15.9949146   1.0078250   1.0078250
 NucSpn=           1           0           1           1           0           1           1           0           1           1
 AtZEff=   0.0000000   0.0000000   0.0000000   0.0000000   0.0000000   0.0000000   0.0000000   0.0000000   0.0000000   0.0000000
 NQMom=    0.0000000   0.0000000   0.0000000   0.0000000   0.0000000   0.0000000   0.0000000   0.0000000   0.0000000   0.0000000
 NMagM=    2.7928460   0.0000000   2.7928460   2.7928460   0.0000000   2.7928460   2.7928460   0.0000000   2.7928460   2.7928460
 AtZNuc=   1.0000000   8.0000000   1.0000000   1.0000000   8.0000000   1.0000000   1.0000000   8.0000000   1.0000000   1.0000000

  Atom       101         102         103         104         105         106         107         108         109         110
 IAtWgt=          16           1           1          16           1           1          16           1           1          16
 AtmWgt=  15.9949146   1.0078250   1.0078250  15.9949146   1.0078250   1.0078250  15.9949146   1.0078250   1.0078250  15.9949146
 NucSpn=           0           1           1           0           1           1           0           1           1           0
 AtZEff=   0.0000000   0.0000000   0.0000000   0.0000000   0.0000000   0.0000000   0.0000000   0.0000000   0.0000000   0.0000000
 NQMom=    0.0000000   0.0000000   0.0000000   0.0000000   0.0000000   0.0000000   0.0000000   0.0000000   0.0000000   0.0000000
 NMagM=    0.0000000   2.7928460   2.7928460   0.0000000   2.7928460   2.7928460   0.0000000   2.7928460   2.7928460   0.0000000
 AtZNuc=   8.0000000   1.0000000   1.0000000   8.0000000   1.0000000   1.0000000   8.0000000   1.0000000   1.0000000   8.0000000

  Atom       111         112         113         114         115         116         117         118         119         120
 IAtWgt=           1           1          16           1           1          16           1           1          16           1
 AtmWgt=   1.0078250   1.0078250  15.9949146   1.0078250   1.0078250  15.9949146   1.0078250   1.0078250  15.9949146   1.0078250
 NucSpn=           1           1           0           1           1           0           1           1           0           1
 AtZEff=   0.0000000   0.0000000   0.0000000   0.0000000   0.0000000   0.0000000   0.0000000   0.0000000   0.0000000   0.0000000
 NQMom=    0.0000000   0.0000000   0.0000000   0.0000000   0.0000000   0.0000000   0.0000000   0.0000000   0.0000000   0.0000000
 NMagM=    2.7928460   2.7928460   0.0000000   2.7928460   2.7928460   0.0000000   2.7928460   2.7928460   0.0000000   2.7928460
 AtZNuc=   1.0000000   1.0000000   8.0000000   1.0000000   1.0000000   8.0000000   1.0000000   1.0000000   8.0000000   1.0000000

  Atom       121         122         123         124         125         126         127         128         129         130
 IAtWgt=           1          16           1           1          16           1           1          16           1           1
 AtmWgt=   1.0078250  15.9949146   1.0078250   1.0078250  15.9949146   1.0078250   1.0078250  15.9949146   1.0078250   1.0078250
 NucSpn=           1           0           1           1           0           1           1           0           1           1
 AtZEff=   0.0000000   0.0000000   0.0000000   0.0000000   0.0000000   0.0000000   0.0000000   0.0000000   0.0000000   0.0000000
 NQMom=    0.0000000   0.0000000   0.0000000   0.0000000   0.0000000   0.0000000   0.0000000   0.0000000   0.0000000   0.0000000
 NMagM=    2.7928460   0.0000000   2.7928460   2.7928460   0.0000000   2.7928460   2.7928460   0.0000000   2.7928460   2.7928460
 AtZNuc=   1.0000000   8.0000000   1.0000000   1.0000000   8.0000000   1.0000000   1.0000000   8.0000000   1.0000000   1.0000000

  Atom       131         132         133         134         135         136         137         138         139         140
 IAtWgt=          16           1           1          16           1           1          16           1           1          16
 AtmWgt=  15.9949146   1.0078250   1.0078250  15.9949146   1.0078250   1.0078250  15.9949146   1.0078250   1.0078250  15.9949146
 NucSpn=           0           1           1           0           1           1           0           1           1           0
 AtZEff=   0.0000000   0.0000000   0.0000000   0.0000000   0.0000000   0.0000000   0.0000000   0.0000000   0.0000000   0.0000000
 NQMom=    0.0000000   0.0000000   0.0000000   0.0000000   0.0000000   0.0000000   0.0000000   0.0000000   0.0000000   0.0000000
 NMagM=    0.0000000   2.7928460   2.7928460   0.0000000   2.7928460   2.7928460   0.0000000   2.7928460   2.7928460   0.0000000
 AtZNuc=   8.0000000   1.0000000   1.0000000   8.0000000   1.0000000   1.0000000   8.0000000   1.0000000   1.0000000   8.0000000

  Atom       141         142         143         144         145         146         147         148         149         150
 IAtWgt=           1           1          16           1           1          16           1           1          16           1
 AtmWgt=   1.0078250   1.0078250  15.9949146   1.0078250   1.0078250  15.9949146   1.0078250   1.0078250  15.9949146   1.0078250
 NucSpn=           1           1           0           1           1           0           1           1           0           1
 AtZEff=   0.0000000   0.0000000   0.0000000   0.0000000   0.0000000   0.0000000   0.0000000   0.0000000   0.0000000   0.0000000
 NQMom=    0.0000000   0.0000000   0.0000000   0.0000000   0.0000000   0.0000000   0.0000000   0.0000000   0.0000000   0.0000000
 NMagM=    2.7928460   2.7928460   0.0000000   2.7928460   2.7928460   0.0000000   2.7928460   2.7928460   0.0000000   2.7928460
 AtZNuc=   1.0000000   1.0000000   8.0000000   1.0000000   1.0000000   8.0000000   1.0000000   1.0000000   8.0000000   1.0000000

  Atom       151         152         153         154         155         156         157         158         159         160
 IAtWgt=           1          16           1           1          16           1           1          16           1           1
 AtmWgt=   1.0078250  15.9949146   1.0078250   1.0078250  15.9949146   1.0078250   1.0078250  15.9949146   1.0078250   1.0078250
 NucSpn=           1           0           1           1           0           1           1           0           1           1
 AtZEff=   0.0000000   0.0000000   0.0000000   0.0000000   0.0000000   0.0000000   0.0000000   0.0000000   0.0000000   0.0000000
 NQMom=    0.0000000   0.0000000   0.0000000   0.0000000   0.0000000   0.0000000   0.0000000   0.0000000   0.0000000   0.0000000
 NMagM=    2.7928460   0.0000000   2.7928460   2.7928460   0.0000000   2.7928460   2.7928460   0.0000000   2.7928460   2.7928460
 AtZNuc=   1.0000000   8.0000000   1.0000000   1.0000000   8.0000000   1.0000000   1.0000000   8.0000000   1.0000000   1.0000000

  Atom       161         162         163         164         165         166         167         168         169         170
 IAtWgt=          16           1           1          16           1           1          16           1           1          16
 AtmWgt=  15.9949146   1.0078250   1.0078250  15.9949146   1.0078250   1.0078250  15.9949146   1.0078250   1.0078250  15.9949146
 NucSpn=           0           1           1           0           1           1           0           1           1           0
 AtZEff=   0.0000000   0.0000000   0.0000000   0.0000000   0.0000000   0.0000000   0.0000000   0.0000000   0.0000000   0.0000000
 NQMom=    0.0000000   0.0000000   0.0000000   0.0000000   0.0000000   0.0000000   0.0000000   0.0000000   0.0000000   0.0000000
 NMagM=    0.0000000   2.7928460   2.7928460   0.0000000   2.7928460   2.7928460   0.0000000   2.7928460   2.7928460   0.0000000
 AtZNuc=   8.0000000   1.0000000   1.0000000   8.0000000   1.0000000   1.0000000   8.0000000   1.0000000   1.0000000   8.0000000

  Atom       171         172         173         174         175         176         177         178         179         180
 IAtWgt=           1           1          16           1           1          16           1           1          16           1
 AtmWgt=   1.0078250   1.0078250  15.9949146   1.0078250   1.0078250  15.9949146   1.0078250   1.0078250  15.9949146   1.0078250
 NucSpn=           1           1           0           1           1           0           1           1           0           1
 AtZEff=   0.0000000   0.0000000   0.0000000   0.0000000   0.0000000   0.0000000   0.0000000   0.0000000   0.0000000   0.0000000
 NQMom=    0.0000000   0.0000000   0.0000000   0.0000000   0.0000000   0.0000000   0.0000000   0.0000000   0.0000000   0.0000000
 NMagM=    2.7928460   2.7928460   0.0000000   2.7928460   2.7928460   0.0000000   2.7928460   2.7928460   0.0000000   2.7928460
 AtZNuc=   1.0000000   1.0000000   8.0000000   1.0000000   1.0000000   8.0000000   1.0000000   1.0000000   8.0000000   1.0000000

  Atom       181         182         183         184         185         186         187         188         189         190
 IAtWgt=           1          16           1           1          16           1           1          16           1           1
 AtmWgt=   1.0078250  15.9949146   1.0078250   1.0078250  15.9949146   1.0078250   1.0078250  15.9949146   1.0078250   1.0078250
 NucSpn=           1           0           1           1           0           1           1           0           1           1
 AtZEff=   0.0000000   0.0000000   0.0000000   0.0000000   0.0000000   0.0000000   0.0000000   0.0000000   0.0000000   0.0000000
 NQMom=    0.0000000   0.0000000   0.0000000   0.0000000   0.0000000   0.0000000   0.0000000   0.0000000   0.0000000   0.0000000
 NMagM=    2.7928460   0.0000000   2.7928460   2.7928460   0.0000000   2.7928460   2.7928460   0.0000000   2.7928460   2.7928460
 AtZNuc=   1.0000000   8.0000000   1.0000000   1.0000000   8.0000000   1.0000000   1.0000000   8.0000000   1.0000000   1.0000000

  Atom       191         192         193         194         195         196         197         198         199         200
 IAtWgt=          16           1           1          16           1           1          16           1           1          16
 AtmWgt=  15.9949146   1.0078250   1.0078250  15.9949146   1.0078250   1.0078250  15.9949146   1.0078250   1.0078250  15.9949146
 NucSpn=           0           1           1           0           1           1           0           1           1           0
 AtZEff=   0.0000000   0.0000000   0.0000000   0.0000000   0.0000000   0.0000000   0.0000000   0.0000000   0.0000000   0.0000000
 NQMom=    0.0000000   0.0000000   0.0000000   0.0000000   0.0000000   0.0000000   0.0000000   0.0000000   0.0000000   0.0000000
 NMagM=    0.0000000   2.7928460   2.7928460   0.0000000   2.7928460   2.7928460   0.0000000   2.7928460   2.7928460   0.0000000
 AtZNuc=   8.0000000   1.0000000   1.0000000   8.0000000   1.0000000   1.0000000   8.0000000   1.0000000   1.0000000   8.0000000

  Atom       201         202         203         204         205         206         207         208         209         210
 IAtWgt=           1           1          16           1           1          16           1           1          16           1
 AtmWgt=   1.0078250   1.0078250  15.9949146   1.0078250   1.0078250  15.9949146   1.0078250   1.0078250  15.9949146   1.0078250
 NucSpn=           1           1           0           1           1           0           1           1           0           1
 AtZEff=   0.0000000   0.0000000   0.0000000   0.0000000   0.0000000   0.0000000   0.0000000   0.0000000   0.0000000   0.0000000
 NQMom=    0.0000000   0.0000000   0.0000000   0.0000000   0.0000000   0.0000000   0.0000000   0.0000000   0.0000000   0.0000000
 NMagM=    2.7928460   2.7928460   0.0000000   2.7928460   2.7928460   0.0000000   2.7928460   2.7928460   0.0000000   2.7928460
 AtZNuc=   1.0000000   1.0000000   8.0000000   1.0000000   1.0000000   8.0000000   1.0000000   1.0000000   8.0000000   1.0000000

  Atom       211         212         213         214         215         216         217         218         219         220
 IAtWgt=           1          16           1           1          16           1           1          16           1           1
 AtmWgt=   1.0078250  15.9949146   1.0078250   1.0078250  15.9949146   1.0078250   1.0078250  15.9949146   1.0078250   1.0078250
 NucSpn=           1           0           1           1           0           1           1           0           1           1
 AtZEff=   0.0000000   0.0000000   0.0000000   0.0000000   0.0000000   0.0000000   0.0000000   0.0000000   0.0000000   0.0000000
 NQMom=    0.0000000   0.0000000   0.0000000   0.0000000   0.0000000   0.0000000   0.0000000   0.0000000   0.0000000   0.0000000
 NMagM=    2.7928460   0.0000000   2.7928460   2.7928460   0.0000000   2.7928460   2.7928460   0.0000000   2.7928460   2.7928460
 AtZNuc=   1.0000000   8.0000000   1.0000000   1.0000000   8.0000000   1.0000000   1.0000000   8.0000000   1.0000000   1.0000000

  Atom       221         222         223         224         225         226         227         228         229         230
 IAtWgt=          16           1           1          16           1           1          16           1           1          16
 AtmWgt=  15.9949146   1.0078250   1.0078250  15.9949146   1.0078250   1.0078250  15.9949146   1.0078250   1.0078250  15.9949146
 NucSpn=           0           1           1           0           1           1           0           1           1           0
 AtZEff=   0.0000000   0.0000000   0.0000000   0.0000000   0.0000000   0.0000000   0.0000000   0.0000000   0.0000000   0.0000000
 NQMom=    0.0000000   0.0000000   0.0000000   0.0000000   0.0000000   0.0000000   0.0000000   0.0000000   0.0000000   0.0000000
 NMagM=    0.0000000   2.7928460   2.7928460   0.0000000   2.7928460   2.7928460   0.0000000   2.7928460   2.7928460   0.0000000
 AtZNuc=   8.0000000   1.0000000   1.0000000   8.0000000   1.0000000   1.0000000   8.0000000   1.0000000   1.0000000   8.0000000

  Atom       231         232         233         234         235         236         237         238         239         240
 IAtWgt=           1           1          16           1           1          16           1           1          16           1
 AtmWgt=   1.0078250   1.0078250  15.9949146   1.0078250   1.0078250  15.9949146   1.0078250   1.0078250  15.9949146   1.0078250
 NucSpn=           1           1           0           1           1           0           1           1           0           1
 AtZEff=   0.0000000   0.0000000   0.0000000   0.0000000   0.0000000   0.0000000   0.0000000   0.0000000   0.0000000   0.0000000
 NQMom=    0.0000000   0.0000000   0.0000000   0.0000000   0.0000000   0.0000000   0.0000000   0.0000000   0.0000000   0.0000000
 NMagM=    2.7928460   2.7928460   0.0000000   2.7928460   2.7928460   0.0000000   2.7928460   2.7928460   0.0000000   2.7928460
 AtZNuc=   1.0000000   1.0000000   8.0000000   1.0000000   1.0000000   8.0000000   1.0000000   1.0000000   8.0000000   1.0000000

  Atom       241         242         243         244         245         246         247         248         249         250
 IAtWgt=           1          16           1           1          16           1           1          16           1           1
 AtmWgt=   1.0078250  15.9949146   1.0078250   1.0078250  15.9949146   1.0078250   1.0078250  15.9949146   1.0078250   1.0078250
 NucSpn=           1           0           1           1           0           1           1           0           1           1
 AtZEff=   0.0000000   0.0000000   0.0000000   0.0000000   0.0000000   0.0000000   0.0000000   0.0000000   0.0000000   0.0000000
 NQMom=    0.0000000   0.0000000   0.0000000   0.0000000   0.0000000   0.0000000   0.0000000   0.0000000   0.0000000   0.0000000
 NMagM=    2.7928460   0.0000000   2.7928460   2.7928460   0.0000000   2.7928460   2.7928460   0.0000000   2.7928460   2.7928460
 AtZNuc=   1.0000000   8.0000000   1.0000000   1.0000000   8.0000000   1.0000000   1.0000000   8.0000000   1.0000000   1.0000000

  Atom       251         252         253         254         255         256         257         258         259         260
 IAtWgt=          16           1           1          16           1           1          16           1           1          16
 AtmWgt=  15.9949146   1.0078250   1.0078250  15.9949146   1.0078250   1.0078250  15.9949146   1.0078250   1.0078250  15.9949146
 NucSpn=           0           1           1           0           1           1           0           1           1           0
 AtZEff=   0.0000000   0.0000000   0.0000000   0.0000000   0.0000000   0.0000000   0.0000000   0.0000000   0.0000000   0.0000000
 NQMom=    0.0000000   0.0000000   0.0000000   0.0000000   0.0000000   0.0000000   0.0000000   0.0000000   0.0000000   0.0000000
 NMagM=    0.0000000   2.7928460   2.7928460   0.0000000   2.7928460   2.7928460   0.0000000   2.7928460   2.7928460   0.0000000
 AtZNuc=   8.0000000   1.0000000   1.0000000   8.0000000   1.0000000   1.0000000   8.0000000   1.0000000   1.0000000   8.0000000

  Atom       261         262         263         264         265         266         267         268         269         270
 IAtWgt=           1           1          16           1           1          16           1           1          16           1
 AtmWgt=   1.0078250   1.0078250  15.9949146   1.0078250   1.0078250  15.9949146   1.0078250   1.0078250  15.9949146   1.0078250
 NucSpn=           1           1           0           1           1           0           1           1           0           1
 AtZEff=   0.0000000   0.0000000   0.0000000   0.0000000   0.0000000   0.0000000   0.0000000   0.0000000   0.0000000   0.0000000
 NQMom=    0.0000000   0.0000000   0.0000000   0.0000000   0.0000000   0.0000000   0.0000000   0.0000000   0.0000000   0.0000000
 NMagM=    2.7928460   2.7928460   0.0000000   2.7928460   2.7928460   0.0000000   2.7928460   2.7928460   0.0000000   2.7928460
 AtZNuc=   1.0000000   1.0000000   8.0000000   1.0000000   1.0000000   8.0000000   1.0000000   1.0000000   8.0000000   1.0000000

  Atom       271         272         273         274         275         276         277         278         279         280
 IAtWgt=           1          16           1           1          16           1           1          16           1           1
 AtmWgt=   1.0078250  15.9949146   1.0078250   1.0078250  15.9949146   1.0078250   1.0078250  15.9949146   1.0078250   1.0078250
 NucSpn=           1           0           1           1           0           1           1           0           1           1
 AtZEff=   0.0000000   0.0000000   0.0000000   0.0000000   0.0000000   0.0000000   0.0000000   0.0000000   0.0000000   0.0000000
 NQMom=    0.0000000   0.0000000   0.0000000   0.0000000   0.0000000   0.0000000   0.0000000   0.0000000   0.0000000   0.0000000
 NMagM=    2.7928460   0.0000000   2.7928460   2.7928460   0.0000000   2.7928460   2.7928460   0.0000000   2.7928460   2.7928460
 AtZNuc=   1.0000000   8.0000000   1.0000000   1.0000000   8.0000000   1.0000000   1.0000000   8.0000000   1.0000000   1.0000000

  Atom       281         282         283         284         285         286         287         288         289         290
 IAtWgt=          16           1           1          16           1           1          16           1           1          16
 AtmWgt=  15.9949146   1.0078250   1.0078250  15.9949146   1.0078250   1.0078250  15.9949146   1.0078250   1.0078250  15.9949146
 NucSpn=           0           1           1           0           1           1           0           1           1           0
 AtZEff=   0.0000000   0.0000000   0.0000000   0.0000000   0.0000000   0.0000000   0.0000000   0.0000000   0.0000000   0.0000000
 NQMom=    0.0000000   0.0000000   0.0000000   0.0000000   0.0000000   0.0000000   0.0000000   0.0000000   0.0000000   0.0000000
 NMagM=    0.0000000   2.7928460   2.7928460   0.0000000   2.7928460   2.7928460   0.0000000   2.7928460   2.7928460   0.0000000
 AtZNuc=   8.0000000   1.0000000   1.0000000   8.0000000   1.0000000   1.0000000   8.0000000   1.0000000   1.0000000   8.0000000

  Atom       291         292         293         294         295         296         297         298         299         300
 IAtWgt=           1           1          16           1           1          16           1           1          16           1
 AtmWgt=   1.0078250   1.0078250  15.9949146   1.0078250   1.0078250  15.9949146   1.0078250   1.0078250  15.9949146   1.0078250
 NucSpn=           1           1           0           1           1           0           1           1           0           1
 AtZEff=   0.0000000   0.0000000   0.0000000   0.0000000   0.0000000   0.0000000   0.0000000   0.0000000   0.0000000   0.0000000
 NQMom=    0.0000000   0.0000000   0.0000000   0.0000000   0.0000000   0.0000000   0.0000000   0.0000000   0.0000000   0.0000000
 NMagM=    2.7928460   2.7928460   0.0000000   2.7928460   2.7928460   0.0000000   2.7928460   2.7928460   0.0000000   2.7928460
 AtZNuc=   1.0000000   1.0000000   8.0000000   1.0000000   1.0000000   8.0000000   1.0000000   1.0000000   8.0000000   1.0000000

  Atom       301         302         303         304         305         306         307         308         309         310
 IAtWgt=           1          16           1           1          16           1           1          16           1           1
 AtmWgt=   1.0078250  15.9949146   1.0078250   1.0078250  15.9949146   1.0078250   1.0078250  15.9949146   1.0078250   1.0078250
 NucSpn=           1           0           1           1           0           1           1           0           1           1
 AtZEff=   0.0000000   0.0000000   0.0000000   0.0000000   0.0000000   0.0000000   0.0000000   0.0000000   0.0000000   0.0000000
 NQMom=    0.0000000   0.0000000   0.0000000   0.0000000   0.0000000   0.0000000   0.0000000   0.0000000   0.0000000   0.0000000
 NMagM=    2.7928460   0.0000000   2.7928460   2.7928460   0.0000000   2.7928460   2.7928460   0.0000000   2.7928460   2.7928460
 AtZNuc=   1.0000000   8.0000000   1.0000000   1.0000000   8.0000000   1.0000000   1.0000000   8.0000000   1.0000000   1.0000000

  Atom       311         312         313         314         315         316         317         318         319         320
 IAtWgt=          16           1           1          16           1           1          16           1           1          16
 AtmWgt=  15.9949146   1.0078250   1.0078250  15.9949146   1.0078250   1.0078250  15.9949146   1.0078250   1.0078250  15.9949146
 NucSpn=           0           1           1           0           1           1           0           1           1           0
 AtZEff=   0.0000000   0.0000000   0.0000000   0.0000000   0.0000000   0.0000000   0.0000000   0.0000000   0.0000000   0.0000000
 NQMom=    0.0000000   0.0000000   0.0000000   0.0000000   0.0000000   0.0000000   0.0000000   0.0000000   0.0000000   0.0000000
 NMagM=    0.0000000   2.7928460   2.7928460   0.0000000   2.7928460   2.7928460   0.0000000   2.7928460   2.7928460   0.0000000
 AtZNuc=   8.0000000   1.0000000   1.0000000   8.0000000   1.0000000   1.0000000   8.0000000   1.0000000   1.0000000   8.0000000

  Atom       321         322         323         324         325         326         327         328         329         330
 IAtWgt=           1           1          16           1           1          16           1           1          16           1
 AtmWgt=   1.0078250   1.0078250  15.9949146   1.0078250   1.0078250  15.9949146   1.0078250   1.0078250  15.9949146   1.0078250
 NucSpn=           1           1           0           1           1           0           1           1           0           1
 AtZEff=   0.0000000   0.0000000   0.0000000   0.0000000   0.0000000   0.0000000   0.0000000   0.0000000   0.0000000   0.0000000
 NQMom=    0.0000000   0.0000000   0.0000000   0.0000000   0.0000000   0.0000000   0.0000000   0.0000000   0.0000000   0.0000000
 NMagM=    2.7928460   2.7928460   0.0000000   2.7928460   2.7928460   0.0000000   2.7928460   2.7928460   0.0000000   2.7928460
 AtZNuc=   1.0000000   1.0000000   8.0000000   1.0000000   1.0000000   8.0000000   1.0000000   1.0000000   8.0000000   1.0000000

  Atom       331         332         333         334         335         336         337         338         339         340
 IAtWgt=           1          16           1           1          16           1           1          16           1           1
 AtmWgt=   1.0078250  15.9949146   1.0078250   1.0078250  15.9949146   1.0078250   1.0078250  15.9949146   1.0078250   1.0078250
 NucSpn=           1           0           1           1           0           1           1           0           1           1
 AtZEff=   0.0000000   0.0000000   0.0000000   0.0000000   0.0000000   0.0000000   0.0000000   0.0000000   0.0000000   0.0000000
 NQMom=    0.0000000   0.0000000   0.0000000   0.0000000   0.0000000   0.0000000   0.0000000   0.0000000   0.0000000   0.0000000
 NMagM=    2.7928460   0.0000000   2.7928460   2.7928460   0.0000000   2.7928460   2.7928460   0.0000000   2.7928460   2.7928460
 AtZNuc=   1.0000000   8.0000000   1.0000000   1.0000000   8.0000000   1.0000000   1.0000000   8.0000000   1.0000000   1.0000000

  Atom       341         342         343         344         345         346         347         348         349         350
 IAtWgt=          16           1           1          16           1           1          16           1           1          16
 AtmWgt=  15.9949146   1.0078250   1.0078250  15.9949146   1.0078250   1.0078250  15.9949146   1.0078250   1.0078250  15.9949146
 NucSpn=           0           1           1           0           1           1           0           1           1           0
 AtZEff=   0.0000000   0.0000000   0.0000000   0.0000000   0.0000000   0.0000000   0.0000000   0.0000000   0.0000000   0.0000000
 NQMom=    0.0000000   0.0000000   0.0000000   0.0000000   0.0000000   0.0000000   0.0000000   0.0000000   0.0000000   0.0000000
 NMagM=    0.0000000   2.7928460   2.7928460   0.0000000   2.7928460   2.7928460   0.0000000   2.7928460   2.7928460   0.0000000
 AtZNuc=   8.0000000   1.0000000   1.0000000   8.0000000   1.0000000   1.0000000   8.0000000   1.0000000   1.0000000   8.0000000

  Atom       351         352         353         354         355         356         357         358         359         360
 IAtWgt=           1           1          16           1           1          16           1           1          16           1
 AtmWgt=   1.0078250   1.0078250  15.9949146   1.0078250   1.0078250  15.9949146   1.0078250   1.0078250  15.9949146   1.0078250
 NucSpn=           1           1           0           1           1           0           1           1           0           1
 AtZEff=   0.0000000   0.0000000   0.0000000   0.0000000   0.0000000   0.0000000   0.0000000   0.0000000   0.0000000   0.0000000
 NQMom=    0.0000000   0.0000000   0.0000000   0.0000000   0.0000000   0.0000000   0.0000000   0.0000000   0.0000000   0.0000000
 NMagM=    2.7928460   2.7928460   0.0000000   2.7928460   2.7928460   0.0000000   2.7928460   2.7928460   0.0000000   2.7928460
 AtZNuc=   1.0000000   1.0000000   8.0000000   1.0000000   1.0000000   8.0000000   1.0000000   1.0000000   8.0000000   1.0000000

  Atom       361         362         363         364         365         366         367         368         369         370
 IAtWgt=           1          16           1           1          16           1           1          16           1           1
 AtmWgt=   1.0078250  15.9949146   1.0078250   1.0078250  15.9949146   1.0078250   1.0078250  15.9949146   1.0078250   1.0078250
 NucSpn=           1           0           1           1           0           1           1           0           1           1
 AtZEff=   0.0000000   0.0000000   0.0000000   0.0000000   0.0000000   0.0000000   0.0000000   0.0000000   0.0000000   0.0000000
 NQMom=    0.0000000   0.0000000   0.0000000   0.0000000   0.0000000   0.0000000   0.0000000   0.0000000   0.0000000   0.0000000
 NMagM=    2.7928460   0.0000000   2.7928460   2.7928460   0.0000000   2.7928460   2.7928460   0.0000000   2.7928460   2.7928460
 AtZNuc=   1.0000000   8.0000000   1.0000000   1.0000000   8.0000000   1.0000000   1.0000000   8.0000000   1.0000000   1.0000000

  Atom       371         372         373         374         375         376         377         378         379         380
 IAtWgt=          16           1           1          16           1           1          16           1           1          16
 AtmWgt=  15.9949146   1.0078250   1.0078250  15.9949146   1.0078250   1.0078250  15.9949146   1.0078250   1.0078250  15.9949146
 NucSpn=           0           1           1           0           1           1           0           1           1           0
 AtZEff=   0.0000000   0.0000000   0.0000000   0.0000000   0.0000000   0.0000000   0.0000000   0.0000000   0.0000000   0.0000000
 NQMom=    0.0000000   0.0000000   0.0000000   0.0000000   0.0000000   0.0000000   0.0000000   0.0000000   0.0000000   0.0000000
 NMagM=    0.0000000   2.7928460   2.7928460   0.0000000   2.7928460   2.7928460   0.0000000   2.7928460   2.7928460   0.0000000
 AtZNuc=   8.0000000   1.0000000   1.0000000   8.0000000   1.0000000   1.0000000   8.0000000   1.0000000   1.0000000   8.0000000

  Atom       381         382         383         384         385
 IAtWgt=           1           1          16           1           1
 AtmWgt=   1.0078250   1.0078250  15.9949146   1.0078250   1.0078250
 NucSpn=           1           1           0           1           1
 AtZEff=   0.0000000   0.0000000   0.0000000   0.0000000   0.0000000
 NQMom=    0.0000000   0.0000000   0.0000000   0.0000000   0.0000000
 NMagM=    2.7928460   2.7928460   0.0000000   2.7928460   2.7928460
 AtZNuc=   1.0000000   1.0000000   8.0000000   1.0000000   1.0000000
 Leave Link  101 at Thu May  3 20:52:42 2018, MaxMem= 14763950080 cpu:        33.3
 (Enter /cm/shared/gaussian/g09.e01/intel64-sandybridge/g09/l103.exe)

 GradGradGradGradGradGradGradGradGradGradGradGradGradGradGradGradGradGrad
 Berny optimization.
 Initialization pass.
 Trust Radius=3.00D-01 FncErr=1.00D-07 GrdErr=1.00D-07
 Number of steps in this run=      2 maximum allowed number of steps=      2.
 GradGradGradGradGradGradGradGradGradGradGradGradGradGradGradGradGradGrad

 Leave Link  103 at Thu May  3 20:52:42 2018, MaxMem= 14763950080 cpu:         3.7
 (Enter /cm/shared/gaussian/g09.e01/intel64-sandybridge/g09/l202.exe)
 Symmetry turned off by external request.
 Stoichiometry    BrH256O128(1-)
 Framework group  C1[X(BrH256O128)]
 Deg. of freedom  1149
 Full point group                 C1      NOp   1
                          Input orientation:                          
 ---------------------------------------------------------------------
 Center     Atomic      Atomic             Coordinates (Angstroms)
 Number     Number       Type             X           Y           Z
 ---------------------------------------------------------------------
      1         35           0       20.000000   20.000000   20.000000
      2          8           0       20.950000   18.010000   17.710000
      3          1           0       20.640000   18.490000   18.470000
      4          1           0       21.870000   17.810000   17.910000
      5          8           0       22.590000   18.710000   21.430000
      6          1           0       21.770000   19.030000   21.040000
      7          1           0       22.730000   19.280000   22.190000
      8          8           0       18.150000   18.650000   22.250000
      9          1           0       18.540000   18.970000   21.440000
     10          1           0       17.980000   19.440000   22.770000
     11          8           0       21.100000   21.410000   17.160000
     12          1           0       20.860000   20.910000   17.940000
     13          1           0       20.920000   20.810000   16.430000
     14          8           0       17.200000   20.360000   18.060000
     15          1           0       17.910000   20.290000   18.700000
     16          1           0       17.620000   20.690000   17.270000
     17          8           0       20.230000   16.720000   20.580000
     18          1           0       19.830000   17.480000   20.160000
     19          1           0       20.440000   16.130000   19.860000
     20          8           0       20.760000   20.800000   23.240000
     21          1           0       20.280000   20.500000   22.480000
     22          1           0       20.920000   21.730000   23.080000
     23          8           0       18.130000   18.190000   16.650000
     24          1           0       19.010000   18.560000   16.680000
     25          1           0       17.560000   18.950000   16.520000
     26          8           0       20.550000   24.020000   18.170000
     27          1           0       21.030000   23.210000   18.300000
     28          1           0       21.170000   24.600000   17.730000
     29          8           0       23.150000   16.770000   19.570000
     30          1           0       22.960000   16.130000   20.260000
     31          1           0       22.930000   17.610000   19.960000
     32          8           0       17.650000   20.990000   23.540000
     33          1           0       18.120000   21.780000   23.800000
     34          1           0       17.360000   21.170000   22.640000
     35          8           0       20.610000   19.380000   15.510000
     36          1           0       20.750000   18.890000   16.320000
     37          1           0       21.170000   18.950000   14.860000
     38          8           0       16.810000   22.460000   21.550000
     39          1           0       17.380000   22.840000   20.880000
     40          1           0       16.250000   23.190000   21.820000
     41          8           0       18.240000   24.010000   19.570000
     42          1           0       19.190000   23.890000   19.590000
     43          1           0       18.090000   24.760000   20.150000
     44          8           0       17.200000   16.530000   19.050000
     45          1           0       17.260000   17.340000   18.550000
     46          1           0       16.640000   16.750000   19.800000
     47          8           0       20.990000   16.880000   23.260000
     48          1           0       20.500000   16.710000   22.460000
     49          1           0       21.660000   17.520000   23.010000
     50          8           0       24.200000   21.600000   17.590000
     51          1           0       23.310000   21.280000   17.690000
     52          1           0       24.380000   21.530000   16.650000
     53          8           0       18.260000   23.160000   16.350000
     54          1           0       18.750000   23.100000   17.170000
     55          1           0       18.660000   23.900000   15.890000
     56          8           0       16.420000   16.400000   21.550000
     57          1           0       17.110000   17.000000   21.830000
     58          1           0       16.740000   15.530000   21.770000
     59          8           0       23.420000   19.590000   24.040000
     60          1           0       22.470000   19.690000   24.160000
     61          1           0       23.790000   20.390000   24.400000
     62          8           0       15.870000   23.340000   17.960000
     63          1           0       16.710000   23.330000   18.410000
     64          1           0       16.010000   22.820000   17.170000
     65          8           0       18.530000   14.640000   21.670000
     66          1           0       19.350000   14.150000   21.760000
     67          1           0       18.720000   15.310000   21.020000
     68          8           0       23.590000   23.760000   19.310000
     69          1           0       23.800000   22.990000   18.780000
     70          1           0       23.950000   24.500000   18.820000
     71          8           0       17.920000   16.740000   24.460000
     72          1           0       18.550000   17.120000   25.080000
     73          1           0       17.890000   17.370000   23.740000
     74          8           0       23.970000   23.040000   21.830000
     75          1           0       23.780000   23.220000   20.910000
     76          1           0       24.800000   22.550000   21.810000
     77          8           0       25.580000   18.440000   21.080000
     78          1           0       24.650000   18.220000   21.110000
     79          1           0       26.030000   17.620000   21.280000
     80          8           0       21.380000   25.240000   20.830000
     81          1           0       21.810000   24.700000   21.490000
     82          1           0       21.650000   24.850000   19.990000
     83          8           0       21.760000   23.660000   23.390000
     84          1           0       22.550000   23.330000   22.970000
     85          1           0       22.050000   24.000000   24.240000
     86          8           0       19.010000   23.390000   24.180000
     87          1           0       19.810000   23.620000   23.710000
     88          1           0       18.510000   24.200000   24.230000
     89          8           0       22.210000   23.570000   15.500000
     90          1           0       21.560000   24.240000   15.270000
     91          1           0       21.750000   22.970000   16.080000
     92          8           0       14.220000   20.510000   21.370000
     93          1           0       13.920000   20.400000   20.470000
     94          1           0       15.040000   21.000000   21.290000
     95          8           0       21.020000   20.980000   26.010000
     96          1           0       20.800000   21.040000   25.080000
     97          1           0       20.200000   20.700000   26.430000
     98          8           0       20.220000   17.700000   25.680000
     99          1           0       20.970000   17.750000   26.280000
    100          1           0       20.610000   17.700000   24.810000
    101          8           0       20.580000   14.600000   18.930000
    102          1           0       21.130000   14.010000   19.430000
    103          1           0       21.140000   14.920000   18.230000
    104          8           0       17.090000   20.830000   14.930000
    105          1           0       17.630000   20.530000   14.200000
    106          1           0       17.560000   21.580000   15.300000
    107          8           0       17.560000   15.550000   16.040000
    108          1           0       17.440000   15.060000   16.860000
    109          1           0       17.900000   16.400000   16.320000
    110          8           0       25.890000   21.000000   19.930000
    111          1           0       25.380000   21.160000   19.140000
    112          1           0       25.700000   20.080000   20.150000
    113          8           0       15.910000   19.740000   25.060000
    114          1           0       16.690000   20.080000   24.620000
    115          1           0       15.390000   19.340000   24.370000
    116          8           0       22.560000   15.330000   17.060000
    117          1           0       23.060000   15.780000   17.730000
    118          1           0       23.220000   14.900000   16.520000
    119          8           0       14.790000   18.260000   23.130000
    120          1           0       15.300000   17.820000   22.450000
    121          1           0       14.430000   19.030000   22.690000
    122          8           0       18.720000   25.870000   21.330000
    123          1           0       18.640000   26.120000   22.250000
    124          1           0       19.660000   25.780000   21.180000
    125          8           0       13.920000   20.470000   18.200000
    126          1           0       13.410000   19.770000   17.790000
    127          1           0       14.620000   20.660000   17.570000
    128          8           0       17.690000   13.880000   18.410000
    129          1           0       17.240000   14.650000   18.760000
    130          1           0       18.610000   14.120000   18.420000
    131          8           0       22.900000   15.420000   24.540000
    132          1           0       22.190000   15.900000   24.110000
    133          1           0       23.700000   15.850000   24.250000
    134          8           0       24.830000   17.330000   24.410000
    135          1           0       24.260000   18.030000   24.090000
    136          1           0       25.330000   17.740000   25.120000
    137          8           0       18.890000   20.190000   13.100000
    138          1           0       19.450000   20.540000   13.800000
    139          1           0       19.330000   19.380000   12.830000
    140          8           0       26.530000   18.180000   18.350000
    141          1           0       26.200000   18.340000   19.230000
    142          1           0       27.490000   18.200000   18.450000
    143          8           0       18.670000   20.010000   27.060000
    144          1           0       18.700000   19.320000   26.390000
    145          1           0       17.740000   20.130000   27.240000
    146          8           0       25.210000   19.340000   16.050000
    147          1           0       25.840000   20.070000   16.010000
    148          1           0       25.560000   18.760000   16.730000
    149          8           0       20.090000   27.220000   18.220000
    150          1           0       19.360000   27.470000   17.650000
    151          1           0       19.750000   26.480000   18.730000
    152          8           0       23.260000   19.260000   14.120000
    153          1           0       23.660000   19.670000   13.350000
    154          1           0       23.970000   19.230000   14.760000
    155          8           0       20.980000   13.700000   22.560000
    156          1           0       21.790000   13.900000   22.090000
    157          1           0       21.060000   14.170000   23.390000
    158          8           0       25.590000   15.840000   17.470000
    159          1           0       25.360000   16.760000   17.520000
    160          1           0       26.510000   15.830000   17.200000
    161          8           0       21.050000   15.440000   14.550000
    162          1           0       20.500000   15.190000   15.300000
    163          1           0       21.850000   15.780000   14.950000
    164          8           0       23.380000   14.040000   20.900000
    165          1           0       23.320000   13.290000   20.310000
    166          1           0       24.320000   14.260000   20.910000
    167          8           0       15.770000   25.880000   17.360000
    168          1           0       14.840000   26.110000   17.480000
    169          1           0       15.790000   24.930000   17.420000
    170          8           0       26.890000   19.740000   23.530000
    171          1           0       26.300000   19.280000   22.940000
    172          1           0       26.330000   20.060000   24.240000
    173          8           0       13.420000   18.570000   16.180000
    174          1           0       13.040000   18.250000   15.360000
    175          1           0       14.360000   18.620000   16.010000
    176          8           0       14.780000   24.210000   22.310000
    177          1           0       14.140000   23.560000   22.600000
    178          1           0       14.810000   24.850000   23.020000
    179          8           0       22.630000   26.240000   17.760000
    180          1           0       23.320000   26.840000   18.020000
    181          1           0       21.830000   26.600000   18.150000
    182          8           0       25.160000   24.640000   16.280000
    183          1           0       24.960000   25.570000   16.220000
    184          1           0       24.320000   24.200000   16.090000
    185          8           0       19.940000   23.640000   27.240000
    186          1           0       20.090000   23.020000   26.520000
    187          1           0       19.550000   23.120000   27.940000
    188          8           0       17.820000   14.000000   24.360000
    189          1           0       17.630000   14.910000   24.610000
    190          1           0       17.870000   14.020000   23.400000
    191          8           0       13.010000   23.190000   18.230000
    192          1           0       13.890000   23.540000   18.160000
    193          1           0       13.120000   22.280000   18.500000
    194          8           0       23.550000   21.280000   27.000000
    195          1           0       22.650000   21.130000   26.720000
    196          1           0       23.580000   22.210000   27.230000
    197          8           0       16.680000   27.230000   20.120000
    198          1           0       16.130000   26.580000   19.700000
    199          1           0       17.210000   26.730000   20.740000
    200          8           0       19.860000   25.410000   15.040000
    201          1           0       20.490000   25.950000   14.570000
    202          1           0       19.400000   26.020000   15.610000
    203          8           0       12.780000   22.370000   22.680000
    204          1           0       12.390000   21.920000   23.440000
    205          1           0       13.190000   21.670000   22.180000
    206          8           0       14.770000   20.720000   13.670000
    207          1           0       14.980000   21.200000   12.870000
[...]
   101  O   -0.000089
   104  O    0.000009
   107  O    0.000097
   110  O   -0.000164
   113  O    0.000057
   116  O    0.000116
   119  O   -0.000050
   122  O   -0.000009
   125  O   -0.000041
   128  O   -0.000016
   131  O    0.000055
   134  O    0.000004
   137  O   -0.000039
   140  O    0.000015
   143  O   -0.000026
   146  O   -0.000016
   149  O    0.000009
   152  O   -0.000026
   155  O   -0.000015
   158  O   -0.000027
   161  O   -0.000029
   164  O   -0.000013
   167  O   -0.000015
   170  O   -0.000005
   173  O   -0.000015
   176  O   -0.000031
   179  O   -0.000047
   182  O   -0.000014
   185  O   -0.000012
   188  O   -0.000012
   191  O   -0.000006
   194  O   -0.000010
   197  O   -0.000037
   200  O   -0.000010
   203  O    0.000007
   206  O   -0.000004
   209  O   -0.000007
   212  O    0.000005
   215  O   -0.000005
   218  O   -0.000003
   221  O   -0.000006
   224  O    0.000006
   227  O    0.000000
   230  O   -0.000002
   233  O   -0.000001
   236  O   -0.000008
   239  O    0.000002
   242  O   -0.000002
   245  O   -0.000001
   248  O   -0.000003
   251  O   -0.000001
   254  O   -0.000002
   257  O   -0.000001
   260  O   -0.000001
   263  O   -0.000004
   266  O   -0.000002
   269  O   -0.000004
   272  O    0.000000
   275  O   -0.000003
   278  O   -0.000002
   281  O    0.000001
   284  O    0.000001
   287  O   -0.000001
   290  O    0.000000
   293  O    0.000000
   296  O    0.000001
   299  O   -0.000001
   302  O    0.000000
   305  O   -0.000001
   308  O    0.000000
   311  O    0.000000
   314  O    0.000000
   317  O    0.000001
   320  O   -0.000001
   323  O    0.000000
   326  O    0.000000
   329  O    0.000000
   332  O    0.000000
   335  O    0.000001
   338  O    0.000000
   341  O    0.000000
   344  O   -0.000001
   347  O   -0.000001
   350  O    0.000000
   353  O   -0.000001
   356  O    0.000000
   359  O    0.000000
   362  O    0.000000
   365  O    0.000001
   368  O    0.000001
   371  O    0.000000
   374  O    0.000000
   377  O    0.000000
   380  O    0.000001
   383  O    0.000000
         Mulliken charges condensed to fragments:
      1     -0.627142
      2     -0.372858
 Electronic spatial extent (au):  <R**2>=         154308.4296
 Charge=             -1.0000 electrons
 Dipole moment (field-independent basis, Debye):
    X=            -95.9617    Y=            -95.7168    Z=            -96.0158  Tot=            166.1005
 Quadrupole moment (field-independent basis, Debye-Ang):
   XX=          -1940.7785   YY=          -1931.1766   ZZ=          -1943.5766
   XY=          -1912.1011   XZ=          -1918.2703   YZ=          -1913.2123
 Traceless Quadrupole moment (field-independent basis, Debye-Ang):
   XX=             -2.2679   YY=              7.3339   ZZ=             -5.0660
   XY=          -1912.1011   XZ=          -1918.2703   YZ=          -1913.2123
 Octapole moment (field-independent basis, Debye-Ang**2):
  XXX=         -39717.5723  YYY=         -39434.7765  ZZZ=         -39821.1514  XYY=         -38575.0128
  XXY=         -38668.6392  XXZ=         -38796.2924  XZZ=         -38830.6329  YZZ=         -38726.0834
  YYZ=         -38597.5816  XYZ=         -38219.4935
 Hexadecapole moment (field-independent basis, Debye-Ang**3):
 XXXX=        -821840.1844 YYYY=        -814429.2185 ZZZZ=        -825149.2835 XXXY=        -791314.5791
 XXXZ=        -793964.0581 YYYX=        -787645.7501 YYYZ=        -788099.4673 ZZZX=        -795604.3989
 ZZZY=        -793442.0822 XXYY=        -779959.7906 XXZZ=        -785244.7877 YYZZ=        -781130.0802
 XXYZ=        -772919.1250 YYXZ=        -770977.5715 ZZXY=        -773624.5813
 N-N= 0.000000000000D+00 E-N=-6.162919672691D+03  KE= 2.570502846862D+03
 Leave Link  601 at Thu May  3 22:05:43 2018, MaxMem= 14763950080 cpu:       375.7
 (Enter /cm/shared/gaussian/g09.e01/intel64-sandybridge/g09/l701.exe)
 Compute integral first derivatives.
 ... and contract with generalized density number  0.
 Leave Link  701 at Thu May  3 22:06:04 2018, MaxMem= 14763950080 cpu:      1235.8
 (Enter /cm/shared/gaussian/g09.e01/intel64-sandybridge/g09/l702.exe)
 L702 exits ... SP integral derivatives will be done elsewhere.
 Leave Link  702 at Thu May  3 22:06:04 2018, MaxMem= 14763950080 cpu:         1.7
 (Enter /cm/shared/gaussian/g09.e01/intel64-sandybridge/g09/l703.exe)
 Compute integral first derivatives, UseDBF=F ICtDFT=           0.
 Integral derivatives from FoFJK, PRISM(SPDF).
 Calling FoFJK, ICntrl=      2127 FMM=T ISym2X=0 I1Cent= 0 IOpClX= 0 NMat=1 NMatS=1 NMatT=0.
 FoFJK:  IHMeth= 1 ICntrl=    2127 DoSepK=F KAlg= 0 I1Cent=   0 FoldK=F
 IRaf=         0 NMat=   1 IRICut=       1 DoRegI=T DoRafI=F ISym2E= 0.
 FoFCou: FMM=T IPFlag=           0 FMFlag=      100000 FMFlg1=        2001
         NFxFlg=           0 DoJE=F BraDBF=F KetDBF=F FulRan=T
         wScrn=  0.000000 ICntrl=    2127 IOpCl=  0 I1Cent=           0 NGrid=           0
         NMat0=    1 NMatS0=      1 NMatT0=    0 NMatD0=    1 NMtDS0=    0 NMtDT0=    0
 Symmetry not used in FoFCou.
 FMM levels:  10  Number of levels for PrismC:   9
 Leave Link  703 at Thu May  3 22:07:50 2018, MaxMem= 14763950080 cpu:      6545.1
 (Enter /cm/shared/gaussian/g09.e01/intel64-sandybridge/g09/l716.exe)
 Dipole        =-3.77542215D+01-3.76578877D+01-3.77755263D+01
 Cartesian Forces:  Max     0.000435847 RMS     0.000030063
 Leave Link  716 at Thu May  3 22:07:55 2018, MaxMem= 14763950080 cpu:       283.7
 (Enter /cm/shared/gaussian/g09.e01/intel64-sandybridge/g09/l122.exe)
 CPIOFr:  IOpCl= 0 IRwI=-1 IRwCP=  731 ICalc=  1 LCPTot=    15131500 Len1MO=    38501983 IndFrg=    92135466
 Counterpoise: doing DCBS calculation for fragment   2 NewBq=T
 Leave Link  122 at Thu May  3 22:07:58 2018, MaxMem= 14763950080 cpu:       217.5
 (Enter /cm/shared/gaussian/g09.e01/intel64-sandybridge/g09/l301.exe)
 Basis read from rwf:  (5D, 7F)
 No pseudopotential information found on rwf file.
  3099 basis functions,  6163 primitive gaussians,  3229 cartesian basis functions
   640 alpha electrons      640 beta electrons
       nuclear repulsion energy     52372.9055386490 Hartrees.
 IExCor= 1009 DFT=T Ex+Corr=PBE1PBE ExCW=0 ScaHFX=  0.250000
 ScaDFX=  0.750000  0.750000  1.000000  1.000000 ScalE2=  1.000000  1.000000
 IRadAn=      0 IRanWt=     -1 IRanGd=            0 ICorTp=0 IEmpDi=  4
 NAtoms=  385 NActive=  385 NUniq=  385 SFac= 1.00D+00 NAtFMM=   60 NAOKFM=T Big=T
 Integral buffers will be    131072 words long.
 Raffenetti 2 integral format.
 Two-electron integral symmetry is turned off.
 No density basis found on file   718.
 Leave Link  301 at Thu May  3 22:07:58 2018, MaxMem= 14763950080 cpu:         5.4
 (Enter /cm/shared/gaussian/g09.e01/intel64-sandybridge/g09/l302.exe)
 NPDir=0 NMtPBC=     1 NCelOv=     1 NCel=       1 NClECP=     1 NCelD=      1
         NCelK=      1 NCelE2=     1 NClLst=     1 CellRange=     0.0.
 One-electron integrals computed using PRISM.
 NBasis=  3099 RedAO= T EigKep=  1.26D-02  NBF=  3099
 NBsUse=  3099 1.00D-06 EigRej= -1.00D+00 NBFU=  3099
 Precomputing XC quadrature grid using
 IXCGrd= 4 IRadAn=           0 IRanWt=          -1 IRanGd=           0 AccXCQ= 0.00D+00.
 Generated NRdTot=       0 NPtTot=           0 NUsed=           0 NTot=          32
 NSgBfM=  1237  1265  1282  1288  1307 MxSgAt=   385 MxSgA2=   348.
 Leave Link  302 at Thu May  3 22:09:28 2018, MaxMem= 14763950080 cpu:      5711.4
 (Enter /cm/shared/gaussian/g09.e01/intel64-sandybridge/g09/l303.exe)
 DipDrv:  MaxL=1.
 Leave Link  303 at Thu May  3 22:09:33 2018, MaxMem= 14763950080 cpu:       286.2
 (Enter /cm/shared/gaussian/g09.e01/intel64-sandybridge/g09/l401.exe)
 ExpMin= 1.22D-01 ExpMax= 6.40D+05 ExpMxC= 6.18D+03 IAcc=2 IRadAn=         4 AccDes= 0.00D+00
 Harris functional with IExCor= 1009 and IRadAn=       4 diagonalized for initial guess.
 HarFok:  IExCor= 1009 AccDes= 0.00D+00 IRadAn=         4 IDoV= 1 UseB2=F ITyADJ=14
 ICtDFT=  3500011 ScaDFX=  1.000000  1.000000  1.000000  1.000000
 FoFCou: FMM=F IPFlag=           0 FMFlag=      100000 FMFlg1=        2001
         NFxFlg=           0 DoJE=T BraDBF=F KetDBF=T FulRan=T
         wScrn=  0.000000 ICntrl=     500 IOpCl=  0 I1Cent=   200000004 NGrid=           0
         NMat0=    1 NMatS0=      1 NMatT0=    0 NMatD0=    1 NMtDS0=    0 NMtDT0=    0
 Symmetry not used in FoFCou.
 Harris En= -9777.82827578691    
 JPrj=0 DoOrth=F DoCkMO=F.
 Leave Link  401 at Thu May  3 22:10:40 2018, MaxMem= 14763950080 cpu:      4303.7
 (Enter /cm/shared/gaussian/g09.e01/intel64-sandybridge/g09/l502.exe)
 Closed shell SCF:
 Using DIIS extrapolation, IDIIS=  1040.
 Two-electron integral symmetry not used.
 IVT=    31524673 IEndB=    31524673 NGot= 14763950080 MDV= 14742871718
 LenX= 14742871718 LenY= 14732442048
 Requested convergence on RMS density matrix=1.00D-08 within 128 cycles.
 Requested convergence on MAX density matrix=1.00D-06.
 Requested convergence on             energy=1.00D-06.
 No special actions if energy rises.
 Fock matrices will be formed incrementally for  20 cycles.
 Integral accuracy reduced to 1.0D-05 until final iterations.

 Cycle   1  Pass 0  IDiag  1:
 FoFJK:  IHMeth= 1 ICntrl=       0 DoSepK=F KAlg= 0 I1Cent=   0 FoldK=F
 IRaf= 380000000 NMat=   1 IRICut=       1 DoRegI=T DoRafI=F ISym2E= 0.
 FoFCou: FMM=T IPFlag=           0 FMFlag=      100000 FMFlg1=        2001
         NFxFlg=           0 DoJE=F BraDBF=F KetDBF=F FulRan=T
         wScrn=  0.000000 ICntrl=       0 IOpCl=  0 I1Cent=           0 NGrid=           0
         NMat0=    1 NMatS0=      1 NMatT0=    0 NMatD0=    1 NMtDS0=    0 NMtDT0=    0
 Symmetry not used in FoFCou.
 FMM levels:  10  Number of levels for PrismC:   9
 E= -9766.27126252586    
 DIIS: error= 2.40D-02 at cycle   1 NSaved=   1.
 NSaved= 1 IEnMin= 1 EnMin= -9766.27126252586     IErMin= 1 ErrMin= 2.40D-02
 ErrMax= 2.40D-02  0.00D+00 EMaxC= 1.00D-01 BMatC= 1.01D+01 BMatP= 1.01D+01
 IDIUse=3 WtCom= 7.60D-01 WtEn= 2.40D-01
 Coeff-Com:  0.100D+01
 Coeff-En:   0.100D+01
 Coeff:      0.100D+01
 Gap=     0.128 Goal=   None    Shift=    0.000
 GapD=    0.128 DampG=1.000 DampE=0.500 DampFc=0.5000 IDamp=-1.
 Damping current iteration by 5.00D-01
 RMSDP=1.85D-03 MaxDP=5.47D-01              OVMax= 9.77D-01

 Cycle   2  Pass 0  IDiag  1:
 RMSU=  9.15D-04    CP:  9.79D-01
 E= -9765.82845255634     Delta-E=        0.442809969521 Rises=F Damp=T
 DIIS: error= 2.53D-02 at cycle   2 NSaved=   2.
 NSaved= 2 IEnMin= 1 EnMin= -9766.27126252586     IErMin= 1 ErrMin= 2.40D-02
 ErrMax= 2.53D-02  0.00D+00 EMaxC= 1.00D-01 BMatC= 1.13D+00 BMatP= 1.01D+01
 IDIUse=3 WtCom= 7.47D-01 WtEn= 2.53D-01
 Coeff-Com:  0.192D+00 0.808D+00
 Coeff-En:   0.525D+00 0.475D+00
 Coeff:      0.276D+00 0.724D+00
 Gap=    -0.351 Goal=   None    Shift=    0.000
 RMSDP=1.31D-03 MaxDP=8.01D-01 DE= 4.43D-01 OVMax= 9.98D-01

 Cycle   3  Pass 0  IDiag  1:
 RMSU=  1.24D-03    CP:  9.78D-01  5.51D-01
 E= -9760.86549510805     Delta-E=        4.962957448290 Rises=F Damp=F
 DIIS: error= 4.24D-02 at cycle   3 NSaved=   3.
 NSaved= 3 IEnMin= 1 EnMin= -9766.27126252586     IErMin= 1 ErrMin= 2.40D-02
 ErrMax= 4.24D-02  0.00D+00 EMaxC= 1.00D-01 BMatC= 5.55D+00 BMatP= 1.13D+00
 IDIUse=2 WtCom= 0.00D+00 WtEn= 1.00D+00
 EnCoef did     3 forward-backward iterations
 Coeff-En:   0.331D+00 0.432D+00 0.237D+00
 Coeff:      0.331D+00 0.432D+00 0.237D+00
 Gap=    -0.309 Goal=   None    Shift=    0.000
 RMSDP=1.17D-03 MaxDP=8.06D-01 DE= 4.96D+00 OVMax= 7.61D-01

 Cycle   4  Pass 0  IDiag  1:
 RMSU=  4.84D-04    CP:  9.81D-01  6.29D-01  1.42D-01
 E= -9772.75701432186     Delta-E=      -11.891519213808 Rises=F Damp=F
 DIIS: error= 1.03D-02 at cycle   4 NSaved=   4.
 NSaved= 4 IEnMin= 4 EnMin= -9772.75701432186     IErMin= 4 ErrMin= 1.03D-02
 ErrMax= 1.03D-02  0.00D+00 EMaxC= 1.00D-01 BMatC= 1.02D+00 BMatP= 1.13D+00
 IDIUse=3 WtCom= 8.97D-01 WtEn= 1.03D-01
 Coeff-Com:  0.168D+00 0.350D+00 0.128D+00 0.354D+00
 Coeff-En:   0.000D+00 0.000D+00 0.000D+00 0.100D+01
 Coeff:      0.151D+00 0.314D+00 0.115D+00 0.420D+00
 Gap=     0.166 Goal=   None    Shift=    0.000
 RMSDP=2.44D-04 MaxDP=6.77D-02 DE=-1.19D+01 OVMax= 5.84D-02

 Cycle   5  Pass 0  IDiag  1:
 RMSU=  1.20D-04    CP:  9.85D-01  4.71D-01  1.16D-01  6.93D-01
 E= -9773.44449773317     Delta-E=       -0.687483411311 Rises=F Damp=F
 DIIS: error= 5.84D-03 at cycle   5 NSaved=   5.
 NSaved= 5 IEnMin= 5 EnMin= -9773.44449773317     IErMin= 5 ErrMin= 5.84D-03
 ErrMax= 5.84D-03  0.00D+00 EMaxC= 1.00D-01 BMatC= 7.27D-02 BMatP= 1.02D+00
 IDIUse=3 WtCom= 9.42D-01 WtEn= 5.84D-02
 Coeff-Com: -0.144D-01 0.138D+00-0.178D-01 0.437D-01 0.850D+00
 Coeff-En:   0.000D+00 0.000D+00 0.000D+00 0.000D+00 0.100D+01
 Coeff:     -0.136D-01 0.130D+00-0.168D-01 0.412D-01 0.859D+00
 Gap=     0.140 Goal=   None    Shift=    0.000
 RMSDP=5.37D-05 MaxDP=1.22D-02 DE=-6.87D-01 OVMax= 1.62D-02

 Cycle   6  Pass 0  IDiag  1:
 RMSU=  4.59D-05    CP:  9.84D-01  4.95D-01  1.17D-01  7.21D-01  1.07D+00
 E= -9773.49365817769     Delta-E=       -0.049160444520 Rises=F Damp=F
 DIIS: error= 2.34D-03 at cycle   6 NSaved=   6.
 NSaved= 6 IEnMin= 6 EnMin= -9773.49365817769     IErMin= 6 ErrMin= 2.34D-03
 ErrMax= 2.34D-03  0.00D+00 EMaxC= 1.00D-01 BMatC= 1.45D-02 BMatP= 7.27D-02
 IDIUse=3 WtCom= 9.77D-01 WtEn= 2.34D-02
 Coeff-Com: -0.806D-02 0.754D-01-0.256D-01 0.103D-02 0.248D+00 0.710D+00
 Coeff-En:   0.000D+00 0.000D+00 0.000D+00 0.000D+00 0.000D+00 0.100D+01
 Coeff:     -0.788D-02 0.736D-01-0.250D-01 0.101D-02 0.242D+00 0.716D+00
 Gap=     0.117 Goal=   None    Shift=    0.000
 RMSDP=2.33D-05 MaxDP=7.81D-03 DE=-4.92D-02 OVMax= 4.66D-03

 Cycle   7  Pass 0  IDiag  1:
 RMSU=  2.27D-05    CP:  9.84D-01  4.97D-01  1.14D-01  7.25D-01  1.07D+00
                    CP:  9.50D-01
 E= -9773.50170633014     Delta-E=       -0.008048152456 Rises=F Damp=F
 DIIS: error= 2.14D-03 at cycle   7 NSaved=   7.
 NSaved= 7 IEnMin= 7 EnMin= -9773.50170633014     IErMin= 7 ErrMin= 2.14D-03
 ErrMax= 2.14D-03  0.00D+00 EMaxC= 1.00D-01 BMatC= 9.23D-03 BMatP= 1.45D-02
 IDIUse=3 WtCom= 9.79D-01 WtEn= 2.14D-02
 Coeff-Com:  0.761D-02 0.344D-01-0.200D-01 0.118D-01-0.144D+00 0.227D+00
 Coeff-Com:  0.883D+00
 Coeff-En:   0.000D+00 0.000D+00 0.000D+00 0.000D+00 0.000D+00 0.000D+00
 Coeff-En:   0.100D+01
 Coeff:      0.745D-02 0.337D-01-0.196D-01 0.116D-01-0.141D+00 0.222D+00
 Coeff:      0.886D+00
 Gap=     0.092 Goal=   None    Shift=    0.000
 RMSDP=1.95D-05 MaxDP=4.96D-03 DE=-8.05D-03 OVMax= 4.85D-03

 Cycle   8  Pass 0  IDiag  1:
 RMSU=  1.30D-05    CP:  9.84D-01  5.00D-01  1.11D-01  7.34D-01  1.01D+00
                    CP:  1.12D+00  1.38D+00
 E= -9773.50893355517     Delta-E=       -0.007227225025 Rises=F Damp=F
 DIIS: error= 1.01D-03 at cycle   8 NSaved=   8.
 NSaved= 8 IEnMin= 8 EnMin= -9773.50893355517     IErMin= 8 ErrMin= 1.01D-03
 ErrMax= 1.01D-03  0.00D+00 EMaxC= 1.00D-01 BMatC= 2.60D-03 BMatP= 9.23D-03
 IDIUse=3 WtCom= 9.90D-01 WtEn= 1.01D-02
 Coeff-Com:  0.111D-01-0.621D-03-0.583D-02 0.233D-01-0.163D+00-0.308D+00
 Coeff-Com:  0.257D+00 0.119D+01
 Coeff-En:   0.000D+00 0.000D+00 0.000D+00 0.000D+00 0.000D+00 0.000D+00
 Coeff-En:   0.000D+00 0.100D+01
 Coeff:      0.110D-01-0.615D-03-0.578D-02 0.231D-01-0.162D+00-0.305D+00
 Coeff:      0.254D+00 0.119D+01
 Gap=     0.046 Goal=   None    Shift=    0.000
 RMSDP=1.99D-05 MaxDP=3.69D-03 DE=-7.23D-03 OVMax= 6.42D-03

 Cycle   9  Pass 0  IDiag  1:
 RMSU=  6.73D-06    CP:  9.84D-01  5.03D-01  1.07D-01  7.43D-01  9.53D-01
                    CP:  1.23D+00  2.00D+00  1.44D+00
 E= -9773.51176546932     Delta-E=       -0.002831914149 Rises=F Damp=F
 DIIS: error= 1.70D-04 at cycle   9 NSaved=   9.
 NSaved= 9 IEnMin= 9 EnMin= -9773.51176546932     IErMin= 9 ErrMin= 1.70D-04
 ErrMax= 1.70D-04  0.00D+00 EMaxC= 1.00D-01 BMatC= 9.90D-05 BMatP= 2.60D-03
 IDIUse=3 WtCom= 9.98D-01 WtEn= 1.70D-03
 Coeff-Com:  0.267D-02-0.147D-02-0.511D-03 0.106D-01-0.600D-02-0.127D+00
 Coeff-Com: -0.774D-01 0.448D+00 0.751D+00
 Coeff-En:   0.000D+00 0.000D+00 0.000D+00 0.000D+00 0.000D+00 0.000D+00
 Coeff-En:   0.000D+00 0.000D+00 0.100D+01
 Coeff:      0.267D-02-0.147D-02-0.510D-03 0.105D-01-0.599D-02-0.126D+00
 Coeff:     -0.773D-01 0.447D+00 0.751D+00
 Gap=     0.041 Goal=   None    Shift=    0.000
 RMSDP=3.76D-06 MaxDP=9.12D-04 DE=-2.83D-03 OVMax= 7.78D-04

 Initial convergence to 1.0D-05 achieved.  Increase integral accuracy.
 Cycle  10  Pass 1  IDiag  1:
 E= -9773.51117992644     Delta-E=        0.000585542875 Rises=F Damp=F
 DIIS: error= 5.37D-05 at cycle   1 NSaved=   1.
 NSaved= 1 IEnMin= 1 EnMin= -9773.51117992644     IErMin= 1 ErrMin= 5.37D-05
 ErrMax= 5.37D-05  0.00D+00 EMaxC= 1.00D-01 BMatC= 2.56D-05 BMatP= 2.56D-05
 IDIUse=1 WtCom= 1.00D+00 WtEn= 0.00D+00
 Coeff-Com:  0.100D+01
 Coeff:      0.100D+01
 Gap=     0.043 Goal=   None    Shift=    0.000
 RMSDP=3.76D-06 MaxDP=9.12D-04 DE= 5.86D-04 OVMax= 3.76D-04

 Cycle  11  Pass 1  IDiag  1:
 RMSU=  4.91D-06    CP:  1.00D+00
 E= -9773.51119953607     Delta-E=       -0.000019609630 Rises=F Damp=F
 DIIS: error= 4.67D-05 at cycle   2 NSaved=   2.
 NSaved= 2 IEnMin= 2 EnMin= -9773.51119953607     IErMin= 2 ErrMin= 4.67D-05
 ErrMax= 4.67D-05  0.00D+00 EMaxC= 1.00D-01 BMatC= 8.67D-06 BMatP= 2.56D-05
 IDIUse=1 WtCom= 1.00D+00 WtEn= 0.00D+00
 Coeff-Com:  0.325D+00 0.675D+00
 Coeff:      0.325D+00 0.675D+00
 Gap=     0.043 Goal=   None    Shift=    0.000
 RMSDP=9.85D-07 MaxDP=2.85D-04 DE=-1.96D-05 OVMax= 2.16D-04

 Cycle  12  Pass 1  IDiag  1:
 RMSU=  9.64D-07    CP:  1.00D+00  9.59D-01
 E= -9773.51120391938     Delta-E=       -0.000004383306 Rises=F Damp=F
 DIIS: error= 3.03D-05 at cycle   3 NSaved=   3.
 NSaved= 3 IEnMin= 3 EnMin= -9773.51120391938     IErMin= 3 ErrMin= 3.03D-05
 ErrMax= 3.03D-05  0.00D+00 EMaxC= 1.00D-01 BMatC= 2.92D-06 BMatP= 8.67D-06
 IDIUse=1 WtCom= 1.00D+00 WtEn= 0.00D+00
 Coeff-Com:  0.222D-01 0.366D+00 0.612D+00
 Coeff:      0.222D-01 0.366D+00 0.612D+00
 Gap=     0.043 Goal=   None    Shift=    0.000
 RMSDP=3.81D-07 MaxDP=1.35D-04 DE=-4.38D-06 OVMax= 9.03D-05

 Cycle  13  Pass 1  IDiag  1:
 RMSU=  1.97D-07    CP:  1.00D+00  9.79D-01  6.78D-01
 E= -9773.51120594455     Delta-E=       -0.000002025168 Rises=F Damp=F
 DIIS: error= 3.11D-06 at cycle   4 NSaved=   4.
 NSaved= 4 IEnMin= 4 EnMin= -9773.51120594455     IErMin= 4 ErrMin= 3.11D-06
 ErrMax= 3.11D-06  0.00D+00 EMaxC= 1.00D-01 BMatC= 7.54D-08 BMatP= 2.92D-06
 IDIUse=1 WtCom= 1.00D+00 WtEn= 0.00D+00
 Coeff-Com: -0.286D-02 0.133D+00 0.266D+00 0.605D+00
 Coeff:     -0.286D-02 0.133D+00 0.266D+00 0.605D+00
 Gap=     0.043 Goal=   None    Shift=    0.000
 RMSDP=7.55D-08 MaxDP=2.50D-05 DE=-2.03D-06 OVMax= 2.29D-05

 Cycle  14  Pass 1  IDiag  1:
 RMSU=  3.09D-08    CP:  1.00D+00  9.82D-01  6.84D-01  6.57D-01
 E= -9773.51120600379     Delta-E=       -0.000000059248 Rises=F Damp=F
 DIIS: error= 6.13D-07 at cycle   5 NSaved=   5.
 NSaved= 5 IEnMin= 5 EnMin= -9773.51120600379     IErMin= 5 ErrMin= 6.13D-07
 ErrMax= 6.13D-07  0.00D+00 EMaxC= 1.00D-01 BMatC= 2.85D-09 BMatP= 7.54D-08
 IDIUse=1 WtCom= 1.00D+00 WtEn= 0.00D+00
 Coeff-Com: -0.188D-02 0.614D-01 0.125D+00 0.307D+00 0.509D+00
 Coeff:     -0.188D-02 0.614D-01 0.125D+00 0.307D+00 0.509D+00
 Gap=     0.043 Goal=   None    Shift=    0.000
 RMSDP=1.24D-08 MaxDP=4.10D-06 DE=-5.92D-08 OVMax= 5.10D-06

 Cycle  15  Pass 1  IDiag  1:
 RMSU=  1.05D-08    CP:  1.00D+00  9.82D-01  6.83D-01  6.62D-01  7.94D-01
 E= -9773.51120600554     Delta-E=       -0.000000001746 Rises=F Damp=F
 DIIS: error= 7.98D-08 at cycle   6 NSaved=   6.
 NSaved= 6 IEnMin= 6 EnMin= -9773.51120600554     IErMin= 6 ErrMin= 7.98D-08
 ErrMax= 7.98D-08  0.00D+00 EMaxC= 1.00D-01 BMatC= 6.91D-11 BMatP= 2.85D-09
 IDIUse=1 WtCom= 1.00D+00 WtEn= 0.00D+00
 Coeff-Com: -0.332D-03 0.751D-02 0.153D-01 0.399D-01 0.155D+00 0.782D+00
 Coeff:     -0.332D-03 0.751D-02 0.153D-01 0.399D-01 0.155D+00 0.782D+00
 Gap=     0.043 Goal=   None    Shift=    0.000
 RMSDP=3.27D-09 MaxDP=1.43D-06 DE=-1.75D-09 OVMax= 5.57D-06

 Cycle  16  Pass 1  IDiag  1:
 RMSU=  2.41D-09    CP:  1.00D+00  9.82D-01  6.83D-01  6.65D-01  8.61D-01
                    CP:  1.02D+00
