 Entering Gaussian System, Link 0=/cm/shared/gaussian/g09.e01/intel64-sandybridge/g09/g09
 Initial command:
 /cm/shared/gaussian/g09.e01/intel64-sandybridge/g09/l1.exe "/local/scratch/m.peluso/128_wat/Gau-12275.inp" -scrdir="/local/scratch/m.peluso/128_wat/"
 Entering Link 1 = /cm/shared/gaussian/g09.e01/intel64-sandybridge/g09/l1.exe PID=     12276.
  
 Copyright (c) 1988,1990,1992,1993,1995,1998,2003,2009,2015,
            Gaussian, Inc.  All Rights Reserved.
  
 This is part of the Gaussian(R) 09 program.  It is based on
 the Gaussian(R) 03 system (copyright 2003, Gaussian, Inc.),
 the Gaussian(R) 98 system (copyright 1998, Gaussian, Inc.),
 the Gaussian(R) 94 system (copyright 1995, Gaussian, Inc.),
 the Gaussian 92(TM) system (copyright 1992, Gaussian, Inc.),
 the Gaussian 90(TM) system (copyright 1990, Gaussian, Inc.),
 the Gaussian 88(TM) system (copyright 1988, Gaussian, Inc.),
 the Gaussian 86(TM) system (copyright 1986, Carnegie Mellon
 University), and the Gaussian 82(TM) system (copyright 1983,
 Carnegie Mellon University). Gaussian is a federally registered
 trademark of Gaussian, Inc.
  
 This software contains proprietary and confidential information,
 including trade secrets, belonging to Gaussian, Inc.
  
 This software is provided under written license and may be
 used, copied, transmitted, or stored only in accord with that
 written license.
  
 The following legend is applicable only to US Government
 contracts under FAR:
  
                    RESTRICTED RIGHTS LEGEND
  
 Use, reproduction and disclosure by the US Government is
 subject to restrictions as set forth in subparagraphs (a)
 and (c) of the Commercial Computer Software - Restricted
 Rights clause in FAR 52.227-19.
  
 Gaussian, Inc.
 340 Quinnipiac St., Bldg. 40, Wallingford CT 06492
  
  
 ---------------------------------------------------------------
 Warning -- This program may not be used in any manner that
 competes with the business of Gaussian, Inc. or will provide
 assistance to any competitor of Gaussian, Inc.  The licensee
 of this program is prohibited from giving any competitor of
 Gaussian, Inc. access to this program.  By using this program,
 the user acknowledges that Gaussian, Inc. is engaged in the
 business of creating and licensing software in the field of
 computational chemistry and represents and warrants to the
 licensee that it is not a competitor of Gaussian, Inc. and that
 it will not use this program in any manner prohibited above.
 ---------------------------------------------------------------
  

 Cite this work as:
 Gaussian 09, Revision E.01,
 M. J. Frisch, G. W. Trucks, H. B. Schlegel, G. E. Scuseria, 
 M. A. Robb, J. R. Cheeseman, G. Scalmani, V. Barone, B. Mennucci, 
 G. A. Petersson, H. Nakatsuji, M. Caricato, X. Li, H. P. Hratchian, 
 A. F. Izmaylov, J. Bloino, G. Zheng, J. L. Sonnenberg, M. Hada, 
 M. Ehara, K. Toyota, R. Fukuda, J. Hasegawa, M. Ishida, T. Nakajima, 
 Y. Honda, O. Kitao, H. Nakai, T. Vreven, J. A. Montgomery, Jr., 
 J. E. Peralta, F. Ogliaro, M. Bearpark, J. J. Heyd, E. Brothers, 
 K. N. Kudin, V. N. Staroverov, T. Keith, R. Kobayashi, J. Normand, 
 K. Raghavachari, A. Rendell, J. C. Burant, S. S. Iyengar, J. Tomasi, 
 M. Cossi, N. Rega, J. M. Millam, M. Klene, J. E. Knox, J. B. Cross, 
 V. Bakken, C. Adamo, J. Jaramillo, R. Gomperts, R. E. Stratmann, 
 O. Yazyev, A. J. Austin, R. Cammi, C. Pomelli, J. W. Ochterski, 
 R. L. Martin, K. Morokuma, V. G. Zakrzewski, G. A. Voth, 
 P. Salvador, J. J. Dannenberg, S. Dapprich, A. D. Daniels, 
 O. Farkas, J. B. Foresman, J. V. Ortiz, J. Cioslowski, 
 and D. J. Fox, Gaussian, Inc., Wallingford CT, 2013.
 
 ******************************************
 Gaussian 09:  ES64L-G09RevE.01 30-Nov-2015
                10-Mar-2018 
 ******************************************
 %Mem=110GB
 %NProcShared=24
 Will use up to   24 processors via shared memory.
 %chk=snap14.chk
 ---------------------------------------
 #p PBE1PBE/cc-pvDZ force Counterpoise=2
 ---------------------------------------
 1/10=7,30=1,38=1,62=2/1,3;
 2/12=2,17=6,18=5,40=1/2;
 1/10=7,30=1,38=1,53=2,62=2,63=101/22;
 3/5=16,11=2,16=1,25=1,30=1,71=1,74=-13/1,2,3;
 4//1;
 5/5=2,38=5/2;
 6/7=2,8=2,9=2,10=2,28=1/1;
 7/7=1,29=1,33=-1/1,2,3,16;
 1/10=7,30=1,53=2,62=2,63=101/22;
 3/5=7,6=11,11=2,16=1,25=1,30=1,71=1,74=-13,82=7/1,2,3;
 4//1;
 5/5=2,38=5/2;
 6/7=2,8=2,9=2,10=2,28=1/1;
 7/7=1,29=1,33=-1/1,2,3,16;
 1/10=7,30=1,53=2,62=2,63=101/22(-5);
 7/9=1,29=1,44=-1/16;
 1/10=7,30=1,62=2/3;
 99//99;
 Leave Link    1 at Sat Mar 10 16:37:19 2018, MaxMem= 14763950080 cpu:         1.8
 (Enter /cm/shared/gaussian/g09.e01/intel64-sandybridge/g09/l101.exe)
 ---------------------------------------
 forces on chloride comput - NWATER: 128
 ---------------------------------------
 Symbolic Z-matrix:
 Charge = -1 Multiplicity = 1 in supermolecule
 Charge = -1 Multiplicity = 1 in fragment      1.
 Charge =  0 Multiplicity = 1 in fragment      2.
 Cl(Fragment=1)        20.       20.       20. 
 O(Fragment=2)         20.82     17.38     19.1 
 H(Fragment=2)         21.77     17.34     19.11 
 H(Fragment=2)         20.6      18.23     19.48 
 O(Fragment=2)         21.24     20.49     17.41 
 H(Fragment=2)         20.87     20.2      18.24 
 H(Fragment=2)         21.36     19.68     16.91 
 O(Fragment=2)         21.52     22.49     20.06 
 H(Fragment=2)         21.93     22.31     19.21 
 H(Fragment=2)         21.03     21.69     20.26 
 O(Fragment=2)         17.96     22.01     21.13 
 H(Fragment=2)         18.5      21.27     20.85 
 H(Fragment=2)         17.44     22.23     20.36 
 O(Fragment=2)         17.92     18.22     18.7 
 H(Fragment=2)         18.34     18.97     19.11 
 H(Fragment=2)         18.46     17.47     18.94 
 O(Fragment=2)         18.48     18.42     22.24 
 H(Fragment=2)         17.54     18.56     22.09 
 H(Fragment=2)         18.89     18.68     21.42 
 O(Fragment=2)         21.52     19.64     22.82 
 H(Fragment=2)         20.85     19.65     22.14 
 H(Fragment=2)         21.55     18.73     23.12 
 O(Fragment=2)         18.57     21.25     16.67 
 H(Fragment=2)         19.39     21.09     17.14 
 H(Fragment=2)         18.82     21.85     15.96 
 O(Fragment=2)         16.22     19.38     21.15 
 H(Fragment=2)         16.44     20.       20.46 
 H(Fragment=2)         15.41     19.74     21.54 
 O(Fragment=2)         16.63     20.79     18.96 
 H(Fragment=2)         17.03     20.79     18.09 
 H(Fragment=2)         15.8      21.25     18.84 
 O(Fragment=2)         17.95     20.72     23.77 
 H(Fragment=2)         18.32     19.93     23.38 
 H(Fragment=2)         17.63     21.22     23.02 
 O(Fragment=2)         19.08     15.8      20.49 
 H(Fragment=2)         19.33     15.28     21.25 
 H(Fragment=2)         19.9      16.18     20.17 
 O(Fragment=2)         23.85     20.73     21.46 
 H(Fragment=2)         23.25     20.33     22.09 
 H(Fragment=2)         23.82     20.15     20.7 
 O(Fragment=2)         23.8      21.99     18.38 
 H(Fragment=2)         23.24     21.24     18.16 
 H(Fragment=2)         24.54     21.6      18.85 
 O(Fragment=2)         20.92     17.16     23.37 
 H(Fragment=2)         20.05     17.56     23.27 
 H(Fragment=2)         20.75     16.22     23.37 
 O(Fragment=2)         20.3      24.95     19.91 
 H(Fragment=2)         20.63     24.08     20.14 
 H(Fragment=2)         20.08     24.89     18.98 
 O(Fragment=2)         20.94     21.45     24.79 
 H(Fragment=2)         21.14     21.14     23.91 
 H(Fragment=2)         21.49     20.93     25.37 
 O(Fragment=2)         23.4      23.49     21.58 
 H(Fragment=2)         23.91     22.68     21.63 
 H(Fragment=2)         22.76     23.33     20.89 
 O(Fragment=2)         17.86     24.09     17.3 
 H(Fragment=2)         17.99     23.36     17.9 
 H(Fragment=2)         18.75     24.36     17.05 
 O(Fragment=2)         17.63     18.63     15.34 
 H(Fragment=2)         17.89     19.02     16.18 
 H(Fragment=2)         17.14     19.33     14.9 
 O(Fragment=2)         15.57     16.99     18.98 
 H(Fragment=2)         15.87     16.18     19.38 
 H(Fragment=2)         16.28     17.62     19.12 
 O(Fragment=2)         22.33     22.44     15.76 
 H(Fragment=2)         21.9      21.78     16.3 
 H(Fragment=2)         22.96     21.96     15.23 
 O(Fragment=2)         24.61     18.94     19.24 
 H(Fragment=2)         24.33     18.12     19.65 
 H(Fragment=2)         24.6      18.75     18.31 
 O(Fragment=2)         23.59     16.58     20.38 
 H(Fragment=2)         23.69     16.42     21.32 
 H(Fragment=2)         23.82     15.74     19.97 
 O(Fragment=2)         16.65     15.71     22.19 
 H(Fragment=2)         17.28     16.16     21.64 
 H(Fragment=2)         16.17     16.41     22.63 
 O(Fragment=2)         20.39     24.13     16.94 
 H(Fragment=2)         20.78     23.42     16.44 
 H(Fragment=2)         20.9      24.91     16.71 
 O(Fragment=2)         16.02     21.29     15.81 
 H(Fragment=2)         16.91     21.5      16.09 
 H(Fragment=2)         15.53     22.1      15.95 
 O(Fragment=2)         16.63     24.78     21.5 
 H(Fragment=2)         17.18     25.56     21.35 
 H(Fragment=2)         17.25     24.11     21.79 
 O(Fragment=2)         21.9      18.65     15.24 
 H(Fragment=2)         21.26     17.99     14.95 
 H(Fragment=2)         22.74     18.18     15.26 
 O(Fragment=2)         18.62     24.32     24.55 
 H(Fragment=2)         19.18     25.03     24.25 
 H(Fragment=2)         18.94     23.55     24.09 
 O(Fragment=2)         15.12     22.96     19.58 
 H(Fragment=2)         15.72     23.67     19.83 
 H(Fragment=2)         14.52     22.9      20.32 
 O(Fragment=2)         23.89     24.57     17.51 
 H(Fragment=2)         24.45     24.08     18.11 
 H(Fragment=2)         23.16     23.97     17.33 
 O(Fragment=2)         15.35     20.15     24.36 
 H(Fragment=2)         16.27     20.41     24.39 
 H(Fragment=2)         14.86     20.93     24.61 
 O(Fragment=2)         21.61     25.45     22.51 
 H(Fragment=2)         22.28     24.79     22.34 
 H(Fragment=2)         21.09     25.48     21.7 
 O(Fragment=2)         19.64     16.94     14.48 
 H(Fragment=2)         19.01     17.6      14.77 
 H(Fragment=2)         19.27     16.11     14.78 
 O(Fragment=2)         22.52     15.27     15.92 
 H(Fragment=2)         22.07     15.65     16.68 
 H(Fragment=2)         22.26     14.35     15.93 
 O(Fragment=2)         26.32     21.02     19.36 
 H(Fragment=2)         26.72     21.24     20.21 
 H(Fragment=2)         25.93     20.15     19.5 
 O(Fragment=2)         18.55     13.23     19.09 
 H(Fragment=2)         18.98     13.28     18.23 
 H(Fragment=2)         18.57     14.13     19.42 
 O(Fragment=2)         19.3      22.82     14.64 
 H(Fragment=2)         19.89     23.1      13.94 
 H(Fragment=2)         18.51     23.35     14.52 
 O(Fragment=2)         21.42     14.29     21.97 
 H(Fragment=2)         21.32     13.77     22.77 
 H(Fragment=2)         22.17     13.91     21.53 
 O(Fragment=2)         15.07     17.7      23.53 
 H(Fragment=2)         14.46     17.35     24.18 
 H(Fragment=2)         15.17     18.62     23.76 
 O(Fragment=2)         23.18     16.92     25.41 
 H(Fragment=2)         22.35     16.86     24.93 
 H(Fragment=2)         23.68     16.16     25.1 
 O(Fragment=2)         15.9      16.35     15.93 
 H(Fragment=2)         16.52     17.03     15.66 
 H(Fragment=2)         15.19     16.41     15.3 
 O(Fragment=2)         13.88     16.83     21.22 
 H(Fragment=2)         14.27     17.36     20.53 
 H(Fragment=2)         14.29     17.15     22.03 
 O(Fragment=2)         13.84     20.91     21.33 
 H(Fragment=2)         13.48     20.9      22.21 
 H(Fragment=2)         13.11     20.69     20.76 
 O(Fragment=2)         19.35     22.17     26.96 
 H(Fragment=2)         19.69     21.83     26.13 
 H(Fragment=2)         18.52     21.71     27.09 
 O(Fragment=2)         24.9      17.32     16.81 
 H(Fragment=2)         24.52     16.65     16.24 
 H(Fragment=2)         25.52     17.79     16.26 
 O(Fragment=2)         18.16     26.71     20.55 
 H(Fragment=2)         18.21     27.65     20.72 
 H(Fragment=2)         19.07     26.42     20.5 
 O(Fragment=2)         23.94     20.51     13.97 
 H(Fragment=2)         23.13     20.08     14.25 
 H(Fragment=2)         23.97     20.37     13.02 
 O(Fragment=2)         22.97     19.69     26.17 
 H(Fragment=2)         22.54     19.4      26.98 
 H(Fragment=2)         23.21     18.87     25.73 
 O(Fragment=2)         13.72     19.78     16.49 
 H(Fragment=2)         14.56     19.86     16.03 
 H(Fragment=2)         13.7      20.55     17.07 
 O(Fragment=2)         26.18     17.68     21.62 
 H(Fragment=2)         26.63     18.22     20.97 
 H(Fragment=2)         26.19     16.8      21.25 
 O(Fragment=2)         15.49     24.4      15.93 
 H(Fragment=2)         16.23     24.49     16.53 
 H(Fragment=2)         15.37     25.27     15.56 
 O(Fragment=2)         17.28     17.6      26.59 
 H(Fragment=2)         17.09     18.25     25.91 
 H(Fragment=2)         16.74     16.85     26.36 
 O(Fragment=2)         13.41     17.25     17.25 
 H(Fragment=2)         13.54     18.08     16.8 
 H(Fragment=2)         14.19     17.15     17.8 
 O(Fragment=2)         18.5      14.77     15.59 
 H(Fragment=2)         17.63     15.09     15.82 
 H(Fragment=2)         18.34     13.93     15.16 
 O(Fragment=2)         18.75     27.29     17.76 
 H(Fragment=2)         17.92     27.63     17.43 
 H(Fragment=2)         18.51     26.5      18.25 
 O(Fragment=2)         19.58     20.57     12.41 
 H(Fragment=2)         19.25     21.27     11.85 
 H(Fragment=2)         20.       21.03     13.14 
 O(Fragment=2)         23.61     14.17     18.87 
 H(Fragment=2)         23.53     13.9      17.96 
 H(Fragment=2)         23.7      13.34     19.35 
 O(Fragment=2)         25.63     18.48     24.27 
 H(Fragment=2)         24.91     17.9      24.54 
 H(Fragment=2)         25.82     18.22     23.37 
 O(Fragment=2)         21.84     24.88     25.42 
 H(Fragment=2)         22.07     24.95     24.49 
 H(Fragment=2)         21.56     23.97     25.52 
 O(Fragment=2)         26.73     16.07     18.85 
 H(Fragment=2)         26.07     16.68     18.54 
 H(Fragment=2)         27.57     16.52     18.71 
 O(Fragment=2)         24.3      15.37     23.26 
 H(Fragment=2)         23.96     14.68     23.83 
 H(Fragment=2)         25.25     15.3      23.35 
 O(Fragment=2)         13.27     22.18     17.72 
 H(Fragment=2)         13.77     22.88     18.14 
 H(Fragment=2)         12.73     22.63     17.08 
 O(Fragment=2)         17.54     13.14     22.32 
 H(Fragment=2)         17.04     13.96     22.38 
 H(Fragment=2)         17.63     12.99     21.38 
 O(Fragment=2)         15.32     14.08     18.11 
 H(Fragment=2)         14.4      14.18     18.36 
 H(Fragment=2)         15.52     14.88     17.61 
 O(Fragment=2)         27.3      21.1      16.76 
 H(Fragment=2)         27.43     22.03     16.59 
 H(Fragment=2)         26.69     21.07     17.5 
 O(Fragment=2)         25.24     25.75     22.45 
 H(Fragment=2)         24.92     24.85     22.31 
 H(Fragment=2)         24.61     26.3      21.99 
 O(Fragment=2)         17.17     19.5      12.39 
 H(Fragment=2)         17.93     19.63     12.97 
 H(Fragment=2)         17.54     19.54     11.51 
 O(Fragment=2)         22.63     27.3      18.55 
 H(Fragment=2)         23.12     26.51     18.3 
 H(Fragment=2)         23.       27.99     18. 
 O(Fragment=2)         20.33     17.89     12.01 
 H(Fragment=2)         20.18     18.84     11.95 
 H(Fragment=2)         19.87     17.62     12.8 
 O(Fragment=2)         23.5      22.19     26.96 
 H(Fragment=2)         23.2      21.99     27.84 
 H(Fragment=2)         23.6      21.34     26.54 
 O(Fragment=2)         26.21     19.35     15.07 
 H(Fragment=2)         25.5      19.82     14.63 
 H(Fragment=2)         26.63     20.       15.63 
 O(Fragment=2)         14.59     26.51     20.9 
 H(Fragment=2)         15.18     25.87     21.28 
 H(Fragment=2)         14.52     26.26     19.98 
 O(Fragment=2)         21.52     14.81     13.39 
 H(Fragment=2)         21.87     15.16     14.22 
 H(Fragment=2)         20.57     14.91     13.47 
 O(Fragment=2)         27.71     20.1      23.04 
 H(Fragment=2)         27.67     19.2      22.72 
 H(Fragment=2)         26.91     20.21     23.55 
 O(Fragment=2)         16.45     25.48     25.63 
 H(Fragment=2)         16.11     26.04     24.93 
 H(Fragment=2)         17.21     25.05     25.23 
 O(Fragment=2)         19.98     27.61     23.36 
 H(Fragment=2)         20.75     27.17     23. 
 H(Fragment=2)         19.95     28.45     22.91 
 O(Fragment=2)         18.53     25.55     14.17 
 H(Fragment=2)         19.12     25.83     14.86 
 H(Fragment=2)         19.09     25.43     13.41 
 O(Fragment=2)         14.34     22.46     24.82 
 H(Fragment=2)         13.93     23.17     24.33 
 H(Fragment=2)         14.66     22.87     25.62 
 O(Fragment=2)         13.84     25.53     18.41 
 H(Fragment=2)         14.54     25.19     17.86 
 H(Fragment=2)         13.42     26.21     17.88 
 O(Fragment=2)         21.38     22.86     12.61 
 H(Fragment=2)         21.67     23.03     11.72 
 H(Fragment=2)         22.02     23.31     13.16 
 O(Fragment=2)         20.99     26.95     16.15 
 H(Fragment=2)         21.66     27.38     16.69 
 H(Fragment=2)         20.17     27.11     16.62 
 O(Fragment=2)         27.81     22.29     21.28 
 H(Fragment=2)         27.7      21.5      21.81 
 H(Fragment=2)         28.57     22.73     21.67 
 O(Fragment=2)         23.57     27.62     21.07 
 H(Fragment=2)         23.24     27.37     20.21 
 H(Fragment=2)         24.31     28.2      20.89 
 O(Fragment=2)         19.46     25.11     27.03 
 H(Fragment=2)         18.84     24.54     26.57 
 H(Fragment=2)         20.3      24.93     26.62 
 O(Fragment=2)         17.99     13.23     25.25 
 H(Fragment=2)         17.37     12.51     25.32 
 H(Fragment=2)         18.02     13.42     24.31 
 O(Fragment=2)         11.53     20.73     19.35 
 H(Fragment=2)         11.03     20.16     18.76 
 H(Fragment=2)         12.08     21.26     18.76 
 O(Fragment=2)         21.3      18.83     27.99 
 H(Fragment=2)         20.36     18.97     28.1 
 H(Fragment=2)         21.44     17.91     28.23 
 O(Fragment=2)         28.08     18.6      19.76 
 H(Fragment=2)         28.83     18.8      20.32 
 H(Fragment=2)         28.46     18.33     18.92 
 O(Fragment=2)         16.81     16.58     12.25 
 H(Fragment=2)         17.19     17.33     12.71 
 H(Fragment=2)         16.65     16.9      11.37 
 O(Fragment=2)         18.72     15.08     27.31 
 H(Fragment=2)         18.29     14.49     26.69 
 H(Fragment=2)         18.45     15.95     27.05 
 O(Fragment=2)         18.68     19.23     28.38 
 H(Fragment=2)         17.97     19.88     28.32 
 H(Fragment=2)         18.29     18.42     28.05 
 O(Fragment=2)         27.08     24.21     16.71 
 H(Fragment=2)         27.13     24.6      15.84 
 H(Fragment=2)         26.36     24.66     17.14 
 O(Fragment=2)         25.52     24.17     13.95 
 H(Fragment=2)         24.67     24.19     14.39 
 H(Fragment=2)         25.56     25.       13.48 
 O(Fragment=2)         27.51     24.98     21.03 
 H(Fragment=2)         26.82     25.4      21.54 
 H(Fragment=2)         27.34     24.04     21.12 
 O(Fragment=2)         25.11     27.06     16.45 
 H(Fragment=2)         24.56     26.28     16.6 
 H(Fragment=2)         25.75     27.05     17.16 
 O(Fragment=2)         20.68     28.62     20.57 
 H(Fragment=2)         21.57     28.33     20.34 
 H(Fragment=2)         20.24     28.72     19.73 
 O(Fragment=2)         12.85     15.06     23.47 
 H(Fragment=2)         13.39     15.47     22.79 
 H(Fragment=2)         13.1      14.14     23.44 
 O(Fragment=2)         14.88     21.08     12.44 
 H(Fragment=2)         15.51     20.45     12.8 
 H(Fragment=2)         14.03     20.66     12.55 
 O(Fragment=2)         10.97     18.8      17.7 
 H(Fragment=2)         10.57     18.36     16.95 
 H(Fragment=2)         11.91     18.66     17.59 
 O(Fragment=2)         21.99     12.51     16.23 
 H(Fragment=2)         21.29     12.07     15.75 
 H(Fragment=2)         22.78     12.03     15.99 
 O(Fragment=2)         23.63     12.3      21.44 
 H(Fragment=2)         24.16     12.36     22.23 
 H(Fragment=2)         23.48     11.37     21.31 
 O(Fragment=2)         15.65     15.5      25.96 
 H(Fragment=2)         15.18     15.25     26.75 
 H(Fragment=2)         15.52     14.77     25.36 
 O(Fragment=2)         25.21     24.19     26.39 
 H(Fragment=2)         24.88     23.29     26.35 
 H(Fragment=2)         26.09     24.14     26.01 
 O(Fragment=2)         11.85     18.49     23.8 
 H(Fragment=2)         11.36     17.66     23.85 
 H(Fragment=2)         12.65     18.32     24.29 
 O(Fragment=2)         11.82     23.23     22.7 
 H(Fragment=2)         11.2      22.5      22.77 
 H(Fragment=2)         12.09     23.23     21.78 
 O(Fragment=2)         11.03     16.44     20.38 
 H(Fragment=2)         10.3      17.02     20.15 
 H(Fragment=2)         11.81     16.98     20.26 
 O(Fragment=2)         20.32     23.01     29.27 
 H(Fragment=2)         20.43     23.95     29.14 
 H(Fragment=2)         20.07     22.67     28.41 
 O(Fragment=2)         26.46     26.21     18.8 
 H(Fragment=2)         27.04     26.98     18.78 
 H(Fragment=2)         26.76     25.71     19.56 
 O(Fragment=2)         23.37     13.52     25.03 
 H(Fragment=2)         22.8      12.83     24.68 
 H(Fragment=2)         23.5      13.27     25.95 
 O(Fragment=2)         21.96     27.56     25.88 
 H(Fragment=2)         21.72     26.68     25.59 
 H(Fragment=2)         21.14     27.94     26.19 
 O(Fragment=2)         16.82     21.17     28.31 
 H(Fragment=2)         16.21     20.88     28.99 
 H(Fragment=2)         16.36     21.9      27.89 
 O(Fragment=2)         11.55     24.3      19.88 
 H(Fragment=2)         10.91     24.75     19.33 
 H(Fragment=2)         12.4      24.65     19.62 
 O(Fragment=2)         12.79     14.54     19.1 
 H(Fragment=2)         12.26     14.86     18.36 
 H(Fragment=2)         12.54     15.1      19.83 
 O(Fragment=2)         22.02     25.95     13.2 
 H(Fragment=2)         21.74     26.39     14. 
 H(Fragment=2)         21.22     25.87     12.68 
 O(Fragment=2)         12.4      20.99     26.05 
 H(Fragment=2)         13.24     21.34     25.76 
 H(Fragment=2)         12.6      20.54     26.88 
 O(Fragment=2)         24.96     16.19     27.73 
 H(Fragment=2)         25.05     16.89     28.38 
 H(Fragment=2)         24.38     16.56     27.07 
 O(Fragment=2)         27.64     18.38     26.18 
 H(Fragment=2)         28.35     18.19     25.57 
 H(Fragment=2)         26.89     18.59     25.62 
 O(Fragment=2)         15.56     23.38     27.5 
 H(Fragment=2)         14.67     23.74     27.56 
 H(Fragment=2)         16.05     24.04     27.01 
 O(Fragment=2)         17.27     10.48     18.65 
 H(Fragment=2)         17.62     11.37     18.65 
 H(Fragment=2)         18.04     9.91      18.67 
 O(Fragment=2)         13.42     17.59     25.83 
 H(Fragment=2)         12.9      18.05     26.49 
 H(Fragment=2)         13.85     16.88     26.3 
 O(Fragment=2)         14.66     15.72     13.63 
 H(Fragment=2)         14.14     15.26     12.97 
 H(Fragment=2)         15.49     15.91     13.19 
 O(Fragment=2)         17.88     10.65     22.96 
 H(Fragment=2)         17.73     11.59     22.89 
 H(Fragment=2)         17.27     10.26     22.34 
 O(Fragment=2)         22.25     20.7      29.8 
 H(Fragment=2)         21.55     21.35     29.92 
 H(Fragment=2)         21.97     20.2      29.04 
 O(Fragment=2)         21.53     11.79     24.09 
 H(Fragment=2)         21.       11.91     24.87 
 H(Fragment=2)         21.14     11.03     23.65 
 O(Fragment=2)         22.75     25.45     28.07 
 H(Fragment=2)         22.91     24.72     27.47 
 H(Fragment=2)         22.88     26.24     27.55 
 O(Fragment=2)         11.6      15.2      16.8 
 H(Fragment=2)         12.17     15.91     17.08 
 H(Fragment=2)         10.82     15.63     16.44 
 
 NAtoms=    385 NQM=      385 NQMF=       0 NMMI=      0 NMMIF=      0
                NMic=       0 NMicF=      0.
                    Isotopes and Nuclear Properties:
 (Nuclear quadrupole moments (NQMom) in fm**2, nuclear magnetic moments (NMagM)
  in nuclear magnetons)

  Atom         1           2           3           4           5           6           7           8           9          10
 IAtWgt=          35          16           1           1          16           1           1          16           1           1
 AtmWgt=  34.9688527  15.9949146   1.0078250   1.0078250  15.9949146   1.0078250   1.0078250  15.9949146   1.0078250   1.0078250
 NucSpn=           3           0           1           1           0           1           1           0           1           1
 AtZEff=   0.0000000   0.0000000   0.0000000   0.0000000   0.0000000   0.0000000   0.0000000   0.0000000   0.0000000   0.0000000
 NQMom=   -8.1650000   0.0000000   0.0000000   0.0000000   0.0000000   0.0000000   0.0000000   0.0000000   0.0000000   0.0000000
 NMagM=    0.8218740   0.0000000   2.7928460   2.7928460   0.0000000   2.7928460   2.7928460   0.0000000   2.7928460   2.7928460
 AtZNuc=  17.0000000   8.0000000   1.0000000   1.0000000   8.0000000   1.0000000   1.0000000   8.0000000   1.0000000   1.0000000

  Atom        11          12          13          14          15          16          17          18          19          20
 IAtWgt=          16           1           1          16           1           1          16           1           1          16
 AtmWgt=  15.9949146   1.0078250   1.0078250  15.9949146   1.0078250   1.0078250  15.9949146   1.0078250   1.0078250  15.9949146
 NucSpn=           0           1           1           0           1           1           0           1           1           0
 AtZEff=   0.0000000   0.0000000   0.0000000   0.0000000   0.0000000   0.0000000   0.0000000   0.0000000   0.0000000   0.0000000
 NQMom=    0.0000000   0.0000000   0.0000000   0.0000000   0.0000000   0.0000000   0.0000000   0.0000000   0.0000000   0.0000000
 NMagM=    0.0000000   2.7928460   2.7928460   0.0000000   2.7928460   2.7928460   0.0000000   2.7928460   2.7928460   0.0000000
 AtZNuc=   8.0000000   1.0000000   1.0000000   8.0000000   1.0000000   1.0000000   8.0000000   1.0000000   1.0000000   8.0000000

  Atom        21          22          23          24          25          26          27          28          29          30
 IAtWgt=           1           1          16           1           1          16           1           1          16           1
 AtmWgt=   1.0078250   1.0078250  15.9949146   1.0078250   1.0078250  15.9949146   1.0078250   1.0078250  15.9949146   1.0078250
 NucSpn=           1           1           0           1           1           0           1           1           0           1
 AtZEff=   0.0000000   0.0000000   0.0000000   0.0000000   0.0000000   0.0000000   0.0000000   0.0000000   0.0000000   0.0000000
 NQMom=    0.0000000   0.0000000   0.0000000   0.0000000   0.0000000   0.0000000   0.0000000   0.0000000   0.0000000   0.0000000
 NMagM=    2.7928460   2.7928460   0.0000000   2.7928460   2.7928460   0.0000000   2.7928460   2.7928460   0.0000000   2.7928460
 AtZNuc=   1.0000000   1.0000000   8.0000000   1.0000000   1.0000000   8.0000000   1.0000000   1.0000000   8.0000000   1.0000000

  Atom        31          32          33          34          35          36          37          38          39          40
 IAtWgt=           1          16           1           1          16           1           1          16           1           1
 AtmWgt=   1.0078250  15.9949146   1.0078250   1.0078250  15.9949146   1.0078250   1.0078250  15.9949146   1.0078250   1.0078250
 NucSpn=           1           0           1           1           0           1           1           0           1           1
 AtZEff=   0.0000000   0.0000000   0.0000000   0.0000000   0.0000000   0.0000000   0.0000000   0.0000000   0.0000000   0.0000000
 NQMom=    0.0000000   0.0000000   0.0000000   0.0000000   0.0000000   0.0000000   0.0000000   0.0000000   0.0000000   0.0000000
 NMagM=    2.7928460   0.0000000   2.7928460   2.7928460   0.0000000   2.7928460   2.7928460   0.0000000   2.7928460   2.7928460
 AtZNuc=   1.0000000   8.0000000   1.0000000   1.0000000   8.0000000   1.0000000   1.0000000   8.0000000   1.0000000   1.0000000

  Atom        41          42          43          44          45          46          47          48          49          50
 IAtWgt=          16           1           1          16           1           1          16           1           1          16
 AtmWgt=  15.9949146   1.0078250   1.0078250  15.9949146   1.0078250   1.0078250  15.9949146   1.0078250   1.0078250  15.9949146
 NucSpn=           0           1           1           0           1           1           0           1           1           0
 AtZEff=   0.0000000   0.0000000   0.0000000   0.0000000   0.0000000   0.0000000   0.0000000   0.0000000   0.0000000   0.0000000
 NQMom=    0.0000000   0.0000000   0.0000000   0.0000000   0.0000000   0.0000000   0.0000000   0.0000000   0.0000000   0.0000000
 NMagM=    0.0000000   2.7928460   2.7928460   0.0000000   2.7928460   2.7928460   0.0000000   2.7928460   2.7928460   0.0000000
 AtZNuc=   8.0000000   1.0000000   1.0000000   8.0000000   1.0000000   1.0000000   8.0000000   1.0000000   1.0000000   8.0000000

  Atom        51          52          53          54          55          56          57          58          59          60
 IAtWgt=           1           1          16           1           1          16           1           1          16           1
 AtmWgt=   1.0078250   1.0078250  15.9949146   1.0078250   1.0078250  15.9949146   1.0078250   1.0078250  15.9949146   1.0078250
 NucSpn=           1           1           0           1           1           0           1           1           0           1
 AtZEff=   0.0000000   0.0000000   0.0000000   0.0000000   0.0000000   0.0000000   0.0000000   0.0000000   0.0000000   0.0000000
 NQMom=    0.0000000   0.0000000   0.0000000   0.0000000   0.0000000   0.0000000   0.0000000   0.0000000   0.0000000   0.0000000
 NMagM=    2.7928460   2.7928460   0.0000000   2.7928460   2.7928460   0.0000000   2.7928460   2.7928460   0.0000000   2.7928460
 AtZNuc=   1.0000000   1.0000000   8.0000000   1.0000000   1.0000000   8.0000000   1.0000000   1.0000000   8.0000000   1.0000000

  Atom        61          62          63          64          65          66          67          68          69          70
 IAtWgt=           1          16           1           1          16           1           1          16           1           1
 AtmWgt=   1.0078250  15.9949146   1.0078250   1.0078250  15.9949146   1.0078250   1.0078250  15.9949146   1.0078250   1.0078250
 NucSpn=           1           0           1           1           0           1           1           0           1           1
 AtZEff=   0.0000000   0.0000000   0.0000000   0.0000000   0.0000000   0.0000000   0.0000000   0.0000000   0.0000000   0.0000000
 NQMom=    0.0000000   0.0000000   0.0000000   0.0000000   0.0000000   0.0000000   0.0000000   0.0000000   0.0000000   0.0000000
 NMagM=    2.7928460   0.0000000   2.7928460   2.7928460   0.0000000   2.7928460   2.7928460   0.0000000   2.7928460   2.7928460
 AtZNuc=   1.0000000   8.0000000   1.0000000   1.0000000   8.0000000   1.0000000   1.0000000   8.0000000   1.0000000   1.0000000

  Atom        71          72          73          74          75          76          77          78          79          80
 IAtWgt=          16           1           1          16           1           1          16           1           1          16
 AtmWgt=  15.9949146   1.0078250   1.0078250  15.9949146   1.0078250   1.0078250  15.9949146   1.0078250   1.0078250  15.9949146
 NucSpn=           0           1           1           0           1           1           0           1           1           0
 AtZEff=   0.0000000   0.0000000   0.0000000   0.0000000   0.0000000   0.0000000   0.0000000   0.0000000   0.0000000   0.0000000
 NQMom=    0.0000000   0.0000000   0.0000000   0.0000000   0.0000000   0.0000000   0.0000000   0.0000000   0.0000000   0.0000000
 NMagM=    0.0000000   2.7928460   2.7928460   0.0000000   2.7928460   2.7928460   0.0000000   2.7928460   2.7928460   0.0000000
 AtZNuc=   8.0000000   1.0000000   1.0000000   8.0000000   1.0000000   1.0000000   8.0000000   1.0000000   1.0000000   8.0000000

  Atom        81          82          83          84          85          86          87          88          89          90
 IAtWgt=           1           1          16           1           1          16           1           1          16           1
 AtmWgt=   1.0078250   1.0078250  15.9949146   1.0078250   1.0078250  15.9949146   1.0078250   1.0078250  15.9949146   1.0078250
 NucSpn=           1           1           0           1           1           0           1           1           0           1
 AtZEff=   0.0000000   0.0000000   0.0000000   0.0000000   0.0000000   0.0000000   0.0000000   0.0000000   0.0000000   0.0000000
 NQMom=    0.0000000   0.0000000   0.0000000   0.0000000   0.0000000   0.0000000   0.0000000   0.0000000   0.0000000   0.0000000
 NMagM=    2.7928460   2.7928460   0.0000000   2.7928460   2.7928460   0.0000000   2.7928460   2.7928460   0.0000000   2.7928460
 AtZNuc=   1.0000000   1.0000000   8.0000000   1.0000000   1.0000000   8.0000000   1.0000000   1.0000000   8.0000000   1.0000000

  Atom        91          92          93          94          95          96          97          98          99         100
 IAtWgt=           1          16           1           1          16           1           1          16           1           1
 AtmWgt=   1.0078250  15.9949146   1.0078250   1.0078250  15.9949146   1.0078250   1.0078250  15.9949146   1.0078250   1.0078250
 NucSpn=           1           0           1           1           0           1           1           0           1           1
 AtZEff=   0.0000000   0.0000000   0.0000000   0.0000000   0.0000000   0.0000000   0.0000000   0.0000000   0.0000000   0.0000000
 NQMom=    0.0000000   0.0000000   0.0000000   0.0000000   0.0000000   0.0000000   0.0000000   0.0000000   0.0000000   0.0000000
 NMagM=    2.7928460   0.0000000   2.7928460   2.7928460   0.0000000   2.7928460   2.7928460   0.0000000   2.7928460   2.7928460
 AtZNuc=   1.0000000   8.0000000   1.0000000   1.0000000   8.0000000   1.0000000   1.0000000   8.0000000   1.0000000   1.0000000

  Atom       101         102         103         104         105         106         107         108         109         110
 IAtWgt=          16           1           1          16           1           1          16           1           1          16
 AtmWgt=  15.9949146   1.0078250   1.0078250  15.9949146   1.0078250   1.0078250  15.9949146   1.0078250   1.0078250  15.9949146
 NucSpn=           0           1           1           0           1           1           0           1           1           0
 AtZEff=   0.0000000   0.0000000   0.0000000   0.0000000   0.0000000   0.0000000   0.0000000   0.0000000   0.0000000   0.0000000
 NQMom=    0.0000000   0.0000000   0.0000000   0.0000000   0.0000000   0.0000000   0.0000000   0.0000000   0.0000000   0.0000000
 NMagM=    0.0000000   2.7928460   2.7928460   0.0000000   2.7928460   2.7928460   0.0000000   2.7928460   2.7928460   0.0000000
 AtZNuc=   8.0000000   1.0000000   1.0000000   8.0000000   1.0000000   1.0000000   8.0000000   1.0000000   1.0000000   8.0000000

  Atom       111         112         113         114         115         116         117         118         119         120
 IAtWgt=           1           1          16           1           1          16           1           1          16           1
 AtmWgt=   1.0078250   1.0078250  15.9949146   1.0078250   1.0078250  15.9949146   1.0078250   1.0078250  15.9949146   1.0078250
 NucSpn=           1           1           0           1           1           0           1           1           0           1
 AtZEff=   0.0000000   0.0000000   0.0000000   0.0000000   0.0000000   0.0000000   0.0000000   0.0000000   0.0000000   0.0000000
 NQMom=    0.0000000   0.0000000   0.0000000   0.0000000   0.0000000   0.0000000   0.0000000   0.0000000   0.0000000   0.0000000
 NMagM=    2.7928460   2.7928460   0.0000000   2.7928460   2.7928460   0.0000000   2.7928460   2.7928460   0.0000000   2.7928460
 AtZNuc=   1.0000000   1.0000000   8.0000000   1.0000000   1.0000000   8.0000000   1.0000000   1.0000000   8.0000000   1.0000000

  Atom       121         122         123         124         125         126         127         128         129         130
 IAtWgt=           1          16           1           1          16           1           1          16           1           1
 AtmWgt=   1.0078250  15.9949146   1.0078250   1.0078250  15.9949146   1.0078250   1.0078250  15.9949146   1.0078250   1.0078250
 NucSpn=           1           0           1           1           0           1           1           0           1           1
 AtZEff=   0.0000000   0.0000000   0.0000000   0.0000000   0.0000000   0.0000000   0.0000000   0.0000000   0.0000000   0.0000000
 NQMom=    0.0000000   0.0000000   0.0000000   0.0000000   0.0000000   0.0000000   0.0000000   0.0000000   0.0000000   0.0000000
 NMagM=    2.7928460   0.0000000   2.7928460   2.7928460   0.0000000   2.7928460   2.7928460   0.0000000   2.7928460   2.7928460
 AtZNuc=   1.0000000   8.0000000   1.0000000   1.0000000   8.0000000   1.0000000   1.0000000   8.0000000   1.0000000   1.0000000

  Atom       131         132         133         134         135         136         137         138         139         140
 IAtWgt=          16           1           1          16           1           1          16           1           1          16
 AtmWgt=  15.9949146   1.0078250   1.0078250  15.9949146   1.0078250   1.0078250  15.9949146   1.0078250   1.0078250  15.9949146
 NucSpn=           0           1           1           0           1           1           0           1           1           0
 AtZEff=   0.0000000   0.0000000   0.0000000   0.0000000   0.0000000   0.0000000   0.0000000   0.0000000   0.0000000   0.0000000
 NQMom=    0.0000000   0.0000000   0.0000000   0.0000000   0.0000000   0.0000000   0.0000000   0.0000000   0.0000000   0.0000000
 NMagM=    0.0000000   2.7928460   2.7928460   0.0000000   2.7928460   2.7928460   0.0000000   2.7928460   2.7928460   0.0000000
 AtZNuc=   8.0000000   1.0000000   1.0000000   8.0000000   1.0000000   1.0000000   8.0000000   1.0000000   1.0000000   8.0000000

  Atom       141         142         143         144         145         146         147         148         149         150
 IAtWgt=           1           1          16           1           1          16           1           1          16           1
 AtmWgt=   1.0078250   1.0078250  15.9949146   1.0078250   1.0078250  15.9949146   1.0078250   1.0078250  15.9949146   1.0078250
 NucSpn=           1           1           0           1           1           0           1           1           0           1
 AtZEff=   0.0000000   0.0000000   0.0000000   0.0000000   0.0000000   0.0000000   0.0000000   0.0000000   0.0000000   0.0000000
 NQMom=    0.0000000   0.0000000   0.0000000   0.0000000   0.0000000   0.0000000   0.0000000   0.0000000   0.0000000   0.0000000
 NMagM=    2.7928460   2.7928460   0.0000000   2.7928460   2.7928460   0.0000000   2.7928460   2.7928460   0.0000000   2.7928460
 AtZNuc=   1.0000000   1.0000000   8.0000000   1.0000000   1.0000000   8.0000000   1.0000000   1.0000000   8.0000000   1.0000000

  Atom       151         152         153         154         155         156         157         158         159         160
 IAtWgt=           1          16           1           1          16           1           1          16           1           1
 AtmWgt=   1.0078250  15.9949146   1.0078250   1.0078250  15.9949146   1.0078250   1.0078250  15.9949146   1.0078250   1.0078250
 NucSpn=           1           0           1           1           0           1           1           0           1           1
 AtZEff=   0.0000000   0.0000000   0.0000000   0.0000000   0.0000000   0.0000000   0.0000000   0.0000000   0.0000000   0.0000000
 NQMom=    0.0000000   0.0000000   0.0000000   0.0000000   0.0000000   0.0000000   0.0000000   0.0000000   0.0000000   0.0000000
 NMagM=    2.7928460   0.0000000   2.7928460   2.7928460   0.0000000   2.7928460   2.7928460   0.0000000   2.7928460   2.7928460
 AtZNuc=   1.0000000   8.0000000   1.0000000   1.0000000   8.0000000   1.0000000   1.0000000   8.0000000   1.0000000   1.0000000

  Atom       161         162         163         164         165         166         167         168         169         170
 IAtWgt=          16           1           1          16           1           1          16           1           1          16
 AtmWgt=  15.9949146   1.0078250   1.0078250  15.9949146   1.0078250   1.0078250  15.9949146   1.0078250   1.0078250  15.9949146
 NucSpn=           0           1           1           0           1           1           0           1           1           0
 AtZEff=   0.0000000   0.0000000   0.0000000   0.0000000   0.0000000   0.0000000   0.0000000   0.0000000   0.0000000   0.0000000
 NQMom=    0.0000000   0.0000000   0.0000000   0.0000000   0.0000000   0.0000000   0.0000000   0.0000000   0.0000000   0.0000000
 NMagM=    0.0000000   2.7928460   2.7928460   0.0000000   2.7928460   2.7928460   0.0000000   2.7928460   2.7928460   0.0000000
 AtZNuc=   8.0000000   1.0000000   1.0000000   8.0000000   1.0000000   1.0000000   8.0000000   1.0000000   1.0000000   8.0000000

  Atom       171         172         173         174         175         176         177         178         179         180
 IAtWgt=           1           1          16           1           1          16           1           1          16           1
 AtmWgt=   1.0078250   1.0078250  15.9949146   1.0078250   1.0078250  15.9949146   1.0078250   1.0078250  15.9949146   1.0078250
 NucSpn=           1           1           0           1           1           0           1           1           0           1
 AtZEff=   0.0000000   0.0000000   0.0000000   0.0000000   0.0000000   0.0000000   0.0000000   0.0000000   0.0000000   0.0000000
 NQMom=    0.0000000   0.0000000   0.0000000   0.0000000   0.0000000   0.0000000   0.0000000   0.0000000   0.0000000   0.0000000
 NMagM=    2.7928460   2.7928460   0.0000000   2.7928460   2.7928460   0.0000000   2.7928460   2.7928460   0.0000000   2.7928460
 AtZNuc=   1.0000000   1.0000000   8.0000000   1.0000000   1.0000000   8.0000000   1.0000000   1.0000000   8.0000000   1.0000000

  Atom       181         182         183         184         185         186         187         188         189         190
 IAtWgt=           1          16           1           1          16           1           1          16           1           1
 AtmWgt=   1.0078250  15.9949146   1.0078250   1.0078250  15.9949146   1.0078250   1.0078250  15.9949146   1.0078250   1.0078250
 NucSpn=           1           0           1           1           0           1           1           0           1           1
 AtZEff=   0.0000000   0.0000000   0.0000000   0.0000000   0.0000000   0.0000000   0.0000000   0.0000000   0.0000000   0.0000000
 NQMom=    0.0000000   0.0000000   0.0000000   0.0000000   0.0000000   0.0000000   0.0000000   0.0000000   0.0000000   0.0000000
 NMagM=    2.7928460   0.0000000   2.7928460   2.7928460   0.0000000   2.7928460   2.7928460   0.0000000   2.7928460   2.7928460
 AtZNuc=   1.0000000   8.0000000   1.0000000   1.0000000   8.0000000   1.0000000   1.0000000   8.0000000   1.0000000   1.0000000

  Atom       191         192         193         194         195         196         197         198         199         200
 IAtWgt=          16           1           1          16           1           1          16           1           1          16
 AtmWgt=  15.9949146   1.0078250   1.0078250  15.9949146   1.0078250   1.0078250  15.9949146   1.0078250   1.0078250  15.9949146
 NucSpn=           0           1           1           0           1           1           0           1           1           0
 AtZEff=   0.0000000   0.0000000   0.0000000   0.0000000   0.0000000   0.0000000   0.0000000   0.0000000   0.0000000   0.0000000
 NQMom=    0.0000000   0.0000000   0.0000000   0.0000000   0.0000000   0.0000000   0.0000000   0.0000000   0.0000000   0.0000000
 NMagM=    0.0000000   2.7928460   2.7928460   0.0000000   2.7928460   2.7928460   0.0000000   2.7928460   2.7928460   0.0000000
 AtZNuc=   8.0000000   1.0000000   1.0000000   8.0000000   1.0000000   1.0000000   8.0000000   1.0000000   1.0000000   8.0000000

  Atom       201         202         203         204         205         206         207         208         209         210
 IAtWgt=           1           1          16           1           1          16           1           1          16           1
 AtmWgt=   1.0078250   1.0078250  15.9949146   1.0078250   1.0078250  15.9949146   1.0078250   1.0078250  15.9949146   1.0078250
 NucSpn=           1           1           0           1           1           0           1           1           0           1
 AtZEff=   0.0000000   0.0000000   0.0000000   0.0000000   0.0000000   0.0000000   0.0000000   0.0000000   0.0000000   0.0000000
 NQMom=    0.0000000   0.0000000   0.0000000   0.0000000   0.0000000   0.0000000   0.0000000   0.0000000   0.0000000   0.0000000
 NMagM=    2.7928460   2.7928460   0.0000000   2.7928460   2.7928460   0.0000000   2.7928460   2.7928460   0.0000000   2.7928460
 AtZNuc=   1.0000000   1.0000000   8.0000000   1.0000000   1.0000000   8.0000000   1.0000000   1.0000000   8.0000000   1.0000000

  Atom       211         212         213         214         215         216         217         218         219         220
 IAtWgt=           1          16           1           1          16           1           1          16           1           1
 AtmWgt=   1.0078250  15.9949146   1.0078250   1.0078250  15.9949146   1.0078250   1.0078250  15.9949146   1.0078250   1.0078250
 NucSpn=           1           0           1           1           0           1           1           0           1           1
 AtZEff=   0.0000000   0.0000000   0.0000000   0.0000000   0.0000000   0.0000000   0.0000000   0.0000000   0.0000000   0.0000000
 NQMom=    0.0000000   0.0000000   0.0000000   0.0000000   0.0000000   0.0000000   0.0000000   0.0000000   0.0000000   0.0000000
 NMagM=    2.7928460   0.0000000   2.7928460   2.7928460   0.0000000   2.7928460   2.7928460   0.0000000   2.7928460   2.7928460
 AtZNuc=   1.0000000   8.0000000   1.0000000   1.0000000   8.0000000   1.0000000   1.0000000   8.0000000   1.0000000   1.0000000

  Atom       221         222         223         224         225         226         227         228         229         230
 IAtWgt=          16           1           1          16           1           1          16           1           1          16
 AtmWgt=  15.9949146   1.0078250   1.0078250  15.9949146   1.0078250   1.0078250  15.9949146   1.0078250   1.0078250  15.9949146
 NucSpn=           0           1           1           0           1           1           0           1           1           0
 AtZEff=   0.0000000   0.0000000   0.0000000   0.0000000   0.0000000   0.0000000   0.0000000   0.0000000   0.0000000   0.0000000
 NQMom=    0.0000000   0.0000000   0.0000000   0.0000000   0.0000000   0.0000000   0.0000000   0.0000000   0.0000000   0.0000000
 NMagM=    0.0000000   2.7928460   2.7928460   0.0000000   2.7928460   2.7928460   0.0000000   2.7928460   2.7928460   0.0000000
 AtZNuc=   8.0000000   1.0000000   1.0000000   8.0000000   1.0000000   1.0000000   8.0000000   1.0000000   1.0000000   8.0000000

  Atom       231         232         233         234         235         236         237         238         239         240
 IAtWgt=           1           1          16           1           1          16           1           1          16           1
 AtmWgt=   1.0078250   1.0078250  15.9949146   1.0078250   1.0078250  15.9949146   1.0078250   1.0078250  15.9949146   1.0078250
 NucSpn=           1           1           0           1           1           0           1           1           0           1
 AtZEff=   0.0000000   0.0000000   0.0000000   0.0000000   0.0000000   0.0000000   0.0000000   0.0000000   0.0000000   0.0000000
 NQMom=    0.0000000   0.0000000   0.0000000   0.0000000   0.0000000   0.0000000   0.0000000   0.0000000   0.0000000   0.0000000
 NMagM=    2.7928460   2.7928460   0.0000000   2.7928460   2.7928460   0.0000000   2.7928460   2.7928460   0.0000000   2.7928460
 AtZNuc=   1.0000000   1.0000000   8.0000000   1.0000000   1.0000000   8.0000000   1.0000000   1.0000000   8.0000000   1.0000000

  Atom       241         242         243         244         245         246         247         248         249         250
 IAtWgt=           1          16           1           1          16           1           1          16           1           1
 AtmWgt=   1.0078250  15.9949146   1.0078250   1.0078250  15.9949146   1.0078250   1.0078250  15.9949146   1.0078250   1.0078250
 NucSpn=           1           0           1           1           0           1           1           0           1           1
 AtZEff=   0.0000000   0.0000000   0.0000000   0.0000000   0.0000000   0.0000000   0.0000000   0.0000000   0.0000000   0.0000000
 NQMom=    0.0000000   0.0000000   0.0000000   0.0000000   0.0000000   0.0000000   0.0000000   0.0000000   0.0000000   0.0000000
 NMagM=    2.7928460   0.0000000   2.7928460   2.7928460   0.0000000   2.7928460   2.7928460   0.0000000   2.7928460   2.7928460
 AtZNuc=   1.0000000   8.0000000   1.0000000   1.0000000   8.0000000   1.0000000   1.0000000   8.0000000   1.0000000   1.0000000

  Atom       251         252         253         254         255         256         257         258         259         260
 IAtWgt=          16           1           1          16           1           1          16           1           1          16
 AtmWgt=  15.9949146   1.0078250   1.0078250  15.9949146   1.0078250   1.0078250  15.9949146   1.0078250   1.0078250  15.9949146
 NucSpn=           0           1           1           0           1           1           0           1           1           0
 AtZEff=   0.0000000   0.0000000   0.0000000   0.0000000   0.0000000   0.0000000   0.0000000   0.0000000   0.0000000   0.0000000
 NQMom=    0.0000000   0.0000000   0.0000000   0.0000000   0.0000000   0.0000000   0.0000000   0.0000000   0.0000000   0.0000000
 NMagM=    0.0000000   2.7928460   2.7928460   0.0000000   2.7928460   2.7928460   0.0000000   2.7928460   2.7928460   0.0000000
 AtZNuc=   8.0000000   1.0000000   1.0000000   8.0000000   1.0000000   1.0000000   8.0000000   1.0000000   1.0000000   8.0000000

  Atom       261         262         263         264         265         266         267         268         269         270
 IAtWgt=           1           1          16           1           1          16           1           1          16           1
 AtmWgt=   1.0078250   1.0078250  15.9949146   1.0078250   1.0078250  15.9949146   1.0078250   1.0078250  15.9949146   1.0078250
 NucSpn=           1           1           0           1           1           0           1           1           0           1
 AtZEff=   0.0000000   0.0000000   0.0000000   0.0000000   0.0000000   0.0000000   0.0000000   0.0000000   0.0000000   0.0000000
 NQMom=    0.0000000   0.0000000   0.0000000   0.0000000   0.0000000   0.0000000   0.0000000   0.0000000   0.0000000   0.0000000
 NMagM=    2.7928460   2.7928460   0.0000000   2.7928460   2.7928460   0.0000000   2.7928460   2.7928460   0.0000000   2.7928460
 AtZNuc=   1.0000000   1.0000000   8.0000000   1.0000000   1.0000000   8.0000000   1.0000000   1.0000000   8.0000000   1.0000000

  Atom       271         272         273         274         275         276         277         278         279         280
 IAtWgt=           1          16           1           1          16           1           1          16           1           1
 AtmWgt=   1.0078250  15.9949146   1.0078250   1.0078250  15.9949146   1.0078250   1.0078250  15.9949146   1.0078250   1.0078250
 NucSpn=           1           0           1           1           0           1           1           0           1           1
 AtZEff=   0.0000000   0.0000000   0.0000000   0.0000000   0.0000000   0.0000000   0.0000000   0.0000000   0.0000000   0.0000000
 NQMom=    0.0000000   0.0000000   0.0000000   0.0000000   0.0000000   0.0000000   0.0000000   0.0000000   0.0000000   0.0000000
 NMagM=    2.7928460   0.0000000   2.7928460   2.7928460   0.0000000   2.7928460   2.7928460   0.0000000   2.7928460   2.7928460
 AtZNuc=   1.0000000   8.0000000   1.0000000   1.0000000   8.0000000   1.0000000   1.0000000   8.0000000   1.0000000   1.0000000

  Atom       281         282         283         284         285         286         287         288         289         290
 IAtWgt=          16           1           1          16           1           1          16           1           1          16
 AtmWgt=  15.9949146   1.0078250   1.0078250  15.9949146   1.0078250   1.0078250  15.9949146   1.0078250   1.0078250  15.9949146
 NucSpn=           0           1           1           0           1           1           0           1           1           0
 AtZEff=   0.0000000   0.0000000   0.0000000   0.0000000   0.0000000   0.0000000   0.0000000   0.0000000   0.0000000   0.0000000
 NQMom=    0.0000000   0.0000000   0.0000000   0.0000000   0.0000000   0.0000000   0.0000000   0.0000000   0.0000000   0.0000000
 NMagM=    0.0000000   2.7928460   2.7928460   0.0000000   2.7928460   2.7928460   0.0000000   2.7928460   2.7928460   0.0000000
 AtZNuc=   8.0000000   1.0000000   1.0000000   8.0000000   1.0000000   1.0000000   8.0000000   1.0000000   1.0000000   8.0000000

  Atom       291         292         293         294         295         296         297         298         299         300
 IAtWgt=           1           1          16           1           1          16           1           1          16           1
 AtmWgt=   1.0078250   1.0078250  15.9949146   1.0078250   1.0078250  15.9949146   1.0078250   1.0078250  15.9949146   1.0078250
 NucSpn=           1           1           0           1           1           0           1           1           0           1
 AtZEff=   0.0000000   0.0000000   0.0000000   0.0000000   0.0000000   0.0000000   0.0000000   0.0000000   0.0000000   0.0000000
 NQMom=    0.0000000   0.0000000   0.0000000   0.0000000   0.0000000   0.0000000   0.0000000   0.0000000   0.0000000   0.0000000
 NMagM=    2.7928460   2.7928460   0.0000000   2.7928460   2.7928460   0.0000000   2.7928460   2.7928460   0.0000000   2.7928460
 AtZNuc=   1.0000000   1.0000000   8.0000000   1.0000000   1.0000000   8.0000000   1.0000000   1.0000000   8.0000000   1.0000000

  Atom       301         302         303         304         305         306         307         308         309         310
 IAtWgt=           1          16           1           1          16           1           1          16           1           1
 AtmWgt=   1.0078250  15.9949146   1.0078250   1.0078250  15.9949146   1.0078250   1.0078250  15.9949146   1.0078250   1.0078250
 NucSpn=           1           0           1           1           0           1           1           0           1           1
 AtZEff=   0.0000000   0.0000000   0.0000000   0.0000000   0.0000000   0.0000000   0.0000000   0.0000000   0.0000000   0.0000000
 NQMom=    0.0000000   0.0000000   0.0000000   0.0000000   0.0000000   0.0000000   0.0000000   0.0000000   0.0000000   0.0000000
 NMagM=    2.7928460   0.0000000   2.7928460   2.7928460   0.0000000   2.7928460   2.7928460   0.0000000   2.7928460   2.7928460
 AtZNuc=   1.0000000   8.0000000   1.0000000   1.0000000   8.0000000   1.0000000   1.0000000   8.0000000   1.0000000   1.0000000

  Atom       311         312         313         314         315         316         317         318         319         320
 IAtWgt=          16           1           1          16           1           1          16           1           1          16
 AtmWgt=  15.9949146   1.0078250   1.0078250  15.9949146   1.0078250   1.0078250  15.9949146   1.0078250   1.0078250  15.9949146
 NucSpn=           0           1           1           0           1           1           0           1           1           0
 AtZEff=   0.0000000   0.0000000   0.0000000   0.0000000   0.0000000   0.0000000   0.0000000   0.0000000   0.0000000   0.0000000
 NQMom=    0.0000000   0.0000000   0.0000000   0.0000000   0.0000000   0.0000000   0.0000000   0.0000000   0.0000000   0.0000000
 NMagM=    0.0000000   2.7928460   2.7928460   0.0000000   2.7928460   2.7928460   0.0000000   2.7928460   2.7928460   0.0000000
 AtZNuc=   8.0000000   1.0000000   1.0000000   8.0000000   1.0000000   1.0000000   8.0000000   1.0000000   1.0000000   8.0000000

  Atom       321         322         323         324         325         326         327         328         329         330
 IAtWgt=           1           1          16           1           1          16           1           1          16           1
 AtmWgt=   1.0078250   1.0078250  15.9949146   1.0078250   1.0078250  15.9949146   1.0078250   1.0078250  15.9949146   1.0078250
 NucSpn=           1           1           0           1           1           0           1           1           0           1
 AtZEff=   0.0000000   0.0000000   0.0000000   0.0000000   0.0000000   0.0000000   0.0000000   0.0000000   0.0000000   0.0000000
 NQMom=    0.0000000   0.0000000   0.0000000   0.0000000   0.0000000   0.0000000   0.0000000   0.0000000   0.0000000   0.0000000
 NMagM=    2.7928460   2.7928460   0.0000000   2.7928460   2.7928460   0.0000000   2.7928460   2.7928460   0.0000000   2.7928460
 AtZNuc=   1.0000000   1.0000000   8.0000000   1.0000000   1.0000000   8.0000000   1.0000000   1.0000000   8.0000000   1.0000000

  Atom       331         332         333         334         335         336         337         338         339         340
 IAtWgt=           1          16           1           1          16           1           1          16           1           1
 AtmWgt=   1.0078250  15.9949146   1.0078250   1.0078250  15.9949146   1.0078250   1.0078250  15.9949146   1.0078250   1.0078250
 NucSpn=           1           0           1           1           0           1           1           0           1           1
 AtZEff=   0.0000000   0.0000000   0.0000000   0.0000000   0.0000000   0.0000000   0.0000000   0.0000000   0.0000000   0.0000000
 NQMom=    0.0000000   0.0000000   0.0000000   0.0000000   0.0000000   0.0000000   0.0000000   0.0000000   0.0000000   0.0000000
 NMagM=    2.7928460   0.0000000   2.7928460   2.7928460   0.0000000   2.7928460   2.7928460   0.0000000   2.7928460   2.7928460
 AtZNuc=   1.0000000   8.0000000   1.0000000   1.0000000   8.0000000   1.0000000   1.0000000   8.0000000   1.0000000   1.0000000

  Atom       341         342         343         344         345         346         347         348         349         350
 IAtWgt=          16           1           1          16           1           1          16           1           1          16
 AtmWgt=  15.9949146   1.0078250   1.0078250  15.9949146   1.0078250   1.0078250  15.9949146   1.0078250   1.0078250  15.9949146
 NucSpn=           0           1           1           0           1           1           0           1           1           0
 AtZEff=   0.0000000   0.0000000   0.0000000   0.0000000   0.0000000   0.0000000   0.0000000   0.0000000   0.0000000   0.0000000
 NQMom=    0.0000000   0.0000000   0.0000000   0.0000000   0.0000000   0.0000000   0.0000000   0.0000000   0.0000000   0.0000000
 NMagM=    0.0000000   2.7928460   2.7928460   0.0000000   2.7928460   2.7928460   0.0000000   2.7928460   2.7928460   0.0000000
 AtZNuc=   8.0000000   1.0000000   1.0000000   8.0000000   1.0000000   1.0000000   8.0000000   1.0000000   1.0000000   8.0000000

  Atom       351         352         353         354         355         356         357         358         359         360
 IAtWgt=           1           1          16           1           1          16           1           1          16           1
 AtmWgt=   1.0078250   1.0078250  15.9949146   1.0078250   1.0078250  15.9949146   1.0078250   1.0078250  15.9949146   1.0078250
 NucSpn=           1           1           0           1           1           0           1           1           0           1
 AtZEff=   0.0000000   0.0000000   0.0000000   0.0000000   0.0000000   0.0000000   0.0000000   0.0000000   0.0000000   0.0000000
 NQMom=    0.0000000   0.0000000   0.0000000   0.0000000   0.0000000   0.0000000   0.0000000   0.0000000   0.0000000   0.0000000
 NMagM=    2.7928460   2.7928460   0.0000000   2.7928460   2.7928460   0.0000000   2.7928460   2.7928460   0.0000000   2.7928460
 AtZNuc=   1.0000000   1.0000000   8.0000000   1.0000000   1.0000000   8.0000000   1.0000000   1.0000000   8.0000000   1.0000000

  Atom       361         362         363         364         365         366         367         368         369         370
 IAtWgt=           1          16           1           1          16           1           1          16           1           1
 AtmWgt=   1.0078250  15.9949146   1.0078250   1.0078250  15.9949146   1.0078250   1.0078250  15.9949146   1.0078250   1.0078250
 NucSpn=           1           0           1           1           0           1           1           0           1           1
 AtZEff=   0.0000000   0.0000000   0.0000000   0.0000000   0.0000000   0.0000000   0.0000000   0.0000000   0.0000000   0.0000000
 NQMom=    0.0000000   0.0000000   0.0000000   0.0000000   0.0000000   0.0000000   0.0000000   0.0000000   0.0000000   0.0000000
 NMagM=    2.7928460   0.0000000   2.7928460   2.7928460   0.0000000   2.7928460   2.7928460   0.0000000   2.7928460   2.7928460
 AtZNuc=   1.0000000   8.0000000   1.0000000   1.0000000   8.0000000   1.0000000   1.0000000   8.0000000   1.0000000   1.0000000

  Atom       371         372         373         374         375         376         377         378         379         380
 IAtWgt=          16           1           1          16           1           1          16           1           1          16
 AtmWgt=  15.9949146   1.0078250   1.0078250  15.9949146   1.0078250   1.0078250  15.9949146   1.0078250   1.0078250  15.9949146
 NucSpn=           0           1           1           0           1           1           0           1           1           0
 AtZEff=   0.0000000   0.0000000   0.0000000   0.0000000   0.0000000   0.0000000   0.0000000   0.0000000   0.0000000   0.0000000
 NQMom=    0.0000000   0.0000000   0.0000000   0.0000000   0.0000000   0.0000000   0.0000000   0.0000000   0.0000000   0.0000000
 NMagM=    0.0000000   2.7928460   2.7928460   0.0000000   2.7928460   2.7928460   0.0000000   2.7928460   2.7928460   0.0000000
 AtZNuc=   8.0000000   1.0000000   1.0000000   8.0000000   1.0000000   1.0000000   8.0000000   1.0000000   1.0000000   8.0000000

  Atom       381         382         383         384         385
 IAtWgt=           1           1          16           1           1
 AtmWgt=   1.0078250   1.0078250  15.9949146   1.0078250   1.0078250
 NucSpn=           1           1           0           1           1
 AtZEff=   0.0000000   0.0000000   0.0000000   0.0000000   0.0000000
 NQMom=    0.0000000   0.0000000   0.0000000   0.0000000   0.0000000
 NMagM=    2.7928460   2.7928460   0.0000000   2.7928460   2.7928460
 AtZNuc=   1.0000000   1.0000000   8.0000000   1.0000000   1.0000000
 Leave Link  101 at Sat Mar 10 16:37:19 2018, MaxMem= 14763950080 cpu:         9.4
 (Enter /cm/shared/gaussian/g09.e01/intel64-sandybridge/g09/l103.exe)

 GradGradGradGradGradGradGradGradGradGradGradGradGradGradGradGradGradGrad
 Berny optimization.
 Initialization pass.
 Trust Radius=3.00D-01 FncErr=1.00D-07 GrdErr=1.00D-07
 Number of steps in this run=      2 maximum allowed number of steps=      2.
 GradGradGradGradGradGradGradGradGradGradGradGradGradGradGradGradGradGrad

 Leave Link  103 at Sat Mar 10 16:37:19 2018, MaxMem= 14763950080 cpu:         1.3
 (Enter /cm/shared/gaussian/g09.e01/intel64-sandybridge/g09/l202.exe)
 Stoichiometry    ClH256O128(1-)
 Framework group  C1[X(ClH256O128)]
 Deg. of freedom  1149
 Full point group                 C1      NOp   1
 Largest Abelian subgroup         C1      NOp   1
 Largest concise Abelian subgroup C1      NOp   1
                         Standard orientation:                         
 ---------------------------------------------------------------------
 Center     Atomic      Atomic             Coordinates (Angstroms)
 Number     Number       Type             X           Y           Z
 ---------------------------------------------------------------------
      1         17           0        0.112382   -0.439750    0.362444
      2          8           0       -0.890413   -0.941593    3.025029
      3          1           0       -0.154050   -0.966951    3.626135
      4          1           0       -0.516762   -0.694016    2.179812
      5          8           0        1.050126   -3.126689    0.984375
      6          1           0        0.693347   -2.245431    0.906961
      7          1           0        0.604364   -3.494636    1.750150
      8          8           0        2.796875   -0.847830   -0.705765
      9          1           0        2.906830   -1.674948   -0.229543
     10          1           0        1.961879   -0.500441   -0.386073
     11          8           0       -0.187134    0.440502   -2.572525
     12          1           0       -0.227509    0.259798   -1.632676
     13          1           0       -0.574240   -0.331312   -2.980143
     14          8           0       -2.765013   -1.343981    0.658691
     15          1           0       -1.935151   -1.078798    0.273975
     16          1           0       -2.742951   -1.010357    1.553067
     17          8           0       -1.735313    2.089726    0.472766
     18          1           0       -2.423330    1.960518   -0.187263
     19          1           0       -1.362907    1.221401    0.596963
     20          8           0        1.485017    2.332040    1.270988
     21          1           0        0.866584    1.689328    0.930604
     22          1           0        1.013737    2.772927    1.979870
     23          8           0       -0.732494   -3.861531   -1.145501
     24          1           0       -0.110006   -3.408323   -0.574527
     25          1           0       -0.273635   -4.669081   -1.398309
     26          8           0       -3.119034    0.959632   -1.533600
     27          1           0       -2.669751    0.169899   -1.822335
     28          1           0       -3.503054    1.321769   -2.345502
     29          8           0       -2.250954   -1.444527   -2.180716
     30          1           0       -2.045857   -2.319884   -1.851195
     31          1           0       -2.659190   -1.600461   -3.031556
     32          8           0       -0.606205    3.251516   -1.826617
     33          1           0       -0.826147    2.977850   -0.937892
     34          1           0       -0.666483    2.445606   -2.338257
     35          8           0       -3.025437    0.759430    3.090550
     36          1           0       -3.031489    1.581487    3.574994
     37          1           0       -2.189469    0.346822    3.314408
     38          8           0        3.807195    0.713560    1.945237
     39          1           0        3.175866    1.425400    1.837499
     40          1           0        3.342636    0.058828    2.465247
     41          8           0        4.102930   -2.523836    1.232282
     42          1           0        3.186241   -2.595541    1.513424
     43          1           0        4.526410   -2.030118    1.937624
     44          8           0       -0.378869    3.299634    2.821017
     45          1           0       -0.851669    3.174827    1.991690
     46          1           0       -1.066881    3.458316    3.464414
     47          8           0        3.248338   -1.338008   -3.373799
     48          1           0        3.030904   -0.985730   -2.509321
     49          1           0        2.915248   -2.235688   -3.362800
     50          8           0        2.344118    4.008694   -0.715008
     51          1           0        2.206075    3.182118   -0.258699
     52          1           0        2.553961    4.640117   -0.031948
     53          8           0        5.085209    0.407577   -0.526110
     54          1           0        5.023106    0.564830    0.417349
     55          1           0        4.389537   -0.218960   -0.712635
     56          8           0        0.451918   -3.666125   -3.888781
     57          1           0        0.205650   -2.962782   -3.293416
     58          1           0        1.288347   -3.995085   -3.542847
     59          8           0       -3.197090   -4.710185    0.504484
     60          1           0       -2.650002   -3.956090    0.265038
     61          1           0       -3.234879   -5.235158   -0.299678
     62          8           0       -5.327294   -0.766980    0.194376
     63          1           0       -5.511097   -0.255420    0.975799
     64          1           0       -4.371847   -0.761426    0.106681
     65          8           0        2.849369   -5.115098    0.261846
     66          1           0        2.189201   -4.457623    0.471618
     67          1           0        3.000770   -5.588077    1.075214
     68          8           0        3.070727   -1.220702    4.049124
     69          1           0        2.419248   -0.672243    4.489201
     70          1           0        2.828939   -2.106676    4.289311
     71          8           0        1.019493    0.327740    5.191213
     72          1           0        1.128825    1.275936    5.281608
     73          1           0        0.655761    0.048536    6.037585
     74          8           0       -4.795273    2.556653    1.528286
     75          1           0       -4.100104    1.914334    1.606169
     76          1           0       -4.709472    2.898921    0.639753
     77          8           0        2.448262   -4.138449   -2.364439
     78          1           0        2.276840   -4.534322   -1.515852
     79          1           0        3.283536   -4.513078   -2.653179
     80          8           0       -2.858077   -4.604120   -2.620003
     81          1           0       -1.987273   -4.400848   -2.280916
     82          1           0       -2.755044   -4.574910   -3.570967
     83          8           0        0.426942    0.417994   -5.605858
     84          1           0        1.304664    0.120491   -5.878797
     85          1           0        0.566453    0.784540   -4.732027
     86          8           0        0.211003   -4.999223    3.062737
     87          1           0       -0.725882   -5.150920    3.231659
     88          1           0        0.608212   -4.940719    3.937781
     89          8           0        2.146322    3.412045   -4.359427
     90          1           0        2.971197    2.977466   -4.555443
     91          1           0        1.889011    3.068333   -3.509395
     92          8           0       -2.100274   -1.116114   -4.871969
     93          1           0       -1.171207   -1.010147   -5.100453
     94          1           0       -2.517395   -0.350514   -5.260643
     95          8           0        5.576308   -3.800676   -0.670409
     96          1           0        5.814389   -3.154798   -0.007191
     97          1           0        4.617263   -3.849620   -0.614406
     98          8           0       -2.939614    4.038956   -2.996292
     99          1           0       -2.048322    3.986369   -2.653170
    100          1           0       -2.839756    4.181452   -3.934761
    101          8           0        4.929661    1.087712   -3.250779
    102          1           0        5.054540    0.996898   -2.307615
    103          1           0        4.425671    0.307026   -3.503608
    104          8           0       -2.698051   -5.374384    3.139934
    105          1           0       -2.775227   -5.167004    2.208464
    106          1           0       -3.441719   -4.928830    3.545199
    107          8           0       -1.190439   -3.812148    6.045691
    108          1           0       -1.226652   -3.104193    5.396085
    109          1           0       -1.937249   -3.642877    6.618161
    110          8           0        5.673927   -1.511992    3.413987
    111          1           0        6.234236   -0.726825    3.392394
    112          1           0        4.869770   -1.216885    3.855398
    113          8           0       -5.142479   -0.184265    4.954248
    114          1           0       -4.882738   -1.059122    5.261103
    115          1           0       -4.554387   -0.004555    4.218618
    116          8           0        0.506120   -6.147701   -1.743800
    117          1           0        1.049767   -6.908816   -1.539711
    118          1           0        0.170949   -6.316650   -2.626136
    119          8           0       -1.849741    2.359042    5.541077
    120          1           0       -2.130004    3.235885    5.811262
    121          1           0       -1.531948    1.953454    6.337949
    122          8           0       -4.711654    3.627013   -1.136191
    123          1           0       -5.318965    4.350967   -1.291640
    124          1           0       -4.061071    3.701398   -1.829378
    125          8           0        1.552670    5.250593    4.158820
    126          1           0        0.791628    4.823358    3.757340
    127          1           0        1.464664    5.045281    5.093593
    128          8           0       -5.840491   -3.685783    1.213306
    129          1           0       -4.981393   -4.088587    1.074026
    130          1           0       -6.454919   -4.285485    0.804117
    131          8           0       -6.476447    1.541498   -0.923512
    132          1           0       -5.944301    0.758791   -1.038800
    133          1           0       -5.854656    2.270699   -1.014299
    134          8           0       -4.096843    0.995315   -4.194486
    135          1           0       -4.274563    1.880387   -4.493086
    136          1           0       -4.883864    0.500696   -4.399791
    137          8           0        1.782636    6.102192   -2.463551
    138          1           0        1.745322    5.323604   -1.904526
    139          1           0        0.866721    6.340769   -2.610456
    140          8           0        2.031268   -3.368768    5.757556
    141          1           0        1.259327   -3.806335    6.119277
    142          1           0        2.730203   -4.013866    5.813574
    143          8           0        2.657723   -0.896291   -6.120226
    144          1           0        3.272250   -0.882092   -6.853134
    145          1           0        3.207383   -0.938834   -5.338712
    146          8           0        2.765839   -6.640127    2.942967
    147          1           0        1.903225   -6.259353    2.768874
    148          1           0        2.582739   -7.555618    3.169572
    149          8           0        3.112269    5.563518    1.757918
    150          1           0        2.704954    6.427687    1.646532
    151          1           0        2.764331    5.251079    2.597514
    152          8           0       -5.492392   -3.589864   -2.873322
    153          1           0       -4.835104   -4.093125   -2.385161
    154          1           0       -4.979775   -3.140987   -3.555547
    155          8           0        3.896712    1.259850    5.746626
    156          1           0        4.487897    0.512343    5.655326
    157          1           0        3.339070    1.036167    6.488516
    158          8           0       -1.438308   -4.962904   -5.416954
    159          1           0       -0.715739   -4.418229   -5.105628
    160          1           0       -1.071587   -5.462429   -6.140963
    161          8           0       -2.603788    6.563361   -0.044191
    162          1           0       -2.462940    5.796639   -0.603922
    163          1           0       -3.505821    6.480919    0.249987
    164          8           0       -7.126510   -2.419882   -1.131081
    165          1           0       -6.594181   -3.002814   -1.665045
    166          1           0       -6.490200   -1.895694   -0.639923
    167          8           0       -4.737413   -3.880828    4.062372
    168          1           0       -5.213862   -3.667385    3.262598
    169          1           0       -5.415177   -4.162652    4.676629
    170          8           0        3.103062   -3.766409   -5.939411
    171          1           0        2.596735   -4.110097   -6.673517
    172          1           0        2.511657   -3.145650   -5.507325
    173          8           0       -0.885189   -7.996772    0.437711
    174          1           0       -0.810986   -8.647080   -0.258057
    175          1           0       -0.183670   -7.369414    0.250117
    176          8           0       -0.578836   -0.774271    7.269558
    177          1           0       -0.920892   -1.624585    7.529104
    178          1           0       -0.931559   -0.171406    7.932535
    179          8           0        4.275701    3.768157    4.509791
    180          1           0        3.395508    4.159257    4.509723
    181          1           0        4.156422    2.914257    4.922497
    182          8           0        5.160710    4.038588   -2.959494
    183          1           0        5.263311    3.100263   -2.781398
    184          1           0        4.415629    4.295867   -2.416206
    185          8           0        3.026065   -1.236464    7.638157
    186          1           0        2.816737   -1.611324    6.789946
    187          1           0        3.942776   -1.483731    7.800024
    188          8           0        1.253853    3.330954    6.281341
    189          1           0        0.651863    4.018890    6.565862
    190          1           0        1.983099    3.389303    6.898022
    191          8           0       -4.280065   -2.743471   -5.173165
    192          1           0       -3.414388   -2.463891   -5.471221
    193          1           0       -4.530933   -3.423231   -5.788545
    194          8           0       -5.577487    3.059276    4.087468
    195          1           0       -5.487073    3.008436    3.130786
    196          1           0       -5.717241    2.152623    4.357002
    197          8           0       -7.350895   -1.145673    2.441403
    198          1           0       -7.993895   -0.874923    1.784025
    199          1           0       -6.786867   -1.776147    1.978396
    200          8           0        6.161870   -4.131429    4.205985
    201          1           0        6.789734   -4.454369    3.563960
    202          1           0        5.754390   -3.370218    3.787516
    203          8           0        7.996493    0.821129   -1.302965
    204          1           0        7.193819    0.841913   -0.766977
    205          1           0        7.756162    0.306707   -2.070175
    206          8           0       -3.440785   -7.738682   -0.158708
    207          1           0       -2.681373   -7.221039    0.134957
    208          1           0       -3.237455   -8.629019    0.122105
    209          8           0        6.310794   -3.159199   -3.698798
    210          1           0        6.205061   -3.300086   -2.752399
    211          1           0        6.939366   -3.828729   -3.967360
    212          8           0       -1.913443   -7.992893    3.054499
    213          1           0       -1.482950   -8.198314    2.217195
    214          1           0       -2.335589   -7.150347    2.911292
    215          8           0        5.108049    5.917015    0.012380
    216          1           0        4.866609    6.830025   -0.099514
    217          1           0        4.633327    5.635261    0.789653
    218          8           0        4.041354   -5.468434    5.112920
    219          1           0        3.692771   -5.946758    4.359066
    220          1           0        4.832170   -5.039262    4.792105
    221          8           0       -0.264351   -0.362487   -8.141102
    222          1           0       -0.119345    0.089289   -7.318319
    223          1           0       -0.587985   -1.226316   -7.890385
    224          8           0       -2.591539   -6.188875    6.069893
    225          1           0       -1.997403   -5.442150    5.917235
    226          1           0       -3.280826   -6.084430    5.411962
    227          8           0        6.726726    2.203551    4.600263
    228          1           0        6.123979    2.034579    5.322858
    229          1           0        6.219574    2.723790    3.980305
    230          8           0        1.237042    4.385446   -6.693222
    231          1           0        1.202615    3.620060   -7.269589
    232          1           0        1.538699    4.026903   -5.854800
    233          8           0        5.008864    1.649775   -6.029773
    234          1           0        5.317885    1.331842   -5.181525
    235          1           0        5.419312    1.072250   -6.667737
    236          8           0        1.433489   -7.016567   -4.322901
    237          1           0        2.159740   -6.407143   -4.261564
    238          1           0        1.710290   -7.771174   -3.813441
    239          8           0       -2.328464    4.165163   -5.481924
    240          1           0       -2.303068    3.585774   -6.240847
    241          1           0       -1.726972    4.873970   -5.697098
    242          8           0       -1.766090   -2.627077   -7.558512
    243          1           0       -1.479170   -3.145368   -6.812086
    244          1           0       -1.771559   -3.240641   -8.295539
    245          8           0        1.923763   -8.246913   -0.318144
    246          1           0        2.138280   -9.164518   -0.187435
    247          1           0        2.771425   -7.805072   -0.347227
    248          8           0        4.480377   -5.397382   -4.159459
    249          1           0        5.338929   -4.963498   -4.153640
    250          1           0        3.981377   -4.923750   -4.826970
    251          8           0        7.862037    0.111477    3.104270
    252          1           0        7.379688    0.765976    3.610304
    253          1           0        8.778620    0.391907    3.171602
    254          8           0        7.580419   -0.767177   -3.646971
    255          1           0        7.057064   -1.560447   -3.558529
    256          1           0        8.488406   -1.070414   -3.644137
    257          8           0        3.606981    5.693396   -4.736271
    258          1           0        2.716609    5.358723   -4.609256
    259          1           0        4.118082    5.281265   -4.047051
    260          8           0       -4.780383    5.914045    3.985378
    261          1           0       -5.689256    6.126083    4.176920
    262          1           0       -4.768287    4.955322    3.949248
    263          8           0       -6.307183   -0.826722   -5.235389
    264          1           0       -7.118815   -1.294837   -5.022972
    265          1           0       -5.634144   -1.517844   -5.264877
    266          8           0        1.512644    7.569617    1.250310
    267          1           0        0.858783    7.696768    0.563580
    268          1           0        1.115438    7.948130    2.039332
    269          8           0        5.709983   -0.805427    6.348858
    270          1           0        6.499909   -0.318327    6.583060
    271          1           0        5.744420   -1.606889    6.877414
    272          8           0       -5.462193   -7.391163    1.955231
    273          1           0       -4.657701   -7.074925    1.541363
    274          1           0       -5.517548   -8.303309    1.695760
    275          8           0       -2.839958    7.615565    2.744983
    276          1           0       -3.611389    7.118019    3.018372
    277          1           0       -2.578557    7.231076    1.919611
    278          8           0       -0.293112    8.004679   -0.680096
    279          1           0       -0.486020    7.872076   -1.615726
    280          1           0       -1.123762    7.826713   -0.238000
    281          8           0        7.806833   -4.671425    1.612628
    282          1           0        7.961598   -5.594181    1.422707
    283          1           0        7.552806   -4.288274    0.779282
    284          8           0        6.175132   -7.317949    0.991127
    285          1           0        5.565983   -6.850059    0.419711
    286          1           0        6.632971   -7.916655    0.405178
    287          8           0        9.170088   -0.554641    0.816501
    288          1           0        8.932900   -0.089098    0.016743
    289          1           0        8.493900   -0.307218    1.450655
    290          8           0        7.874124   -5.299922   -1.803724
    291          1           0        6.996402   -5.002420   -1.530785
    292          1           0        8.472545   -4.626315   -1.484434
    293          8           0        5.794670   -1.294345   -6.123924
    294          1           0        6.304714   -1.513492   -5.335933
    295          1           0        5.391743   -2.119381   -6.381152
    296          8           0       -8.043206    4.089918   -0.369326
    297          1           0       -7.460478    3.329800   -0.300409
    298          1           0       -8.388050    4.197388    0.513472
    299          8           0       -4.334434   -7.843169   -2.791857
    300          1           0       -4.154242   -7.414476   -1.950933
    301          1           0       -5.245445   -7.629870   -2.980439
    302          8           0       -8.105007   -2.118566   -3.871583
    303          1           0       -8.781434   -2.769740   -3.685788
    304          1           0       -7.451146   -2.245718   -3.184853
    305          8           0       -3.194467   -3.039216    7.884454
    306          1           0       -4.074966   -3.411016    7.862391
    307          1           0       -2.877213   -3.233271    8.764109
    308          8           0       -1.323912    2.059719    8.500639
    309          1           0       -0.761688    2.805767    8.690152
    310          1           0       -2.007157    2.087736    9.161465
    311          8           0       -5.221860    6.351501    0.707218
    312          1           0       -5.640240    7.191268    0.542146
    313          1           0       -5.833375    5.883045    1.269711
    314          8           0        7.573602    4.958257   -0.488450
    315          1           0        6.776081    5.078079    0.031264
    316          1           0        8.196961    4.553037    0.118609
    317          8           0       -6.783124    3.907319   -3.723823
    318          1           0       -7.655451    4.111635   -3.364935
    319          1           0       -6.179853    4.382732   -3.158981
    320          8           0       -4.166728    2.061456   -7.387941
    321          1           0       -5.081477    2.275104   -7.188469
    322          1           0       -4.072001    1.142498   -7.131341
    323          8           0       -9.091580    0.900962   -2.239185
    324          1           0       -9.363917    0.612878   -3.113851
    325          1           0       -8.167273    0.661566   -2.186773
    326          8           0        3.354139    8.202179   -2.784533
    327          1           0        3.977164    7.917948   -3.450605
    328          1           0        2.841785    7.419881   -2.576681
    329          8           0        8.761389   -2.905266   -0.560389
    330          1           0        9.674268   -3.074295   -0.820736
    331          1           0        8.807010   -2.088619   -0.061784
    332          8           0       -0.343118    5.414581    7.008310
    333          1           0       -1.249618    5.205481    7.249216
    334          1           0       -0.265337    6.356220    7.190146
    335          8           0        6.891517    4.055724   -5.060068
    336          1           0        6.144767    3.921883   -4.476502
    337          1           0        6.500753    4.336202   -5.885620
    338          8           0       -0.647673    7.705101   -3.328235
    339          1           0       -1.215791    8.448982   -3.534348
    340          1           0       -0.641255    7.193707   -4.140229
    341          8           0       -4.124131   -0.879367   -8.109013
    342          1           0       -4.443022   -1.466003   -8.793679
    343          1           0       -3.273952   -1.229304   -7.849513
    344          8           0       -8.970714   -0.132610    0.455833
    345          1           0       -9.303112   -0.890494   -0.040176
    346          1           0       -8.745420    0.508037   -0.213356
    347          8           0        4.327739   -8.190359   -2.444996
    348          1           0        4.467773   -7.460071   -3.044221
    349          1           0        3.573647   -8.655132   -2.808494
    350          8           0       -4.579574    5.699498   -5.607294
    351          1           0       -3.741322    5.320420   -5.350717
    352          1           0       -4.575228    6.581505   -5.215574
    353          8           0        2.849839    7.577511    5.568255
    354          1           0        3.418358    8.101847    5.000402
    355          1           0        2.517404    6.892655    4.994356
    356          8           0        6.072797    5.579375    5.599809
    357          1           0        6.447948    4.977353    6.239443
    358          1           0        5.523755    5.026314    5.040456
    359          8           0       -0.461734    6.606139   -5.754241
    360          1           0       -0.952985    6.646404   -6.580287
    361          1           0        0.252911    5.995333   -5.933122
    362          8           0       -7.838014   -0.119558    6.411781
    363          1           0       -7.035654   -0.278088    5.916114
    364          1           0       -7.555451   -0.041896    7.324100
    365          8           0       -5.791610    5.984854   -2.275876
    366          1           0       -5.849852    6.584407   -3.020687
    367          1           0       -5.803664    6.543646   -1.502891
    368          8           0       -7.502889   -5.797858    1.204603
    369          1           0       -8.275059   -6.351812    1.324965
    370          1           0       -6.786330   -6.298657    1.597469
    371          8           0       -6.684861    4.076004    6.200591
    372          1           0       -6.261557    3.862332    5.372244
    373          1           0       -7.482513    3.554174    6.207292
    374          8           0        3.607641    9.011774    0.151824
    375          1           0        3.446364    9.056213   -0.796287
    376          1           0        2.990466    8.355132    0.458281
    377          8           0       -2.952211    4.846742    7.372036
    378          1           0       -3.202430    5.619754    6.878535
    379          1           0       -3.767935    4.552272    7.785776
    380          8           0        6.570339    6.519885   -3.137295
    381          1           0        6.190381    6.038713   -2.400677
    382          1           0        7.069971    5.874368   -3.632348
    383          8           0       -9.835284   -2.454414   -0.545888
    384          1           0       -8.926230   -2.317552   -0.795466
    385          1           0      -10.252751   -2.844354   -1.318266
 ---------------------------------------------------------------------
 Rotational constants (GHZ):      0.0061260      0.0058078      0.0053929
 Leave Link  202 at Sat Mar 10 16:37:19 2018, MaxMem= 14763950080 cpu:         0.3
 (Enter /cm/shared/gaussian/g09.e01/intel64-sandybridge/g09/l122.exe)
 Counterpoise: doing full dimer calculation.
 Leave Link  122 at Sat Mar 10 16:37:19 2018, MaxMem= 14763950080 cpu:         0.0
 (Enter /cm/shared/gaussian/g09.e01/intel64-sandybridge/g09/l301.exe)
 Standard basis: CC-pVDZ (5D, 7F)
 Ernie: Thresh=  0.10000D-02 Tol=  0.10000D-05 Strict=F.
 Ernie:  266 primitive shells out of 4146 were deleted.
 There are  3219 symmetry adapted cartesian basis functions of A   symmetry.
 There are  3090 symmetry adapted basis functions of A   symmetry.
  3090 basis functions,  6087 primitive gaussians,  3219 cartesian basis functions
   649 alpha electrons      649 beta electrons
       nuclear repulsion energy     53727.9491852165 Hartrees.
 IExCor= 1009 DFT=T Ex+Corr=PBE1PBE ExCW=0 ScaHFX=  0.250000
 ScaDFX=  0.750000  0.750000  1.000000  1.000000 ScalE2=  1.000000  1.000000
 IRadAn=      0 IRanWt=     -1 IRanGd=            0 ICorTp=0 IEmpDi=  4
 NAtoms=  385 NActive=  385 NUniq=  385 SFac= 1.00D+00 NAtFMM=   60 NAOKFM=T Big=T
 Integral buffers will be    131072 words long.
 Raffenetti 2 integral format.
 Two-electron integral symmetry is turned on.
 Leave Link  301 at Sat Mar 10 16:37:19 2018, MaxMem= 14763950080 cpu:         1.8
 (Enter /cm/shared/gaussian/g09.e01/intel64-sandybridge/g09/l302.exe)
 NPDir=0 NMtPBC=     1 NCelOv=     1 NCel=       1 NClECP=     1 NCelD=      1
         NCelK=      1 NCelE2=     1 NClLst=     1 CellRange=     0.0.
 One-electron integrals computed using PRISM.
 NBasis=  3090 RedAO= T EigKep=  1.27D-02  NBF=  3090
 NBsUse=  3090 1.00D-06 EigRej= -1.00D+00 NBFU=  3090
 Precomputing XC quadrature grid using
 IXCGrd= 4 IRadAn=           0 IRanWt=          -1 IRanGd=           0 AccXCQ= 0.00D+00.
 Generated NRdTot=       0 NPtTot=           0 NUsed=           0 NTot=          32
 NSgBfM=  1262  1291  1299  1304  1307 MxSgAt=   385 MxSgA2=   347.
 Leave Link  302 at Sat Mar 10 16:39:22 2018, MaxMem= 14763950080 cpu:      2924.9
 (Enter /cm/shared/gaussian/g09.e01/intel64-sandybridge/g09/l303.exe)
 DipDrv:  MaxL=1.
 Leave Link  303 at Sat Mar 10 16:39:26 2018, MaxMem= 14763950080 cpu:        95.3
 (Enter /cm/shared/gaussian/g09.e01/intel64-sandybridge/g09/l401.exe)
 ExpMin= 1.22D-01 ExpMax= 1.28D+05 ExpMxC= 1.24D+03 IAcc=2 IRadAn=         4 AccDes= 0.00D+00
 Harris functional with IExCor= 1009 and IRadAn=       4 diagonalized for initial guess.
 HarFok:  IExCor= 1009 AccDes= 0.00D+00 IRadAn=         4 IDoV= 1 UseB2=F ITyADJ=14
 ICtDFT=  3500011 ScaDFX=  1.000000  1.000000  1.000000  1.000000
 FoFCou: FMM=F IPFlag=           0 FMFlag=      100000 FMFlg1=        2001
         NFxFlg=           0 DoJE=T BraDBF=F KetDBF=T FulRan=T
         wScrn=  0.000000 ICntrl=     500 IOpCl=  0 I1Cent=   200000004 NGrid=           0
         NMat0=    1 NMatS0=      1 NMatT0=    0 NMatD0=    1 NMtDS0=    0 NMtDT0=    0
 Petite list used in FoFCou.
 Harris En= -10238.0202980206    
 JPrj=0 DoOrth=F DoCkMO=F.
 Leave Link  401 at Sat Mar 10 16:40:41 2018, MaxMem= 14763950080 cpu:      1796.0
 (Enter /cm/shared/gaussian/g09.e01/intel64-sandybridge/g09/l502.exe)
 Closed shell SCF:
 Using DIIS extrapolation, IDIIS=  1040.
 Integral symmetry usage will be decided dynamically.
 IVT=    31206407 IEndB=    31206407 NGot= 14763950080 MDV= 14743125494
 LenX= 14743125494 LenY= 14732760314
 Requested convergence on RMS density matrix=1.00D-08 within 128 cycles.
 Requested convergence on MAX density matrix=1.00D-06.
 Requested convergence on             energy=1.00D-06.
 No special actions if energy rises.
 Fock matrices will be formed incrementally for  20 cycles.
 Integral accuracy reduced to 1.0D-05 until final iterations.

 Cycle   1  Pass 0  IDiag  1:
 FoFJK:  IHMeth= 1 ICntrl=       0 DoSepK=F KAlg= 0 I1Cent=   0 FoldK=F
 IRaf= 340000000 NMat=   1 IRICut=       1 DoRegI=T DoRafI=F ISym2E= 0.
 FoFCou: FMM=T IPFlag=           0 FMFlag=      100000 FMFlg1=        2001
         NFxFlg=           0 DoJE=F BraDBF=F KetDBF=F FulRan=T
         wScrn=  0.000000 ICntrl=       0 IOpCl=  0 I1Cent=           0 NGrid=           0
         NMat0=    1 NMatS0=      1 NMatT0=    0 NMatD0=    1 NMtDS0=    0 NMtDT0=    0
 Symmetry not used in FoFCou.
 FMM levels:  10  Number of levels for PrismC:   9
 E= -10226.4222958776    
 DIIS: error= 2.31D-02 at cycle   1 NSaved=   1.
 NSaved= 1 IEnMin= 1 EnMin= -10226.4222958776     IErMin= 1 ErrMin= 2.31D-02
 ErrMax= 2.31D-02  0.00D+00 EMaxC= 1.00D-01 BMatC= 1.02D+01 BMatP= 1.02D+01
 IDIUse=3 WtCom= 7.69D-01 WtEn= 2.31D-01
 Coeff-Com:  0.100D+01
 Coeff-En:   0.100D+01
 Coeff:      0.100D+01
 Gap=     0.407 Goal=   None    Shift=    0.000
 GapD=    0.407 DampG=2.000 DampE=0.500 DampFc=1.0000 IDamp=-1.
 RMSDP=1.55D-03 MaxDP=3.30D-01              OVMax= 9.84D-01

 Cycle   2  Pass 0  IDiag  1:
 RMSU=  1.53D-03    CP:  9.63D-01
 E= -10220.3349866525     Delta-E=        6.087309225077 Rises=F Damp=F
 DIIS: error= 4.73D-02 at cycle   2 NSaved=   2.
 NSaved= 2 IEnMin= 1 EnMin= -10226.4222958776     IErMin= 1 ErrMin= 2.31D-02
 ErrMax= 4.73D-02  0.00D+00 EMaxC= 1.00D-01 BMatC= 1.69D+01 BMatP= 1.02D+01
 IDIUse=2 WtCom= 0.00D+00 WtEn= 1.00D+00
 Coeff-En:   0.635D+00 0.365D+00
 Coeff:      0.635D+00 0.365D+00
 Gap=     0.268 Goal=   None    Shift=    0.000
 RMSDP=9.21D-04 MaxDP=3.49D-01 DE= 6.09D+00 OVMax= 8.45D-01

 Cycle   3  Pass 0  IDiag  1:
 RMSU=  3.13D-04    CP:  9.81D-01  4.40D-01
 E= -10233.2672056585     Delta-E=      -12.932219006027 Rises=F Damp=F
 DIIS: error= 1.49D-02 at cycle   3 NSaved=   3.
 NSaved= 3 IEnMin= 3 EnMin= -10233.2672056585     IErMin= 3 ErrMin= 1.49D-02
 ErrMax= 1.49D-02  0.00D+00 EMaxC= 1.00D-01 BMatC= 6.61D-01 BMatP= 1.02D+01
 IDIUse=3 WtCom= 8.51D-01 WtEn= 1.49D-01
 Coeff-Com:  0.345D+00 0.200D+00 0.455D+00
 Coeff-En:   0.000D+00 0.000D+00 0.100D+01
 Coeff:      0.294D+00 0.170D+00 0.536D+00
 Gap=     0.193 Goal=   None    Shift=    0.000
 RMSDP=1.95D-04 MaxDP=1.09D-01 DE=-1.29D+01 OVMax= 1.03D-01

 Cycle   4  Pass 0  IDiag  1:
 RMSU=  1.02D-04    CP:  9.85D-01  3.50D-01  7.13D-01
 E= -10233.7231715221     Delta-E=       -0.455965863533 Rises=F Damp=F
 DIIS: error= 4.01D-03 at cycle   4 NSaved=   4.
 NSaved= 4 IEnMin= 4 EnMin= -10233.7231715221     IErMin= 4 ErrMin= 4.01D-03
 ErrMax= 4.01D-03  0.00D+00 EMaxC= 1.00D-01 BMatC= 3.32D-02 BMatP= 6.61D-01
 IDIUse=3 WtCom= 9.60D-01 WtEn= 4.01D-02
 Coeff-Com:  0.182D-01 0.156D-01 0.169D+00 0.798D+00
 Coeff-En:   0.000D+00 0.000D+00 0.000D+00 0.100D+01
 Coeff:      0.174D-01 0.149D-01 0.162D+00 0.806D+00
 Gap=     0.135 Goal=   None    Shift=    0.000
 RMSDP=4.50D-05 MaxDP=2.44D-02 DE=-4.56D-01 OVMax= 2.25D-02

 Cycle   5  Pass 0  IDiag  1:
 RMSU=  3.40D-05    CP:  9.85D-01  3.67D-01  7.44D-01  9.53D-01
