 Entering Gaussian System, Link 0=/cm/shared/gaussian/g09.e01/intel64-sandybridge/g09/g09
 Initial command:
 /cm/shared/gaussian/g09.e01/intel64-sandybridge/g09/l1.exe "/local/scratch/m.peluso/128_wat/Gau-42718.inp" -scrdir="/local/scratch/m.peluso/128_wat/"
 Entering Link 1 = /cm/shared/gaussian/g09.e01/intel64-sandybridge/g09/l1.exe PID=     42719.
  
 Copyright (c) 1988,1990,1992,1993,1995,1998,2003,2009,2015,
            Gaussian, Inc.  All Rights Reserved.
  
 This is part of the Gaussian(R) 09 program.  It is based on
 the Gaussian(R) 03 system (copyright 2003, Gaussian, Inc.),
 the Gaussian(R) 98 system (copyright 1998, Gaussian, Inc.),
 the Gaussian(R) 94 system (copyright 1995, Gaussian, Inc.),
 the Gaussian 92(TM) system (copyright 1992, Gaussian, Inc.),
 the Gaussian 90(TM) system (copyright 1990, Gaussian, Inc.),
 the Gaussian 88(TM) system (copyright 1988, Gaussian, Inc.),
 the Gaussian 86(TM) system (copyright 1986, Carnegie Mellon
 University), and the Gaussian 82(TM) system (copyright 1983,
 Carnegie Mellon University). Gaussian is a federally registered
 trademark of Gaussian, Inc.
  
 This software contains proprietary and confidential information,
 including trade secrets, belonging to Gaussian, Inc.
  
 This software is provided under written license and may be
 used, copied, transmitted, or stored only in accord with that
 written license.
  
 The following legend is applicable only to US Government
 contracts under FAR:
  
                    RESTRICTED RIGHTS LEGEND
  
 Use, reproduction and disclosure by the US Government is
 subject to restrictions as set forth in subparagraphs (a)
 and (c) of the Commercial Computer Software - Restricted
 Rights clause in FAR 52.227-19.
  
 Gaussian, Inc.
 340 Quinnipiac St., Bldg. 40, Wallingford CT 06492
  
  
 ---------------------------------------------------------------
 Warning -- This program may not be used in any manner that
 competes with the business of Gaussian, Inc. or will provide
 assistance to any competitor of Gaussian, Inc.  The licensee
 of this program is prohibited from giving any competitor of
 Gaussian, Inc. access to this program.  By using this program,
 the user acknowledges that Gaussian, Inc. is engaged in the
 business of creating and licensing software in the field of
 computational chemistry and represents and warrants to the
 licensee that it is not a competitor of Gaussian, Inc. and that
 it will not use this program in any manner prohibited above.
 ---------------------------------------------------------------
  

 Cite this work as:
 Gaussian 09, Revision E.01,
 M. J. Frisch, G. W. Trucks, H. B. Schlegel, G. E. Scuseria, 
 M. A. Robb, J. R. Cheeseman, G. Scalmani, V. Barone, B. Mennucci, 
 G. A. Petersson, H. Nakatsuji, M. Caricato, X. Li, H. P. Hratchian, 
 A. F. Izmaylov, J. Bloino, G. Zheng, J. L. Sonnenberg, M. Hada, 
 M. Ehara, K. Toyota, R. Fukuda, J. Hasegawa, M. Ishida, T. Nakajima, 
 Y. Honda, O. Kitao, H. Nakai, T. Vreven, J. A. Montgomery, Jr., 
 J. E. Peralta, F. Ogliaro, M. Bearpark, J. J. Heyd, E. Brothers, 
 K. N. Kudin, V. N. Staroverov, T. Keith, R. Kobayashi, J. Normand, 
 K. Raghavachari, A. Rendell, J. C. Burant, S. S. Iyengar, J. Tomasi, 
 M. Cossi, N. Rega, J. M. Millam, M. Klene, J. E. Knox, J. B. Cross, 
 V. Bakken, C. Adamo, J. Jaramillo, R. Gomperts, R. E. Stratmann, 
 O. Yazyev, A. J. Austin, R. Cammi, C. Pomelli, J. W. Ochterski, 
 R. L. Martin, K. Morokuma, V. G. Zakrzewski, G. A. Voth, 
 P. Salvador, J. J. Dannenberg, S. Dapprich, A. D. Daniels, 
 O. Farkas, J. B. Foresman, J. V. Ortiz, J. Cioslowski, 
 and D. J. Fox, Gaussian, Inc., Wallingford CT, 2013.
 
 ******************************************
 Gaussian 09:  ES64L-G09RevE.01 30-Nov-2015
                 5-May-2018 
 ******************************************
 %Mem=110GB
 %NProcShared=64
 Will use up to   64 processors via shared memory.
 %chk=snap117.chk
 ----------------------------------------------
 #p PBE1PBE/cc-pvDZ force Counterpoise=2 noSymm
 ----------------------------------------------
 1/10=7,30=1,38=1,62=2/1,3;
 2/12=2,15=1,17=6,18=5,40=1/2;
 1/10=7,30=1,38=1,53=2,62=2,63=101/22;
 3/5=16,11=2,16=1,25=1,30=1,71=1,74=-13/1,2,3;
 4//1;
 5/5=2,38=5/2;
 6/7=2,8=2,9=2,10=2,28=1/1;
 7/7=1,29=1,30=1,33=-1/1,2,3,16;
 1/10=7,30=1,53=2,62=2,63=101/22;
 3/5=7,6=11,11=2,16=1,25=1,30=1,71=1,74=-13,82=7/1,2,3;
 4//1;
 5/5=2,38=5/2;
 6/7=2,8=2,9=2,10=2,28=1/1;
 7/7=1,29=1,30=1,33=-1/1,2,3,16;
 1/10=7,30=1,53=2,62=2,63=101/22(-5);
 7/9=1,29=1,44=-1/16;
 1/10=7,30=1,62=2/3;
 99//99;
 Leave Link    1 at Sat May  5 21:58:20 2018, MaxMem= 14763950080 cpu:         5.3
 (Enter /cm/shared/gaussian/g09.e01/intel64-sandybridge/g09/l101.exe)
 ---------------------------------------
 forces on chloride comput - NWATER: 128
 ---------------------------------------
 Symbolic Z-matrix:
 Charge = -1 Multiplicity = 1 in supermolecule
 Charge = -1 Multiplicity = 1 in fragment      1.
 Charge =  0 Multiplicity = 1 in fragment      2.
 Br(Fragment=1)        20.       20.       20. 
 O(Fragment=2)         22.09     19.98     17.66 
 H(Fragment=2)         21.44     19.74     18.32 
 H(Fragment=2)         21.66     19.8      16.82 
 O(Fragment=2)         18.43     21.73     17.75 
 H(Fragment=2)         18.96     21.11     18.24 
 H(Fragment=2)         17.52     21.44     17.88 
 O(Fragment=2)         16.9      20.34     21.01 
 H(Fragment=2)         16.9      19.77     21.78 
 H(Fragment=2)         17.78     20.26     20.65 
 O(Fragment=2)         18.24     17.32     21.06 
 H(Fragment=2)         18.13     16.56     20.49 
 H(Fragment=2)         18.69     17.96     20.52 
 O(Fragment=2)         19.86     20.21     23.35 
 H(Fragment=2)         20.01     19.86     22.48 
 H(Fragment=2)         20.65     20.71     23.55 
 O(Fragment=2)         18.92     23.13     20.74 
 H(Fragment=2)         19.52     22.38     20.69 
 H(Fragment=2)         18.06     22.76     20.57 
 O(Fragment=2)         22.5      22.53     19.49 
 H(Fragment=2)         21.89     22.94     18.88 
 H(Fragment=2)         22.06     21.71     19.74 
 O(Fragment=2)         23.49     19.56     19.97 
 H(Fragment=2)         23.33     19.77     19.05 
 H(Fragment=2)         22.61     19.43     20.34 
 O(Fragment=2)         18.44     17.34     18.02 
 H(Fragment=2)         17.85     17.6      17.3 
 H(Fragment=2)         18.73     18.18     18.39 
 O(Fragment=2)         15.99     20.79     18.46 
 H(Fragment=2)         16.05     20.51     19.37 
 H(Fragment=2)         15.11     20.54     18.19 
 O(Fragment=2)         20.36     15.64     18.18 
 H(Fragment=2)         19.72     16.35     18.18 
 H(Fragment=2)         19.85     14.85     18.01 
 O(Fragment=2)         16.59     19.35     23.5 
 H(Fragment=2)         17.53     19.18     23.39 
 H(Fragment=2)         16.28     18.63     24.05 
 O(Fragment=2)         24.04     22.1      22.34 
 H(Fragment=2)         23.53     22.19     21.53 
 H(Fragment=2)         24.18     21.15     22.43 
 O(Fragment=2)         16.89     24.       18.5 
 H(Fragment=2)         17.56     23.32     18.38 
 H(Fragment=2)         17.37     24.74     18.88 
 O(Fragment=2)         18.26     21.95     24.6 
 H(Fragment=2)         18.81     21.37     24.07 
 H(Fragment=2)         17.51     21.41     24.86 
 O(Fragment=2)         21.25     24.83     21.31 
 H(Fragment=2)         21.68     24.47     22.08 
 H(Fragment=2)         20.41     24.36     21.26 
 O(Fragment=2)         22.31     15.09     20.01 
 H(Fragment=2)         21.61     15.54     19.54 
 H(Fragment=2)         23.1      15.32     19.53 
 O(Fragment=2)         19.14     24.31     23.39 
 H(Fragment=2)         18.74     23.6      23.89 
 H(Fragment=2)         19.11     24.       22.48 
 O(Fragment=2)         15.24     17.08     19.47 
 H(Fragment=2)         15.71     16.32     19.12 
 H(Fragment=2)         15.89     17.54     19.99 
 O(Fragment=2)         17.66     16.21     23.64 
 H(Fragment=2)         17.93     16.62     22.82 
 H(Fragment=2)         18.45     15.8      23.98 
 O(Fragment=2)         24.98     20.31     16.96 
 H(Fragment=2)         25.02     21.21     17.28 
 H(Fragment=2)         24.17     19.96     17.33 
 O(Fragment=2)         20.44     20.17     14.98 
 H(Fragment=2)         19.49     20.27     15.05 
 H(Fragment=2)         20.77     21.06     14.83 
 O(Fragment=2)         22.38     16.62     16.05 
 H(Fragment=2)         21.77     16.5      16.79 
 H(Fragment=2)         21.9      16.3      15.29 
 O(Fragment=2)         22.93     17.26     23.95 
 H(Fragment=2)         23.74     16.91     24.32 
 H(Fragment=2)         23.21     17.99     23.4 
 O(Fragment=2)         25.94     21.17     19.93 
 H(Fragment=2)         25.94     21.83     19.24 
 H(Fragment=2)         25.02     20.93     20.04 
 O(Fragment=2)         21.16     15.43     22.76 
 H(Fragment=2)         21.57     15.49     21.9 
 H(Fragment=2)         21.46     16.2      23.24 
 O(Fragment=2)         16.76     18.13     15.97 
 H(Fragment=2)         17.01     19.06     15.92 
 H(Fragment=2)         15.83     18.15     16.21 
 O(Fragment=2)         23.05     23.68     16.78 
 H(Fragment=2)         22.62     24.45     17.16 
 H(Fragment=2)         23.37     23.18     17.53 
 O(Fragment=2)         14.32     21.89     21.13 
 H(Fragment=2)         15.17     21.55     21.39 
 H(Fragment=2)         14.26     22.75     21.55 
 O(Fragment=2)         17.65     20.47     15.03 
 H(Fragment=2)         17.08     20.38     14.27 
 H(Fragment=2)         17.45     21.34     15.38 
 O(Fragment=2)         21.3      25.68     18.57 
 H(Fragment=2)         21.49     26.61     18.73 
 H(Fragment=2)         21.45     25.26     19.42 
 O(Fragment=2)         24.5      24.62     19.52 
 H(Fragment=2)         23.82     24.01     19.81 
 H(Fragment=2)         24.26     25.45     19.92 
 O(Fragment=2)         21.5      22.48     14.81 
 H(Fragment=2)         22.05     22.65     15.58 
 H(Fragment=2)         20.91     23.24     14.77 
 O(Fragment=2)         18.69     16.35     14.94 
 H(Fragment=2)         18.46     15.42     14.86 
 H(Fragment=2)         18.35     16.61     15.79 
 O(Fragment=2)         23.99     16.2      18.22 
 H(Fragment=2)         23.49     16.38     17.42 
 H(Fragment=2)         24.89     16.46     18. 
 O(Fragment=2)         21.19     18.22     25.93 
 H(Fragment=2)         21.25     19.05     25.46 
 H(Fragment=2)         21.71     17.61     25.41 
 O(Fragment=2)         14.17     19.13     22.54 
 H(Fragment=2)         14.18     18.33     23.07 
 H(Fragment=2)         15.02     19.54     22.72 
 O(Fragment=2)         17.23     15.05     19.35 
 H(Fragment=2)         17.48     14.75     20.23 
 H(Fragment=2)         17.75     14.5      18.76 
 O(Fragment=2)         22.53     24.27     23.67 
 H(Fragment=2)         22.5      23.36     23.96 
 H(Fragment=2)         23.43     24.39     23.35 
 O(Fragment=2)         21.71     21.02     25.44 
 H(Fragment=2)         22.46     21.22     26. 
 H(Fragment=2)         21.04     21.66     25.69 
 O(Fragment=2)         24.8      19.37     23.26 
 H(Fragment=2)         25.46     19.17     22.6 
 H(Fragment=2)         25.31     19.66     24.02 
 O(Fragment=2)         14.35     23.38     18.84 
 H(Fragment=2)         15.29     23.43     18.69 
 H(Fragment=2)         14.25     22.71     19.52 
 O(Fragment=2)         18.81     25.27     16.57 
 H(Fragment=2)         19.16     25.37     17.45 
 H(Fragment=2)         19.52     24.85     16.08 
 O(Fragment=2)         18.4      18.89     26.59 
 H(Fragment=2)         18.95     18.8      27.37 
 H(Fragment=2)         19.03     18.95     25.87 
 O(Fragment=2)         23.39     20.06     13.94 
 H(Fragment=2)         22.81     20.75     14.27 
 H(Fragment=2)         24.28     20.39     14.12 
 O(Fragment=2)         18.08     26.12     19.56 
 H(Fragment=2)         17.59     26.34     20.35 
 H(Fragment=2)         18.91     26.58     19.65 
 O(Fragment=2)         15.24     22.33     24.61 
 H(Fragment=2)         14.47     22.84     24.86 
 H(Fragment=2)         15.51     22.68     23.77 
 O(Fragment=2)         20.04     23.07     26.39 
 H(Fragment=2)         19.58     23.61     27.04 
 H(Fragment=2)         19.36     22.76     25.8 
 O(Fragment=2)         18.46     13.83     21.53 
 H(Fragment=2)         18.96     13.06     21.25 
 H(Fragment=2)         18.39     13.74     22.48 
 O(Fragment=2)         17.13     25.9      22.16 
 H(Fragment=2)         17.18     26.84     22.37 
 H(Fragment=2)         17.75     25.49     22.76 
 O(Fragment=2)         15.26     16.88     24.3 
 H(Fragment=2)         15.45     16.78     25.23 
 H(Fragment=2)         16.01     16.48     23.86 
 O(Fragment=2)         25.71     22.8      17.83 
 H(Fragment=2)         26.56     23.15     17.55 
 H(Fragment=2)         25.27     23.55     18.24 
 O(Fragment=2)         26.69     18.57     21.75 
 H(Fragment=2)         27.56     18.37     21.4 
 H(Fragment=2)         26.44     19.38     21.3 
 O(Fragment=2)         15.26     24.12     22.52 
 H(Fragment=2)         14.8      24.63     23.18 
 H(Fragment=2)         15.88     24.75     22.13 
 O(Fragment=2)         15.63     24.82     16.03 
 H(Fragment=2)         16.1      25.64     16.2 
 H(Fragment=2)         15.93     24.23     16.72 
 O(Fragment=2)         12.67     17.68     18.98 
 H(Fragment=2)         12.06     17.83     19.71 
 H(Fragment=2)         13.51     17.52     19.4 
 O(Fragment=2)         18.65     13.52     17.75 
 H(Fragment=2)         18.35     13.68     16.85 
 H(Fragment=2)         18.13     12.78     18.05 
 O(Fragment=2)         22.13     17.74     13.07 
 H(Fragment=2)         22.5      18.59     13.27 
 H(Fragment=2)         21.27     17.75     13.49 
 O(Fragment=2)         23.61     13.57     22.52 
 H(Fragment=2)         23.67     14.31     21.92 
 H(Fragment=2)         23.28     13.94     23.33 
 O(Fragment=2)         26.32     24.41     21.66 
 H(Fragment=2)         25.99     24.7      20.82 
 H(Fragment=2)         25.63     23.84     22.01 
 O(Fragment=2)         18.61     18.27     12.58 
 H(Fragment=2)         17.86     18.2      11.99 
 H(Fragment=2)         18.32     17.86     13.39 
 O(Fragment=2)         22.86     12.64     18.77 
 H(Fragment=2)         22.1      12.11     18.53 
 H(Fragment=2)         22.51     13.33     19.33 
 O(Fragment=2)         13.19     20.75     17.89 
 H(Fragment=2)         12.5      21.41     18.01 
 H(Fragment=2)         13.49     20.88     17. 
 O(Fragment=2)         20.43     12.61     23.08 
 H(Fragment=2)         20.65     11.93     22.44 
 H(Fragment=2)         20.82     13.41     22.72 
 O(Fragment=2)         24.89     23.76     14.64 
 H(Fragment=2)         25.46     24.43     15.02 
 H(Fragment=2)         24.32     23.48     15.37 
 O(Fragment=2)         14.44     21.94     15.5 
 H(Fragment=2)         14.92     22.76     15.62 
 H(Fragment=2)         14.06     22.       14.62 
 O(Fragment=2)         20.86     25.47     25.62 
 H(Fragment=2)         19.99     25.15     25.38 
 H(Fragment=2)         21.45     25.12     24.95 
 O(Fragment=2)         13.9      17.51     16.38 
 H(Fragment=2)         13.33     18.06     15.85 
 H(Fragment=2)         13.58     17.63     17.28 
 O(Fragment=2)         24.93     15.76     15.05 
 H(Fragment=2)         24.05     16.06     15.26 
 H(Fragment=2)         25.25     16.38     14.39 
 O(Fragment=2)         17.22     16.53     27.02 
 H(Fragment=2)         17.2      17.45     27.29 
 H(Fragment=2)         17.74     16.53     26.22 
 O(Fragment=2)         21.54     27.73     22.24 
 H(Fragment=2)         21.91     26.86     22.44 
 H(Fragment=2)         21.17     28.03     23.07 
 O(Fragment=2)         20.18     20.36     12. 
 H(Fragment=2)         19.39     19.89     12.28 
 H(Fragment=2)         20.89     19.95     12.5 
 O(Fragment=2)         28.35     19.38     18.64 
 H(Fragment=2)         28.87     20.15     18.43 
 H(Fragment=2)         27.46     19.72     18.77 
 O(Fragment=2)         16.66     23.26     13.77 
 H(Fragment=2)         16.05     23.55     13.1 
 H(Fragment=2)         16.65     23.95     14.43 
 O(Fragment=2)         16.18     16.36     13.26 
 H(Fragment=2)         16.58     16.66     14.07 
 H(Fragment=2)         16.04     17.15     12.75 
 O(Fragment=2)         28.05     21.95     21.39 
 H(Fragment=2)         27.37     21.8      20.73 
 H(Fragment=2)         27.56     22.12     22.2 
 O(Fragment=2)         26.73     19.71     14.88 
 H(Fragment=2)         26.37     19.95     14.02 
 H(Fragment=2)         26.16     20.15     15.51 
 O(Fragment=2)         23.8      17.96     27.07 
 H(Fragment=2)         23.77     17.67     27.98 
 H(Fragment=2)         22.88     18.11     26.84 
 O(Fragment=2)         20.25     27.91     19.79 
 H(Fragment=2)         20.76     27.61     20.55 
 H(Fragment=2)         20.39     28.85     19.77 
 O(Fragment=2)         17.17     27.03     15.82 
 H(Fragment=2)         17.78     27.61     15.36 
 H(Fragment=2)         17.73     26.38     16.25 
 O(Fragment=2)         21.19     25.77     14.82 
 H(Fragment=2)         21.08     25.51     13.91 
 H(Fragment=2)         22.14     25.78     14.96 
 O(Fragment=2)         19.24     14.9      25.94 
 H(Fragment=2)         20.2      14.91     25.97 
 H(Fragment=2)         18.97     14.77     26.84 
 O(Fragment=2)         21.17     16.15     27.87 
 H(Fragment=2)         21.25     16.76     27.14 
 H(Fragment=2)         20.61     16.6      28.5 
 O(Fragment=2)         26.78     15.87     19.07 
 H(Fragment=2)         26.93     16.16     18.17 
 H(Fragment=2)         26.28     15.06     18.99 
 O(Fragment=2)         14.24     26.51     19.31 
 H(Fragment=2)         15.09     26.24     18.96 
 H(Fragment=2)         14.32     26.36     20.26 
 O(Fragment=2)         11.66     21.55     22.8 
 H(Fragment=2)         12.62     21.54     22.81 
 H(Fragment=2)         11.42     22.26     23.39 
 O(Fragment=2)         14.85     14.81     15.78 
 H(Fragment=2)         14.66     15.75     15.7 
 H(Fragment=2)         14.53     14.58     16.64 
 O(Fragment=2)         13.97     20.46     26.39 
 H(Fragment=2)         14.32     21.02     25.69 
 H(Fragment=2)         13.21     20.03     25.99 
 O(Fragment=2)         24.13     21.89     26.85 
 H(Fragment=2)         24.35     22.66     26.32 
 H(Fragment=2)         24.75     21.22     26.57 
 O(Fragment=2)         22.62     15.03     13. 
 H(Fragment=2)         21.79     14.85     12.57 
 H(Fragment=2)         22.54     15.92     13.33 
 O(Fragment=2)         11.15     21.83     19.51 
 H(Fragment=2)         11.91     21.66     20.06 
 H(Fragment=2)         10.56     21.1      19.68 
 O(Fragment=2)         11.22     18.15     21.52 
 H(Fragment=2)         11.21     17.44     22.16 
 H(Fragment=2)         12.03     18.63     21.71 
 O(Fragment=2)         17.81     12.95     24.16 
 H(Fragment=2)         18.05     13.57     24.84 
 H(Fragment=2)         18.62     12.48     23.96 
 O(Fragment=2)         15.85     22.22     27.78 
 H(Fragment=2)         15.8      21.88     26.89 
 H(Fragment=2)         15.16     22.88     27.82 
 O(Fragment=2)         17.25     13.7      15.32 
 H(Fragment=2)         17.35     13.29     14.46 
 H(Fragment=2)         16.39     14.13     15.28 
 O(Fragment=2)         15.59     19.78     12.95 
 H(Fragment=2)         15.88     20.64     12.65 
 H(Fragment=2)         15.6      19.23     12.17 
 O(Fragment=2)         17.28     21.48     11.8 
 H(Fragment=2)         18.05     21.59     11.25 
 H(Fragment=2)         17.31     22.22     12.41 
 O(Fragment=2)         25.72     19.73     26.35 
 H(Fragment=2)         26.56     19.33     26.57 
 H(Fragment=2)         25.07     19.09     26.61 
 O(Fragment=2)         21.94     13.49     25.32 
 H(Fragment=2)         22.12     12.76     25.91 
 H(Fragment=2)         21.2      13.19     24.79 
 O(Fragment=2)         20.91     11.45     17.44 
 H(Fragment=2)         20.13     12.       17.33 
 H(Fragment=2)         21.18     11.25     16.54 
 O(Fragment=2)         19.8      22.9      11.77 
 H(Fragment=2)         19.8      23.13     10.84 
 H(Fragment=2)         20.02     21.97     11.79 
 O(Fragment=2)         12.42     16.77     23.91 
 H(Fragment=2)         12.09     15.95     24.27 
 H(Fragment=2)         13.36     16.77     24.12 
 O(Fragment=2)         27.5      17.4      16.71 
 H(Fragment=2)         27.79     18.1      17.29 
 H(Fragment=2)         27.33     17.84     15.87 
 O(Fragment=2)         24.7      15.74     25.88 
 H(Fragment=2)         24.16     14.96     25.83 
 H(Fragment=2)         24.19     16.35     26.41 
 O(Fragment=2)         20.45     21.59     29.31 
 H(Fragment=2)         19.57     21.44     29.65 
 H(Fragment=2)         20.41     21.29     28.4 
 O(Fragment=2)         12.37     25.05     17.57 
 H(Fragment=2)         12.65     25.88     17.94 
 H(Fragment=2)         13.11     24.46     17.72 
 O(Fragment=2)         24.75     27.05     20.73 
 H(Fragment=2)         25.65     27.11     21.04 
 H(Fragment=2)         24.44     27.96     20.72 
 O(Fragment=2)         19.95     14.87     12.22 
 H(Fragment=2)         19.46     14.05     12.32 
 H(Fragment=2)         19.46     15.5      12.76 
 O(Fragment=2)         21.07     11.52     20.71 
 H(Fragment=2)         21.99     11.34     20.53 
 H(Fragment=2)         20.62     11.32     19.89 
 O(Fragment=2)         23.78     26.29     15.2 
 H(Fragment=2)         24.16     26.26     14.32 
 H(Fragment=2)         24.5      26.05     15.78 
 O(Fragment=2)         24.45     12.4      16.66 
 H(Fragment=2)         24.       12.52     17.49 
 H(Fragment=2)         23.81     12.65     16. 
 O(Fragment=2)         19.41     28.05     14.66 
 H(Fragment=2)         19.91     27.29     14.95 
 H(Fragment=2)         20.07     28.66     14.31 
 O(Fragment=2)         25.81     12.67     19.49 
 H(Fragment=2)         24.9      12.64     19.2 
 H(Fragment=2)         26.31     12.35     18.75 
 O(Fragment=2)         12.32     15.11     17.94 
 H(Fragment=2)         12.29     16.06     17.98 
 H(Fragment=2)         12.79     14.84     18.74 
 O(Fragment=2)         23.5      23.24     12.23 
 H(Fragment=2)         24.25     23.41     12.81 
 H(Fragment=2)         22.87     23.94     12.44 
 O(Fragment=2)         15.57     12.       22.93 
 H(Fragment=2)         14.8      12.55     22.99 
 H(Fragment=2)         16.27     12.52     23.33 
 O(Fragment=2)         18.02     26.48     12.71 
 H(Fragment=2)         18.05     25.66     13.2 
 H(Fragment=2)         18.59     27.07     13.2 
 O(Fragment=2)         11.93     19.43     24.75 
 H(Fragment=2)         11.41     20.       24.19 
 H(Fragment=2)         12.09     18.65     24.22 
 O(Fragment=2)         24.85     24.53     26.22 
 H(Fragment=2)         24.07     25.04     26.44 
 H(Fragment=2)         25.27     25.02     25.52 
 O(Fragment=2)         22.48     25.69     27.79 
 H(Fragment=2)         22.35     25.04     28.48 
 H(Fragment=2)         21.86     25.43     27.1 
 O(Fragment=2)         20.09     18.34     29.02 
 H(Fragment=2)         20.84     18.93     29.05 
 H(Fragment=2)         19.57     18.59     29.79 
 O(Fragment=2)         29.31     16.56     19.69 
 H(Fragment=2)         28.39     16.36     19.5 
 H(Fragment=2)         29.31     16.83     20.61 
 O(Fragment=2)         18.14     28.61     22.52 
 H(Fragment=2)         18.82     29.27     22.65 
 H(Fragment=2)         17.62     28.95     21.78 
 O(Fragment=2)         29.26     22.13     18.86 
 H(Fragment=2)         28.98     21.94     19.76 
 H(Fragment=2)         29.98     22.75     18.95 
 O(Fragment=2)         22.39     28.61     15.85 
 H(Fragment=2)         22.89     27.81     16.01 
 H(Fragment=2)         22.32     28.67     14.9 
 O(Fragment=2)         28.02     23.49     16.31 
 H(Fragment=2)         28.08     22.53     16.31 
 H(Fragment=2)         28.75     23.77     16.85 
 O(Fragment=2)         27.11     14.04     21.83 
 H(Fragment=2)         26.73     14.27     22.68 
 H(Fragment=2)         26.56     13.33     21.51 
 O(Fragment=2)         14.63     26.       24.55 
 H(Fragment=2)         15.17     26.02     25.34 
 H(Fragment=2)         14.67     26.9      24.22 
 
 NAtoms=    385 NQM=      385 NQMF=       0 NMMI=      0 NMMIF=      0
                NMic=       0 NMicF=      0.
                    Isotopes and Nuclear Properties:
 (Nuclear quadrupole moments (NQMom) in fm**2, nuclear magnetic moments (NMagM)
  in nuclear magnetons)

  Atom         1           2           3           4           5           6           7           8           9          10
 IAtWgt=          79          16           1           1          16           1           1          16           1           1
 AtmWgt=  78.9183361  15.9949146   1.0078250   1.0078250  15.9949146   1.0078250   1.0078250  15.9949146   1.0078250   1.0078250
 NucSpn=           3           0           1           1           0           1           1           0           1           1
 AtZEff=   0.0000000   0.0000000   0.0000000   0.0000000   0.0000000   0.0000000   0.0000000   0.0000000   0.0000000   0.0000000
 NQMom=   31.3000000   0.0000000   0.0000000   0.0000000   0.0000000   0.0000000   0.0000000   0.0000000   0.0000000   0.0000000
 NMagM=    2.1063990   0.0000000   2.7928460   2.7928460   0.0000000   2.7928460   2.7928460   0.0000000   2.7928460   2.7928460
 AtZNuc=  35.0000000   8.0000000   1.0000000   1.0000000   8.0000000   1.0000000   1.0000000   8.0000000   1.0000000   1.0000000

  Atom        11          12          13          14          15          16          17          18          19          20
 IAtWgt=          16           1           1          16           1           1          16           1           1          16
 AtmWgt=  15.9949146   1.0078250   1.0078250  15.9949146   1.0078250   1.0078250  15.9949146   1.0078250   1.0078250  15.9949146
 NucSpn=           0           1           1           0           1           1           0           1           1           0
 AtZEff=   0.0000000   0.0000000   0.0000000   0.0000000   0.0000000   0.0000000   0.0000000   0.0000000   0.0000000   0.0000000
 NQMom=    0.0000000   0.0000000   0.0000000   0.0000000   0.0000000   0.0000000   0.0000000   0.0000000   0.0000000   0.0000000
 NMagM=    0.0000000   2.7928460   2.7928460   0.0000000   2.7928460   2.7928460   0.0000000   2.7928460   2.7928460   0.0000000
 AtZNuc=   8.0000000   1.0000000   1.0000000   8.0000000   1.0000000   1.0000000   8.0000000   1.0000000   1.0000000   8.0000000

  Atom        21          22          23          24          25          26          27          28          29          30
 IAtWgt=           1           1          16           1           1          16           1           1          16           1
 AtmWgt=   1.0078250   1.0078250  15.9949146   1.0078250   1.0078250  15.9949146   1.0078250   1.0078250  15.9949146   1.0078250
 NucSpn=           1           1           0           1           1           0           1           1           0           1
 AtZEff=   0.0000000   0.0000000   0.0000000   0.0000000   0.0000000   0.0000000   0.0000000   0.0000000   0.0000000   0.0000000
 NQMom=    0.0000000   0.0000000   0.0000000   0.0000000   0.0000000   0.0000000   0.0000000   0.0000000   0.0000000   0.0000000
 NMagM=    2.7928460   2.7928460   0.0000000   2.7928460   2.7928460   0.0000000   2.7928460   2.7928460   0.0000000   2.7928460
 AtZNuc=   1.0000000   1.0000000   8.0000000   1.0000000   1.0000000   8.0000000   1.0000000   1.0000000   8.0000000   1.0000000

  Atom        31          32          33          34          35          36          37          38          39          40
 IAtWgt=           1          16           1           1          16           1           1          16           1           1
 AtmWgt=   1.0078250  15.9949146   1.0078250   1.0078250  15.9949146   1.0078250   1.0078250  15.9949146   1.0078250   1.0078250
 NucSpn=           1           0           1           1           0           1           1           0           1           1
 AtZEff=   0.0000000   0.0000000   0.0000000   0.0000000   0.0000000   0.0000000   0.0000000   0.0000000   0.0000000   0.0000000
 NQMom=    0.0000000   0.0000000   0.0000000   0.0000000   0.0000000   0.0000000   0.0000000   0.0000000   0.0000000   0.0000000
 NMagM=    2.7928460   0.0000000   2.7928460   2.7928460   0.0000000   2.7928460   2.7928460   0.0000000   2.7928460   2.7928460
 AtZNuc=   1.0000000   8.0000000   1.0000000   1.0000000   8.0000000   1.0000000   1.0000000   8.0000000   1.0000000   1.0000000

  Atom        41          42          43          44          45          46          47          48          49          50
 IAtWgt=          16           1           1          16           1           1          16           1           1          16
 AtmWgt=  15.9949146   1.0078250   1.0078250  15.9949146   1.0078250   1.0078250  15.9949146   1.0078250   1.0078250  15.9949146
 NucSpn=           0           1           1           0           1           1           0           1           1           0
 AtZEff=   0.0000000   0.0000000   0.0000000   0.0000000   0.0000000   0.0000000   0.0000000   0.0000000   0.0000000   0.0000000
 NQMom=    0.0000000   0.0000000   0.0000000   0.0000000   0.0000000   0.0000000   0.0000000   0.0000000   0.0000000   0.0000000
 NMagM=    0.0000000   2.7928460   2.7928460   0.0000000   2.7928460   2.7928460   0.0000000   2.7928460   2.7928460   0.0000000
 AtZNuc=   8.0000000   1.0000000   1.0000000   8.0000000   1.0000000   1.0000000   8.0000000   1.0000000   1.0000000   8.0000000

  Atom        51          52          53          54          55          56          57          58          59          60
 IAtWgt=           1           1          16           1           1          16           1           1          16           1
 AtmWgt=   1.0078250   1.0078250  15.9949146   1.0078250   1.0078250  15.9949146   1.0078250   1.0078250  15.9949146   1.0078250
 NucSpn=           1           1           0           1           1           0           1           1           0           1
 AtZEff=   0.0000000   0.0000000   0.0000000   0.0000000   0.0000000   0.0000000   0.0000000   0.0000000   0.0000000   0.0000000
 NQMom=    0.0000000   0.0000000   0.0000000   0.0000000   0.0000000   0.0000000   0.0000000   0.0000000   0.0000000   0.0000000
 NMagM=    2.7928460   2.7928460   0.0000000   2.7928460   2.7928460   0.0000000   2.7928460   2.7928460   0.0000000   2.7928460
 AtZNuc=   1.0000000   1.0000000   8.0000000   1.0000000   1.0000000   8.0000000   1.0000000   1.0000000   8.0000000   1.0000000

  Atom        61          62          63          64          65          66          67          68          69          70
 IAtWgt=           1          16           1           1          16           1           1          16           1           1
 AtmWgt=   1.0078250  15.9949146   1.0078250   1.0078250  15.9949146   1.0078250   1.0078250  15.9949146   1.0078250   1.0078250
 NucSpn=           1           0           1           1           0           1           1           0           1           1
 AtZEff=   0.0000000   0.0000000   0.0000000   0.0000000   0.0000000   0.0000000   0.0000000   0.0000000   0.0000000   0.0000000
 NQMom=    0.0000000   0.0000000   0.0000000   0.0000000   0.0000000   0.0000000   0.0000000   0.0000000   0.0000000   0.0000000
 NMagM=    2.7928460   0.0000000   2.7928460   2.7928460   0.0000000   2.7928460   2.7928460   0.0000000   2.7928460   2.7928460
 AtZNuc=   1.0000000   8.0000000   1.0000000   1.0000000   8.0000000   1.0000000   1.0000000   8.0000000   1.0000000   1.0000000

  Atom        71          72          73          74          75          76          77          78          79          80
 IAtWgt=          16           1           1          16           1           1          16           1           1          16
 AtmWgt=  15.9949146   1.0078250   1.0078250  15.9949146   1.0078250   1.0078250  15.9949146   1.0078250   1.0078250  15.9949146
 NucSpn=           0           1           1           0           1           1           0           1           1           0
 AtZEff=   0.0000000   0.0000000   0.0000000   0.0000000   0.0000000   0.0000000   0.0000000   0.0000000   0.0000000   0.0000000
 NQMom=    0.0000000   0.0000000   0.0000000   0.0000000   0.0000000   0.0000000   0.0000000   0.0000000   0.0000000   0.0000000
 NMagM=    0.0000000   2.7928460   2.7928460   0.0000000   2.7928460   2.7928460   0.0000000   2.7928460   2.7928460   0.0000000
 AtZNuc=   8.0000000   1.0000000   1.0000000   8.0000000   1.0000000   1.0000000   8.0000000   1.0000000   1.0000000   8.0000000

  Atom        81          82          83          84          85          86          87          88          89          90
 IAtWgt=           1           1          16           1           1          16           1           1          16           1
 AtmWgt=   1.0078250   1.0078250  15.9949146   1.0078250   1.0078250  15.9949146   1.0078250   1.0078250  15.9949146   1.0078250
 NucSpn=           1           1           0           1           1           0           1           1           0           1
 AtZEff=   0.0000000   0.0000000   0.0000000   0.0000000   0.0000000   0.0000000   0.0000000   0.0000000   0.0000000   0.0000000
 NQMom=    0.0000000   0.0000000   0.0000000   0.0000000   0.0000000   0.0000000   0.0000000   0.0000000   0.0000000   0.0000000
 NMagM=    2.7928460   2.7928460   0.0000000   2.7928460   2.7928460   0.0000000   2.7928460   2.7928460   0.0000000   2.7928460
 AtZNuc=   1.0000000   1.0000000   8.0000000   1.0000000   1.0000000   8.0000000   1.0000000   1.0000000   8.0000000   1.0000000

  Atom        91          92          93          94          95          96          97          98          99         100
 IAtWgt=           1          16           1           1          16           1           1          16           1           1
 AtmWgt=   1.0078250  15.9949146   1.0078250   1.0078250  15.9949146   1.0078250   1.0078250  15.9949146   1.0078250   1.0078250
 NucSpn=           1           0           1           1           0           1           1           0           1           1
 AtZEff=   0.0000000   0.0000000   0.0000000   0.0000000   0.0000000   0.0000000   0.0000000   0.0000000   0.0000000   0.0000000
 NQMom=    0.0000000   0.0000000   0.0000000   0.0000000   0.0000000   0.0000000   0.0000000   0.0000000   0.0000000   0.0000000
 NMagM=    2.7928460   0.0000000   2.7928460   2.7928460   0.0000000   2.7928460   2.7928460   0.0000000   2.7928460   2.7928460
 AtZNuc=   1.0000000   8.0000000   1.0000000   1.0000000   8.0000000   1.0000000   1.0000000   8.0000000   1.0000000   1.0000000

  Atom       101         102         103         104         105         106         107         108         109         110
 IAtWgt=          16           1           1          16           1           1          16           1           1          16
 AtmWgt=  15.9949146   1.0078250   1.0078250  15.9949146   1.0078250   1.0078250  15.9949146   1.0078250   1.0078250  15.9949146
 NucSpn=           0           1           1           0           1           1           0           1           1           0
 AtZEff=   0.0000000   0.0000000   0.0000000   0.0000000   0.0000000   0.0000000   0.0000000   0.0000000   0.0000000   0.0000000
 NQMom=    0.0000000   0.0000000   0.0000000   0.0000000   0.0000000   0.0000000   0.0000000   0.0000000   0.0000000   0.0000000
 NMagM=    0.0000000   2.7928460   2.7928460   0.0000000   2.7928460   2.7928460   0.0000000   2.7928460   2.7928460   0.0000000
 AtZNuc=   8.0000000   1.0000000   1.0000000   8.0000000   1.0000000   1.0000000   8.0000000   1.0000000   1.0000000   8.0000000

  Atom       111         112         113         114         115         116         117         118         119         120
 IAtWgt=           1           1          16           1           1          16           1           1          16           1
 AtmWgt=   1.0078250   1.0078250  15.9949146   1.0078250   1.0078250  15.9949146   1.0078250   1.0078250  15.9949146   1.0078250
 NucSpn=           1           1           0           1           1           0           1           1           0           1
 AtZEff=   0.0000000   0.0000000   0.0000000   0.0000000   0.0000000   0.0000000   0.0000000   0.0000000   0.0000000   0.0000000
 NQMom=    0.0000000   0.0000000   0.0000000   0.0000000   0.0000000   0.0000000   0.0000000   0.0000000   0.0000000   0.0000000
 NMagM=    2.7928460   2.7928460   0.0000000   2.7928460   2.7928460   0.0000000   2.7928460   2.7928460   0.0000000   2.7928460
 AtZNuc=   1.0000000   1.0000000   8.0000000   1.0000000   1.0000000   8.0000000   1.0000000   1.0000000   8.0000000   1.0000000

  Atom       121         122         123         124         125         126         127         128         129         130
 IAtWgt=           1          16           1           1          16           1           1          16           1           1
 AtmWgt=   1.0078250  15.9949146   1.0078250   1.0078250  15.9949146   1.0078250   1.0078250  15.9949146   1.0078250   1.0078250
 NucSpn=           1           0           1           1           0           1           1           0           1           1
 AtZEff=   0.0000000   0.0000000   0.0000000   0.0000000   0.0000000   0.0000000   0.0000000   0.0000000   0.0000000   0.0000000
 NQMom=    0.0000000   0.0000000   0.0000000   0.0000000   0.0000000   0.0000000   0.0000000   0.0000000   0.0000000   0.0000000
 NMagM=    2.7928460   0.0000000   2.7928460   2.7928460   0.0000000   2.7928460   2.7928460   0.0000000   2.7928460   2.7928460
 AtZNuc=   1.0000000   8.0000000   1.0000000   1.0000000   8.0000000   1.0000000   1.0000000   8.0000000   1.0000000   1.0000000

  Atom       131         132         133         134         135         136         137         138         139         140
 IAtWgt=          16           1           1          16           1           1          16           1           1          16
 AtmWgt=  15.9949146   1.0078250   1.0078250  15.9949146   1.0078250   1.0078250  15.9949146   1.0078250   1.0078250  15.9949146
 NucSpn=           0           1           1           0           1           1           0           1           1           0
 AtZEff=   0.0000000   0.0000000   0.0000000   0.0000000   0.0000000   0.0000000   0.0000000   0.0000000   0.0000000   0.0000000
 NQMom=    0.0000000   0.0000000   0.0000000   0.0000000   0.0000000   0.0000000   0.0000000   0.0000000   0.0000000   0.0000000
 NMagM=    0.0000000   2.7928460   2.7928460   0.0000000   2.7928460   2.7928460   0.0000000   2.7928460   2.7928460   0.0000000
 AtZNuc=   8.0000000   1.0000000   1.0000000   8.0000000   1.0000000   1.0000000   8.0000000   1.0000000   1.0000000   8.0000000

  Atom       141         142         143         144         145         146         147         148         149         150
 IAtWgt=           1           1          16           1           1          16           1           1          16           1
 AtmWgt=   1.0078250   1.0078250  15.9949146   1.0078250   1.0078250  15.9949146   1.0078250   1.0078250  15.9949146   1.0078250
 NucSpn=           1           1           0           1           1           0           1           1           0           1
 AtZEff=   0.0000000   0.0000000   0.0000000   0.0000000   0.0000000   0.0000000   0.0000000   0.0000000   0.0000000   0.0000000
 NQMom=    0.0000000   0.0000000   0.0000000   0.0000000   0.0000000   0.0000000   0.0000000   0.0000000   0.0000000   0.0000000
 NMagM=    2.7928460   2.7928460   0.0000000   2.7928460   2.7928460   0.0000000   2.7928460   2.7928460   0.0000000   2.7928460
 AtZNuc=   1.0000000   1.0000000   8.0000000   1.0000000   1.0000000   8.0000000   1.0000000   1.0000000   8.0000000   1.0000000

  Atom       151         152         153         154         155         156         157         158         159         160
 IAtWgt=           1          16           1           1          16           1           1          16           1           1
 AtmWgt=   1.0078250  15.9949146   1.0078250   1.0078250  15.9949146   1.0078250   1.0078250  15.9949146   1.0078250   1.0078250
 NucSpn=           1           0           1           1           0           1           1           0           1           1
 AtZEff=   0.0000000   0.0000000   0.0000000   0.0000000   0.0000000   0.0000000   0.0000000   0.0000000   0.0000000   0.0000000
 NQMom=    0.0000000   0.0000000   0.0000000   0.0000000   0.0000000   0.0000000   0.0000000   0.0000000   0.0000000   0.0000000
 NMagM=    2.7928460   0.0000000   2.7928460   2.7928460   0.0000000   2.7928460   2.7928460   0.0000000   2.7928460   2.7928460
 AtZNuc=   1.0000000   8.0000000   1.0000000   1.0000000   8.0000000   1.0000000   1.0000000   8.0000000   1.0000000   1.0000000

  Atom       161         162         163         164         165         166         167         168         169         170
 IAtWgt=          16           1           1          16           1           1          16           1           1          16
 AtmWgt=  15.9949146   1.0078250   1.0078250  15.9949146   1.0078250   1.0078250  15.9949146   1.0078250   1.0078250  15.9949146
 NucSpn=           0           1           1           0           1           1           0           1           1           0
 AtZEff=   0.0000000   0.0000000   0.0000000   0.0000000   0.0000000   0.0000000   0.0000000   0.0000000   0.0000000   0.0000000
 NQMom=    0.0000000   0.0000000   0.0000000   0.0000000   0.0000000   0.0000000   0.0000000   0.0000000   0.0000000   0.0000000
 NMagM=    0.0000000   2.7928460   2.7928460   0.0000000   2.7928460   2.7928460   0.0000000   2.7928460   2.7928460   0.0000000
 AtZNuc=   8.0000000   1.0000000   1.0000000   8.0000000   1.0000000   1.0000000   8.0000000   1.0000000   1.0000000   8.0000000

  Atom       171         172         173         174         175         176         177         178         179         180
 IAtWgt=           1           1          16           1           1          16           1           1          16           1
 AtmWgt=   1.0078250   1.0078250  15.9949146   1.0078250   1.0078250  15.9949146   1.0078250   1.0078250  15.9949146   1.0078250
 NucSpn=           1           1           0           1           1           0           1           1           0           1
 AtZEff=   0.0000000   0.0000000   0.0000000   0.0000000   0.0000000   0.0000000   0.0000000   0.0000000   0.0000000   0.0000000
 NQMom=    0.0000000   0.0000000   0.0000000   0.0000000   0.0000000   0.0000000   0.0000000   0.0000000   0.0000000   0.0000000
 NMagM=    2.7928460   2.7928460   0.0000000   2.7928460   2.7928460   0.0000000   2.7928460   2.7928460   0.0000000   2.7928460
 AtZNuc=   1.0000000   1.0000000   8.0000000   1.0000000   1.0000000   8.0000000   1.0000000   1.0000000   8.0000000   1.0000000

  Atom       181         182         183         184         185         186         187         188         189         190
 IAtWgt=           1          16           1           1          16           1           1          16           1           1
 AtmWgt=   1.0078250  15.9949146   1.0078250   1.0078250  15.9949146   1.0078250   1.0078250  15.9949146   1.0078250   1.0078250
 NucSpn=           1           0           1           1           0           1           1           0           1           1
 AtZEff=   0.0000000   0.0000000   0.0000000   0.0000000   0.0000000   0.0000000   0.0000000   0.0000000   0.0000000   0.0000000
 NQMom=    0.0000000   0.0000000   0.0000000   0.0000000   0.0000000   0.0000000   0.0000000   0.0000000   0.0000000   0.0000000
 NMagM=    2.7928460   0.0000000   2.7928460   2.7928460   0.0000000   2.7928460   2.7928460   0.0000000   2.7928460   2.7928460
 AtZNuc=   1.0000000   8.0000000   1.0000000   1.0000000   8.0000000   1.0000000   1.0000000   8.0000000   1.0000000   1.0000000

  Atom       191         192         193         194         195         196         197         198         199         200
 IAtWgt=          16           1           1          16           1           1          16           1           1          16
 AtmWgt=  15.9949146   1.0078250   1.0078250  15.9949146   1.0078250   1.0078250  15.9949146   1.0078250   1.0078250  15.9949146
 NucSpn=           0           1           1           0           1           1           0           1           1           0
 AtZEff=   0.0000000   0.0000000   0.0000000   0.0000000   0.0000000   0.0000000   0.0000000   0.0000000   0.0000000   0.0000000
 NQMom=    0.0000000   0.0000000   0.0000000   0.0000000   0.0000000   0.0000000   0.0000000   0.0000000   0.0000000   0.0000000
 NMagM=    0.0000000   2.7928460   2.7928460   0.0000000   2.7928460   2.7928460   0.0000000   2.7928460   2.7928460   0.0000000
 AtZNuc=   8.0000000   1.0000000   1.0000000   8.0000000   1.0000000   1.0000000   8.0000000   1.0000000   1.0000000   8.0000000

  Atom       201         202         203         204         205         206         207         208         209         210
 IAtWgt=           1           1          16           1           1          16           1           1          16           1
 AtmWgt=   1.0078250   1.0078250  15.9949146   1.0078250   1.0078250  15.9949146   1.0078250   1.0078250  15.9949146   1.0078250
 NucSpn=           1           1           0           1           1           0           1           1           0           1
 AtZEff=   0.0000000   0.0000000   0.0000000   0.0000000   0.0000000   0.0000000   0.0000000   0.0000000   0.0000000   0.0000000
 NQMom=    0.0000000   0.0000000   0.0000000   0.0000000   0.0000000   0.0000000   0.0000000   0.0000000   0.0000000   0.0000000
 NMagM=    2.7928460   2.7928460   0.0000000   2.7928460   2.7928460   0.0000000   2.7928460   2.7928460   0.0000000   2.7928460
 AtZNuc=   1.0000000   1.0000000   8.0000000   1.0000000   1.0000000   8.0000000   1.0000000   1.0000000   8.0000000   1.0000000

  Atom       211         212         213         214         215         216         217         218         219         220
 IAtWgt=           1          16           1           1          16           1           1          16           1           1
 AtmWgt=   1.0078250  15.9949146   1.0078250   1.0078250  15.9949146   1.0078250   1.0078250  15.9949146   1.0078250   1.0078250
 NucSpn=           1           0           1           1           0           1           1           0           1           1
 AtZEff=   0.0000000   0.0000000   0.0000000   0.0000000   0.0000000   0.0000000   0.0000000   0.0000000   0.0000000   0.0000000
 NQMom=    0.0000000   0.0000000   0.0000000   0.0000000   0.0000000   0.0000000   0.0000000   0.0000000   0.0000000   0.0000000
 NMagM=    2.7928460   0.0000000   2.7928460   2.7928460   0.0000000   2.7928460   2.7928460   0.0000000   2.7928460   2.7928460
 AtZNuc=   1.0000000   8.0000000   1.0000000   1.0000000   8.0000000   1.0000000   1.0000000   8.0000000   1.0000000   1.0000000

  Atom       221         222         223         224         225         226         227         228         229         230
 IAtWgt=          16           1           1          16           1           1          16           1           1          16
 AtmWgt=  15.9949146   1.0078250   1.0078250  15.9949146   1.0078250   1.0078250  15.9949146   1.0078250   1.0078250  15.9949146
 NucSpn=           0           1           1           0           1           1           0           1           1           0
 AtZEff=   0.0000000   0.0000000   0.0000000   0.0000000   0.0000000   0.0000000   0.0000000   0.0000000   0.0000000   0.0000000
 NQMom=    0.0000000   0.0000000   0.0000000   0.0000000   0.0000000   0.0000000   0.0000000   0.0000000   0.0000000   0.0000000
 NMagM=    0.0000000   2.7928460   2.7928460   0.0000000   2.7928460   2.7928460   0.0000000   2.7928460   2.7928460   0.0000000
 AtZNuc=   8.0000000   1.0000000   1.0000000   8.0000000   1.0000000   1.0000000   8.0000000   1.0000000   1.0000000   8.0000000

  Atom       231         232         233         234         235         236         237         238         239         240
 IAtWgt=           1           1          16           1           1          16           1           1          16           1
 AtmWgt=   1.0078250   1.0078250  15.9949146   1.0078250   1.0078250  15.9949146   1.0078250   1.0078250  15.9949146   1.0078250
 NucSpn=           1           1           0           1           1           0           1           1           0           1
 AtZEff=   0.0000000   0.0000000   0.0000000   0.0000000   0.0000000   0.0000000   0.0000000   0.0000000   0.0000000   0.0000000
 NQMom=    0.0000000   0.0000000   0.0000000   0.0000000   0.0000000   0.0000000   0.0000000   0.0000000   0.0000000   0.0000000
 NMagM=    2.7928460   2.7928460   0.0000000   2.7928460   2.7928460   0.0000000   2.7928460   2.7928460   0.0000000   2.7928460
 AtZNuc=   1.0000000   1.0000000   8.0000000   1.0000000   1.0000000   8.0000000   1.0000000   1.0000000   8.0000000   1.0000000

  Atom       241         242         243         244         245         246         247         248         249         250
 IAtWgt=           1          16           1           1          16           1           1          16           1           1
 AtmWgt=   1.0078250  15.9949146   1.0078250   1.0078250  15.9949146   1.0078250   1.0078250  15.9949146   1.0078250   1.0078250
 NucSpn=           1           0           1           1           0           1           1           0           1           1
 AtZEff=   0.0000000   0.0000000   0.0000000   0.0000000   0.0000000   0.0000000   0.0000000   0.0000000   0.0000000   0.0000000
 NQMom=    0.0000000   0.0000000   0.0000000   0.0000000   0.0000000   0.0000000   0.0000000   0.0000000   0.0000000   0.0000000
 NMagM=    2.7928460   0.0000000   2.7928460   2.7928460   0.0000000   2.7928460   2.7928460   0.0000000   2.7928460   2.7928460
 AtZNuc=   1.0000000   8.0000000   1.0000000   1.0000000   8.0000000   1.0000000   1.0000000   8.0000000   1.0000000   1.0000000

  Atom       251         252         253         254         255         256         257         258         259         260
 IAtWgt=          16           1           1          16           1           1          16           1           1          16
 AtmWgt=  15.9949146   1.0078250   1.0078250  15.9949146   1.0078250   1.0078250  15.9949146   1.0078250   1.0078250  15.9949146
 NucSpn=           0           1           1           0           1           1           0           1           1           0
 AtZEff=   0.0000000   0.0000000   0.0000000   0.0000000   0.0000000   0.0000000   0.0000000   0.0000000   0.0000000   0.0000000
 NQMom=    0.0000000   0.0000000   0.0000000   0.0000000   0.0000000   0.0000000   0.0000000   0.0000000   0.0000000   0.0000000
 NMagM=    0.0000000   2.7928460   2.7928460   0.0000000   2.7928460   2.7928460   0.0000000   2.7928460   2.7928460   0.0000000
 AtZNuc=   8.0000000   1.0000000   1.0000000   8.0000000   1.0000000   1.0000000   8.0000000   1.0000000   1.0000000   8.0000000

  Atom       261         262         263         264         265         266         267         268         269         270
 IAtWgt=           1           1          16           1           1          16           1           1          16           1
 AtmWgt=   1.0078250   1.0078250  15.9949146   1.0078250   1.0078250  15.9949146   1.0078250   1.0078250  15.9949146   1.0078250
 NucSpn=           1           1           0           1           1           0           1           1           0           1
 AtZEff=   0.0000000   0.0000000   0.0000000   0.0000000   0.0000000   0.0000000   0.0000000   0.0000000   0.0000000   0.0000000
 NQMom=    0.0000000   0.0000000   0.0000000   0.0000000   0.0000000   0.0000000   0.0000000   0.0000000   0.0000000   0.0000000
 NMagM=    2.7928460   2.7928460   0.0000000   2.7928460   2.7928460   0.0000000   2.7928460   2.7928460   0.0000000   2.7928460
 AtZNuc=   1.0000000   1.0000000   8.0000000   1.0000000   1.0000000   8.0000000   1.0000000   1.0000000   8.0000000   1.0000000

  Atom       271         272         273         274         275         276         277         278         279         280
 IAtWgt=           1          16           1           1          16           1           1          16           1           1
 AtmWgt=   1.0078250  15.9949146   1.0078250   1.0078250  15.9949146   1.0078250   1.0078250  15.9949146   1.0078250   1.0078250
 NucSpn=           1           0           1           1           0           1           1           0           1           1
 AtZEff=   0.0000000   0.0000000   0.0000000   0.0000000   0.0000000   0.0000000   0.0000000   0.0000000   0.0000000   0.0000000
 NQMom=    0.0000000   0.0000000   0.0000000   0.0000000   0.0000000   0.0000000   0.0000000   0.0000000   0.0000000   0.0000000
 NMagM=    2.7928460   0.0000000   2.7928460   2.7928460   0.0000000   2.7928460   2.7928460   0.0000000   2.7928460   2.7928460
 AtZNuc=   1.0000000   8.0000000   1.0000000   1.0000000   8.0000000   1.0000000   1.0000000   8.0000000   1.0000000   1.0000000

  Atom       281         282         283         284         285         286         287         288         289         290
 IAtWgt=          16           1           1          16           1           1          16           1           1          16
 AtmWgt=  15.9949146   1.0078250   1.0078250  15.9949146   1.0078250   1.0078250  15.9949146   1.0078250   1.0078250  15.9949146
 NucSpn=           0           1           1           0           1           1           0           1           1           0
 AtZEff=   0.0000000   0.0000000   0.0000000   0.0000000   0.0000000   0.0000000   0.0000000   0.0000000   0.0000000   0.0000000
 NQMom=    0.0000000   0.0000000   0.0000000   0.0000000   0.0000000   0.0000000   0.0000000   0.0000000   0.0000000   0.0000000
 NMagM=    0.0000000   2.7928460   2.7928460   0.0000000   2.7928460   2.7928460   0.0000000   2.7928460   2.7928460   0.0000000
 AtZNuc=   8.0000000   1.0000000   1.0000000   8.0000000   1.0000000   1.0000000   8.0000000   1.0000000   1.0000000   8.0000000

  Atom       291         292         293         294         295         296         297         298         299         300
 IAtWgt=           1           1          16           1           1          16           1           1          16           1
 AtmWgt=   1.0078250   1.0078250  15.9949146   1.0078250   1.0078250  15.9949146   1.0078250   1.0078250  15.9949146   1.0078250
 NucSpn=           1           1           0           1           1           0           1           1           0           1
 AtZEff=   0.0000000   0.0000000   0.0000000   0.0000000   0.0000000   0.0000000   0.0000000   0.0000000   0.0000000   0.0000000
 NQMom=    0.0000000   0.0000000   0.0000000   0.0000000   0.0000000   0.0000000   0.0000000   0.0000000   0.0000000   0.0000000
 NMagM=    2.7928460   2.7928460   0.0000000   2.7928460   2.7928460   0.0000000   2.7928460   2.7928460   0.0000000   2.7928460
 AtZNuc=   1.0000000   1.0000000   8.0000000   1.0000000   1.0000000   8.0000000   1.0000000   1.0000000   8.0000000   1.0000000

  Atom       301         302         303         304         305         306         307         308         309         310
 IAtWgt=           1          16           1           1          16           1           1          16           1           1
 AtmWgt=   1.0078250  15.9949146   1.0078250   1.0078250  15.9949146   1.0078250   1.0078250  15.9949146   1.0078250   1.0078250
 NucSpn=           1           0           1           1           0           1           1           0           1           1
 AtZEff=   0.0000000   0.0000000   0.0000000   0.0000000   0.0000000   0.0000000   0.0000000   0.0000000   0.0000000   0.0000000
 NQMom=    0.0000000   0.0000000   0.0000000   0.0000000   0.0000000   0.0000000   0.0000000   0.0000000   0.0000000   0.0000000
 NMagM=    2.7928460   0.0000000   2.7928460   2.7928460   0.0000000   2.7928460   2.7928460   0.0000000   2.7928460   2.7928460
 AtZNuc=   1.0000000   8.0000000   1.0000000   1.0000000   8.0000000   1.0000000   1.0000000   8.0000000   1.0000000   1.0000000

  Atom       311         312         313         314         315         316         317         318         319         320
 IAtWgt=          16           1           1          16           1           1          16           1           1          16
 AtmWgt=  15.9949146   1.0078250   1.0078250  15.9949146   1.0078250   1.0078250  15.9949146   1.0078250   1.0078250  15.9949146
 NucSpn=           0           1           1           0           1           1           0           1           1           0
 AtZEff=   0.0000000   0.0000000   0.0000000   0.0000000   0.0000000   0.0000000   0.0000000   0.0000000   0.0000000   0.0000000
 NQMom=    0.0000000   0.0000000   0.0000000   0.0000000   0.0000000   0.0000000   0.0000000   0.0000000   0.0000000   0.0000000
 NMagM=    0.0000000   2.7928460   2.7928460   0.0000000   2.7928460   2.7928460   0.0000000   2.7928460   2.7928460   0.0000000
 AtZNuc=   8.0000000   1.0000000   1.0000000   8.0000000   1.0000000   1.0000000   8.0000000   1.0000000   1.0000000   8.0000000

  Atom       321         322         323         324         325         326         327         328         329         330
 IAtWgt=           1           1          16           1           1          16           1           1          16           1
 AtmWgt=   1.0078250   1.0078250  15.9949146   1.0078250   1.0078250  15.9949146   1.0078250   1.0078250  15.9949146   1.0078250
 NucSpn=           1           1           0           1           1           0           1           1           0           1
 AtZEff=   0.0000000   0.0000000   0.0000000   0.0000000   0.0000000   0.0000000   0.0000000   0.0000000   0.0000000   0.0000000
 NQMom=    0.0000000   0.0000000   0.0000000   0.0000000   0.0000000   0.0000000   0.0000000   0.0000000   0.0000000   0.0000000
 NMagM=    2.7928460   2.7928460   0.0000000   2.7928460   2.7928460   0.0000000   2.7928460   2.7928460   0.0000000   2.7928460
 AtZNuc=   1.0000000   1.0000000   8.0000000   1.0000000   1.0000000   8.0000000   1.0000000   1.0000000   8.0000000   1.0000000

  Atom       331         332         333         334         335         336         337         338         339         340
 IAtWgt=           1          16           1           1          16           1           1          16           1           1
 AtmWgt=   1.0078250  15.9949146   1.0078250   1.0078250  15.9949146   1.0078250   1.0078250  15.9949146   1.0078250   1.0078250
 NucSpn=           1           0           1           1           0           1           1           0           1           1
 AtZEff=   0.0000000   0.0000000   0.0000000   0.0000000   0.0000000   0.0000000   0.0000000   0.0000000   0.0000000   0.0000000
 NQMom=    0.0000000   0.0000000   0.0000000   0.0000000   0.0000000   0.0000000   0.0000000   0.0000000   0.0000000   0.0000000
 NMagM=    2.7928460   0.0000000   2.7928460   2.7928460   0.0000000   2.7928460   2.7928460   0.0000000   2.7928460   2.7928460
 AtZNuc=   1.0000000   8.0000000   1.0000000   1.0000000   8.0000000   1.0000000   1.0000000   8.0000000   1.0000000   1.0000000

  Atom       341         342         343         344         345         346         347         348         349         350
 IAtWgt=          16           1           1          16           1           1          16           1           1          16
 AtmWgt=  15.9949146   1.0078250   1.0078250  15.9949146   1.0078250   1.0078250  15.9949146   1.0078250   1.0078250  15.9949146
 NucSpn=           0           1           1           0           1           1           0           1           1           0
 AtZEff=   0.0000000   0.0000000   0.0000000   0.0000000   0.0000000   0.0000000   0.0000000   0.0000000   0.0000000   0.0000000
 NQMom=    0.0000000   0.0000000   0.0000000   0.0000000   0.0000000   0.0000000   0.0000000   0.0000000   0.0000000   0.0000000
 NMagM=    0.0000000   2.7928460   2.7928460   0.0000000   2.7928460   2.7928460   0.0000000   2.7928460   2.7928460   0.0000000
 AtZNuc=   8.0000000   1.0000000   1.0000000   8.0000000   1.0000000   1.0000000   8.0000000   1.0000000   1.0000000   8.0000000

  Atom       351         352         353         354         355         356         357         358         359         360
 IAtWgt=           1           1          16           1           1          16           1           1          16           1
 AtmWgt=   1.0078250   1.0078250  15.9949146   1.0078250   1.0078250  15.9949146   1.0078250   1.0078250  15.9949146   1.0078250
 NucSpn=           1           1           0           1           1           0           1           1           0           1
 AtZEff=   0.0000000   0.0000000   0.0000000   0.0000000   0.0000000   0.0000000   0.0000000   0.0000000   0.0000000   0.0000000
 NQMom=    0.0000000   0.0000000   0.0000000   0.0000000   0.0000000   0.0000000   0.0000000   0.0000000   0.0000000   0.0000000
 NMagM=    2.7928460   2.7928460   0.0000000   2.7928460   2.7928460   0.0000000   2.7928460   2.7928460   0.0000000   2.7928460
 AtZNuc=   1.0000000   1.0000000   8.0000000   1.0000000   1.0000000   8.0000000   1.0000000   1.0000000   8.0000000   1.0000000

  Atom       361         362         363         364         365         366         367         368         369         370
 IAtWgt=           1          16           1           1          16           1           1          16           1           1
 AtmWgt=   1.0078250  15.9949146   1.0078250   1.0078250  15.9949146   1.0078250   1.0078250  15.9949146   1.0078250   1.0078250
 NucSpn=           1           0           1           1           0           1           1           0           1           1
 AtZEff=   0.0000000   0.0000000   0.0000000   0.0000000   0.0000000   0.0000000   0.0000000   0.0000000   0.0000000   0.0000000
 NQMom=    0.0000000   0.0000000   0.0000000   0.0000000   0.0000000   0.0000000   0.0000000   0.0000000   0.0000000   0.0000000
 NMagM=    2.7928460   0.0000000   2.7928460   2.7928460   0.0000000   2.7928460   2.7928460   0.0000000   2.7928460   2.7928460
 AtZNuc=   1.0000000   8.0000000   1.0000000   1.0000000   8.0000000   1.0000000   1.0000000   8.0000000   1.0000000   1.0000000

  Atom       371         372         373         374         375         376         377         378         379         380
 IAtWgt=          16           1           1          16           1           1          16           1           1          16
 AtmWgt=  15.9949146   1.0078250   1.0078250  15.9949146   1.0078250   1.0078250  15.9949146   1.0078250   1.0078250  15.9949146
 NucSpn=           0           1           1           0           1           1           0           1           1           0
 AtZEff=   0.0000000   0.0000000   0.0000000   0.0000000   0.0000000   0.0000000   0.0000000   0.0000000   0.0000000   0.0000000
 NQMom=    0.0000000   0.0000000   0.0000000   0.0000000   0.0000000   0.0000000   0.0000000   0.0000000   0.0000000   0.0000000
 NMagM=    0.0000000   2.7928460   2.7928460   0.0000000   2.7928460   2.7928460   0.0000000   2.7928460   2.7928460   0.0000000
 AtZNuc=   8.0000000   1.0000000   1.0000000   8.0000000   1.0000000   1.0000000   8.0000000   1.0000000   1.0000000   8.0000000

  Atom       381         382         383         384         385
 IAtWgt=           1           1          16           1           1
 AtmWgt=   1.0078250   1.0078250  15.9949146   1.0078250   1.0078250
 NucSpn=           1           1           0           1           1
 AtZEff=   0.0000000   0.0000000   0.0000000   0.0000000   0.0000000
 NQMom=    0.0000000   0.0000000   0.0000000   0.0000000   0.0000000
 NMagM=    2.7928460   2.7928460   0.0000000   2.7928460   2.7928460
 AtZNuc=   1.0000000   1.0000000   8.0000000   1.0000000   1.0000000
 Leave Link  101 at Sat May  5 21:58:21 2018, MaxMem= 14763950080 cpu:        37.9
 (Enter /cm/shared/gaussian/g09.e01/intel64-sandybridge/g09/l103.exe)

 GradGradGradGradGradGradGradGradGradGradGradGradGradGradGradGradGradGrad
 Berny optimization.
 Initialization pass.
 Trust Radius=3.00D-01 FncErr=1.00D-07 GrdErr=1.00D-07
 Number of steps in this run=      2 maximum allowed number of steps=      2.
 GradGradGradGradGradGradGradGradGradGradGradGradGradGradGradGradGradGrad

 Leave Link  103 at Sat May  5 21:58:21 2018, MaxMem= 14763950080 cpu:         6.2
 (Enter /cm/shared/gaussian/g09.e01/intel64-sandybridge/g09/l202.exe)
 Symmetry turned off by external request.
 Stoichiometry    BrH256O128(1-)
 Framework group  C1[X(BrH256O128)]
 Deg. of freedom  1149
 Full point group                 C1      NOp   1
                          Input orientation:                          
 ---------------------------------------------------------------------
 Center     Atomic      Atomic             Coordinates (Angstroms)
 Number     Number       Type             X           Y           Z
 ---------------------------------------------------------------------
      1         35           0       20.000000   20.000000   20.000000
      2          8           0       22.090000   19.980000   17.660000
      3          1           0       21.440000   19.740000   18.320000
      4          1           0       21.660000   19.800000   16.820000
      5          8           0       18.430000   21.730000   17.750000
      6          1           0       18.960000   21.110000   18.240000
      7          1           0       17.520000   21.440000   17.880000
      8          8           0       16.900000   20.340000   21.010000
      9          1           0       16.900000   19.770000   21.780000
     10          1           0       17.780000   20.260000   20.650000
     11          8           0       18.240000   17.320000   21.060000
     12          1           0       18.130000   16.560000   20.490000
     13          1           0       18.690000   17.960000   20.520000
     14          8           0       19.860000   20.210000   23.350000
     15          1           0       20.010000   19.860000   22.480000
     16          1           0       20.650000   20.710000   23.550000
     17          8           0       18.920000   23.130000   20.740000
     18          1           0       19.520000   22.380000   20.690000
     19          1           0       18.060000   22.760000   20.570000
     20          8           0       22.500000   22.530000   19.490000
     21          1           0       21.890000   22.940000   18.880000
     22          1           0       22.060000   21.710000   19.740000
     23          8           0       23.490000   19.560000   19.970000
     24          1           0       23.330000   19.770000   19.050000
     25          1           0       22.610000   19.430000   20.340000
     26          8           0       18.440000   17.340000   18.020000
     27          1           0       17.850000   17.600000   17.300000
     28          1           0       18.730000   18.180000   18.390000
     29          8           0       15.990000   20.790000   18.460000
     30          1           0       16.050000   20.510000   19.370000
     31          1           0       15.110000   20.540000   18.190000
     32          8           0       20.360000   15.640000   18.180000
     33          1           0       19.720000   16.350000   18.180000
     34          1           0       19.850000   14.850000   18.010000
     35          8           0       16.590000   19.350000   23.500000
     36          1           0       17.530000   19.180000   23.390000
     37          1           0       16.280000   18.630000   24.050000
     38          8           0       24.040000   22.100000   22.340000
     39          1           0       23.530000   22.190000   21.530000
     40          1           0       24.180000   21.150000   22.430000
     41          8           0       16.890000   24.000000   18.500000
     42          1           0       17.560000   23.320000   18.380000
     43          1           0       17.370000   24.740000   18.880000
     44          8           0       18.260000   21.950000   24.600000
     45          1           0       18.810000   21.370000   24.070000
     46          1           0       17.510000   21.410000   24.860000
     47          8           0       21.250000   24.830000   21.310000
     48          1           0       21.680000   24.470000   22.080000
     49          1           0       20.410000   24.360000   21.260000
     50          8           0       22.310000   15.090000   20.010000
     51          1           0       21.610000   15.540000   19.540000
     52          1           0       23.100000   15.320000   19.530000
     53          8           0       19.140000   24.310000   23.390000
     54          1           0       18.740000   23.600000   23.890000
     55          1           0       19.110000   24.000000   22.480000
     56          8           0       15.240000   17.080000   19.470000
     57          1           0       15.710000   16.320000   19.120000
     58          1           0       15.890000   17.540000   19.990000
     59          8           0       17.660000   16.210000   23.640000
     60          1           0       17.930000   16.620000   22.820000
     61          1           0       18.450000   15.800000   23.980000
     62          8           0       24.980000   20.310000   16.960000
     63          1           0       25.020000   21.210000   17.280000
     64          1           0       24.170000   19.960000   17.330000
     65          8           0       20.440000   20.170000   14.980000
     66          1           0       19.490000   20.270000   15.050000
     67          1           0       20.770000   21.060000   14.830000
     68          8           0       22.380000   16.620000   16.050000
     69          1           0       21.770000   16.500000   16.790000
     70          1           0       21.900000   16.300000   15.290000
     71          8           0       22.930000   17.260000   23.950000
     72          1           0       23.740000   16.910000   24.320000
     73          1           0       23.210000   17.990000   23.400000
     74          8           0       25.940000   21.170000   19.930000
     75          1           0       25.940000   21.830000   19.240000
     76          1           0       25.020000   20.930000   20.040000
     77          8           0       21.160000   15.430000   22.760000
     78          1           0       21.570000   15.490000   21.900000
     79          1           0       21.460000   16.200000   23.240000
     80          8           0       16.760000   18.130000   15.970000
     81          1           0       17.010000   19.060000   15.920000
     82          1           0       15.830000   18.150000   16.210000
     83          8           0       23.050000   23.680000   16.780000
     84          1           0       22.620000   24.450000   17.160000
     85          1           0       23.370000   23.180000   17.530000
     86          8           0       14.320000   21.890000   21.130000
     87          1           0       15.170000   21.550000   21.390000
     88          1           0       14.260000   22.750000   21.550000
     89          8           0       17.650000   20.470000   15.030000
     90          1           0       17.080000   20.380000   14.270000
     91          1           0       17.450000   21.340000   15.380000
     92          8           0       21.300000   25.680000   18.570000
     93          1           0       21.490000   26.610000   18.730000
     94          1           0       21.450000   25.260000   19.420000
     95          8           0       24.500000   24.620000   19.520000
     96          1           0       23.820000   24.010000   19.810000
     97          1           0       24.260000   25.450000   19.920000
     98          8           0       21.500000   22.480000   14.810000
     99          1           0       22.050000   22.650000   15.580000
    100          1           0       20.910000   23.240000   14.770000
    101          8           0       18.690000   16.350000   14.940000
    102          1           0       18.460000   15.420000   14.860000
    103          1           0       18.350000   16.610000   15.790000
    104          8           0       23.990000   16.200000   18.220000
    105          1           0       23.490000   16.380000   17.420000
    106          1           0       24.890000   16.460000   18.000000
    107          8           0       21.190000   18.220000   25.930000
    108          1           0       21.250000   19.050000   25.460000
    109          1           0       21.710000   17.610000   25.410000
    110          8           0       14.170000   19.130000   22.540000
    111          1           0       14.180000   18.330000   23.070000
    112          1           0       15.020000   19.540000   22.720000
    113          8           0       17.230000   15.050000   19.350000
    114          1           0       17.480000   14.750000   20.230000
    115          1           0       17.750000   14.500000   18.760000
    116          8           0       22.530000   24.270000   23.670000
    117          1           0       22.500000   23.360000   23.960000
    118          1           0       23.430000   24.390000   23.350000
    119          8           0       21.710000   21.020000   25.440000
    120          1           0       22.460000   21.220000   26.000000
    121          1           0       21.040000   21.660000   25.690000
    122          8           0       24.800000   19.370000   23.260000
    123          1           0       25.460000   19.170000   22.600000
    124          1           0       25.310000   19.660000   24.020000
    125          8           0       14.350000   23.380000   18.840000
    126          1           0       15.290000   23.430000   18.690000
    127          1           0       14.250000   22.710000   19.520000
    128          8           0       18.810000   25.270000   16.570000
    129          1           0       19.160000   25.370000   17.450000
    130          1           0       19.520000   24.850000   16.080000
    131          8           0       18.400000   18.890000   26.590000
    132          1           0       18.950000   18.800000   27.370000
    133          1           0       19.030000   18.950000   25.870000
    134          8           0       23.390000   20.060000   13.940000
    135          1           0       22.810000   20.750000   14.270000
    136          1           0       24.280000   20.390000   14.120000
    137          8           0       18.080000   26.120000   19.560000
    138          1           0       17.590000   26.340000   20.350000
    139          1           0       18.910000   26.580000   19.650000
    140          8           0       15.240000   22.330000   24.610000
    141          1           0       14.470000   22.840000   24.860000
    142          1           0       15.510000   22.680000   23.770000
    143          8           0       20.040000   23.070000   26.390000
    144          1           0       19.580000   23.610000   27.040000
    145          1           0       19.360000   22.760000   25.800000
    146          8           0       18.460000   13.830000   21.530000
    147          1           0       18.960000   13.060000   21.250000
    148          1           0       18.390000   13.740000   22.480000
    149          8           0       17.130000   25.900000   22.160000
    150          1           0       17.180000   26.840000   22.370000
    151          1           0       17.750000   25.490000   22.760000
    152          8           0       15.260000   16.880000   24.300000
    153          1           0       15.450000   16.780000   25.230000
    154          1           0       16.010000   16.480000   23.860000
    155          8           0       25.710000   22.800000   17.830000
    156          1           0       26.560000   23.150000   17.550000
    157          1           0       25.270000   23.550000   18.240000
    158          8           0       26.690000   18.570000   21.750000
    159          1           0       27.560000   18.370000   21.400000
    160          1           0       26.440000   19.380000   21.300000
    161          8           0       15.260000   24.120000   22.520000
    162          1           0       14.800000   24.630000   23.180000
    163          1           0       15.880000   24.750000   22.130000
    164          8           0       15.630000   24.820000   16.030000
    165          1           0       16.100000   25.640000   16.200000
    166          1           0       15.930000   24.230000   16.720000
    167          8           0       12.670000   17.680000   18.980000
    168          1           0       12.060000   17.830000   19.710000
    169          1           0       13.510000   17.520000   19.400000
    170          8           0       18.650000   13.520000   17.750000
    171          1           0       18.350000   13.680000   16.850000
    172          1           0       18.130000   12.780000   18.050000
    173          8           0       22.130000   17.740000   13.070000
    174          1           0       22.500000   18.590000   13.270000
    175          1           0       21.270000   17.750000   13.490000
    176          8           0       23.610000   13.570000   22.520000
    177          1           0       23.670000   14.310000   21.920000
    178          1           0       23.280000   13.940000   23.330000
    179          8           0       26.320000   24.410000   21.660000
    180          1           0       25.990000   24.700000   20.820000
    181          1           0       25.630000   23.840000   22.010000
    182          8           0       18.610000   18.270000   12.580000
    183          1           0       17.860000   18.200000   11.990000
    184          1           0       18.320000   17.860000   13.390000
    185          8           0       22.860000   12.640000   18.770000
    186          1           0       22.100000   12.110000   18.530000
    187          1           0       22.510000   13.330000   19.330000
    188          8           0       13.190000   20.750000   17.890000
    189          1           0       12.500000   21.410000   18.010000
    190          1           0       13.490000   20.880000   17.000000
    191          8           0       20.430000   12.610000   23.080000
    192          1           0       20.650000   11.930000   22.440000
    193          1           0       20.820000   13.410000   22.720000
    194          8           0       24.890000   23.760000   14.640000
    195          1           0       25.460000   24.430000   15.020000
    196          1           0       24.320000   23.480000   15.370000
    197          8           0       14.440000   21.940000   15.500000
    198          1           0       14.920000   22.760000   15.620000
    199          1           0       14.060000   22.000000   14.620000
    200          8           0       20.860000   25.470000   25.620000
    201          1           0       19.990000   25.150000   25.380000
    202          1           0       21.450000   25.120000   24.950000
    203          8           0       13.900000   17.510000   16.380000
    204          1           0       13.330000   18.060000   15.850000
    205          1           0       13.580000   17.630000   17.280000
    206          8           0       24.930000   15.760000   15.050000
    207          1           0       24.050000   16.060000   15.260000
[...]
    90  H    0.134827
    91  H    0.156552
    92  O   -0.285828
    93  H    0.141742
    94  H    0.139097
    95  O   -0.276983
    96  H    0.146002
    97  H    0.131861
    98  O   -0.249122
    99  H    0.138537
   100  H    0.137428
   101  O   -0.266770
   102  H    0.112343
   103  H    0.140270
   104  O   -0.291425
   105  H    0.141782
   106  H    0.123502
   107  O   -0.274673
   108  H    0.135856
   109  H    0.150539
   110  O   -0.287437
   111  H    0.120637
   112  H    0.145635
   113  O   -0.303761
   114  H    0.150328
   115  H    0.118473
   116  O   -0.239491
   117  H    0.157573
   118  H    0.158125
   119  O   -0.304108
   120  H    0.125699
   121  H    0.143754
   122  O   -0.287962
   123  H    0.157628
   124  H    0.126677
   125  O   -0.318325
   126  H    0.119181
   127  H    0.128174
   128  O   -0.235705
   129  H    0.142843
   130  H    0.132817
   131  O   -0.290632
   132  H    0.119692
   133  H    0.132147
   134  O   -0.249081
   135  H    0.138774
   136  H    0.110429
   137  O   -0.269054
   138  H    0.116463
   139  H    0.126549
   140  O   -0.253673
   141  H    0.128092
   142  H    0.127552
   143  O   -0.262706
   144  H    0.144593
   145  H    0.130491
   146  O   -0.275317
   147  H    0.118553
   148  H    0.126585
   149  O   -0.264833
   150  H    0.140387
   151  H    0.125362
   152  O   -0.272400
   153  H    0.143763
   154  H    0.166137
   155  O   -0.270367
   156  H    0.123774
   157  H    0.143149
   158  O   -0.234865
   159  H    0.138018
   160  H    0.122167
   161  O   -0.295939
   162  H    0.125226
   163  H    0.161252
   164  O   -0.287614
   165  H    0.153110
   166  H    0.134381
   167  O   -0.290551
   168  H    0.133775
   169  H    0.139731
   170  O   -0.231660
   171  H    0.165461
   172  H    0.159602
   173  O   -0.263536
   174  H    0.143132
   175  H    0.130027
   176  O   -0.284531
   177  H    0.136646
   178  H    0.118576
   179  O   -0.291614
   180  H    0.119332
   181  H    0.117018
   182  O   -0.238125
   183  H    0.120449
   184  H    0.142428
   185  O   -0.289928
   186  H    0.124046
   187  H    0.116783
   188  O   -0.282693
   189  H    0.137647
   190  H    0.120364
   191  O   -0.303001
   192  H    0.157261
   193  H    0.153684
   194  O   -0.269036
   195  H    0.113821
   196  H    0.147656
   197  O   -0.258961
   198  H    0.136844
   199  H    0.136521
   200  O   -0.277773
   201  H    0.128393
   202  H    0.136847
   203  O   -0.261158
   204  H    0.154356
   205  H    0.158299
   206  O   -0.275741
   207  H    0.126038
   208  H    0.126748
   209  O   -0.300206
   210  H    0.152098
   211  H    0.118943
   212  O   -0.264554
   213  H    0.153150
   214  H    0.150413
   215  O   -0.294099
   216  H    0.144522
   217  H    0.134989
   218  O   -0.251872
   219  H    0.126617
   220  H    0.124167
   221  O   -0.250648
   222  H    0.144075
   223  H    0.128995
   224  O   -0.278076
   225  H    0.122707
   226  H    0.117646
   227  O   -0.291440
   228  H    0.137762
   229  H    0.136853
   230  O   -0.274784
   231  H    0.140891
   232  H    0.135679
   233  O   -0.236310
   234  H    0.158292
   235  H    0.124576
   236  O   -0.250494
   237  H    0.135668
   238  H    0.135556
   239  O   -0.320089
   240  H    0.126897
   241  H    0.127707
   242  O   -0.272826
   243  H    0.149434
   244  H    0.142001
   245  O   -0.263277
   246  H    0.145116
   247  H    0.145665
   248  O   -0.310610
   249  H    0.120948
   250  H    0.138896
   251  O   -0.268099
   252  H    0.152033
   253  H    0.128119
   254  O   -0.252332
   255  H    0.136919
   256  H    0.117658
   257  O   -0.241482
   258  H    0.135823
   259  H    0.129943
   260  O   -0.274785
   261  H    0.154346
   262  H    0.131203
   263  O   -0.333191
   264  H    0.101943
   265  H    0.135169
   266  O   -0.302134
   267  H    0.125262
   268  H    0.135597
   269  O   -0.314964
   270  H    0.111594
   271  H    0.117212
   272  O   -0.254204
   273  H    0.145415
   274  H    0.136238
   275  O   -0.279993
   276  H    0.136958
   277  H    0.151735
   278  O   -0.247544
   279  H    0.130490
   280  H    0.145070
   281  O   -0.284020
   282  H    0.137593
   283  H    0.117751
   284  O   -0.276421
   285  H    0.147004
   286  H    0.162416
   287  O   -0.260343
   288  H    0.145761
   289  H    0.120230
   290  O   -0.293163
   291  H    0.120183
   292  H    0.135185
   293  O   -0.250928
   294  H    0.146668
   295  H    0.147238
   296  O   -0.267267
   297  H    0.138417
   298  H    0.139515
   299  O   -0.248913
   300  H    0.123737
   301  H    0.161101
   302  O   -0.307065
   303  H    0.122558
   304  H    0.152603
   305  O   -0.261874
   306  H    0.143967
   307  H    0.147248
   308  O   -0.285862
   309  H    0.124184
   310  H    0.129379
   311  O   -0.278784
   312  H    0.136155
   313  H    0.118318
   314  O   -0.269647
   315  H    0.137713
   316  H    0.132595
   317  O   -0.326916
   318  H    0.115328
   319  H    0.130925
   320  O   -0.247149
   321  H    0.150719
   322  H    0.152015
   323  O   -0.240927
   324  H    0.130910
   325  H    0.140316
   326  O   -0.248397
   327  H    0.154678
   328  H    0.135045
   329  O   -0.224218
   330  H    0.157946
   331  H    0.149304
   332  O   -0.310278
   333  H    0.123110
   334  H    0.121925
   335  O   -0.241955
   336  H    0.133307
   337  H    0.137459
   338  O   -0.253708
   339  H    0.140580
   340  H    0.142851
   341  O   -0.293913
   342  H    0.130436
   343  H    0.127650
   344  O   -0.283252
   345  H    0.130654
   346  H    0.106757
   347  O   -0.310197
   348  H    0.112580
   349  H    0.134342
   350  O   -0.293271
   351  H    0.109907
   352  H    0.107662
   353  O   -0.284862
   354  H    0.116769
   355  H    0.117725
   356  O   -0.243799
   357  H    0.119783
   358  H    0.129418
   359  O   -0.295035
   360  H    0.141883
   361  H    0.141453
   362  O   -0.225812
   363  H    0.144230
   364  H    0.156981
   365  O   -0.306585
   366  H    0.139533
   367  H    0.109373
   368  O   -0.251404
   369  H    0.141576
   370  H    0.156381
   371  O   -0.288048
   372  H    0.147986
   373  H    0.139413
   374  O   -0.277970
   375  H    0.136801
   376  H    0.114071
   377  O   -0.243105
   378  H    0.172344
   379  H    0.143562
   380  O   -0.280256
   381  H    0.118090
   382  H    0.132307
   383  O   -0.241238
   384  H    0.148151
   385  H    0.151012
 Sum of Mulliken charges =  -1.00000
 Mulliken charges with hydrogens summed into heavy atoms:
               1
     1  Br  -0.710361
     2  O   -0.008172
     5  O   -0.012821
     8  O    0.001701
    11  O   -0.003361
    14  O    0.041953
    17  O    0.030816
    20  O    0.023515
    23  O    0.007884
    26  O    0.006529
    29  O   -0.018222
    32  O   -0.011389
    35  O    0.017603
    38  O   -0.036947
    41  O   -0.025944
    44  O    0.027423
    47  O   -0.023929
    50  O    0.012379
    53  O   -0.028701
    56  O   -0.006238
    59  O    0.014827
    62  O    0.004167
    65  O   -0.051025
    68  O   -0.002914
    71  O    0.012178
    74  O   -0.036082
    77  O   -0.031433
    80  O   -0.006906
    83  O    0.019217
    86  O    0.018523
    89  O    0.040317
    92  O   -0.004990
    95  O    0.000881
    98  O    0.026844
   101  O   -0.014158
   104  O   -0.026141
   107  O    0.011723
   110  O   -0.021165
   113  O   -0.034960
   116  O    0.076206
   119  O   -0.034654
   122  O   -0.003657
   125  O   -0.070969
   128  O    0.039954
   131  O   -0.038793
   134  O    0.000121
   137  O   -0.026043
   140  O    0.001970
   143  O    0.012377
   146  O   -0.030179
   149  O    0.000915
   152  O    0.037499
   155  O   -0.003445
   158  O    0.025319
   161  O   -0.009461
   164  O   -0.000122
   167  O   -0.017045
   170  O    0.093402
   173  O    0.009623
   176  O   -0.029308
   179  O   -0.055264
   182  O    0.024751
   185  O   -0.049098
   188  O   -0.024682
   191  O    0.007944
   194  O   -0.007558
   197  O    0.014403
   200  O   -0.012532
   203  O    0.051498
   206  O   -0.022954
   209  O   -0.029165
   212  O    0.039009
   215  O   -0.014587
   218  O   -0.001088
   221  O    0.022422
   224  O   -0.037723
   227  O   -0.016825
   230  O    0.001787
   233  O    0.046557
   236  O    0.020730
   239  O   -0.065485
   242  O    0.018609
   245  O    0.027503
   248  O   -0.050767
   251  O    0.012053
   254  O    0.002245
   257  O    0.024284
   260  O    0.010763
   263  O   -0.096079
   266  O   -0.041274
   269  O   -0.086158
   272  O    0.027450
   275  O    0.008700
   278  O    0.028016
   281  O   -0.028675
   284  O    0.032999
   287  O    0.005648
   290  O   -0.037795
   293  O    0.042978
   296  O    0.010665
   299  O    0.035924
   302  O   -0.031904
   305  O    0.029341
   308  O   -0.032299
   311  O   -0.024312
   314  O    0.000660
   317  O   -0.080663
   320  O    0.055585
   323  O    0.030299
   326  O    0.041326
   329  O    0.083032
   332  O   -0.065242
   335  O    0.028811
   338  O    0.029723
   341  O   -0.035827
   344  O   -0.045842
   347  O   -0.063275
   350  O   -0.075702
   353  O   -0.050368
   356  O    0.005402
   359  O   -0.011700
   362  O    0.075399
   365  O   -0.057679
   368  O    0.046552
   371  O   -0.000649
   374  O   -0.027099
   377  O    0.072801
   380  O   -0.029858
   383  O    0.057924
         Mulliken charges condensed to fragments:
      1     -0.710361
      2     -0.289639
 Electronic spatial extent (au):  <R**2>=        5894410.8499
 Charge=             -1.0000 electrons
 Dipole moment (field-independent basis, Debye):
    X=            -89.7746    Y=            -68.5962    Z=            -79.0425  Tot=            137.8863
 Quadrupole moment (field-independent basis, Debye-Ang):
   XX=          -2864.0466   YY=          -1633.9992   ZZ=          -2175.9023
   XY=          -1023.6008   XZ=          -1461.1671   YZ=          -1015.7510
 Traceless Quadrupole moment (field-independent basis, Debye-Ang):
   XX=           -639.3972   YY=            590.6502   ZZ=             48.7470
   XY=          -1023.6008   XZ=          -1461.1671   YZ=          -1015.7510
 Octapole moment (field-independent basis, Debye-Ang**2):
  XXX=        -102095.0842  YYY=         -52830.3753  ZZZ=         -73187.9481  XYY=         -21078.7314
  XXY=         -36200.7148  XXZ=         -50195.1349  XZZ=         -41516.1624  YZZ=         -32008.4601
  YYZ=         -24860.5987  XYZ=         -14623.2269
 Hexadecapole moment (field-independent basis, Debye-Ang**3):
 XXXX=       -3512413.9104 YYYY=       -1813989.1497 ZZZZ=       -2491670.9972 XXXY=       -1469546.9205
 XXXZ=       -1882175.1593 YYYX=        -721233.2035 YYYZ=        -870961.1076 ZZZX=       -1431876.9498
 ZZZY=       -1233441.1476 XXYY=        -656510.8047 XXZZ=       -1281141.9149 YYZZ=        -751246.9737
 XXYZ=        -622371.4981 YYXZ=        -316999.7510 ZZXY=        -555601.9873
 N-N= 5.558809223319D+04 E-N=-1.405269281976D+05  KE= 1.230051096010D+04
 Leave Link  601 at Sat May  5 22:35:48 2018, MaxMem= 14763950080 cpu:       331.8
 (Enter /cm/shared/gaussian/g09.e01/intel64-sandybridge/g09/l701.exe)
 Compute integral first derivatives.
 ... and contract with generalized density number  0.
 Leave Link  701 at Sat May  5 22:36:14 2018, MaxMem= 14763950080 cpu:      1247.5
 (Enter /cm/shared/gaussian/g09.e01/intel64-sandybridge/g09/l702.exe)
 L702 exits ... SP integral derivatives will be done elsewhere.
 Leave Link  702 at Sat May  5 22:36:14 2018, MaxMem= 14763950080 cpu:         3.0
 (Enter /cm/shared/gaussian/g09.e01/intel64-sandybridge/g09/l703.exe)
 Compute integral first derivatives, UseDBF=F ICtDFT=           0.
 Integral derivatives from FoFJK, PRISM(SPDF).
 Calling FoFJK, ICntrl=      2127 FMM=T ISym2X=0 I1Cent= 0 IOpClX= 0 NMat=1 NMatS=1 NMatT=0.
 FoFJK:  IHMeth= 1 ICntrl=    2127 DoSepK=F KAlg= 0 I1Cent=   0 FoldK=F
 IRaf=         0 NMat=   1 IRICut=       1 DoRegI=T DoRafI=F ISym2E= 0.
 FoFCou: FMM=T IPFlag=           0 FMFlag=      100000 FMFlg1=        2001
         NFxFlg=           0 DoJE=F BraDBF=F KetDBF=F FulRan=T
         wScrn=  0.000000 ICntrl=    2127 IOpCl=  0 I1Cent=           0 NGrid=           0
         NMat0=    1 NMatS0=      1 NMatT0=    0 NMatD0=    1 NMtDS0=    0 NMtDT0=    0
 Symmetry not used in FoFCou.
 FMM levels:  10  Number of levels for PrismC:   9
 Leave Link  703 at Sat May  5 22:40:18 2018, MaxMem= 14763950080 cpu:     15332.1
 (Enter /cm/shared/gaussian/g09.e01/intel64-sandybridge/g09/l716.exe)
 Dipole        =-3.53200508D+01-2.69878220D+01-3.10977168D+01
 Cartesian Forces:  Max     0.036205133 RMS     0.010685345
 Leave Link  716 at Sat May  5 22:40:23 2018, MaxMem= 14763950080 cpu:       283.7
 (Enter /cm/shared/gaussian/g09.e01/intel64-sandybridge/g09/l122.exe)
 CPIOFr:  IOpCl= 0 IRwI=-1 IRwCP=  731 ICalc= -1 LCPTot=    15131500 Len1MO=    38501983 IndFrg=    15131500
 CPIOFr:  IOpCl= 0 IRwI=-1 IRwCP=  731 ICalc=  0 LCPTot=    15131500 Len1MO=    38501983 IndFrg=    53633483
 Counterpoise: doing DCBS calculation for fragment   1 NewBq=T
 Leave Link  122 at Sat May  5 22:40:25 2018, MaxMem= 14763950080 cpu:       161.3
 (Enter /cm/shared/gaussian/g09.e01/intel64-sandybridge/g09/l301.exe)
 Basis read from rwf:  (5D, 7F)
 No pseudopotential information found on rwf file.
  3099 basis functions,  6163 primitive gaussians,  3229 cartesian basis functions
    18 alpha electrons       18 beta electrons
       nuclear repulsion energy         0.0000000000 Hartrees.
 IExCor= 1009 DFT=T Ex+Corr=PBE1PBE ExCW=0 ScaHFX=  0.250000
 ScaDFX=  0.750000  0.750000  1.000000  1.000000 ScalE2=  1.000000  1.000000
 IRadAn=      0 IRanWt=     -1 IRanGd=            0 ICorTp=0 IEmpDi=  4
 NAtoms=  385 NActive=  385 NUniq=  385 SFac= 1.00D+00 NAtFMM=   60 NAOKFM=T Big=T
 Integral buffers will be    131072 words long.
 Raffenetti 2 integral format.
 Two-electron integral symmetry is turned off.
 No density basis found on file   718.
 Leave Link  301 at Sat May  5 22:40:25 2018, MaxMem= 14763950080 cpu:         8.4
 (Enter /cm/shared/gaussian/g09.e01/intel64-sandybridge/g09/l302.exe)
 NPDir=0 NMtPBC=     1 NCelOv=     1 NCel=       1 NClECP=     1 NCelD=      1
         NCelK=      1 NCelE2=     1 NClLst=     1 CellRange=     0.0.
 One-electron integrals computed using PRISM.
 NBasis=  3099 RedAO= T EigKep=  1.26D-02  NBF=  3099
 NBsUse=  3099 1.00D-06 EigRej= -1.00D+00 NBFU=  3099
 Precomputing XC quadrature grid using
 IXCGrd= 4 IRadAn=           0 IRanWt=          -1 IRanGd=           0 AccXCQ= 0.00D+00.
 Generated NRdTot=       0 NPtTot=           0 NUsed=           0 NTot=          32
 NSgBfM=  1220  1257  1298  1340  1358 MxSgAt=   385 MxSgA2=   352.
 Leave Link  302 at Sat May  5 22:42:32 2018, MaxMem= 14763950080 cpu:      8071.2
 (Enter /cm/shared/gaussian/g09.e01/intel64-sandybridge/g09/l303.exe)
 DipDrv:  MaxL=1.
 Leave Link  303 at Sat May  5 22:42:37 2018, MaxMem= 14763950080 cpu:       289.0
 (Enter /cm/shared/gaussian/g09.e01/intel64-sandybridge/g09/l401.exe)
 ExpMin= 1.22D-01 ExpMax= 6.40D+05 ExpMxC= 6.18D+03 IAcc=2 IRadAn=         4 AccDes= 0.00D+00
 Harris functional with IExCor= 1009 and IRadAn=       4 diagonalized for initial guess.
 HarFok:  IExCor= 1009 AccDes= 0.00D+00 IRadAn=         4 IDoV= 1 UseB2=F ITyADJ=14
 ICtDFT=  3500011 ScaDFX=  1.000000  1.000000  1.000000  1.000000
 FoFCou: FMM=F IPFlag=           0 FMFlag=      100000 FMFlg1=        2001
         NFxFlg=           0 DoJE=T BraDBF=F KetDBF=T FulRan=T
         wScrn=  0.000000 ICntrl=     500 IOpCl=  0 I1Cent=   200000004 NGrid=           0
         NMat0=    1 NMatS0=      1 NMatT0=    0 NMatD0=    1 NMtDS0=    0 NMtDT0=    0
 Symmetry not used in FoFCou.
 Harris En= -2574.02009612212    
 JPrj=0 DoOrth=F DoCkMO=F.
 Leave Link  401 at Sat May  5 22:43:47 2018, MaxMem= 14763950080 cpu:      4477.3
 (Enter /cm/shared/gaussian/g09.e01/intel64-sandybridge/g09/l502.exe)
 Closed shell SCF:
 Using DIIS extrapolation, IDIIS=  1040.
 Two-electron integral symmetry not used.
 IVT=    31524673 IEndB=    31524673 NGot= 14763950080 MDV= 14742871718
 LenX= 14742871718 LenY= 14732442048
 Requested convergence on RMS density matrix=1.00D-08 within 128 cycles.
 Requested convergence on MAX density matrix=1.00D-06.
 Requested convergence on             energy=1.00D-06.
 No special actions if energy rises.
 Fock matrices will be formed incrementally for  20 cycles.
 Integral accuracy reduced to 1.0D-05 until final iterations.

 Cycle   1  Pass 0  IDiag  1:
 FoFJK:  IHMeth= 1 ICntrl=       0 DoSepK=F KAlg= 0 I1Cent=   0 FoldK=F
 IRaf= 380000000 NMat=   1 IRICut=       1 DoRegI=T DoRafI=F ISym2E= 0.
 FoFCou: FMM=T IPFlag=           0 FMFlag=      100000 FMFlg1=        2001
         NFxFlg=           0 DoJE=F BraDBF=F KetDBF=F FulRan=T
         wScrn=  0.000000 ICntrl=       0 IOpCl=  0 I1Cent=           0 NGrid=           0
         NMat0=    1 NMatS0=      1 NMatT0=    0 NMatD0=    1 NMtDS0=    0 NMtDT0=    0
 Symmetry not used in FoFCou.
 FMM levels:  10  Number of levels for PrismC:   9
 E= -2573.87863636340    
 DIIS: error= 5.64D-03 at cycle   1 NSaved=   1.
 NSaved= 1 IEnMin= 1 EnMin= -2573.87863636340     IErMin= 1 ErrMin= 5.64D-03
 ErrMax= 5.64D-03  0.00D+00 EMaxC= 1.00D-01 BMatC= 3.92D-02 BMatP= 3.92D-02
 IDIUse=3 WtCom= 9.44D-01 WtEn= 5.64D-02
 Coeff-Com:  0.100D+01
 Coeff-En:   0.100D+01
 Coeff:      0.100D+01
 Gap=     0.172 Goal=   None    Shift=    0.000
 GapD=    0.172 DampG=1.000 DampE=1.000 DampFc=1.0000 IDamp=-1.
 RMSDP=1.32D-04 MaxDP=6.44D-02              OVMax= 1.55D-01

 Cycle   2  Pass 0  IDiag  1:
 RMSU=  1.30D-04    CP:  9.88D-01
 E= -2573.90044339906     Delta-E=       -0.021807035655 Rises=F Damp=F
 DIIS: error= 1.41D-03 at cycle   2 NSaved=   2.
 NSaved= 2 IEnMin= 2 EnMin= -2573.90044339906     IErMin= 2 ErrMin= 1.41D-03
 ErrMax= 1.41D-03  0.00D+00 EMaxC= 1.00D-01 BMatC= 7.99D-03 BMatP= 3.92D-02
 IDIUse=3 WtCom= 9.86D-01 WtEn= 1.41D-02
 Coeff-Com:  0.231D+00 0.769D+00
 Coeff-En:   0.647D-01 0.935D+00
 Coeff:      0.229D+00 0.771D+00
 Gap=     0.155 Goal=   None    Shift=    0.000
 RMSDP=5.82D-05 MaxDP=5.35D-02 DE=-2.18D-02 OVMax= 7.36D-02

 Cycle   3  Pass 0  IDiag  1:
 RMSU=  3.93D-05    CP:  9.93D-01  6.76D-01
 E= -2573.90933200791     Delta-E=       -0.008888608855 Rises=F Damp=F
 DIIS: error= 1.86D-03 at cycle   3 NSaved=   3.
 NSaved= 3 IEnMin= 3 EnMin= -2573.90933200791     IErMin= 2 ErrMin= 1.41D-03
 ErrMax= 1.86D-03  0.00D+00 EMaxC= 1.00D-01 BMatC= 2.91D-03 BMatP= 7.99D-03
 IDIUse=3 WtCom= 9.81D-01 WtEn= 1.86D-02
 Coeff-Com:  0.624D-01 0.362D+00 0.575D+00
 Coeff-En:   0.000D+00 0.173D+00 0.827D+00
 Coeff:      0.613D-01 0.359D+00 0.580D+00
 Gap=     0.134 Goal=   None    Shift=    0.000
 RMSDP=1.98D-05 MaxDP=1.86D-02 DE=-8.89D-03 OVMax= 2.37D-02

 Cycle   4  Pass 0  IDiag  1:
 RMSU=  2.39D-06    CP:  9.92D-01  7.70D-01  6.14D-01
 E= -2573.91259233675     Delta-E=       -0.003260328843 Rises=F Damp=F
 DIIS: error= 4.31D-05 at cycle   4 NSaved=   4.
 NSaved= 4 IEnMin= 4 EnMin= -2573.91259233675     IErMin= 4 ErrMin= 4.31D-05
 ErrMax= 4.31D-05  0.00D+00 EMaxC= 1.00D-01 BMatC= 1.02D-06 BMatP= 2.91D-03
 IDIUse=1 WtCom= 1.00D+00 WtEn= 0.00D+00
 Coeff-Com: -0.945D-03 0.130D-01 0.302D-01 0.958D+00
 Coeff:     -0.945D-03 0.130D-01 0.302D-01 0.958D+00
 Gap=     0.134 Goal=   None    Shift=    0.000
 RMSDP=6.62D-07 MaxDP=5.31D-04 DE=-3.26D-03 OVMax= 7.39D-04

 Initial convergence to 1.0D-05 achieved.  Increase integral accuracy.
 Cycle   5  Pass 1  IDiag  1:
 E= -2573.91326616286     Delta-E=       -0.000673826105 Rises=F Damp=F
 DIIS: error= 4.76D-06 at cycle   1 NSaved=   1.
 NSaved= 1 IEnMin= 1 EnMin= -2573.91326616286     IErMin= 1 ErrMin= 4.76D-06
 ErrMax= 4.76D-06  0.00D+00 EMaxC= 1.00D-01 BMatC= 8.94D-08 BMatP= 8.94D-08
 IDIUse=1 WtCom= 1.00D+00 WtEn= 0.00D+00
 Coeff-Com:  0.100D+01
 Coeff:      0.100D+01
 Gap=     0.135 Goal=   None    Shift=    0.000
