 Entering Gaussian System, Link 0=/cm/shared/gaussian/g09.e01/intel64-sandybridge/g09/g09
 Initial command:
 /cm/shared/gaussian/g09.e01/intel64-sandybridge/g09/l1.exe "/local/scratch/m.peluso/128_wat/370/Gau-32393.inp" -scrdir="/local/scratch/m.peluso/128_wat/370/"
 Entering Link 1 = /cm/shared/gaussian/g09.e01/intel64-sandybridge/g09/l1.exe PID=     32394.
  
 Copyright (c) 1988,1990,1992,1993,1995,1998,2003,2009,2015,
            Gaussian, Inc.  All Rights Reserved.
  
 This is part of the Gaussian(R) 09 program.  It is based on
 the Gaussian(R) 03 system (copyright 2003, Gaussian, Inc.),
 the Gaussian(R) 98 system (copyright 1998, Gaussian, Inc.),
 the Gaussian(R) 94 system (copyright 1995, Gaussian, Inc.),
 the Gaussian 92(TM) system (copyright 1992, Gaussian, Inc.),
 the Gaussian 90(TM) system (copyright 1990, Gaussian, Inc.),
 the Gaussian 88(TM) system (copyright 1988, Gaussian, Inc.),
 the Gaussian 86(TM) system (copyright 1986, Carnegie Mellon
 University), and the Gaussian 82(TM) system (copyright 1983,
 Carnegie Mellon University). Gaussian is a federally registered
 trademark of Gaussian, Inc.
  
 This software contains proprietary and confidential information,
 including trade secrets, belonging to Gaussian, Inc.
  
 This software is provided under written license and may be
 used, copied, transmitted, or stored only in accord with that
 written license.
  
 The following legend is applicable only to US Government
 contracts under FAR:
  
                    RESTRICTED RIGHTS LEGEND
  
 Use, reproduction and disclosure by the US Government is
 subject to restrictions as set forth in subparagraphs (a)
 and (c) of the Commercial Computer Software - Restricted
 Rights clause in FAR 52.227-19.
  
 Gaussian, Inc.
 340 Quinnipiac St., Bldg. 40, Wallingford CT 06492
  
  
 ---------------------------------------------------------------
 Warning -- This program may not be used in any manner that
 competes with the business of Gaussian, Inc. or will provide
 assistance to any competitor of Gaussian, Inc.  The licensee
 of this program is prohibited from giving any competitor of
 Gaussian, Inc. access to this program.  By using this program,
 the user acknowledges that Gaussian, Inc. is engaged in the
 business of creating and licensing software in the field of
 computational chemistry and represents and warrants to the
 licensee that it is not a competitor of Gaussian, Inc. and that
 it will not use this program in any manner prohibited above.
 ---------------------------------------------------------------
  

 Cite this work as:
 Gaussian 09, Revision E.01,
 M. J. Frisch, G. W. Trucks, H. B. Schlegel, G. E. Scuseria, 
 M. A. Robb, J. R. Cheeseman, G. Scalmani, V. Barone, B. Mennucci, 
 G. A. Petersson, H. Nakatsuji, M. Caricato, X. Li, H. P. Hratchian, 
 A. F. Izmaylov, J. Bloino, G. Zheng, J. L. Sonnenberg, M. Hada, 
 M. Ehara, K. Toyota, R. Fukuda, J. Hasegawa, M. Ishida, T. Nakajima, 
 Y. Honda, O. Kitao, H. Nakai, T. Vreven, J. A. Montgomery, Jr., 
 J. E. Peralta, F. Ogliaro, M. Bearpark, J. J. Heyd, E. Brothers, 
 K. N. Kudin, V. N. Staroverov, T. Keith, R. Kobayashi, J. Normand, 
 K. Raghavachari, A. Rendell, J. C. Burant, S. S. Iyengar, J. Tomasi, 
 M. Cossi, N. Rega, J. M. Millam, M. Klene, J. E. Knox, J. B. Cross, 
 V. Bakken, C. Adamo, J. Jaramillo, R. Gomperts, R. E. Stratmann, 
 O. Yazyev, A. J. Austin, R. Cammi, C. Pomelli, J. W. Ochterski, 
 R. L. Martin, K. Morokuma, V. G. Zakrzewski, G. A. Voth, 
 P. Salvador, J. J. Dannenberg, S. Dapprich, A. D. Daniels, 
 O. Farkas, J. B. Foresman, J. V. Ortiz, J. Cioslowski, 
 and D. J. Fox, Gaussian, Inc., Wallingford CT, 2013.
 
 ******************************************
 Gaussian 09:  ES64L-G09RevE.01 30-Nov-2015
                 7-May-2018 
 ******************************************
 %Mem=110GB
 %NProcShared=64
 Will use up to   64 processors via shared memory.
 %chk=snap119.chk
 ----------------------------------------------
 #p PBE1PBE/cc-pvDZ force Counterpoise=2 noSymm
 ----------------------------------------------
 1/10=7,30=1,38=1,62=2/1,3;
 2/12=2,15=1,17=6,18=5,40=1/2;
 1/10=7,30=1,38=1,53=2,62=2,63=101/22;
 3/5=16,11=2,16=1,25=1,30=1,71=1,74=-13/1,2,3;
 4//1;
 5/5=2,38=5/2;
 6/7=2,8=2,9=2,10=2,28=1/1;
 7/7=1,29=1,30=1,33=-1/1,2,3,16;
 1/10=7,30=1,53=2,62=2,63=101/22;
 3/5=7,6=11,11=2,16=1,25=1,30=1,71=1,74=-13,82=7/1,2,3;
 4//1;
 5/5=2,38=5/2;
 6/7=2,8=2,9=2,10=2,28=1/1;
 7/7=1,29=1,30=1,33=-1/1,2,3,16;
 1/10=7,30=1,53=2,62=2,63=101/22(-5);
 7/9=1,29=1,44=-1/16;
 1/10=7,30=1,62=2/3;
 99//99;
 Leave Link    1 at Mon May  7 18:10:04 2018, MaxMem= 14763950080 cpu:       514.3
 (Enter /cm/shared/gaussian/g09.e01/intel64-sandybridge/g09/l101.exe)
 ---------------------------------------
 forces on chloride comput - NWATER: 128
 ---------------------------------------
 Symbolic Z-matrix:
 Charge = -1 Multiplicity = 1 in supermolecule
 Charge = -1 Multiplicity = 1 in fragment      1.
 Charge =  0 Multiplicity = 1 in fragment      2.
 Br(Fragment=1)        20.       20.       20. 
 O(Fragment=2)         22.45     18.86     18.66 
 H(Fragment=2)         23.02     19.43     19.17 
 H(Fragment=2)         21.57     19.05     18.98 
 O(Fragment=2)         19.99     17.37     21.79 
 H(Fragment=2)         20.85     17.       21.97 
 H(Fragment=2)         20.17     18.21     21.37 
 O(Fragment=2)         18.81     18.34     17.51 
 H(Fragment=2)         17.94     17.93     17.53 
 H(Fragment=2)         18.97     18.61     18.41 
 O(Fragment=2)         22.7      21.78     20.31 
 H(Fragment=2)         21.9      21.3      20.53 
 H(Fragment=2)         23.34     21.47     20.95 
 O(Fragment=2)         16.75     18.87     20. 
 H(Fragment=2)         16.92     17.93     20.1 
 H(Fragment=2)         17.56     19.29     20.28 
 O(Fragment=2)         18.03     21.95     22.12 
 H(Fragment=2)         18.38     22.79     22.42 
 H(Fragment=2)         18.81     21.45     21.86 
 O(Fragment=2)         20.89     23.27     18.21 
 H(Fragment=2)         21.56     23.41     17.54 
 H(Fragment=2)         21.07     22.4      18.56 
 O(Fragment=2)         18.05     23.23     17.8 
 H(Fragment=2)         18.71     23.91     17.65 
 H(Fragment=2)         18.49     22.61     18.38 
 O(Fragment=2)         19.39     20.72     15.98 
 H(Fragment=2)         19.13     21.56     16.37 
 H(Fragment=2)         18.99     20.06     16.55 
 O(Fragment=2)         15.85     20.98     18.45 
 H(Fragment=2)         16.55     20.38     18.68 
 H(Fragment=2)         16.2      21.85     18.66 
 O(Fragment=2)         22.42     16.43     18.31 
 H(Fragment=2)         23.32     16.19     18.1 
 H(Fragment=2)         22.46     17.35     18.54 
 O(Fragment=2)         17.27     17.31     23.08 
 H(Fragment=2)         18.14     17.38     22.67 
 H(Fragment=2)         16.94     16.47     22.79 
 O(Fragment=2)         22.45     18.38     15.95 
 H(Fragment=2)         21.88     17.62     16.09 
 H(Fragment=2)         22.66     18.68     16.83 
 O(Fragment=2)         17.48     20.11     24.73 
 H(Fragment=2)         17.8      20.21     23.84 
 H(Fragment=2)         16.58     19.8      24.63 
 O(Fragment=2)         19.15     24.92     20.18 
 H(Fragment=2)         19.78     24.56     19.55 
 H(Fragment=2)         19.33     25.86     20.17 
 O(Fragment=2)         16.16     23.28     20.55 
 H(Fragment=2)         16.59     22.8      21.27 
 H(Fragment=2)         16.68     24.08     20.45 
 O(Fragment=2)         23.24     21.16     23.66 
 H(Fragment=2)         23.47     20.5      23. 
 H(Fragment=2)         23.52     20.77     24.49 
 O(Fragment=2)         24.09     23.8      19.79 
 H(Fragment=2)         23.5      23.05     19.85 
 H(Fragment=2)         24.53     23.68     18.94 
 O(Fragment=2)         21.99     21.13     15.38 
 H(Fragment=2)         21.08     21.31     15.64 
 H(Fragment=2)         22.07     20.18     15.41 
 O(Fragment=2)         23.83     18.34     23.17 
 H(Fragment=2)         22.94     18.58     23.4 
 H(Fragment=2)         23.74     17.61     22.56 
 O(Fragment=2)         20.41     14.92     19.66 
 H(Fragment=2)         21.2      15.44     19.76 
 H(Fragment=2)         20.71     14.1      19.25 
 O(Fragment=2)         20.15     16.8      15.46 
 H(Fragment=2)         19.67     17.43     16. 
 H(Fragment=2)         19.48     16.4      14.9 
 O(Fragment=2)         19.76     24.5      22.75 
 H(Fragment=2)         19.56     24.4      21.81 
 H(Fragment=2)         19.34     25.33     22.99 
 O(Fragment=2)         14.52     19.46     21.25 
 H(Fragment=2)         15.29     19.26     20.71 
 H(Fragment=2)         14.05     18.63     21.32 
 O(Fragment=2)         24.75     20.23     21.1 
 H(Fragment=2)         25.25     20.76     20.47 
 H(Fragment=2)         25.1      19.34     21. 
 O(Fragment=2)         18.11     15.18     21.28 
 H(Fragment=2)         19.04     15.33     21.11 
 H(Fragment=2)         17.69     15.32     20.44 
 O(Fragment=2)         15.43     17.75     17.6 
 H(Fragment=2)         14.58     18.02     17.26 
 H(Fragment=2)         15.64     18.41     18.27 
 O(Fragment=2)         19.13     22.08     25.31 
 H(Fragment=2)         19.52     22.44     24.51 
 H(Fragment=2)         18.53     21.4      25. 
 O(Fragment=2)         22.29     23.98     23.54 
 H(Fragment=2)         22.51     23.07     23.34 
 H(Fragment=2)         21.39     24.08     23.23 
 O(Fragment=2)         23.77     16.36     21.34 
 H(Fragment=2)         24.3      15.56     21.35 
 H(Fragment=2)         24.17     16.91     20.66 
 O(Fragment=2)         21.51     18.29     24.82 
 H(Fragment=2)         22.11     18.71     25.44 
 H(Fragment=2)         20.65     18.35     25.23 
 O(Fragment=2)         19.39     14.32     17.18 
 H(Fragment=2)         19.51     15.09     16.62 
 H(Fragment=2)         19.53     14.65     18.07 
 O(Fragment=2)         15.23     22.23     16.06 
 H(Fragment=2)         15.56     21.72     16.8 
 H(Fragment=2)         15.82     22.98     16. 
 O(Fragment=2)         22.73     23.91     16.36 
 H(Fragment=2)         23.67     23.78     16.42 
 H(Fragment=2)         22.41     23.16     15.86 
 O(Fragment=2)         16.96     15.35     18.31 
 H(Fragment=2)         16.3      15.98     18.02 
 H(Fragment=2)         16.72     14.53     17.87 
 O(Fragment=2)         15.07     18.66     24.14 
 H(Fragment=2)         15.8      18.16     23.75 
 H(Fragment=2)         14.3      18.39     23.64 
 O(Fragment=2)         13.71     21.92     20.58 
 H(Fragment=2)         13.88     20.99     20.72 
 H(Fragment=2)         14.55     22.35     20.76 
 O(Fragment=2)         16.66     17.77     14.65 
 H(Fragment=2)         15.72     17.74     14.82 
 H(Fragment=2)         16.95     18.6      15.04 
 O(Fragment=2)         20.07     14.81     24.68 
 H(Fragment=2)         20.3      15.68     24.34 
 H(Fragment=2)         19.33     14.53     24.14 
 O(Fragment=2)         19.63     20.21     12.8 
 H(Fragment=2)         19.66     20.25     13.76 
 H(Fragment=2)         20.44     20.64     12.52 
 O(Fragment=2)         22.63     25.96     18.18 
 H(Fragment=2)         23.13     25.41     18.78 
 H(Fragment=2)         22.42     25.38     17.44 
 O(Fragment=2)         25.32     18.25     15.34 
 H(Fragment=2)         24.46     18.36     15.74 
 H(Fragment=2)         25.27     17.4      14.9 
 O(Fragment=2)         19.04     17.87     26.28 
 H(Fragment=2)         18.6      17.2      25.76 
 H(Fragment=2)         18.35     18.49     26.51 
 O(Fragment=2)         26.22     17.98     20.58 
 H(Fragment=2)         26.65     17.42     21.23 
 H(Fragment=2)         26.88     18.14     19.92 
 O(Fragment=2)         25.1      16.31     18.02 
 H(Fragment=2)         25.79     16.57     18.62 
 H(Fragment=2)         25.56     15.95     17.26 
 O(Fragment=2)         25.26     22.83     17.02 
 H(Fragment=2)         25.88     23.48     16.7 
 H(Fragment=2)         25.75     22.32     17.66 
 O(Fragment=2)         26.34     20.83     24.02 
 H(Fragment=2)         26.21     19.94     24.36 
 H(Fragment=2)         25.88     20.83     23.18 
 O(Fragment=2)         21.57     22.51     26.96 
 H(Fragment=2)         22.35     22.83     26.51 
 H(Fragment=2)         20.95     22.31     26.26 
 O(Fragment=2)         18.57     12.53     19.21 
 H(Fragment=2)         18.53     13.48     19.11 
 H(Fragment=2)         19.28     12.26     18.63 
 O(Fragment=2)         24.63     20.68     14.23 
 H(Fragment=2)         23.8      21.07     14.48 
 H(Fragment=2)         24.39     19.85     13.8 
 O(Fragment=2)         25.99     18.13     24.61 
 H(Fragment=2)         25.24     18.04     24.02 
 H(Fragment=2)         26.4      17.26     24.61 
 O(Fragment=2)         24.8      25.97     21.45 
 H(Fragment=2)         24.23     25.38     20.96 
 H(Fragment=2)         24.37     26.07     22.3 
 O(Fragment=2)         18.51     20.48     27.65 
 H(Fragment=2)         17.55     20.47     27.68 
 H(Fragment=2)         18.72     20.76     26.75 
 O(Fragment=2)         14.24     21.63     23.86 
 H(Fragment=2)         13.97     20.91     23.29 
 H(Fragment=2)         14.15     22.42     23.32 
 O(Fragment=2)         14.54     14.73     20.98 
 H(Fragment=2)         14.34     13.8      20.99 
 H(Fragment=2)         15.38     14.79     20.52 
 O(Fragment=2)         26.77     21.45     18.9 
 H(Fragment=2)         27.66     21.55     19.26 
 H(Fragment=2)         26.81     20.64     18.39 
 O(Fragment=2)         21.78     14.59     14.69 
 H(Fragment=2)         21.09     15.24     14.82 
 H(Fragment=2)         21.55     14.16     13.86 
 O(Fragment=2)         16.16     23.35     25.08 
 H(Fragment=2)         16.59     23.07     25.89 
 H(Fragment=2)         15.54     22.65     24.88 
 O(Fragment=2)         24.29     13.75     19.75 
 H(Fragment=2)         24.99     13.12     19.58 
 H(Fragment=2)         24.5      14.51     19.2 
 O(Fragment=2)         24.28     19.96     25.77 
 H(Fragment=2)         24.81     20.51     26.34 
 H(Fragment=2)         24.86     19.25     25.51 
 O(Fragment=2)         13.55     17.22     22.19 
 H(Fragment=2)         12.6      17.08     22.16 
 H(Fragment=2)         13.92     16.44     21.77 
 O(Fragment=2)         12.91     23.75     18.42 
 H(Fragment=2)         13.53     23.21     18.91 
 H(Fragment=2)         12.16     23.83     19. 
 O(Fragment=2)         16.72     24.55     15.29 
 H(Fragment=2)         17.46     24.37     14.71 
 H(Fragment=2)         16.08     24.98     14.72 
 O(Fragment=2)         20.58     27.29     20.49 
 H(Fragment=2)         20.34     28.16     20.82 
 H(Fragment=2)         21.52     27.23     20.63 
 O(Fragment=2)         16.66     20.46     13.49 
 H(Fragment=2)         17.41     20.08     13.02 
 H(Fragment=2)         16.7      21.39     13.3 
 O(Fragment=2)         18.98     23.94     13.88 
 H(Fragment=2)         19.79     24.4      13.66 
 H(Fragment=2)         18.51     23.87     13.05 
 O(Fragment=2)         17.67     25.87     24.91 
 H(Fragment=2)         17.85     26.13     24.01 
 H(Fragment=2)         17.5      24.93     24.86 
 O(Fragment=2)         18.13     26.48     16.59 
 H(Fragment=2)         17.64     26.04     15.9 
 H(Fragment=2)         17.56     26.45     17.35 
 O(Fragment=2)         23.65     26.29     23.91 
 H(Fragment=2)         24.18     26.2      24.71 
 H(Fragment=2)         23.07     25.52     23.92 
 O(Fragment=2)         21.87     12.76     18.63 
 H(Fragment=2)         22.52     13.21     18.09 
 H(Fragment=2)         22.16     11.85     18.65 
 O(Fragment=2)         18.34     15.58     13.69 
 H(Fragment=2)         17.6      15.97     14.16 
 H(Fragment=2)         18.42     16.1      12.89 
 O(Fragment=2)         27.28     19.33     17.44 
 H(Fragment=2)         26.69     19.14     16.71 
 H(Fragment=2)         28.09     18.87     17.21 
 O(Fragment=2)         13.82     15.36     16.74 
 H(Fragment=2)         14.17     15.93     17.42 
 H(Fragment=2)         14.26     14.52     16.88 
 O(Fragment=2)         23.51     13.41     16.48 
 H(Fragment=2)         22.92     12.82     16. 
 H(Fragment=2)         23.23     14.29     16.21 
 O(Fragment=2)         17.57     12.46     22.06 
 H(Fragment=2)         18.2      12.75     21.4 
 H(Fragment=2)         17.49     13.2      22.66 
 O(Fragment=2)         14.83     20.07     26.55 
 H(Fragment=2)         14.85     19.82     25.63 
 H(Fragment=2)         15.15     19.3      27.02 
 O(Fragment=2)         18.87     17.8      12.03 
 H(Fragment=2)         19.7      17.7      11.57 
 H(Fragment=2)         18.98     18.6      12.55 
 O(Fragment=2)         22.48     12.59     21.4 
 H(Fragment=2)         23.18     13.11     21. 
 H(Fragment=2)         21.78     12.58     20.75 
 O(Fragment=2)         17.09     14.18     24.29 
 H(Fragment=2)         16.25     14.58     24.09 
 H(Fragment=2)         16.87     13.33     24.68 
 O(Fragment=2)         12.22     17.99     19.17 
 H(Fragment=2)         11.28     18.13     19.01 
 H(Fragment=2)         12.63     18.17     18.32 
 O(Fragment=2)         14.04     24.22     22.71 
 H(Fragment=2)         14.52     24.91     23.17 
 H(Fragment=2)         13.14     24.54     22.66 
 O(Fragment=2)         13.99     20.24     14.28 
 H(Fragment=2)         14.58     19.82     13.65 
 H(Fragment=2)         14.47     21.01     14.58 
 O(Fragment=2)         20.53     27.       15.29 
 H(Fragment=2)         19.84     26.59     15.81 
 H(Fragment=2)         21.02     27.54     15.92 
 O(Fragment=2)         18.21     23.57     27.78 
 H(Fragment=2)         18.66     23.31     26.97 
 H(Fragment=2)         17.6      22.85     27.94 
 O(Fragment=2)         13.16     18.46     16.51 
 H(Fragment=2)         13.47     19.       15.78 
 H(Fragment=2)         12.37     18.03     16.17 
 O(Fragment=2)         18.01     27.23     22.64 
 H(Fragment=2)         17.2      27.75     22.66 
 H(Fragment=2)         18.59     27.71     22.05 
 O(Fragment=2)         22.75     13.24     24.01 
 H(Fragment=2)         22.35     13.       23.18 
 H(Fragment=2)         22.19     12.84     24.67 
 O(Fragment=2)         15.33     15.73     26.18 
 H(Fragment=2)         14.67     15.14     25.83 
 H(Fragment=2)         16.07     15.66     25.57 
 O(Fragment=2)         21.45     15.33     27.04 
 H(Fragment=2)         20.84     15.05     26.35 
 H(Fragment=2)         21.92     14.53     27.28 
 O(Fragment=2)         22.54     23.96     12.88 
 H(Fragment=2)         22.41     24.4      12.04 
 H(Fragment=2)         21.96     24.42     13.49 
 O(Fragment=2)         21.66     20.01     28.33 
 H(Fragment=2)         20.76     19.85     28.61 
 H(Fragment=2)         21.62     20.87     27.9 
 O(Fragment=2)         11.44     20.21     22.51 
 H(Fragment=2)         12.11     19.71     22.05 
 H(Fragment=2)         10.94     20.63     21.8 
 O(Fragment=2)         22.05     21.25     12.18 
 H(Fragment=2)         22.93     20.93     12.38 
 H(Fragment=2)         22.07     22.18     12.41 
 O(Fragment=2)         28.43     20.07     22.47 
 H(Fragment=2)         28.69     20.62     21.73 
 H(Fragment=2)         27.68     20.53     22.85 
 O(Fragment=2)         24.59     15.75     13.7 
 H(Fragment=2)         24.82     14.86     13.47 
 H(Fragment=2)         23.71     15.69     14.08 
 O(Fragment=2)         21.26     28.64     17.9 
 H(Fragment=2)         21.73     27.88     18.25 
 H(Fragment=2)         20.34     28.43     18.07 
 O(Fragment=2)         27.17     25.05     20.64 
 H(Fragment=2)         27.14     25.01     19.68 
 H(Fragment=2)         26.3      25.35     20.9 
 O(Fragment=2)         13.92     23.7      14.05 
 H(Fragment=2)         14.5      23.31     14.71 
 H(Fragment=2)         14.5      24.25     13.52 
 O(Fragment=2)         23.49     18.44     12.53 
 H(Fragment=2)         22.63     18.09     12.31 
 H(Fragment=2)         24.03     17.67     12.71 
 O(Fragment=2)         11.66     23.89     20.71 
 H(Fragment=2)         10.91     23.5      21.14 
 H(Fragment=2)         12.38     23.3      20.89 
 O(Fragment=2)         16.15     21.95     27.68 
 H(Fragment=2)         15.56     21.43     27.14 
 H(Fragment=2)         15.66     22.09     28.5 
 O(Fragment=2)         19.16     17.79     29.1 
 H(Fragment=2)         18.41     18.38     29.09 
 H(Fragment=2)         19.3      17.56     28.18 
 O(Fragment=2)         27.79     22.14     15.01 
 H(Fragment=2)         28.31     22.1      15.82 
 H(Fragment=2)         26.88     22.07     15.31 
 O(Fragment=2)         24.43     27.13     15.77 
 H(Fragment=2)         25.13     26.49     15.68 
 H(Fragment=2)         23.9      26.81     16.5 
 O(Fragment=2)         15.56     13.21     17.02 
 H(Fragment=2)         15.8      12.37     17.41 
 H(Fragment=2)         15.52     13.05     16.08 
 O(Fragment=2)         24.54     28.12     19.03 
 H(Fragment=2)         24.33     27.48     19.71 
 H(Fragment=2)         25.49     28.07     18.94 
 O(Fragment=2)         10.59     20.94     18.54 
 H(Fragment=2)         11.51     20.68     18.5 
 H(Fragment=2)         10.47     21.5      17.78 
 O(Fragment=2)         27.36     23.15     25.08 
 H(Fragment=2)         26.84     22.45     24.7 
 H(Fragment=2)         27.35     23.85     24.42 
 O(Fragment=2)         12.3      22.62     16.03 
 H(Fragment=2)         13.08     22.81     15.51 
 H(Fragment=2)         12.49     23.01     16.89 
 O(Fragment=2)         22.51     17.42     28.5 
 H(Fragment=2)         22.21     18.32     28.36 
 H(Fragment=2)         22.02     16.9      27.86 
 O(Fragment=2)         19.82     26.69     26.71 
 H(Fragment=2)         20.74     26.93     26.58 
 H(Fragment=2)         19.52     26.42     25.84 
 O(Fragment=2)         13.4      25.81     16.94 
 H(Fragment=2)         14.26     25.66     16.52 
 H(Fragment=2)         13.28     25.06     17.51 
 O(Fragment=2)         25.75     13.96     23.19 
 H(Fragment=2)         26.39     13.25     23.29 
 H(Fragment=2)         24.93     13.59     23.5 
 O(Fragment=2)         26.98     18.93     13.33 
 H(Fragment=2)         26.36     19.4      13.89 
 H(Fragment=2)         27.83     19.07     13.74 
 O(Fragment=2)         20.4      11.03     17.17 
 H(Fragment=2)         20.94     11.76     16.86 
 H(Fragment=2)         20.4      10.41     16.45 
 O(Fragment=2)         20.5      25.97     12.92 
 H(Fragment=2)         20.5      26.34     13.8 
 H(Fragment=2)         21.05     26.57     12.41 
 O(Fragment=2)         12.55     22.4      25.84 
 H(Fragment=2)         12.77     21.74     26.51 
 H(Fragment=2)         12.98     22.08     25.04 
 O(Fragment=2)         21.34     17.12     11.62 
 H(Fragment=2)         22.03     16.85     11.01 
 H(Fragment=2)         20.95     16.3      11.92 
 O(Fragment=2)         13.07     27.02     19.96 
 H(Fragment=2)         13.21     27.25     20.87 
 H(Fragment=2)         13.39     26.12     19.89 
 O(Fragment=2)         28.43     17.23     22.16 
 H(Fragment=2)         28.48     18.12     22.5 
 H(Fragment=2)         28.17     16.7      22.9 
 O(Fragment=2)         13.91     15.44     14.2 
 H(Fragment=2)         13.89     15.4      15.15 
 H(Fragment=2)         14.64     14.87     13.95 
 O(Fragment=2)         11.28     15.7      20.86 
 H(Fragment=2)         10.7      16.44     20.72 
 H(Fragment=2)         11.93     15.77     20.16 
 O(Fragment=2)         16.53     10.85     18.74 
 H(Fragment=2)         16.69     10.55     17.85 
 H(Fragment=2)         17.36     11.25     19.01 
 O(Fragment=2)         26.42     24.85     15.4 
 H(Fragment=2)         27.33     24.67     15.62 
 H(Fragment=2)         26.35     24.6      14.47 
 O(Fragment=2)         25.39     24.15     12.73 
 H(Fragment=2)         24.46     24.       12.92 
 H(Fragment=2)         25.7      23.31     12.39 
 O(Fragment=2)         27.42     25.12     23.24 
 H(Fragment=2)         27.6      24.93     22.32 
 H(Fragment=2)         26.62     25.66     23.22 
 O(Fragment=2)         15.24     17.53     28.22 
 H(Fragment=2)         15.3      16.99     27.43 
 H(Fragment=2)         15.61     16.98     28.91 
 O(Fragment=2)         27.78     24.7      17.8 
 H(Fragment=2)         27.41     25.57     17.68 
 H(Fragment=2)         28.59     24.84     18.3 
 
 NAtoms=    385 NQM=      385 NQMF=       0 NMMI=      0 NMMIF=      0
                NMic=       0 NMicF=      0.
                    Isotopes and Nuclear Properties:
 (Nuclear quadrupole moments (NQMom) in fm**2, nuclear magnetic moments (NMagM)
  in nuclear magnetons)

  Atom         1           2           3           4           5           6           7           8           9          10
 IAtWgt=          79          16           1           1          16           1           1          16           1           1
 AtmWgt=  78.9183361  15.9949146   1.0078250   1.0078250  15.9949146   1.0078250   1.0078250  15.9949146   1.0078250   1.0078250
 NucSpn=           3           0           1           1           0           1           1           0           1           1
 AtZEff=   0.0000000   0.0000000   0.0000000   0.0000000   0.0000000   0.0000000   0.0000000   0.0000000   0.0000000   0.0000000
 NQMom=   31.3000000   0.0000000   0.0000000   0.0000000   0.0000000   0.0000000   0.0000000   0.0000000   0.0000000   0.0000000
 NMagM=    2.1063990   0.0000000   2.7928460   2.7928460   0.0000000   2.7928460   2.7928460   0.0000000   2.7928460   2.7928460
 AtZNuc=  35.0000000   8.0000000   1.0000000   1.0000000   8.0000000   1.0000000   1.0000000   8.0000000   1.0000000   1.0000000

  Atom        11          12          13          14          15          16          17          18          19          20
 IAtWgt=          16           1           1          16           1           1          16           1           1          16
 AtmWgt=  15.9949146   1.0078250   1.0078250  15.9949146   1.0078250   1.0078250  15.9949146   1.0078250   1.0078250  15.9949146
 NucSpn=           0           1           1           0           1           1           0           1           1           0
 AtZEff=   0.0000000   0.0000000   0.0000000   0.0000000   0.0000000   0.0000000   0.0000000   0.0000000   0.0000000   0.0000000
 NQMom=    0.0000000   0.0000000   0.0000000   0.0000000   0.0000000   0.0000000   0.0000000   0.0000000   0.0000000   0.0000000
 NMagM=    0.0000000   2.7928460   2.7928460   0.0000000   2.7928460   2.7928460   0.0000000   2.7928460   2.7928460   0.0000000
 AtZNuc=   8.0000000   1.0000000   1.0000000   8.0000000   1.0000000   1.0000000   8.0000000   1.0000000   1.0000000   8.0000000

  Atom        21          22          23          24          25          26          27          28          29          30
 IAtWgt=           1           1          16           1           1          16           1           1          16           1
 AtmWgt=   1.0078250   1.0078250  15.9949146   1.0078250   1.0078250  15.9949146   1.0078250   1.0078250  15.9949146   1.0078250
 NucSpn=           1           1           0           1           1           0           1           1           0           1
 AtZEff=   0.0000000   0.0000000   0.0000000   0.0000000   0.0000000   0.0000000   0.0000000   0.0000000   0.0000000   0.0000000
 NQMom=    0.0000000   0.0000000   0.0000000   0.0000000   0.0000000   0.0000000   0.0000000   0.0000000   0.0000000   0.0000000
 NMagM=    2.7928460   2.7928460   0.0000000   2.7928460   2.7928460   0.0000000   2.7928460   2.7928460   0.0000000   2.7928460
 AtZNuc=   1.0000000   1.0000000   8.0000000   1.0000000   1.0000000   8.0000000   1.0000000   1.0000000   8.0000000   1.0000000

  Atom        31          32          33          34          35          36          37          38          39          40
 IAtWgt=           1          16           1           1          16           1           1          16           1           1
 AtmWgt=   1.0078250  15.9949146   1.0078250   1.0078250  15.9949146   1.0078250   1.0078250  15.9949146   1.0078250   1.0078250
 NucSpn=           1           0           1           1           0           1           1           0           1           1
 AtZEff=   0.0000000   0.0000000   0.0000000   0.0000000   0.0000000   0.0000000   0.0000000   0.0000000   0.0000000   0.0000000
 NQMom=    0.0000000   0.0000000   0.0000000   0.0000000   0.0000000   0.0000000   0.0000000   0.0000000   0.0000000   0.0000000
 NMagM=    2.7928460   0.0000000   2.7928460   2.7928460   0.0000000   2.7928460   2.7928460   0.0000000   2.7928460   2.7928460
 AtZNuc=   1.0000000   8.0000000   1.0000000   1.0000000   8.0000000   1.0000000   1.0000000   8.0000000   1.0000000   1.0000000

  Atom        41          42          43          44          45          46          47          48          49          50
 IAtWgt=          16           1           1          16           1           1          16           1           1          16
 AtmWgt=  15.9949146   1.0078250   1.0078250  15.9949146   1.0078250   1.0078250  15.9949146   1.0078250   1.0078250  15.9949146
 NucSpn=           0           1           1           0           1           1           0           1           1           0
 AtZEff=   0.0000000   0.0000000   0.0000000   0.0000000   0.0000000   0.0000000   0.0000000   0.0000000   0.0000000   0.0000000
 NQMom=    0.0000000   0.0000000   0.0000000   0.0000000   0.0000000   0.0000000   0.0000000   0.0000000   0.0000000   0.0000000
 NMagM=    0.0000000   2.7928460   2.7928460   0.0000000   2.7928460   2.7928460   0.0000000   2.7928460   2.7928460   0.0000000
 AtZNuc=   8.0000000   1.0000000   1.0000000   8.0000000   1.0000000   1.0000000   8.0000000   1.0000000   1.0000000   8.0000000

  Atom        51          52          53          54          55          56          57          58          59          60
 IAtWgt=           1           1          16           1           1          16           1           1          16           1
 AtmWgt=   1.0078250   1.0078250  15.9949146   1.0078250   1.0078250  15.9949146   1.0078250   1.0078250  15.9949146   1.0078250
 NucSpn=           1           1           0           1           1           0           1           1           0           1
 AtZEff=   0.0000000   0.0000000   0.0000000   0.0000000   0.0000000   0.0000000   0.0000000   0.0000000   0.0000000   0.0000000
 NQMom=    0.0000000   0.0000000   0.0000000   0.0000000   0.0000000   0.0000000   0.0000000   0.0000000   0.0000000   0.0000000
 NMagM=    2.7928460   2.7928460   0.0000000   2.7928460   2.7928460   0.0000000   2.7928460   2.7928460   0.0000000   2.7928460
 AtZNuc=   1.0000000   1.0000000   8.0000000   1.0000000   1.0000000   8.0000000   1.0000000   1.0000000   8.0000000   1.0000000

  Atom        61          62          63          64          65          66          67          68          69          70
 IAtWgt=           1          16           1           1          16           1           1          16           1           1
 AtmWgt=   1.0078250  15.9949146   1.0078250   1.0078250  15.9949146   1.0078250   1.0078250  15.9949146   1.0078250   1.0078250
 NucSpn=           1           0           1           1           0           1           1           0           1           1
 AtZEff=   0.0000000   0.0000000   0.0000000   0.0000000   0.0000000   0.0000000   0.0000000   0.0000000   0.0000000   0.0000000
 NQMom=    0.0000000   0.0000000   0.0000000   0.0000000   0.0000000   0.0000000   0.0000000   0.0000000   0.0000000   0.0000000
 NMagM=    2.7928460   0.0000000   2.7928460   2.7928460   0.0000000   2.7928460   2.7928460   0.0000000   2.7928460   2.7928460
 AtZNuc=   1.0000000   8.0000000   1.0000000   1.0000000   8.0000000   1.0000000   1.0000000   8.0000000   1.0000000   1.0000000

  Atom        71          72          73          74          75          76          77          78          79          80
 IAtWgt=          16           1           1          16           1           1          16           1           1          16
 AtmWgt=  15.9949146   1.0078250   1.0078250  15.9949146   1.0078250   1.0078250  15.9949146   1.0078250   1.0078250  15.9949146
 NucSpn=           0           1           1           0           1           1           0           1           1           0
 AtZEff=   0.0000000   0.0000000   0.0000000   0.0000000   0.0000000   0.0000000   0.0000000   0.0000000   0.0000000   0.0000000
 NQMom=    0.0000000   0.0000000   0.0000000   0.0000000   0.0000000   0.0000000   0.0000000   0.0000000   0.0000000   0.0000000
 NMagM=    0.0000000   2.7928460   2.7928460   0.0000000   2.7928460   2.7928460   0.0000000   2.7928460   2.7928460   0.0000000
 AtZNuc=   8.0000000   1.0000000   1.0000000   8.0000000   1.0000000   1.0000000   8.0000000   1.0000000   1.0000000   8.0000000

  Atom        81          82          83          84          85          86          87          88          89          90
 IAtWgt=           1           1          16           1           1          16           1           1          16           1
 AtmWgt=   1.0078250   1.0078250  15.9949146   1.0078250   1.0078250  15.9949146   1.0078250   1.0078250  15.9949146   1.0078250
 NucSpn=           1           1           0           1           1           0           1           1           0           1
 AtZEff=   0.0000000   0.0000000   0.0000000   0.0000000   0.0000000   0.0000000   0.0000000   0.0000000   0.0000000   0.0000000
 NQMom=    0.0000000   0.0000000   0.0000000   0.0000000   0.0000000   0.0000000   0.0000000   0.0000000   0.0000000   0.0000000
 NMagM=    2.7928460   2.7928460   0.0000000   2.7928460   2.7928460   0.0000000   2.7928460   2.7928460   0.0000000   2.7928460
 AtZNuc=   1.0000000   1.0000000   8.0000000   1.0000000   1.0000000   8.0000000   1.0000000   1.0000000   8.0000000   1.0000000

  Atom        91          92          93          94          95          96          97          98          99         100
 IAtWgt=           1          16           1           1          16           1           1          16           1           1
 AtmWgt=   1.0078250  15.9949146   1.0078250   1.0078250  15.9949146   1.0078250   1.0078250  15.9949146   1.0078250   1.0078250
 NucSpn=           1           0           1           1           0           1           1           0           1           1
 AtZEff=   0.0000000   0.0000000   0.0000000   0.0000000   0.0000000   0.0000000   0.0000000   0.0000000   0.0000000   0.0000000
 NQMom=    0.0000000   0.0000000   0.0000000   0.0000000   0.0000000   0.0000000   0.0000000   0.0000000   0.0000000   0.0000000
 NMagM=    2.7928460   0.0000000   2.7928460   2.7928460   0.0000000   2.7928460   2.7928460   0.0000000   2.7928460   2.7928460
 AtZNuc=   1.0000000   8.0000000   1.0000000   1.0000000   8.0000000   1.0000000   1.0000000   8.0000000   1.0000000   1.0000000

  Atom       101         102         103         104         105         106         107         108         109         110
 IAtWgt=          16           1           1          16           1           1          16           1           1          16
 AtmWgt=  15.9949146   1.0078250   1.0078250  15.9949146   1.0078250   1.0078250  15.9949146   1.0078250   1.0078250  15.9949146
 NucSpn=           0           1           1           0           1           1           0           1           1           0
 AtZEff=   0.0000000   0.0000000   0.0000000   0.0000000   0.0000000   0.0000000   0.0000000   0.0000000   0.0000000   0.0000000
 NQMom=    0.0000000   0.0000000   0.0000000   0.0000000   0.0000000   0.0000000   0.0000000   0.0000000   0.0000000   0.0000000
 NMagM=    0.0000000   2.7928460   2.7928460   0.0000000   2.7928460   2.7928460   0.0000000   2.7928460   2.7928460   0.0000000
 AtZNuc=   8.0000000   1.0000000   1.0000000   8.0000000   1.0000000   1.0000000   8.0000000   1.0000000   1.0000000   8.0000000

  Atom       111         112         113         114         115         116         117         118         119         120
 IAtWgt=           1           1          16           1           1          16           1           1          16           1
 AtmWgt=   1.0078250   1.0078250  15.9949146   1.0078250   1.0078250  15.9949146   1.0078250   1.0078250  15.9949146   1.0078250
 NucSpn=           1           1           0           1           1           0           1           1           0           1
 AtZEff=   0.0000000   0.0000000   0.0000000   0.0000000   0.0000000   0.0000000   0.0000000   0.0000000   0.0000000   0.0000000
 NQMom=    0.0000000   0.0000000   0.0000000   0.0000000   0.0000000   0.0000000   0.0000000   0.0000000   0.0000000   0.0000000
 NMagM=    2.7928460   2.7928460   0.0000000   2.7928460   2.7928460   0.0000000   2.7928460   2.7928460   0.0000000   2.7928460
 AtZNuc=   1.0000000   1.0000000   8.0000000   1.0000000   1.0000000   8.0000000   1.0000000   1.0000000   8.0000000   1.0000000

  Atom       121         122         123         124         125         126         127         128         129         130
 IAtWgt=           1          16           1           1          16           1           1          16           1           1
 AtmWgt=   1.0078250  15.9949146   1.0078250   1.0078250  15.9949146   1.0078250   1.0078250  15.9949146   1.0078250   1.0078250
 NucSpn=           1           0           1           1           0           1           1           0           1           1
 AtZEff=   0.0000000   0.0000000   0.0000000   0.0000000   0.0000000   0.0000000   0.0000000   0.0000000   0.0000000   0.0000000
 NQMom=    0.0000000   0.0000000   0.0000000   0.0000000   0.0000000   0.0000000   0.0000000   0.0000000   0.0000000   0.0000000
 NMagM=    2.7928460   0.0000000   2.7928460   2.7928460   0.0000000   2.7928460   2.7928460   0.0000000   2.7928460   2.7928460
 AtZNuc=   1.0000000   8.0000000   1.0000000   1.0000000   8.0000000   1.0000000   1.0000000   8.0000000   1.0000000   1.0000000

  Atom       131         132         133         134         135         136         137         138         139         140
 IAtWgt=          16           1           1          16           1           1          16           1           1          16
 AtmWgt=  15.9949146   1.0078250   1.0078250  15.9949146   1.0078250   1.0078250  15.9949146   1.0078250   1.0078250  15.9949146
 NucSpn=           0           1           1           0           1           1           0           1           1           0
 AtZEff=   0.0000000   0.0000000   0.0000000   0.0000000   0.0000000   0.0000000   0.0000000   0.0000000   0.0000000   0.0000000
 NQMom=    0.0000000   0.0000000   0.0000000   0.0000000   0.0000000   0.0000000   0.0000000   0.0000000   0.0000000   0.0000000
 NMagM=    0.0000000   2.7928460   2.7928460   0.0000000   2.7928460   2.7928460   0.0000000   2.7928460   2.7928460   0.0000000
 AtZNuc=   8.0000000   1.0000000   1.0000000   8.0000000   1.0000000   1.0000000   8.0000000   1.0000000   1.0000000   8.0000000

  Atom       141         142         143         144         145         146         147         148         149         150
 IAtWgt=           1           1          16           1           1          16           1           1          16           1
 AtmWgt=   1.0078250   1.0078250  15.9949146   1.0078250   1.0078250  15.9949146   1.0078250   1.0078250  15.9949146   1.0078250
 NucSpn=           1           1           0           1           1           0           1           1           0           1
 AtZEff=   0.0000000   0.0000000   0.0000000   0.0000000   0.0000000   0.0000000   0.0000000   0.0000000   0.0000000   0.0000000
 NQMom=    0.0000000   0.0000000   0.0000000   0.0000000   0.0000000   0.0000000   0.0000000   0.0000000   0.0000000   0.0000000
 NMagM=    2.7928460   2.7928460   0.0000000   2.7928460   2.7928460   0.0000000   2.7928460   2.7928460   0.0000000   2.7928460
 AtZNuc=   1.0000000   1.0000000   8.0000000   1.0000000   1.0000000   8.0000000   1.0000000   1.0000000   8.0000000   1.0000000

  Atom       151         152         153         154         155         156         157         158         159         160
 IAtWgt=           1          16           1           1          16           1           1          16           1           1
 AtmWgt=   1.0078250  15.9949146   1.0078250   1.0078250  15.9949146   1.0078250   1.0078250  15.9949146   1.0078250   1.0078250
 NucSpn=           1           0           1           1           0           1           1           0           1           1
 AtZEff=   0.0000000   0.0000000   0.0000000   0.0000000   0.0000000   0.0000000   0.0000000   0.0000000   0.0000000   0.0000000
 NQMom=    0.0000000   0.0000000   0.0000000   0.0000000   0.0000000   0.0000000   0.0000000   0.0000000   0.0000000   0.0000000
 NMagM=    2.7928460   0.0000000   2.7928460   2.7928460   0.0000000   2.7928460   2.7928460   0.0000000   2.7928460   2.7928460
 AtZNuc=   1.0000000   8.0000000   1.0000000   1.0000000   8.0000000   1.0000000   1.0000000   8.0000000   1.0000000   1.0000000

  Atom       161         162         163         164         165         166         167         168         169         170
 IAtWgt=          16           1           1          16           1           1          16           1           1          16
 AtmWgt=  15.9949146   1.0078250   1.0078250  15.9949146   1.0078250   1.0078250  15.9949146   1.0078250   1.0078250  15.9949146
 NucSpn=           0           1           1           0           1           1           0           1           1           0
 AtZEff=   0.0000000   0.0000000   0.0000000   0.0000000   0.0000000   0.0000000   0.0000000   0.0000000   0.0000000   0.0000000
 NQMom=    0.0000000   0.0000000   0.0000000   0.0000000   0.0000000   0.0000000   0.0000000   0.0000000   0.0000000   0.0000000
 NMagM=    0.0000000   2.7928460   2.7928460   0.0000000   2.7928460   2.7928460   0.0000000   2.7928460   2.7928460   0.0000000
 AtZNuc=   8.0000000   1.0000000   1.0000000   8.0000000   1.0000000   1.0000000   8.0000000   1.0000000   1.0000000   8.0000000

  Atom       171         172         173         174         175         176         177         178         179         180
 IAtWgt=           1           1          16           1           1          16           1           1          16           1
 AtmWgt=   1.0078250   1.0078250  15.9949146   1.0078250   1.0078250  15.9949146   1.0078250   1.0078250  15.9949146   1.0078250
 NucSpn=           1           1           0           1           1           0           1           1           0           1
 AtZEff=   0.0000000   0.0000000   0.0000000   0.0000000   0.0000000   0.0000000   0.0000000   0.0000000   0.0000000   0.0000000
 NQMom=    0.0000000   0.0000000   0.0000000   0.0000000   0.0000000   0.0000000   0.0000000   0.0000000   0.0000000   0.0000000
 NMagM=    2.7928460   2.7928460   0.0000000   2.7928460   2.7928460   0.0000000   2.7928460   2.7928460   0.0000000   2.7928460
 AtZNuc=   1.0000000   1.0000000   8.0000000   1.0000000   1.0000000   8.0000000   1.0000000   1.0000000   8.0000000   1.0000000

  Atom       181         182         183         184         185         186         187         188         189         190
 IAtWgt=           1          16           1           1          16           1           1          16           1           1
 AtmWgt=   1.0078250  15.9949146   1.0078250   1.0078250  15.9949146   1.0078250   1.0078250  15.9949146   1.0078250   1.0078250
 NucSpn=           1           0           1           1           0           1           1           0           1           1
 AtZEff=   0.0000000   0.0000000   0.0000000   0.0000000   0.0000000   0.0000000   0.0000000   0.0000000   0.0000000   0.0000000
 NQMom=    0.0000000   0.0000000   0.0000000   0.0000000   0.0000000   0.0000000   0.0000000   0.0000000   0.0000000   0.0000000
 NMagM=    2.7928460   0.0000000   2.7928460   2.7928460   0.0000000   2.7928460   2.7928460   0.0000000   2.7928460   2.7928460
 AtZNuc=   1.0000000   8.0000000   1.0000000   1.0000000   8.0000000   1.0000000   1.0000000   8.0000000   1.0000000   1.0000000

  Atom       191         192         193         194         195         196         197         198         199         200
 IAtWgt=          16           1           1          16           1           1          16           1           1          16
 AtmWgt=  15.9949146   1.0078250   1.0078250  15.9949146   1.0078250   1.0078250  15.9949146   1.0078250   1.0078250  15.9949146
 NucSpn=           0           1           1           0           1           1           0           1           1           0
 AtZEff=   0.0000000   0.0000000   0.0000000   0.0000000   0.0000000   0.0000000   0.0000000   0.0000000   0.0000000   0.0000000
 NQMom=    0.0000000   0.0000000   0.0000000   0.0000000   0.0000000   0.0000000   0.0000000   0.0000000   0.0000000   0.0000000
 NMagM=    0.0000000   2.7928460   2.7928460   0.0000000   2.7928460   2.7928460   0.0000000   2.7928460   2.7928460   0.0000000
 AtZNuc=   8.0000000   1.0000000   1.0000000   8.0000000   1.0000000   1.0000000   8.0000000   1.0000000   1.0000000   8.0000000

  Atom       201         202         203         204         205         206         207         208         209         210
 IAtWgt=           1           1          16           1           1          16           1           1          16           1
 AtmWgt=   1.0078250   1.0078250  15.9949146   1.0078250   1.0078250  15.9949146   1.0078250   1.0078250  15.9949146   1.0078250
 NucSpn=           1           1           0           1           1           0           1           1           0           1
 AtZEff=   0.0000000   0.0000000   0.0000000   0.0000000   0.0000000   0.0000000   0.0000000   0.0000000   0.0000000   0.0000000
 NQMom=    0.0000000   0.0000000   0.0000000   0.0000000   0.0000000   0.0000000   0.0000000   0.0000000   0.0000000   0.0000000
 NMagM=    2.7928460   2.7928460   0.0000000   2.7928460   2.7928460   0.0000000   2.7928460   2.7928460   0.0000000   2.7928460
 AtZNuc=   1.0000000   1.0000000   8.0000000   1.0000000   1.0000000   8.0000000   1.0000000   1.0000000   8.0000000   1.0000000

  Atom       211         212         213         214         215         216         217         218         219         220
 IAtWgt=           1          16           1           1          16           1           1          16           1           1
 AtmWgt=   1.0078250  15.9949146   1.0078250   1.0078250  15.9949146   1.0078250   1.0078250  15.9949146   1.0078250   1.0078250
 NucSpn=           1           0           1           1           0           1           1           0           1           1
 AtZEff=   0.0000000   0.0000000   0.0000000   0.0000000   0.0000000   0.0000000   0.0000000   0.0000000   0.0000000   0.0000000
 NQMom=    0.0000000   0.0000000   0.0000000   0.0000000   0.0000000   0.0000000   0.0000000   0.0000000   0.0000000   0.0000000
 NMagM=    2.7928460   0.0000000   2.7928460   2.7928460   0.0000000   2.7928460   2.7928460   0.0000000   2.7928460   2.7928460
 AtZNuc=   1.0000000   8.0000000   1.0000000   1.0000000   8.0000000   1.0000000   1.0000000   8.0000000   1.0000000   1.0000000

  Atom       221         222         223         224         225         226         227         228         229         230
 IAtWgt=          16           1           1          16           1           1          16           1           1          16
 AtmWgt=  15.9949146   1.0078250   1.0078250  15.9949146   1.0078250   1.0078250  15.9949146   1.0078250   1.0078250  15.9949146
 NucSpn=           0           1           1           0           1           1           0           1           1           0
 AtZEff=   0.0000000   0.0000000   0.0000000   0.0000000   0.0000000   0.0000000   0.0000000   0.0000000   0.0000000   0.0000000
 NQMom=    0.0000000   0.0000000   0.0000000   0.0000000   0.0000000   0.0000000   0.0000000   0.0000000   0.0000000   0.0000000
 NMagM=    0.0000000   2.7928460   2.7928460   0.0000000   2.7928460   2.7928460   0.0000000   2.7928460   2.7928460   0.0000000
 AtZNuc=   8.0000000   1.0000000   1.0000000   8.0000000   1.0000000   1.0000000   8.0000000   1.0000000   1.0000000   8.0000000

  Atom       231         232         233         234         235         236         237         238         239         240
 IAtWgt=           1           1          16           1           1          16           1           1          16           1
 AtmWgt=   1.0078250   1.0078250  15.9949146   1.0078250   1.0078250  15.9949146   1.0078250   1.0078250  15.9949146   1.0078250
 NucSpn=           1           1           0           1           1           0           1           1           0           1
 AtZEff=   0.0000000   0.0000000   0.0000000   0.0000000   0.0000000   0.0000000   0.0000000   0.0000000   0.0000000   0.0000000
 NQMom=    0.0000000   0.0000000   0.0000000   0.0000000   0.0000000   0.0000000   0.0000000   0.0000000   0.0000000   0.0000000
 NMagM=    2.7928460   2.7928460   0.0000000   2.7928460   2.7928460   0.0000000   2.7928460   2.7928460   0.0000000   2.7928460
 AtZNuc=   1.0000000   1.0000000   8.0000000   1.0000000   1.0000000   8.0000000   1.0000000   1.0000000   8.0000000   1.0000000

  Atom       241         242         243         244         245         246         247         248         249         250
 IAtWgt=           1          16           1           1          16           1           1          16           1           1
 AtmWgt=   1.0078250  15.9949146   1.0078250   1.0078250  15.9949146   1.0078250   1.0078250  15.9949146   1.0078250   1.0078250
 NucSpn=           1           0           1           1           0           1           1           0           1           1
 AtZEff=   0.0000000   0.0000000   0.0000000   0.0000000   0.0000000   0.0000000   0.0000000   0.0000000   0.0000000   0.0000000
 NQMom=    0.0000000   0.0000000   0.0000000   0.0000000   0.0000000   0.0000000   0.0000000   0.0000000   0.0000000   0.0000000
 NMagM=    2.7928460   0.0000000   2.7928460   2.7928460   0.0000000   2.7928460   2.7928460   0.0000000   2.7928460   2.7928460
 AtZNuc=   1.0000000   8.0000000   1.0000000   1.0000000   8.0000000   1.0000000   1.0000000   8.0000000   1.0000000   1.0000000

  Atom       251         252         253         254         255         256         257         258         259         260
 IAtWgt=          16           1           1          16           1           1          16           1           1          16
 AtmWgt=  15.9949146   1.0078250   1.0078250  15.9949146   1.0078250   1.0078250  15.9949146   1.0078250   1.0078250  15.9949146
 NucSpn=           0           1           1           0           1           1           0           1           1           0
 AtZEff=   0.0000000   0.0000000   0.0000000   0.0000000   0.0000000   0.0000000   0.0000000   0.0000000   0.0000000   0.0000000
 NQMom=    0.0000000   0.0000000   0.0000000   0.0000000   0.0000000   0.0000000   0.0000000   0.0000000   0.0000000   0.0000000
 NMagM=    0.0000000   2.7928460   2.7928460   0.0000000   2.7928460   2.7928460   0.0000000   2.7928460   2.7928460   0.0000000
 AtZNuc=   8.0000000   1.0000000   1.0000000   8.0000000   1.0000000   1.0000000   8.0000000   1.0000000   1.0000000   8.0000000

  Atom       261         262         263         264         265         266         267         268         269         270
 IAtWgt=           1           1          16           1           1          16           1           1          16           1
 AtmWgt=   1.0078250   1.0078250  15.9949146   1.0078250   1.0078250  15.9949146   1.0078250   1.0078250  15.9949146   1.0078250
 NucSpn=           1           1           0           1           1           0           1           1           0           1
 AtZEff=   0.0000000   0.0000000   0.0000000   0.0000000   0.0000000   0.0000000   0.0000000   0.0000000   0.0000000   0.0000000
 NQMom=    0.0000000   0.0000000   0.0000000   0.0000000   0.0000000   0.0000000   0.0000000   0.0000000   0.0000000   0.0000000
 NMagM=    2.7928460   2.7928460   0.0000000   2.7928460   2.7928460   0.0000000   2.7928460   2.7928460   0.0000000   2.7928460
 AtZNuc=   1.0000000   1.0000000   8.0000000   1.0000000   1.0000000   8.0000000   1.0000000   1.0000000   8.0000000   1.0000000

  Atom       271         272         273         274         275         276         277         278         279         280
 IAtWgt=           1          16           1           1          16           1           1          16           1           1
 AtmWgt=   1.0078250  15.9949146   1.0078250   1.0078250  15.9949146   1.0078250   1.0078250  15.9949146   1.0078250   1.0078250
 NucSpn=           1           0           1           1           0           1           1           0           1           1
 AtZEff=   0.0000000   0.0000000   0.0000000   0.0000000   0.0000000   0.0000000   0.0000000   0.0000000   0.0000000   0.0000000
 NQMom=    0.0000000   0.0000000   0.0000000   0.0000000   0.0000000   0.0000000   0.0000000   0.0000000   0.0000000   0.0000000
 NMagM=    2.7928460   0.0000000   2.7928460   2.7928460   0.0000000   2.7928460   2.7928460   0.0000000   2.7928460   2.7928460
 AtZNuc=   1.0000000   8.0000000   1.0000000   1.0000000   8.0000000   1.0000000   1.0000000   8.0000000   1.0000000   1.0000000

  Atom       281         282         283         284         285         286         287         288         289         290
 IAtWgt=          16           1           1          16           1           1          16           1           1          16
 AtmWgt=  15.9949146   1.0078250   1.0078250  15.9949146   1.0078250   1.0078250  15.9949146   1.0078250   1.0078250  15.9949146
 NucSpn=           0           1           1           0           1           1           0           1           1           0
 AtZEff=   0.0000000   0.0000000   0.0000000   0.0000000   0.0000000   0.0000000   0.0000000   0.0000000   0.0000000   0.0000000
 NQMom=    0.0000000   0.0000000   0.0000000   0.0000000   0.0000000   0.0000000   0.0000000   0.0000000   0.0000000   0.0000000
 NMagM=    0.0000000   2.7928460   2.7928460   0.0000000   2.7928460   2.7928460   0.0000000   2.7928460   2.7928460   0.0000000
 AtZNuc=   8.0000000   1.0000000   1.0000000   8.0000000   1.0000000   1.0000000   8.0000000   1.0000000   1.0000000   8.0000000

  Atom       291         292         293         294         295         296         297         298         299         300
 IAtWgt=           1           1          16           1           1          16           1           1          16           1
 AtmWgt=   1.0078250   1.0078250  15.9949146   1.0078250   1.0078250  15.9949146   1.0078250   1.0078250  15.9949146   1.0078250
 NucSpn=           1           1           0           1           1           0           1           1           0           1
 AtZEff=   0.0000000   0.0000000   0.0000000   0.0000000   0.0000000   0.0000000   0.0000000   0.0000000   0.0000000   0.0000000
 NQMom=    0.0000000   0.0000000   0.0000000   0.0000000   0.0000000   0.0000000   0.0000000   0.0000000   0.0000000   0.0000000
 NMagM=    2.7928460   2.7928460   0.0000000   2.7928460   2.7928460   0.0000000   2.7928460   2.7928460   0.0000000   2.7928460
 AtZNuc=   1.0000000   1.0000000   8.0000000   1.0000000   1.0000000   8.0000000   1.0000000   1.0000000   8.0000000   1.0000000

  Atom       301         302         303         304         305         306         307         308         309         310
 IAtWgt=           1          16           1           1          16           1           1          16           1           1
 AtmWgt=   1.0078250  15.9949146   1.0078250   1.0078250  15.9949146   1.0078250   1.0078250  15.9949146   1.0078250   1.0078250
 NucSpn=           1           0           1           1           0           1           1           0           1           1
 AtZEff=   0.0000000   0.0000000   0.0000000   0.0000000   0.0000000   0.0000000   0.0000000   0.0000000   0.0000000   0.0000000
 NQMom=    0.0000000   0.0000000   0.0000000   0.0000000   0.0000000   0.0000000   0.0000000   0.0000000   0.0000000   0.0000000
 NMagM=    2.7928460   0.0000000   2.7928460   2.7928460   0.0000000   2.7928460   2.7928460   0.0000000   2.7928460   2.7928460
 AtZNuc=   1.0000000   8.0000000   1.0000000   1.0000000   8.0000000   1.0000000   1.0000000   8.0000000   1.0000000   1.0000000

  Atom       311         312         313         314         315         316         317         318         319         320
 IAtWgt=          16           1           1          16           1           1          16           1           1          16
 AtmWgt=  15.9949146   1.0078250   1.0078250  15.9949146   1.0078250   1.0078250  15.9949146   1.0078250   1.0078250  15.9949146
 NucSpn=           0           1           1           0           1           1           0           1           1           0
 AtZEff=   0.0000000   0.0000000   0.0000000   0.0000000   0.0000000   0.0000000   0.0000000   0.0000000   0.0000000   0.0000000
 NQMom=    0.0000000   0.0000000   0.0000000   0.0000000   0.0000000   0.0000000   0.0000000   0.0000000   0.0000000   0.0000000
 NMagM=    0.0000000   2.7928460   2.7928460   0.0000000   2.7928460   2.7928460   0.0000000   2.7928460   2.7928460   0.0000000
 AtZNuc=   8.0000000   1.0000000   1.0000000   8.0000000   1.0000000   1.0000000   8.0000000   1.0000000   1.0000000   8.0000000

  Atom       321         322         323         324         325         326         327         328         329         330
 IAtWgt=           1           1          16           1           1          16           1           1          16           1
 AtmWgt=   1.0078250   1.0078250  15.9949146   1.0078250   1.0078250  15.9949146   1.0078250   1.0078250  15.9949146   1.0078250
 NucSpn=           1           1           0           1           1           0           1           1           0           1
 AtZEff=   0.0000000   0.0000000   0.0000000   0.0000000   0.0000000   0.0000000   0.0000000   0.0000000   0.0000000   0.0000000
 NQMom=    0.0000000   0.0000000   0.0000000   0.0000000   0.0000000   0.0000000   0.0000000   0.0000000   0.0000000   0.0000000
 NMagM=    2.7928460   2.7928460   0.0000000   2.7928460   2.7928460   0.0000000   2.7928460   2.7928460   0.0000000   2.7928460
 AtZNuc=   1.0000000   1.0000000   8.0000000   1.0000000   1.0000000   8.0000000   1.0000000   1.0000000   8.0000000   1.0000000

  Atom       331         332         333         334         335         336         337         338         339         340
 IAtWgt=           1          16           1           1          16           1           1          16           1           1
 AtmWgt=   1.0078250  15.9949146   1.0078250   1.0078250  15.9949146   1.0078250   1.0078250  15.9949146   1.0078250   1.0078250
 NucSpn=           1           0           1           1           0           1           1           0           1           1
 AtZEff=   0.0000000   0.0000000   0.0000000   0.0000000   0.0000000   0.0000000   0.0000000   0.0000000   0.0000000   0.0000000
 NQMom=    0.0000000   0.0000000   0.0000000   0.0000000   0.0000000   0.0000000   0.0000000   0.0000000   0.0000000   0.0000000
 NMagM=    2.7928460   0.0000000   2.7928460   2.7928460   0.0000000   2.7928460   2.7928460   0.0000000   2.7928460   2.7928460
 AtZNuc=   1.0000000   8.0000000   1.0000000   1.0000000   8.0000000   1.0000000   1.0000000   8.0000000   1.0000000   1.0000000

  Atom       341         342         343         344         345         346         347         348         349         350
 IAtWgt=          16           1           1          16           1           1          16           1           1          16
 AtmWgt=  15.9949146   1.0078250   1.0078250  15.9949146   1.0078250   1.0078250  15.9949146   1.0078250   1.0078250  15.9949146
 NucSpn=           0           1           1           0           1           1           0           1           1           0
 AtZEff=   0.0000000   0.0000000   0.0000000   0.0000000   0.0000000   0.0000000   0.0000000   0.0000000   0.0000000   0.0000000
 NQMom=    0.0000000   0.0000000   0.0000000   0.0000000   0.0000000   0.0000000   0.0000000   0.0000000   0.0000000   0.0000000
 NMagM=    0.0000000   2.7928460   2.7928460   0.0000000   2.7928460   2.7928460   0.0000000   2.7928460   2.7928460   0.0000000
 AtZNuc=   8.0000000   1.0000000   1.0000000   8.0000000   1.0000000   1.0000000   8.0000000   1.0000000   1.0000000   8.0000000

  Atom       351         352         353         354         355         356         357         358         359         360
 IAtWgt=           1           1          16           1           1          16           1           1          16           1
 AtmWgt=   1.0078250   1.0078250  15.9949146   1.0078250   1.0078250  15.9949146   1.0078250   1.0078250  15.9949146   1.0078250
 NucSpn=           1           1           0           1           1           0           1           1           0           1
 AtZEff=   0.0000000   0.0000000   0.0000000   0.0000000   0.0000000   0.0000000   0.0000000   0.0000000   0.0000000   0.0000000
 NQMom=    0.0000000   0.0000000   0.0000000   0.0000000   0.0000000   0.0000000   0.0000000   0.0000000   0.0000000   0.0000000
 NMagM=    2.7928460   2.7928460   0.0000000   2.7928460   2.7928460   0.0000000   2.7928460   2.7928460   0.0000000   2.7928460
 AtZNuc=   1.0000000   1.0000000   8.0000000   1.0000000   1.0000000   8.0000000   1.0000000   1.0000000   8.0000000   1.0000000

  Atom       361         362         363         364         365         366         367         368         369         370
 IAtWgt=           1          16           1           1          16           1           1          16           1           1
 AtmWgt=   1.0078250  15.9949146   1.0078250   1.0078250  15.9949146   1.0078250   1.0078250  15.9949146   1.0078250   1.0078250
 NucSpn=           1           0           1           1           0           1           1           0           1           1
 AtZEff=   0.0000000   0.0000000   0.0000000   0.0000000   0.0000000   0.0000000   0.0000000   0.0000000   0.0000000   0.0000000
 NQMom=    0.0000000   0.0000000   0.0000000   0.0000000   0.0000000   0.0000000   0.0000000   0.0000000   0.0000000   0.0000000
 NMagM=    2.7928460   0.0000000   2.7928460   2.7928460   0.0000000   2.7928460   2.7928460   0.0000000   2.7928460   2.7928460
 AtZNuc=   1.0000000   8.0000000   1.0000000   1.0000000   8.0000000   1.0000000   1.0000000   8.0000000   1.0000000   1.0000000

  Atom       371         372         373         374         375         376         377         378         379         380
 IAtWgt=          16           1           1          16           1           1          16           1           1          16
 AtmWgt=  15.9949146   1.0078250   1.0078250  15.9949146   1.0078250   1.0078250  15.9949146   1.0078250   1.0078250  15.9949146
 NucSpn=           0           1           1           0           1           1           0           1           1           0
 AtZEff=   0.0000000   0.0000000   0.0000000   0.0000000   0.0000000   0.0000000   0.0000000   0.0000000   0.0000000   0.0000000
 NQMom=    0.0000000   0.0000000   0.0000000   0.0000000   0.0000000   0.0000000   0.0000000   0.0000000   0.0000000   0.0000000
 NMagM=    0.0000000   2.7928460   2.7928460   0.0000000   2.7928460   2.7928460   0.0000000   2.7928460   2.7928460   0.0000000
 AtZNuc=   8.0000000   1.0000000   1.0000000   8.0000000   1.0000000   1.0000000   8.0000000   1.0000000   1.0000000   8.0000000

  Atom       381         382         383         384         385
 IAtWgt=           1           1          16           1           1
 AtmWgt=   1.0078250   1.0078250  15.9949146   1.0078250   1.0078250
 NucSpn=           1           1           0           1           1
 AtZEff=   0.0000000   0.0000000   0.0000000   0.0000000   0.0000000
 NQMom=    0.0000000   0.0000000   0.0000000   0.0000000   0.0000000
 NMagM=    2.7928460   2.7928460   0.0000000   2.7928460   2.7928460
 AtZNuc=   1.0000000   1.0000000   8.0000000   1.0000000   1.0000000
 Leave Link  101 at Mon May  7 18:10:06 2018, MaxMem= 14763950080 cpu:       140.4
 (Enter /cm/shared/gaussian/g09.e01/intel64-sandybridge/g09/l103.exe)

 GradGradGradGradGradGradGradGradGradGradGradGradGradGradGradGradGradGrad
 Berny optimization.
 Initialization pass.
 Trust Radius=3.00D-01 FncErr=1.00D-07 GrdErr=1.00D-07
 Number of steps in this run=      2 maximum allowed number of steps=      2.
 GradGradGradGradGradGradGradGradGradGradGradGradGradGradGradGradGradGrad

 Leave Link  103 at Mon May  7 18:10:06 2018, MaxMem= 14763950080 cpu:        16.8
 (Enter /cm/shared/gaussian/g09.e01/intel64-sandybridge/g09/l202.exe)
 Symmetry turned off by external request.
 Stoichiometry    BrH256O128(1-)
 Framework group  C1[X(BrH256O128)]
 Deg. of freedom  1149
 Full point group                 C1      NOp   1
                          Input orientation:                          
 ---------------------------------------------------------------------
 Center     Atomic      Atomic             Coordinates (Angstroms)
 Number     Number       Type             X           Y           Z
 ---------------------------------------------------------------------
      1         35           0       20.000000   20.000000   20.000000
      2          8           0       22.450000   18.860000   18.660000
      3          1           0       23.020000   19.430000   19.170000
      4          1           0       21.570000   19.050000   18.980000
      5          8           0       19.990000   17.370000   21.790000
      6          1           0       20.850000   17.000000   21.970000
      7          1           0       20.170000   18.210000   21.370000
      8          8           0       18.810000   18.340000   17.510000
      9          1           0       17.940000   17.930000   17.530000
     10          1           0       18.970000   18.610000   18.410000
     11          8           0       22.700000   21.780000   20.310000
     12          1           0       21.900000   21.300000   20.530000
     13          1           0       23.340000   21.470000   20.950000
     14          8           0       16.750000   18.870000   20.000000
     15          1           0       16.920000   17.930000   20.100000
     16          1           0       17.560000   19.290000   20.280000
     17          8           0       18.030000   21.950000   22.120000
     18          1           0       18.380000   22.790000   22.420000
     19          1           0       18.810000   21.450000   21.860000
     20          8           0       20.890000   23.270000   18.210000
     21          1           0       21.560000   23.410000   17.540000
     22          1           0       21.070000   22.400000   18.560000
     23          8           0       18.050000   23.230000   17.800000
     24          1           0       18.710000   23.910000   17.650000
     25          1           0       18.490000   22.610000   18.380000
     26          8           0       19.390000   20.720000   15.980000
     27          1           0       19.130000   21.560000   16.370000
     28          1           0       18.990000   20.060000   16.550000
     29          8           0       15.850000   20.980000   18.450000
     30          1           0       16.550000   20.380000   18.680000
     31          1           0       16.200000   21.850000   18.660000
     32          8           0       22.420000   16.430000   18.310000
     33          1           0       23.320000   16.190000   18.100000
     34          1           0       22.460000   17.350000   18.540000
     35          8           0       17.270000   17.310000   23.080000
     36          1           0       18.140000   17.380000   22.670000
     37          1           0       16.940000   16.470000   22.790000
     38          8           0       22.450000   18.380000   15.950000
     39          1           0       21.880000   17.620000   16.090000
     40          1           0       22.660000   18.680000   16.830000
     41          8           0       17.480000   20.110000   24.730000
     42          1           0       17.800000   20.210000   23.840000
     43          1           0       16.580000   19.800000   24.630000
     44          8           0       19.150000   24.920000   20.180000
     45          1           0       19.780000   24.560000   19.550000
     46          1           0       19.330000   25.860000   20.170000
     47          8           0       16.160000   23.280000   20.550000
     48          1           0       16.590000   22.800000   21.270000
     49          1           0       16.680000   24.080000   20.450000
     50          8           0       23.240000   21.160000   23.660000
     51          1           0       23.470000   20.500000   23.000000
     52          1           0       23.520000   20.770000   24.490000
     53          8           0       24.090000   23.800000   19.790000
     54          1           0       23.500000   23.050000   19.850000
     55          1           0       24.530000   23.680000   18.940000
     56          8           0       21.990000   21.130000   15.380000
     57          1           0       21.080000   21.310000   15.640000
     58          1           0       22.070000   20.180000   15.410000
     59          8           0       23.830000   18.340000   23.170000
     60          1           0       22.940000   18.580000   23.400000
     61          1           0       23.740000   17.610000   22.560000
     62          8           0       20.410000   14.920000   19.660000
     63          1           0       21.200000   15.440000   19.760000
     64          1           0       20.710000   14.100000   19.250000
     65          8           0       20.150000   16.800000   15.460000
     66          1           0       19.670000   17.430000   16.000000
     67          1           0       19.480000   16.400000   14.900000
     68          8           0       19.760000   24.500000   22.750000
     69          1           0       19.560000   24.400000   21.810000
     70          1           0       19.340000   25.330000   22.990000
     71          8           0       14.520000   19.460000   21.250000
     72          1           0       15.290000   19.260000   20.710000
     73          1           0       14.050000   18.630000   21.320000
     74          8           0       24.750000   20.230000   21.100000
     75          1           0       25.250000   20.760000   20.470000
     76          1           0       25.100000   19.340000   21.000000
     77          8           0       18.110000   15.180000   21.280000
     78          1           0       19.040000   15.330000   21.110000
     79          1           0       17.690000   15.320000   20.440000
     80          8           0       15.430000   17.750000   17.600000
     81          1           0       14.580000   18.020000   17.260000
     82          1           0       15.640000   18.410000   18.270000
     83          8           0       19.130000   22.080000   25.310000
     84          1           0       19.520000   22.440000   24.510000
     85          1           0       18.530000   21.400000   25.000000
     86          8           0       22.290000   23.980000   23.540000
     87          1           0       22.510000   23.070000   23.340000
     88          1           0       21.390000   24.080000   23.230000
     89          8           0       23.770000   16.360000   21.340000
     90          1           0       24.300000   15.560000   21.350000
     91          1           0       24.170000   16.910000   20.660000
     92          8           0       21.510000   18.290000   24.820000
     93          1           0       22.110000   18.710000   25.440000
     94          1           0       20.650000   18.350000   25.230000
     95          8           0       19.390000   14.320000   17.180000
     96          1           0       19.510000   15.090000   16.620000
     97          1           0       19.530000   14.650000   18.070000
     98          8           0       15.230000   22.230000   16.060000
     99          1           0       15.560000   21.720000   16.800000
    100          1           0       15.820000   22.980000   16.000000
    101          8           0       22.730000   23.910000   16.360000
    102          1           0       23.670000   23.780000   16.420000
    103          1           0       22.410000   23.160000   15.860000
    104          8           0       16.960000   15.350000   18.310000
    105          1           0       16.300000   15.980000   18.020000
    106          1           0       16.720000   14.530000   17.870000
    107          8           0       15.070000   18.660000   24.140000
    108          1           0       15.800000   18.160000   23.750000
    109          1           0       14.300000   18.390000   23.640000
    110          8           0       13.710000   21.920000   20.580000
    111          1           0       13.880000   20.990000   20.720000
    112          1           0       14.550000   22.350000   20.760000
    113          8           0       16.660000   17.770000   14.650000
    114          1           0       15.720000   17.740000   14.820000
    115          1           0       16.950000   18.600000   15.040000
    116          8           0       20.070000   14.810000   24.680000
    117          1           0       20.300000   15.680000   24.340000
    118          1           0       19.330000   14.530000   24.140000
    119          8           0       19.630000   20.210000   12.800000
    120          1           0       19.660000   20.250000   13.760000
    121          1           0       20.440000   20.640000   12.520000
    122          8           0       22.630000   25.960000   18.180000
    123          1           0       23.130000   25.410000   18.780000
    124          1           0       22.420000   25.380000   17.440000
    125          8           0       25.320000   18.250000   15.340000
    126          1           0       24.460000   18.360000   15.740000
    127          1           0       25.270000   17.400000   14.900000
    128          8           0       19.040000   17.870000   26.280000
    129          1           0       18.600000   17.200000   25.760000
    130          1           0       18.350000   18.490000   26.510000
    131          8           0       26.220000   17.980000   20.580000
    132          1           0       26.650000   17.420000   21.230000
    133          1           0       26.880000   18.140000   19.920000
    134          8           0       25.100000   16.310000   18.020000
    135          1           0       25.790000   16.570000   18.620000
    136          1           0       25.560000   15.950000   17.260000
    137          8           0       25.260000   22.830000   17.020000
    138          1           0       25.880000   23.480000   16.700000
    139          1           0       25.750000   22.320000   17.660000
    140          8           0       26.340000   20.830000   24.020000
    141          1           0       26.210000   19.940000   24.360000
    142          1           0       25.880000   20.830000   23.180000
    143          8           0       21.570000   22.510000   26.960000
    144          1           0       22.350000   22.830000   26.510000
    145          1           0       20.950000   22.310000   26.260000
    146          8           0       18.570000   12.530000   19.210000
    147          1           0       18.530000   13.480000   19.110000
    148          1           0       19.280000   12.260000   18.630000
    149          8           0       24.630000   20.680000   14.230000
    150          1           0       23.800000   21.070000   14.480000
    151          1           0       24.390000   19.850000   13.800000
    152          8           0       25.990000   18.130000   24.610000
    153          1           0       25.240000   18.040000   24.020000
    154          1           0       26.400000   17.260000   24.610000
    155          8           0       24.800000   25.970000   21.450000
    156          1           0       24.230000   25.380000   20.960000
    157          1           0       24.370000   26.070000   22.300000
    158          8           0       18.510000   20.480000   27.650000
    159          1           0       17.550000   20.470000   27.680000
    160          1           0       18.720000   20.760000   26.750000
    161          8           0       14.240000   21.630000   23.860000
    162          1           0       13.970000   20.910000   23.290000
    163          1           0       14.150000   22.420000   23.320000
    164          8           0       14.540000   14.730000   20.980000
    165          1           0       14.340000   13.800000   20.990000
    166          1           0       15.380000   14.790000   20.520000
    167          8           0       26.770000   21.450000   18.900000
    168          1           0       27.660000   21.550000   19.260000
    169          1           0       26.810000   20.640000   18.390000
    170          8           0       21.780000   14.590000   14.690000
    171          1           0       21.090000   15.240000   14.820000
    172          1           0       21.550000   14.160000   13.860000
    173          8           0       16.160000   23.350000   25.080000
    174          1           0       16.590000   23.070000   25.890000
    175          1           0       15.540000   22.650000   24.880000
    176          8           0       24.290000   13.750000   19.750000
    177          1           0       24.990000   13.120000   19.580000
    178          1           0       24.500000   14.510000   19.200000
    179          8           0       24.280000   19.960000   25.770000
    180          1           0       24.810000   20.510000   26.340000
    181          1           0       24.860000   19.250000   25.510000
    182          8           0       13.550000   17.220000   22.190000
    183          1           0       12.600000   17.080000   22.160000
    184          1           0       13.920000   16.440000   21.770000
    185          8           0       12.910000   23.750000   18.420000
    186          1           0       13.530000   23.210000   18.910000
    187          1           0       12.160000   23.830000   19.000000
    188          8           0       16.720000   24.550000   15.290000
    189          1           0       17.460000   24.370000   14.710000
    190          1           0       16.080000   24.980000   14.720000
    191          8           0       20.580000   27.290000   20.490000
    192          1           0       20.340000   28.160000   20.820000
    193          1           0       21.520000   27.230000   20.630000
    194          8           0       16.660000   20.460000   13.490000
    195          1           0       17.410000   20.080000   13.020000
    196          1           0       16.700000   21.390000   13.300000
    197          8           0       18.980000   23.940000   13.880000
    198          1           0       19.790000   24.400000   13.660000
    199          1           0       18.510000   23.870000   13.050000
    200          8           0       17.670000   25.870000   24.910000
    201          1           0       17.850000   26.130000   24.010000
    202          1           0       17.500000   24.930000   24.860000
    203          8           0       18.130000   26.480000   16.590000
    204          1           0       17.640000   26.040000   15.900000
    205          1           0       17.560000   26.450000   17.350000
    206          8           0       23.650000   26.290000   23.910000
    207          1           0       24.180000   26.200000   24.710000
[...]
   Z337      33.08910   0.01248   0.00000   0.00150   0.00139  33.09049
   X338      48.66045   0.01621   0.00000   0.00558   0.00573  48.66618
   Y338      26.38058   0.01356   0.00000   0.00782   0.00821  26.38879
   Z338      43.82275  -0.01159   0.00000  -0.01035  -0.01017  43.81258
   X339      49.86987  -0.00084   0.00000  -0.00260  -0.00243  49.86744
   Y339      25.03887  -0.00295   0.00000  -0.00227  -0.00187  25.03701
   Z339      44.01172   0.00099   0.00000   0.00077   0.00098  44.01270
   X340      47.11087  -0.02222   0.00000  -0.01566  -0.01548  47.09539
   Y340      25.68138  -0.00743   0.00000  -0.00104  -0.00062  25.68075
   Z340      44.40856   0.01042   0.00000   0.00872   0.00901  44.41757
   X341      50.98481   0.00078   0.00000   0.00306   0.00228  50.98709
   Y341      35.77252  -0.00950   0.00000  -0.00521  -0.00603  35.76649
   Z341      25.19005  -0.01542   0.00000  -0.01101  -0.01156  25.17849
   X342      49.81318  -0.00393   0.00000   0.00074   0.00001  49.81319
   Y342      36.66069   0.00575   0.00000   0.00322   0.00246  36.66315
   Z342      26.24830   0.00706   0.00000   0.00339   0.00283  26.25113
   X343      52.59108   0.00668   0.00000   0.00461   0.00387  52.59495
   Y343      36.03708   0.00564   0.00000   0.00778   0.00702  36.04410
   Z343      25.96484   0.00519   0.00000   0.00379   0.00315  25.96799
   X344      38.55041  -0.00119   0.00000   0.00213   0.00179  38.55221
   Y344      20.84368   0.00036   0.00000  -0.00289  -0.00332  20.84036
   Z344      32.44660   0.01167   0.00000   0.00595   0.00696  32.45355
   X345      39.57087  -0.00216   0.00000  -0.00754  -0.00792  39.56295
   Y345      22.22318   0.01031   0.00000   0.01286   0.01240  22.23558
   Z345      31.86078   0.00130   0.00000   0.00369   0.00455  31.86533
   X346      38.55041  -0.00218   0.00000  -0.00336  -0.00376  38.54665
   Y346      19.67205  -0.01019   0.00000  -0.00770  -0.00821  19.66384
   Z346      31.08599  -0.01104   0.00000  -0.00914  -0.00806  31.07794
   X347      38.73939  -0.00147   0.00000   0.00317   0.00227  38.74165
   Y347      49.07619  -0.02267   0.00000  -0.01600  -0.01695  49.05924
   Z347      24.41526  -0.02976   0.00000  -0.01294  -0.01379  24.40147
   X348      38.73939   0.00391   0.00000   0.00538   0.00455  38.74394
   Y348      49.77539   0.02209   0.00000   0.02101   0.02017  49.79556
   Z348      26.07822   0.02979   0.00000   0.01621   0.01531  26.09353
   X349      39.77874   0.00168   0.00000   0.00129   0.00033  39.77907
   Y349      50.21002   0.00251   0.00000   0.00127   0.00026  50.21029
   Z349      23.45150  -0.00002   0.00000  -0.00055  -0.00153  23.44997
   X350      23.71606  -0.01118   0.00000  -0.01213  -0.01186  23.70420
   Y350      42.32987   0.00698   0.00000   0.00464   0.00519  42.33505
   Z350      48.83052   0.01316   0.00000   0.00914   0.00942  48.83994
   X351      24.13180   0.00306   0.00000   0.00423   0.00457  24.13637
   Y351      41.08265  -0.00082   0.00000  -0.00191  -0.00128  41.08137
   Z351      50.09664  -0.00529   0.00000  -0.00608  -0.00574  50.09090
   X352      24.52865   0.00690   0.00000   0.00483   0.00503  24.53368
   Y352      41.72515  -0.00618   0.00000  -0.00432  -0.00387  41.72128
   Z352      47.31874  -0.00311   0.00000   0.00451   0.00479  47.32353
   X353      40.32676   0.00605   0.00000   0.00901   0.00812  40.33487
   Y353      32.35211   0.00045   0.00000  -0.00420  -0.00530  32.34681
   Z353      21.95862  -0.00489   0.00000  -0.00647  -0.00630  21.95232
   X354      41.63067   0.00399   0.00000   0.00585   0.00490  41.63557
   Y354      31.84189  -0.00177   0.00000  -0.00317  -0.00434  31.83754
   Z354      20.80588  -0.00856   0.00000  -0.01369  -0.01355  20.79233
   X355      39.58976  -0.00365   0.00000  -0.00100  -0.00186  39.58790
   Y355      30.80254  -0.00778   0.00000  -0.00529  -0.00636  30.79618
   Z355      22.52554   0.00758   0.00000   0.00929   0.00959  22.53513
   X356      24.69872  -0.00287   0.00000   0.00158   0.00128  24.70000
   Y356      51.06040   0.00617   0.00000   0.00582   0.00565  51.06605
   Z356      37.71893  -0.01399   0.00000  -0.00734  -0.00768  37.71125
   X357      24.96328   0.00188   0.00000   0.00052   0.00030  24.96358
   Y357      51.49504   0.00062   0.00000  -0.00185  -0.00191  51.49313
   Z357      39.43858   0.01578   0.00000   0.01184   0.01146  39.45004
   X358      25.30343   0.00042   0.00000  -0.00237  -0.00266  25.30077
   Y358      49.35965  -0.00801   0.00000  -0.00560  -0.00578  49.35387
   Z358      37.58665  -0.00133   0.00000  -0.00265  -0.00291  37.58374
   X359      53.72491  -0.00389   0.00000  -0.01102  -0.01100  53.71391
   Y359      32.55998  -0.01466   0.00000  -0.00787  -0.00758  32.55240
   Z359      41.87633  -0.02417   0.00000  -0.01386  -0.01432  41.86201
   X360      53.81940   0.00082   0.00000   0.00009   0.00013  53.81953
   Y360      34.24184   0.02756   0.00000   0.02002   0.02036  34.26219
   Z360      42.51884   0.00545   0.00000  -0.00205  -0.00263  42.51621
   X361      53.23359  -0.00285   0.00000   0.00027   0.00036  53.23394
   Y361      31.55843  -0.01063   0.00000  -0.00902  -0.00864  31.54979
   Z361      43.27473   0.01649   0.00000   0.01344   0.01307  43.28779
   X362      26.28609   0.00009   0.00000   0.00190   0.00125  26.28734
   Y362      29.17737   0.00253   0.00000   0.00342   0.00254  29.17992
   Z362      26.83411  -0.03514   0.00000  -0.02827  -0.02725  26.80686
   X363      26.24830  -0.00162   0.00000  -0.00276  -0.00333  26.24497
   Y363      29.10178   0.00502   0.00000   0.01156   0.01080  29.11259
   Z363      28.62935   0.02322   0.00000   0.00597   0.00700  28.63635
   X364      27.66559   0.00398   0.00000   0.00698   0.00632  27.67191
   Y364      28.10023  -0.00079   0.00000  -0.00041  -0.00131  28.09892
   Z364      26.36168  -0.00229   0.00000  -0.00576  -0.00474  26.35694
   X365      21.31611   0.00411   0.00000   0.00497   0.00489  21.32100
   Y365      29.66870  -0.01355   0.00000  -0.00648  -0.00657  29.66213
   Z365      39.41969   0.01567   0.00000   0.01143   0.01265  39.43233
   X366      20.22007  -0.00710   0.00000  -0.00349  -0.00359  20.21648
   Y366      31.06710   0.01102   0.00000   0.00539   0.00528  31.07238
   Z366      39.15513  -0.00550   0.00000  -0.00572  -0.00454  39.15058
   X367      22.54443   0.00506   0.00000   0.00235   0.00221  22.54664
   Y367      29.80098   0.00644   0.00000   0.00838   0.00822  29.80920
   Z367      38.09688  -0.00812   0.00000  -0.00562  -0.00446  38.09242
   X368      31.23717  -0.02579   0.00000  -0.02052  -0.02073  31.21645
   Y368      20.50353  -0.00307   0.00000   0.00251   0.00222  20.50575
   Z368      35.41347  -0.00223   0.00000  -0.00952  -0.00816  35.40531
   X369      31.53953   0.00749   0.00000   0.01036   0.01009  31.54962
   Y369      19.93661  -0.00842   0.00000  -0.01212  -0.01251  19.92410
   Z369      33.73161  -0.00967   0.00000  -0.00912  -0.00773  33.72388
   X370      32.80565   0.01118   0.00000  -0.00188  -0.00206  32.80358
   Y370      21.25942   0.01408   0.00000   0.01516   0.01492  21.27434
   Z370      35.92369   0.00537   0.00000   0.00317   0.00441  35.92810
   X371      49.92656  -0.00953   0.00000  -0.00303  -0.00370  49.92286
   Y371      46.95969   0.00611   0.00000   0.00510   0.00453  46.96422
   Z371      29.10178   0.00847   0.00000   0.00556   0.00433  29.10611
   X372      51.64622   0.01388   0.00000   0.01104   0.01040  51.65661
   Y372      46.61954  -0.00397   0.00000  -0.00394  -0.00447  46.61508
   Z372      29.51752   0.00284   0.00000   0.00245   0.00117  29.51869
   X373      49.79428  -0.00873   0.00000  -0.01382  -0.01456  49.77972
   Y373      46.48726  -0.00376   0.00000  -0.00219  -0.00287  46.48439
   Z373      27.34434  -0.01369   0.00000  -0.00847  -0.00967  27.33467
   X374      47.98015   0.01382   0.00000   0.01163   0.01074  47.99089
   Y374      45.63689   0.00970   0.00000   0.00638   0.00547  45.64235
   Z374      24.05621   0.00272   0.00000   0.00645   0.00540  24.06161
   X375      46.22270  -0.01236   0.00000  -0.00538  -0.00625  46.21645
   Y375      45.35343  -0.00144   0.00000   0.00194   0.00104  45.35446
   Z375      24.41526   0.00444   0.00000   0.00561   0.00465  24.41991
   X376      48.56596   0.00182   0.00000   0.00210   0.00119  48.56715
   Y376      44.04952  -0.00869   0.00000  -0.00623  -0.00718  44.04234
   Z376      23.41371  -0.00037   0.00000   0.00302   0.00204  23.41575
   X377      51.81629  -0.00130   0.00000   0.00238   0.00240  51.81869
   Y377      47.46992   0.00782   0.00000   0.00818   0.00860  47.47852
   Z377      43.91724   0.02039   0.00000   0.01518   0.01382  43.93106
   X378      52.15644   0.00107   0.00000  -0.00061  -0.00067  52.15577
   Y378      47.11087  -0.00121   0.00000   0.00098   0.00129  47.11216
   Z378      42.17869  -0.01632   0.00000  -0.00661  -0.00796  42.17073
   X379      50.30451   0.00100   0.00000  -0.00052  -0.00052  50.30399
   Y379      48.49037  -0.00191   0.00000  -0.00193  -0.00152  48.48885
   Z379      43.87944  -0.00283   0.00000  -0.00229  -0.00364  43.87580
   X380      28.79943  -0.00237   0.00000   0.00090   0.00144  28.80086
   Y380      33.12690   0.01934   0.00000   0.01511   0.01598  33.14288
   Z380      53.32807   0.00298   0.00000  -0.00145  -0.00080  53.32727
   X381      28.91281  -0.00154   0.00000  -0.00484  -0.00437  28.90844
   Y381      32.10645  -0.01146   0.00000  -0.01051  -0.00973  32.09672
   Z381      51.83519  -0.00825   0.00000  -0.00338  -0.00267  51.83251
   X382      29.49862   0.00517   0.00000   0.00445   0.00505  29.50368
   Y382      32.08755  -0.00245   0.00000   0.00244   0.00341  32.09096
   Z382      54.63198   0.00408   0.00000   0.00081   0.00149  54.63348
   X383      52.49659   0.00245   0.00000   0.00144   0.00098  52.49757
   Y383      46.67624  -0.01564   0.00000  -0.00828  -0.00853  46.66770
   Z383      33.63713   0.00005   0.00000   0.00247   0.00114  33.63827
   X384      51.79739  -0.00449   0.00000  -0.00142  -0.00190  51.79549
   Y384      48.32030   0.01508   0.00000   0.00959   0.00932  48.32961
   Z384      33.41036  -0.00369   0.00000  -0.00390  -0.00530  33.40506
   X385      54.02727   0.00365   0.00000   0.00407   0.00366  54.03093
   Y385      46.94080   0.00321   0.00000   0.00417   0.00399  46.94479
   Z385      34.58199   0.00124   0.00000   0.00133  -0.00009  34.58190
         Item               Value     Threshold  Converged?
 Maximum Force            0.049636     0.000450     NO 
 RMS     Force            0.010529     0.000300     NO 
 Maximum Displacement     0.042745     0.001800     NO 
 RMS     Displacement     0.008810     0.001200     NO 
 Predicted change in Energy=-7.348480D-02
 GradGradGradGradGradGradGradGradGradGradGradGradGradGradGradGradGradGrad

 Leave Link  103 at Mon May  7 20:48:18 2018, MaxMem= 14763950080 cpu:      3144.6
 (Enter /cm/shared/gaussian/g09.e01/intel64-sandybridge/g09/l9999.exe)
 1\1\GINC-POPLE01\Force\RPBE1PBE\CC-pVDZ\Br1H256O128(1-)\M.PELUSO\07-Ma
 y-2018\0\\#p PBE1PBE/cc-pvDZ force Counterpoise=2 noSymm\\forces on ch
 loride comput - NWATER: 128\\-1,1\Br,20.,20.,20.\O,22.45,18.86,18.66\H
 ,23.02,19.43,19.17\H,21.57,19.05,18.98\O,19.99,17.37,21.79\H,20.85,17.
 ,21.97\H,20.17,18.21,21.37\O,18.81,18.34,17.51\H,17.94,17.93,17.53\H,1
 8.97,18.61,18.41\O,22.7,21.78,20.31\H,21.9,21.3,20.53\H,23.34,21.47,20
 .95\O,16.75,18.87,20.\H,16.92,17.93,20.1\H,17.56,19.29,20.28\O,18.03,2
 1.95,22.12\H,18.38,22.79,22.42\H,18.81,21.45,21.86\O,20.89,23.27,18.21
 \H,21.56,23.41,17.54\H,21.07,22.4,18.56\O,18.05,23.23,17.8\H,18.71,23.
 91,17.65\H,18.49,22.61,18.38\O,19.39,20.72,15.98\H,19.13,21.56,16.37\H
 ,18.99,20.06,16.55\O,15.85,20.98,18.45\H,16.55,20.38,18.68\H,16.2,21.8
 5,18.66\O,22.42,16.43,18.31\H,23.32,16.19,18.1\H,22.46,17.35,18.54\O,1
 7.27,17.31,23.08\H,18.14,17.38,22.67\H,16.94,16.47,22.79\O,22.45,18.38
 ,15.95\H,21.88,17.62,16.09\H,22.66,18.68,16.83\O,17.48,20.11,24.73\H,1
 7.8,20.21,23.84\H,16.58,19.8,24.63\O,19.15,24.92,20.18\H,19.78,24.56,1
 9.55\H,19.33,25.86,20.17\O,16.16,23.28,20.55\H,16.59,22.8,21.27\H,16.6
 8,24.08,20.45\O,23.24,21.16,23.66\H,23.47,20.5,23.\H,23.52,20.77,24.49
 \O,24.09,23.8,19.79\H,23.5,23.05,19.85\H,24.53,23.68,18.94\O,21.99,21.
 13,15.38\H,21.08,21.31,15.64\H,22.07,20.18,15.41\O,23.83,18.34,23.17\H
 ,22.94,18.58,23.4\H,23.74,17.61,22.56\O,20.41,14.92,19.66\H,21.2,15.44
 ,19.76\H,20.71,14.1,19.25\O,20.15,16.8,15.46\H,19.67,17.43,16.\H,19.48
 ,16.4,14.9\O,19.76,24.5,22.75\H,19.56,24.4,21.81\H,19.34,25.33,22.99\O
 ,14.52,19.46,21.25\H,15.29,19.26,20.71\H,14.05,18.63,21.32\O,24.75,20.
 23,21.1\H,25.25,20.76,20.47\H,25.1,19.34,21.\O,18.11,15.18,21.28\H,19.
 04,15.33,21.11\H,17.69,15.32,20.44\O,15.43,17.75,17.6\H,14.58,18.02,17
 .26\H,15.64,18.41,18.27\O,19.13,22.08,25.31\H,19.52,22.44,24.51\H,18.5
 3,21.4,25.\O,22.29,23.98,23.54\H,22.51,23.07,23.34\H,21.39,24.08,23.23
 \O,23.77,16.36,21.34\H,24.3,15.56,21.35\H,24.17,16.91,20.66\O,21.51,18
 .29,24.82\H,22.11,18.71,25.44\H,20.65,18.35,25.23\O,19.39,14.32,17.18\
 H,19.51,15.09,16.62\H,19.53,14.65,18.07\O,15.23,22.23,16.06\H,15.56,21
 .72,16.8\H,15.82,22.98,16.\O,22.73,23.91,16.36\H,23.67,23.78,16.42\H,2
 2.41,23.16,15.86\O,16.96,15.35,18.31\H,16.3,15.98,18.02\H,16.72,14.53,
 17.87\O,15.07,18.66,24.14\H,15.8,18.16,23.75\H,14.3,18.39,23.64\O,13.7
 1,21.92,20.58\H,13.88,20.99,20.72\H,14.55,22.35,20.76\O,16.66,17.77,14
 .65\H,15.72,17.74,14.82\H,16.95,18.6,15.04\O,20.07,14.81,24.68\H,20.3,
 15.68,24.34\H,19.33,14.53,24.14\O,19.63,20.21,12.8\H,19.66,20.25,13.76
 \H,20.44,20.64,12.52\O,22.63,25.96,18.18\H,23.13,25.41,18.78\H,22.42,2
 5.38,17.44\O,25.32,18.25,15.34\H,24.46,18.36,15.74\H,25.27,17.4,14.9\O
 ,19.04,17.87,26.28\H,18.6,17.2,25.76\H,18.35,18.49,26.51\O,26.22,17.98
 ,20.58\H,26.65,17.42,21.23\H,26.88,18.14,19.92\O,25.1,16.31,18.02\H,25
 .79,16.57,18.62\H,25.56,15.95,17.26\O,25.26,22.83,17.02\H,25.88,23.48,
 16.7\H,25.75,22.32,17.66\O,26.34,20.83,24.02\H,26.21,19.94,24.36\H,25.
 88,20.83,23.18\O,21.57,22.51,26.96\H,22.35,22.83,26.51\H,20.95,22.31,2
 6.26\O,18.57,12.53,19.21\H,18.53,13.48,19.11\H,19.28,12.26,18.63\O,24.
 63,20.68,14.23\H,23.8,21.07,14.48\H,24.39,19.85,13.8\O,25.99,18.13,24.
 61\H,25.24,18.04,24.02\H,26.4,17.26,24.61\O,24.8,25.97,21.45\H,24.23,2
 5.38,20.96\H,24.37,26.07,22.3\O,18.51,20.48,27.65\H,17.55,20.47,27.68\
 H,18.72,20.76,26.75\O,14.24,21.63,23.86\H,13.97,20.91,23.29\H,14.15,22
 .42,23.32\O,14.54,14.73,20.98\H,14.34,13.8,20.99\H,15.38,14.79,20.52\O
 ,26.77,21.45,18.9\H,27.66,21.55,19.26\H,26.81,20.64,18.39\O,21.78,14.5
 9,14.69\H,21.09,15.24,14.82\H,21.55,14.16,13.86\O,16.16,23.35,25.08\H,
 16.59,23.07,25.89\H,15.54,22.65,24.88\O,24.29,13.75,19.75\H,24.99,13.1
 2,19.58\H,24.5,14.51,19.2\O,24.28,19.96,25.77\H,24.81,20.51,26.34\H,24
 .86,19.25,25.51\O,13.55,17.22,22.19\H,12.6,17.08,22.16\H,13.92,16.44,2
 1.77\O,12.91,23.75,18.42\H,13.53,23.21,18.91\H,12.16,23.83,19.\O,16.72
 ,24.55,15.29\H,17.46,24.37,14.71\H,16.08,24.98,14.72\O,20.58,27.29,20.
 49\H,20.34,28.16,20.82\H,21.52,27.23,20.63\O,16.66,20.46,13.49\H,17.41
 ,20.08,13.02\H,16.7,21.39,13.3\O,18.98,23.94,13.88\H,19.79,24.4,13.66\
 H,18.51,23.87,13.05\O,17.67,25.87,24.91\H,17.85,26.13,24.01\H,17.5,24.
 93,24.86\O,18.13,26.48,16.59\H,17.64,26.04,15.9\H,17.56,26.45,17.35\O,
 23.65,26.29,23.91\H,24.18,26.2,24.71\H,23.07,25.52,23.92\O,21.87,12.76
 ,18.63\H,22.52,13.21,18.09\H,22.16,11.85,18.65\O,18.34,15.58,13.69\H,1
 7.6,15.97,14.16\H,18.42,16.1,12.89\O,27.28,19.33,17.44\H,26.69,19.14,1
 6.71\H,28.09,18.87,17.21\O,13.82,15.36,16.74\H,14.17,15.93,17.42\H,14.
 26,14.52,16.88\O,23.51,13.41,16.48\H,22.92,12.82,16.\H,23.23,14.29,16.
 21\O,17.57,12.46,22.06\H,18.2,12.75,21.4\H,17.49,13.2,22.66\O,14.83,20
 .07,26.55\H,14.85,19.82,25.63\H,15.15,19.3,27.02\O,18.87,17.8,12.03\H,
 19.7,17.7,11.57\H,18.98,18.6,12.55\O,22.48,12.59,21.4\H,23.18,13.11,21
 .\H,21.78,12.58,20.75\O,17.09,14.18,24.29\H,16.25,14.58,24.09\H,16.87,
 13.33,24.68\O,12.22,17.99,19.17\H,11.28,18.13,19.01\H,12.63,18.17,18.3
 2\O,14.04,24.22,22.71\H,14.52,24.91,23.17\H,13.14,24.54,22.66\O,13.99,
 20.24,14.28\H,14.58,19.82,13.65\H,14.47,21.01,14.58\O,20.53,27.,15.29\
 H,19.84,26.59,15.81\H,21.02,27.54,15.92\O,18.21,23.57,27.78\H,18.66,23
 .31,26.97\H,17.6,22.85,27.94\O,13.16,18.46,16.51\H,13.47,19.,15.78\H,1
 2.37,18.03,16.17\O,18.01,27.23,22.64\H,17.2,27.75,22.66\H,18.59,27.71,
 22.05\O,22.75,13.24,24.01\H,22.35,13.,23.18\H,22.19,12.84,24.67\O,15.3
 3,15.73,26.18\H,14.67,15.14,25.83\H,16.07,15.66,25.57\O,21.45,15.33,27
 .04\H,20.84,15.05,26.35\H,21.92,14.53,27.28\O,22.54,23.96,12.88\H,22.4
 1,24.4,12.04\H,21.96,24.42,13.49\O,21.66,20.01,28.33\H,20.76,19.85,28.
 61\H,21.62,20.87,27.9\O,11.44,20.21,22.51\H,12.11,19.71,22.05\H,10.94,
 20.63,21.8\O,22.05,21.25,12.18\H,22.93,20.93,12.38\H,22.07,22.18,12.41
 \O,28.43,20.07,22.47\H,28.69,20.62,21.73\H,27.68,20.53,22.85\O,24.59,1
 5.75,13.7\H,24.82,14.86,13.47\H,23.71,15.69,14.08\O,21.26,28.64,17.9\H
 ,21.73,27.88,18.25\H,20.34,28.43,18.07\O,27.17,25.05,20.64\H,27.14,25.
 01,19.68\H,26.3,25.35,20.9\O,13.92,23.7,14.05\H,14.5,23.31,14.71\H,14.
 5,24.25,13.52\O,23.49,18.44,12.53\H,22.63,18.09,12.31\H,24.03,17.67,12
 .71\O,11.66,23.89,20.71\H,10.91,23.5,21.14\H,12.38,23.3,20.89\O,16.15,
 21.95,27.68\H,15.56,21.43,27.14\H,15.66,22.09,28.5\O,19.16,17.79,29.1\
 H,18.41,18.38,29.09\H,19.3,17.56,28.18\O,27.79,22.14,15.01\H,28.31,22.
 1,15.82\H,26.88,22.07,15.31\O,24.43,27.13,15.77\H,25.13,26.49,15.68\H,
 23.9,26.81,16.5\O,15.56,13.21,17.02\H,15.8,12.37,17.41\H,15.52,13.05,1
 6.08\O,24.54,28.12,19.03\H,24.33,27.48,19.71\H,25.49,28.07,18.94\O,10.
 59,20.94,18.54\H,11.51,20.68,18.5\H,10.47,21.5,17.78\O,27.36,23.15,25.
 08\H,26.84,22.45,24.7\H,27.35,23.85,24.42\O,12.3,22.62,16.03\H,13.08,2
 2.81,15.51\H,12.49,23.01,16.89\O,22.51,17.42,28.5\H,22.21,18.32,28.36\
 H,22.02,16.9,27.86\O,19.82,26.69,26.71\H,20.74,26.93,26.58\H,19.52,26.
 42,25.84\O,13.4,25.81,16.94\H,14.26,25.66,16.52\H,13.28,25.06,17.51\O,
 25.75,13.96,23.19\H,26.39,13.25,23.29\H,24.93,13.59,23.5\O,26.98,18.93
 ,13.33\H,26.36,19.4,13.89\H,27.83,19.07,13.74\O,20.4,11.03,17.17\H,20.
 94,11.76,16.86\H,20.4,10.41,16.45\O,20.5,25.97,12.92\H,20.5,26.34,13.8
 \H,21.05,26.57,12.41\O,12.55,22.4,25.84\H,12.77,21.74,26.51\H,12.98,22
 .08,25.04\O,21.34,17.12,11.62\H,22.03,16.85,11.01\H,20.95,16.3,11.92\O
 ,13.07,27.02,19.96\H,13.21,27.25,20.87\H,13.39,26.12,19.89\O,28.43,17.
 23,22.16\H,28.48,18.12,22.5\H,28.17,16.7,22.9\O,13.91,15.44,14.2\H,13.
 89,15.4,15.15\H,14.64,14.87,13.95\O,11.28,15.7,20.86\H,10.7,16.44,20.7
 2\H,11.93,15.77,20.16\O,16.53,10.85,18.74\H,16.69,10.55,17.85\H,17.36,
 11.25,19.01\O,26.42,24.85,15.4\H,27.33,24.67,15.62\H,26.35,24.6,14.47\
 O,25.39,24.15,12.73\H,24.46,24.,12.92\H,25.7,23.31,12.39\O,27.42,25.12
 ,23.24\H,27.6,24.93,22.32\H,26.62,25.66,23.22\O,15.24,17.53,28.22\H,15
 .3,16.99,27.43\H,15.61,16.98,28.91\O,27.78,24.7,17.8\H,27.41,25.57,17.
 68\H,28.59,24.84,18.3\\Version=ES64L-G09RevE.01\HF=-9773.3756583\RMSD=
 1.523e-09\RMSF=1.053e-02\Dipole=6.2770754,-12.3126285,-15.3449479\Quad
 rupole=1036.0120294,-297.9354436,-738.0765859,-1673.1537654,-1846.5001
 183,-2449.2415166\PG=C01 [X(Br1H256O128)]\\@


 THE VALUE OF PHILOSOPHY IS, IN FACT, TO BE SOUGHT LARGELY IN ITS
 VERY UNCERTAINTY.  THE MAN WHO HAS NO TINCTURE OF PHILOSOPHY GOES
 THROUGH LIFE IMPRISONED IN THE PREJUDICES DERIVED FROM COMMON SENSE,
 FROM THE HABITUAL BELIEFS OF HIS AGE OR HIS NATION, AND FROM
 CONVICTIONS WHICH HAVE GROWN UP IN HIS MIND WITHOUT THE CO-OPERATION
 OR CONSENT OF HIS DELIBERATE REASON.  TO SUCH A MAN THE WORLD TENDS
 TO BE DEFINITE, FINITE, OBVIOUS; COMMON OBJECTS ROUSE NO QUESTIONS,
 AND UNFAMILIAR POSSIBILITIES ARE CONTEMPTUOUSLY REJECTED.

                             -- BERTRAND RUSSELL
 Job cpu time:       6 days 22 hours  7 minutes 45.2 seconds.
 File lengths (MBytes):  RWF=   7285 Int=      0 D2E=      0 Chk=   2411 Scr=      1
 Normal termination of Gaussian 09 at Mon May  7 20:48:40 2018.
