 Entering Gaussian System, Link 0=/cm/shared/gaussian/g09.e01/intel64-sandybridge/g09/g09
 Initial command:
 /cm/shared/gaussian/g09.e01/intel64-sandybridge/g09/l1.exe "/local/scratch/m.peluso/128_wat/370/Gau-19998.inp" -scrdir="/local/scratch/m.peluso/128_wat/370/"
 Entering Link 1 = /cm/shared/gaussian/g09.e01/intel64-sandybridge/g09/l1.exe PID=     19999.
  
 Copyright (c) 1988,1990,1992,1993,1995,1998,2003,2009,2015,
            Gaussian, Inc.  All Rights Reserved.
  
 This is part of the Gaussian(R) 09 program.  It is based on
 the Gaussian(R) 03 system (copyright 2003, Gaussian, Inc.),
 the Gaussian(R) 98 system (copyright 1998, Gaussian, Inc.),
 the Gaussian(R) 94 system (copyright 1995, Gaussian, Inc.),
 the Gaussian 92(TM) system (copyright 1992, Gaussian, Inc.),
 the Gaussian 90(TM) system (copyright 1990, Gaussian, Inc.),
 the Gaussian 88(TM) system (copyright 1988, Gaussian, Inc.),
 the Gaussian 86(TM) system (copyright 1986, Carnegie Mellon
 University), and the Gaussian 82(TM) system (copyright 1983,
 Carnegie Mellon University). Gaussian is a federally registered
 trademark of Gaussian, Inc.
  
 This software contains proprietary and confidential information,
 including trade secrets, belonging to Gaussian, Inc.
  
 This software is provided under written license and may be
 used, copied, transmitted, or stored only in accord with that
 written license.
  
 The following legend is applicable only to US Government
 contracts under FAR:
  
                    RESTRICTED RIGHTS LEGEND
  
 Use, reproduction and disclosure by the US Government is
 subject to restrictions as set forth in subparagraphs (a)
 and (c) of the Commercial Computer Software - Restricted
 Rights clause in FAR 52.227-19.
  
 Gaussian, Inc.
 340 Quinnipiac St., Bldg. 40, Wallingford CT 06492
  
  
 ---------------------------------------------------------------
 Warning -- This program may not be used in any manner that
 competes with the business of Gaussian, Inc. or will provide
 assistance to any competitor of Gaussian, Inc.  The licensee
 of this program is prohibited from giving any competitor of
 Gaussian, Inc. access to this program.  By using this program,
 the user acknowledges that Gaussian, Inc. is engaged in the
 business of creating and licensing software in the field of
 computational chemistry and represents and warrants to the
 licensee that it is not a competitor of Gaussian, Inc. and that
 it will not use this program in any manner prohibited above.
 ---------------------------------------------------------------
  

 Cite this work as:
 Gaussian 09, Revision E.01,
 M. J. Frisch, G. W. Trucks, H. B. Schlegel, G. E. Scuseria, 
 M. A. Robb, J. R. Cheeseman, G. Scalmani, V. Barone, B. Mennucci, 
 G. A. Petersson, H. Nakatsuji, M. Caricato, X. Li, H. P. Hratchian, 
 A. F. Izmaylov, J. Bloino, G. Zheng, J. L. Sonnenberg, M. Hada, 
 M. Ehara, K. Toyota, R. Fukuda, J. Hasegawa, M. Ishida, T. Nakajima, 
 Y. Honda, O. Kitao, H. Nakai, T. Vreven, J. A. Montgomery, Jr., 
 J. E. Peralta, F. Ogliaro, M. Bearpark, J. J. Heyd, E. Brothers, 
 K. N. Kudin, V. N. Staroverov, T. Keith, R. Kobayashi, J. Normand, 
 K. Raghavachari, A. Rendell, J. C. Burant, S. S. Iyengar, J. Tomasi, 
 M. Cossi, N. Rega, J. M. Millam, M. Klene, J. E. Knox, J. B. Cross, 
 V. Bakken, C. Adamo, J. Jaramillo, R. Gomperts, R. E. Stratmann, 
 O. Yazyev, A. J. Austin, R. Cammi, C. Pomelli, J. W. Ochterski, 
 R. L. Martin, K. Morokuma, V. G. Zakrzewski, G. A. Voth, 
 P. Salvador, J. J. Dannenberg, S. Dapprich, A. D. Daniels, 
 O. Farkas, J. B. Foresman, J. V. Ortiz, J. Cioslowski, 
 and D. J. Fox, Gaussian, Inc., Wallingford CT, 2013.
 
 ******************************************
 Gaussian 09:  ES64L-G09RevE.01 30-Nov-2015
                 6-May-2018 
 ******************************************
 %Mem=110GB
 %NProcShared=64
 Will use up to   64 processors via shared memory.
 %chk=snap27.chk
 ----------------------------------------------
 #p PBE1PBE/cc-pvDZ force Counterpoise=2 noSymm
 ----------------------------------------------
 1/10=7,30=1,38=1,62=2/1,3;
 2/12=2,15=1,17=6,18=5,40=1/2;
 1/10=7,30=1,38=1,53=2,62=2,63=101/22;
 3/5=16,11=2,16=1,25=1,30=1,71=1,74=-13/1,2,3;
 4//1;
 5/5=2,38=5/2;
 6/7=2,8=2,9=2,10=2,28=1/1;
 7/7=1,29=1,30=1,33=-1/1,2,3,16;
 1/10=7,30=1,53=2,62=2,63=101/22;
 3/5=7,6=11,11=2,16=1,25=1,30=1,71=1,74=-13,82=7/1,2,3;
 4//1;
 5/5=2,38=5/2;
 6/7=2,8=2,9=2,10=2,28=1/1;
 7/7=1,29=1,30=1,33=-1/1,2,3,16;
 1/10=7,30=1,53=2,62=2,63=101/22(-5);
 7/9=1,29=1,44=-1/16;
 1/10=7,30=1,62=2/3;
 99//99;
 Leave Link    1 at Sun May  6 02:44:13 2018, MaxMem= 14763950080 cpu:         6.1
 (Enter /cm/shared/gaussian/g09.e01/intel64-sandybridge/g09/l101.exe)
 ---------------------------------------
 forces on chloride comput - NWATER: 128
 ---------------------------------------
 Symbolic Z-matrix:
 Charge = -1 Multiplicity = 1 in supermolecule
 Charge = -1 Multiplicity = 1 in fragment      1.
 Charge =  0 Multiplicity = 1 in fragment      2.
 Br(Fragment=1)        20.       20.       20. 
 O(Fragment=2)         19.99     22.61     17.96 
 H(Fragment=2)         20.03     21.87     18.56 
 H(Fragment=2)         19.98     23.38     18.52 
 O(Fragment=2)         22.1      17.51     20.53 
 H(Fragment=2)         22.41     17.48     19.63 
 H(Fragment=2)         21.52     18.28     20.56 
 O(Fragment=2)         18.02     21.52     22.2 
 H(Fragment=2)         18.57     21.1      21.54 
 H(Fragment=2)         17.33     20.88     22.38 
 O(Fragment=2)         17.3      21.48     18.56 
 H(Fragment=2)         17.68     21.91     17.79 
 H(Fragment=2)         18.02     20.98     18.94 
 O(Fragment=2)         20.26     19.85     23.33 
 H(Fragment=2)         19.71     20.13     22.6 
 H(Fragment=2)         21.16     20.       23.03 
 O(Fragment=2)         20.16     18.18     17.19 
 H(Fragment=2)         20.46     18.2      18.09 
 H(Fragment=2)         19.27     18.54     17.22 
 O(Fragment=2)         22.37     22.52     21.01 
 H(Fragment=2)         21.66     22.92     20.52 
 H(Fragment=2)         22.07     21.63     21.19 
 O(Fragment=2)         19.39     16.23     19.75 
 H(Fragment=2)         18.79     16.24     19. 
 H(Fragment=2)         19.31     17.11     20.13 
 O(Fragment=2)         22.64     19.65     22.17 
 H(Fragment=2)         22.86     18.84     21.72 
 H(Fragment=2)         23.4      19.84     22.71 
 O(Fragment=2)         23.13     19.77     17.64 
 H(Fragment=2)         22.81     20.55     18.09 
 H(Fragment=2)         22.33     19.31     17.36 
 O(Fragment=2)         18.49     17.43     22.24 
 H(Fragment=2)         18.96     18.06     22.78 
 H(Fragment=2)         17.68     17.26     22.73 
 O(Fragment=2)         16.36     19.32     21.43 
 H(Fragment=2)         16.71     18.53     21.01 
 H(Fragment=2)         15.41     19.21     21.38 
 O(Fragment=2)         17.67     19.01     16.6 
 H(Fragment=2)         18.01     19.9      16.73 
 H(Fragment=2)         17.64     18.9      15.65 
 O(Fragment=2)         16.59     23.47     20.49 
 H(Fragment=2)         17.06     22.75     20.08 
 H(Fragment=2)         15.69     23.15     20.57 
 O(Fragment=2)         17.55     16.61     17.84 
 H(Fragment=2)         17.63     17.54     17.62 
 H(Fragment=2)         17.12     16.22     17.07 
 O(Fragment=2)         21.07     21.28     15.3 
 H(Fragment=2)         20.54     21.36     16.09 
 H(Fragment=2)         20.55     21.7      14.61 
 O(Fragment=2)         21.44     17.14     23.65 
 H(Fragment=2)         21.57     17.05     22.71 
 H(Fragment=2)         21.34     18.08     23.79 
 O(Fragment=2)         20.38     24.42     19.95 
 H(Fragment=2)         20.39     24.67     20.87 
 H(Fragment=2)         21.06     24.96     19.54 
 O(Fragment=2)         18.91     22.49     24.52 
 H(Fragment=2)         18.66     22.16     23.65 
 H(Fragment=2)         19.79     22.84     24.4 
 O(Fragment=2)         21.86     22.77     24.12 
 H(Fragment=2)         22.54     22.73     24.78 
 H(Fragment=2)         22.21     22.28     23.38 
 O(Fragment=2)         14.4      21.21     19.03 
 H(Fragment=2)         14.05     21.09     18.15 
 H(Fragment=2)         15.34     21.05     18.94 
 O(Fragment=2)         18.88     19.61     25.84 
 H(Fragment=2)         18.22     20.28     26.02 
 H(Fragment=2)         19.06     19.68     24.91 
 O(Fragment=2)         22.25     14.61     21.33 
 H(Fragment=2)         22.08     15.5      21.03 
 H(Fragment=2)         21.4      14.16     21.23 
 O(Fragment=2)         22.9      23.27     16.06 
 H(Fragment=2)         22.36     23.26     16.84 
 H(Fragment=2)         22.47     22.67     15.45 
 O(Fragment=2)         17.7      21.96     15.83 
 H(Fragment=2)         18.1      22.82     15.71 
 H(Fragment=2)         17.86     21.51     14.99 
 O(Fragment=2)         22.45     17.78     15.11 
 H(Fragment=2)         21.64     18.2      15.37 
 H(Fragment=2)         22.91     17.61     15.93 
 O(Fragment=2)         25.26     23.35     20.72 
 H(Fragment=2)         24.42     22.88     20.76 
 H(Fragment=2)         25.22     23.82     19.89 
 O(Fragment=2)         23.51     16.9      17.39 
 H(Fragment=2)         23.8      16.27     16.73 
 H(Fragment=2)         24.26     16.97     17.99 
 O(Fragment=2)         20.29     15.49     15.45 
 H(Fragment=2)         20.38     15.74     14.53 
 H(Fragment=2)         19.86     16.24     15.86 
 O(Fragment=2)         21.54     14.29     17.42 
 H(Fragment=2)         21.43     14.81     16.62 
 H(Fragment=2)         21.58     14.94     18.13 
 O(Fragment=2)         14.83     19.71     16.33 
 H(Fragment=2)         15.56     19.13     16.58 
 H(Fragment=2)         14.2      19.13     15.9 
 O(Fragment=2)         20.15     25.4      23.5 
 H(Fragment=2)         20.82     25.96     23.88 
 H(Fragment=2)         20.52     24.52     23.54 
 O(Fragment=2)         21.89     19.58     25.92 
 H(Fragment=2)         22.15     20.31     26.47 
 H(Fragment=2)         20.98     19.77     25.68 
 O(Fragment=2)         19.6      13.7      21.31 
 H(Fragment=2)         19.14     13.87     20.48 
 H(Fragment=2)         19.47     14.51     21.81 
 O(Fragment=2)         15.95     14.85     19.34 
 H(Fragment=2)         16.35     14.04     19.01 
 H(Fragment=2)         16.41     15.55     18.89 
 O(Fragment=2)         26.49     19.68     18.97 
 H(Fragment=2)         26.77     20.31     18.31 
 H(Fragment=2)         25.67     19.32     18.64 
 O(Fragment=2)         16.38     23.87     23.78 
 H(Fragment=2)         16.45     24.05     22.84 
 H(Fragment=2)         16.92     23.1      23.92 
 O(Fragment=2)         17.69     25.92     20.96 
 H(Fragment=2)         17.29     25.08     21.19 
 H(Fragment=2)         18.13     25.75     20.13 
 O(Fragment=2)         19.88     15.09     24.53 
 H(Fragment=2)         20.37     14.92     25.33 
 H(Fragment=2)         20.44     15.69     24.03 
 O(Fragment=2)         24.26     20.84     24.44 
 H(Fragment=2)         23.58     20.24     24.74 
 H(Fragment=2)         24.69     21.14     25.24 
 O(Fragment=2)         16.28     24.79     17.87 
 H(Fragment=2)         16.02     23.95     17.49 
 H(Fragment=2)         16.38     24.6      18.8 
 O(Fragment=2)         14.2      22.22     21.52 
 H(Fragment=2)         13.55     22.87     21.25 
 H(Fragment=2)         14.29     21.65     20.76 
 O(Fragment=2)         25.8      21.08     16.42 
 H(Fragment=2)         25.94     22.02     16.51 
 H(Fragment=2)         24.85     20.97     16.47 
 O(Fragment=2)         15.03     22.47     16.18 
 H(Fragment=2)         15.88     22.2      15.84 
 H(Fragment=2)         14.49     21.68     16.15 
 O(Fragment=2)         22.6      25.49     21.85 
 H(Fragment=2)         22.65     26.33     22.31 
 H(Fragment=2)         23.17     24.9      22.35 
 O(Fragment=2)         16.94     16.63     24.37 
 H(Fragment=2)         16.24     16.44     23.75 
 H(Fragment=2)         17.58     15.94     24.23 
 O(Fragment=2)         25.24     17.58     22.7 
 H(Fragment=2)         25.49     16.86     22.13 
 H(Fragment=2)         24.93     17.16     23.5 
 O(Fragment=2)         22.85     25.79     18.97 
 H(Fragment=2)         22.7      25.79     19.91 
 H(Fragment=2)         23.54     26.44     18.83 
 O(Fragment=2)         18.44     20.6      13.73 
 H(Fragment=2)         18.05     19.74     13.87 
 H(Fragment=2)         18.13     20.88     12.87 
 O(Fragment=2)         23.55     17.41     25.39 
 H(Fragment=2)         22.98     16.9      24.81 
 H(Fragment=2)         22.95     17.87     25.97 
 O(Fragment=2)         15.79     15.34     22.26 
 H(Fragment=2)         15.77     15.12     21.33 
 H(Fragment=2)         16.01     14.52     22.7 
 O(Fragment=2)         15.01     18.93     24.58 
 H(Fragment=2)         15.8      18.48     24.87 
 H(Fragment=2)         14.45     18.23     24.24 
 O(Fragment=2)         18.55     13.47     18.29 
 H(Fragment=2)         18.89     12.65     18.65 
 H(Fragment=2)         19.27     13.82     17.77 
 O(Fragment=2)         26.47     19.79     23.27 
 H(Fragment=2)         25.93     19.14     22.82 
 H(Fragment=2)         25.84     20.35     23.73 
 O(Fragment=2)         25.23     23.99     18.16 
 H(Fragment=2)         24.47     24.57     18.08 
 H(Fragment=2)         25.95     24.47     17.75 
 O(Fragment=2)         24.02     14.82     23.44 
 H(Fragment=2)         24.85     14.51     23.08 
 H(Fragment=2)         23.43     14.87     22.68 
 O(Fragment=2)         25.89     16.94     18.67 
 H(Fragment=2)         26.75     17.22     18.38 
 H(Fragment=2)         25.84     16.01     18.43 
 O(Fragment=2)         17.71     18.1      13.88 
 H(Fragment=2)         18.52     17.6      13.78 
 H(Fragment=2)         17.15     17.78     13.17 
 O(Fragment=2)         14.1      21.5      24.39 
 H(Fragment=2)         14.66     20.74     24.3 
 H(Fragment=2)         14.36     22.07     23.67 
 O(Fragment=2)         19.8      23.52     14.01 
 H(Fragment=2)         19.4      24.2      14.55 
 H(Fragment=2)         19.14     23.31     13.36 
 O(Fragment=2)         17.87     25.21     15.57 
 H(Fragment=2)         17.26     25.27     16.31 
 H(Fragment=2)         17.42     25.66     14.85 
 O(Fragment=2)         20.7      26.33     15.32 
 H(Fragment=2)         20.63     25.91     16.18 
 H(Fragment=2)         21.51     25.96     14.94 
 O(Fragment=2)         19.21     17.37     27.12 
 H(Fragment=2)         19.22     18.29     26.85 
 H(Fragment=2)         18.91     16.89     26.36 
 O(Fragment=2)         13.07     19.26     21.88 
 H(Fragment=2)         13.33     19.91     22.54 
 H(Fragment=2)         12.11     19.22     21.96 
 O(Fragment=2)         25.57     24.28     23.22 
 H(Fragment=2)         24.89     23.82     23.72 
 H(Fragment=2)         25.72     23.71     22.46 
 O(Fragment=2)         17.86     22.71     27.36 
 H(Fragment=2)         18.15     22.8      26.45 
 H(Fragment=2)         17.25     21.98     27.34 
 O(Fragment=2)         12.42     19.23     19.15 
 H(Fragment=2)         12.65     20.13     18.93 
 H(Fragment=2)         12.78     19.09     20.02 
 O(Fragment=2)         18.05     25.71     25.24 
 H(Fragment=2)         17.63     25.       24.75 
 H(Fragment=2)         18.7      26.06     24.63 
 O(Fragment=2)         13.38     15.46     20.12 
 H(Fragment=2)         14.28     15.42     19.82 
 H(Fragment=2)         13.36     14.9      20.9 
 O(Fragment=2)         23.8      12.65     20.02 
 H(Fragment=2)         23.11     11.99     20.02 
 H(Fragment=2)         23.36     13.45     20.29 
 O(Fragment=2)         17.6      27.32     17.77 
 H(Fragment=2)         17.19     27.75     17.02 
 H(Fragment=2)         17.1      26.51     17.88 
 O(Fragment=2)         25.63     19.85     14. 
 H(Fragment=2)         25.06     19.3      14.54 
 H(Fragment=2)         26.27     20.21     14.62 
 O(Fragment=2)         23.07     16.94     12.63 
 H(Fragment=2)         24.02     16.9      12.72 
 H(Fragment=2)         22.76     17.18     13.51 
 O(Fragment=2)         28.17     18.97     21.25 
 H(Fragment=2)         27.49     18.87     20.58 
 H(Fragment=2)         27.84     19.65     21.83 
 O(Fragment=2)         16.4      15.33     15.19 
 H(Fragment=2)         16.83     14.51     14.94 
 H(Fragment=2)         15.68     15.43     14.57 
 O(Fragment=2)         24.08     25.79     15.19 
 H(Fragment=2)         24.86     26.02     15.69 
 H(Fragment=2)         23.94     24.86     15.37 
 O(Fragment=2)         20.43     27.67     18.46 
 H(Fragment=2)         21.       27.83     17.71 
 H(Fragment=2)         19.55     27.67     18.09 
 O(Fragment=2)         28.03     23.21     21.41 
 H(Fragment=2)         27.08     23.12     21.32 
 H(Fragment=2)         28.38     22.37     21.11 
 O(Fragment=2)         20.39     16.39     12.97 
 H(Fragment=2)         21.3      16.28     12.7 
 H(Fragment=2)         19.88     15.95     12.29 
 O(Fragment=2)         24.61     15.48     15.33 
 H(Fragment=2)         25.42     14.98     15.39 
 H(Fragment=2)         24.74     16.08     14.6 
 O(Fragment=2)         17.66     28.14     22.65 
 H(Fragment=2)         18.36     28.32     22.03 
 H(Fragment=2)         17.54     27.19     22.6 
 O(Fragment=2)         22.15     14.64     26.2 
 H(Fragment=2)         22.26     13.76     26.56 
 H(Fragment=2)         22.62     14.61     25.36 
 O(Fragment=2)         25.81     13.73     18.17 
 H(Fragment=2)         25.49     12.86     17.92 
 H(Fragment=2)         25.23     13.99     18.89 
 O(Fragment=2)         24.04     24.11     25.62 
 H(Fragment=2)         23.49     24.9      25.67 
 H(Fragment=2)         24.62     24.18     26.38 
 O(Fragment=2)         13.76     16.23     24.36 
 H(Fragment=2)         13.98     15.93     23.48 
 H(Fragment=2)         12.81     16.14     24.41 
 O(Fragment=2)         17.92     13.24     25.37 
 H(Fragment=2)         18.58     13.8      24.95 
 H(Fragment=2)         18.24     13.13     26.27 
 O(Fragment=2)         13.07     24.24     16.45 
 H(Fragment=2)         12.78     23.62     17.11 
 H(Fragment=2)         14.02     24.16     16.45 
 O(Fragment=2)         20.73     28.64     21.16 
 H(Fragment=2)         20.51     28.14     20.37 
 H(Fragment=2)         21.59     29.02     20.96 
 O(Fragment=2)         22.65     11.91     16.71 
 H(Fragment=2)         22.76     12.37     15.88 
 H(Fragment=2)         22.27     12.56     17.3 
 O(Fragment=2)         15.88     20.87     27.13 
 H(Fragment=2)         15.5      21.19     27.95 
 H(Fragment=2)         15.22     20.28     26.77 
 O(Fragment=2)         26.28     18.43     26.27 
 H(Fragment=2)         25.61     17.76     26.17 
 H(Fragment=2)         26.1      19.05     25.57 
 O(Fragment=2)         17.48     23.54     12.78 
 H(Fragment=2)         17.12     23.3      11.92 
 H(Fragment=2)         17.11     24.4      12.96 
 O(Fragment=2)         15.58     14.78     26.43 
 H(Fragment=2)         14.96     14.16     26.04 
 H(Fragment=2)         15.92     15.27     25.68 
 O(Fragment=2)         13.77     24.76     24.83 
 H(Fragment=2)         14.45     24.84     24.16 
 H(Fragment=2)         13.96     23.93     25.28 
 O(Fragment=2)         26.15     22.69     13.71 
 H(Fragment=2)         26.39     22.54     12.8 
 H(Fragment=2)         25.54     21.98     13.92 
 O(Fragment=2)         13.99     26.26     20.05 
 H(Fragment=2)         14.77     26.65     19.64 
 H(Fragment=2)         13.26     26.59     19.52 
 O(Fragment=2)         27.06     25.97     20.6 
 H(Fragment=2)         27.01     26.34     21.48 
 H(Fragment=2)         26.77     25.06     20.71 
 O(Fragment=2)         23.6      21.62     27.57 
 H(Fragment=2)         23.78     22.48     27.19 
 H(Fragment=2)         23.36     21.81     28.48 
 O(Fragment=2)         23.16     13.31     14.33 
 H(Fragment=2)         23.3      14.08     14.88 
 H(Fragment=2)         22.79     13.67     13.52 
 O(Fragment=2)         22.       27.15     24.36 
 H(Fragment=2)         21.53     27.98     24.25 
 H(Fragment=2)         22.89     27.34     24.07 
 O(Fragment=2)         11.73     22.72     18.87 
 H(Fragment=2)         11.3      22.07     19.42 
 H(Fragment=2)         12.07     23.37     19.48 
 O(Fragment=2)         12.4      24.44     20.89 
 H(Fragment=2)         13.02     25.14     20.68 
 H(Fragment=2)         11.56     24.89     20.96 
 O(Fragment=2)         21.5      24.57     11.67 
 H(Fragment=2)         21.8      25.4      12.03 
 H(Fragment=2)         21.06     24.13     12.4 
 O(Fragment=2)         12.22     15.58     17.82 
 H(Fragment=2)         12.58     15.52     18.7 
 H(Fragment=2)         12.15     14.67     17.52 
 O(Fragment=2)         15.98     12.98     23.38 
 H(Fragment=2)         16.05     12.24     22.78 
 H(Fragment=2)         16.46     12.7      24.16 
 O(Fragment=2)         21.93     20.65     10.64 
 H(Fragment=2)         21.45     21.41     10.96 
 H(Fragment=2)         22.15     20.16     11.44 
 O(Fragment=2)         10.95     22.04     22.42 
 H(Fragment=2)         11.01     21.62     21.56 
 H(Fragment=2)         11.85     22.02     22.76 
 O(Fragment=2)         12.76     17.39     15.56 
 H(Fragment=2)         12.9      16.62     15.01 
 H(Fragment=2)         12.38     17.04     16.37 
 O(Fragment=2)         21.32     17.       29.17 
 H(Fragment=2)         20.78     17.24     28.42 
 H(Fragment=2)         22.17     17.42     29. 
 O(Fragment=2)         20.21     25.93     27.44 
 H(Fragment=2)         20.18     25.52     28.3 
 H(Fragment=2)         19.42     25.62     26.99 
 O(Fragment=2)         25.52     14.91     25.97 
 H(Fragment=2)         25.46     14.91     25.02 
 H(Fragment=2)         24.7      15.31     26.26 
 O(Fragment=2)         26.58     14.33     22.42 
 H(Fragment=2)         26.57     13.4      22.19 
 H(Fragment=2)         27.44     14.64     22.15 
 O(Fragment=2)         14.75     12.89     16.52 
 H(Fragment=2)         14.84     12.48     17.38 
 H(Fragment=2)         15.65     13.02     16.21 
 O(Fragment=2)         14.05     23.65     13.32 
 H(Fragment=2)         14.04     23.99     14.22 
 H(Fragment=2)         14.92     23.25     13.24 
 O(Fragment=2)         19.71     10.84     23.84 
 H(Fragment=2)         20.67     10.85     23.85 
 H(Fragment=2)         19.47     11.55     23.24 
 O(Fragment=2)         16.12     24.96     27.23 
 H(Fragment=2)         16.8      24.36     27.56 
 H(Fragment=2)         16.52     25.36     26.46 
 O(Fragment=2)         19.96     11.08     18.12 
 H(Fragment=2)         19.84     11.35     17.21 
 H(Fragment=2)         20.43     10.25     18.06 
 O(Fragment=2)         28.9      16.11     21.58 
 H(Fragment=2)         29.63     16.21     22.18 
 H(Fragment=2)         28.43     16.94     21.62 
 O(Fragment=2)         29.5      18.14     18.06 
 H(Fragment=2)         28.89     18.04     18.8 
 H(Fragment=2)         30.36     17.97     18.44 
 O(Fragment=2)         15.94     17.32     12.2 
 H(Fragment=2)         15.56     17.59     11.37 
 H(Fragment=2)         15.77     16.38     12.25 
 O(Fragment=2)         15.29     20.78     12.14 
 H(Fragment=2)         14.53     20.4      12.59 
 H(Fragment=2)         15.66     20.05     11.64 
 O(Fragment=2)         10.66     17.63     17.54 
 H(Fragment=2)         11.14     18.09     18.23 
 H(Fragment=2)         10.8      16.7      17.73 
 O(Fragment=2)         12.74     22.58     26.62 
 H(Fragment=2)         11.99     22.01     26.74 
 H(Fragment=2)         13.27     22.15     25.95 
 O(Fragment=2)         20.01     11.67     15.51 
 H(Fragment=2)         19.79     12.33     14.85 
 H(Fragment=2)         20.93     11.81     15.7 
 O(Fragment=2)         19.14     23.94     29.2 
 H(Fragment=2)         19.89     23.45     29.55 
 H(Fragment=2)         18.75     23.35     28.55 
 O(Fragment=2)         29.69     21.17     20.89 
 H(Fragment=2)         29.2      20.37     21.1 
 H(Fragment=2)         30.42     21.17     21.51 
 O(Fragment=2)         28.95     19.91     24.85 
 H(Fragment=2)         28.55     20.6      25.38 
 H(Fragment=2)         28.26     19.64     24.24 
 O(Fragment=2)         24.4      27.42     23.51 
 H(Fragment=2)         25.06     27.06     24.09 
 H(Fragment=2)         24.83     28.17     23.1 
 
 NAtoms=    385 NQM=      385 NQMF=       0 NMMI=      0 NMMIF=      0
                NMic=       0 NMicF=      0.
                    Isotopes and Nuclear Properties:
 (Nuclear quadrupole moments (NQMom) in fm**2, nuclear magnetic moments (NMagM)
  in nuclear magnetons)

  Atom         1           2           3           4           5           6           7           8           9          10
 IAtWgt=          79          16           1           1          16           1           1          16           1           1
 AtmWgt=  78.9183361  15.9949146   1.0078250   1.0078250  15.9949146   1.0078250   1.0078250  15.9949146   1.0078250   1.0078250
 NucSpn=           3           0           1           1           0           1           1           0           1           1
 AtZEff=   0.0000000   0.0000000   0.0000000   0.0000000   0.0000000   0.0000000   0.0000000   0.0000000   0.0000000   0.0000000
 NQMom=   31.3000000   0.0000000   0.0000000   0.0000000   0.0000000   0.0000000   0.0000000   0.0000000   0.0000000   0.0000000
 NMagM=    2.1063990   0.0000000   2.7928460   2.7928460   0.0000000   2.7928460   2.7928460   0.0000000   2.7928460   2.7928460
 AtZNuc=  35.0000000   8.0000000   1.0000000   1.0000000   8.0000000   1.0000000   1.0000000   8.0000000   1.0000000   1.0000000

  Atom        11          12          13          14          15          16          17          18          19          20
 IAtWgt=          16           1           1          16           1           1          16           1           1          16
 AtmWgt=  15.9949146   1.0078250   1.0078250  15.9949146   1.0078250   1.0078250  15.9949146   1.0078250   1.0078250  15.9949146
 NucSpn=           0           1           1           0           1           1           0           1           1           0
 AtZEff=   0.0000000   0.0000000   0.0000000   0.0000000   0.0000000   0.0000000   0.0000000   0.0000000   0.0000000   0.0000000
 NQMom=    0.0000000   0.0000000   0.0000000   0.0000000   0.0000000   0.0000000   0.0000000   0.0000000   0.0000000   0.0000000
 NMagM=    0.0000000   2.7928460   2.7928460   0.0000000   2.7928460   2.7928460   0.0000000   2.7928460   2.7928460   0.0000000
 AtZNuc=   8.0000000   1.0000000   1.0000000   8.0000000   1.0000000   1.0000000   8.0000000   1.0000000   1.0000000   8.0000000

  Atom        21          22          23          24          25          26          27          28          29          30
 IAtWgt=           1           1          16           1           1          16           1           1          16           1
 AtmWgt=   1.0078250   1.0078250  15.9949146   1.0078250   1.0078250  15.9949146   1.0078250   1.0078250  15.9949146   1.0078250
 NucSpn=           1           1           0           1           1           0           1           1           0           1
 AtZEff=   0.0000000   0.0000000   0.0000000   0.0000000   0.0000000   0.0000000   0.0000000   0.0000000   0.0000000   0.0000000
 NQMom=    0.0000000   0.0000000   0.0000000   0.0000000   0.0000000   0.0000000   0.0000000   0.0000000   0.0000000   0.0000000
 NMagM=    2.7928460   2.7928460   0.0000000   2.7928460   2.7928460   0.0000000   2.7928460   2.7928460   0.0000000   2.7928460
 AtZNuc=   1.0000000   1.0000000   8.0000000   1.0000000   1.0000000   8.0000000   1.0000000   1.0000000   8.0000000   1.0000000

  Atom        31          32          33          34          35          36          37          38          39          40
 IAtWgt=           1          16           1           1          16           1           1          16           1           1
 AtmWgt=   1.0078250  15.9949146   1.0078250   1.0078250  15.9949146   1.0078250   1.0078250  15.9949146   1.0078250   1.0078250
 NucSpn=           1           0           1           1           0           1           1           0           1           1
 AtZEff=   0.0000000   0.0000000   0.0000000   0.0000000   0.0000000   0.0000000   0.0000000   0.0000000   0.0000000   0.0000000
 NQMom=    0.0000000   0.0000000   0.0000000   0.0000000   0.0000000   0.0000000   0.0000000   0.0000000   0.0000000   0.0000000
 NMagM=    2.7928460   0.0000000   2.7928460   2.7928460   0.0000000   2.7928460   2.7928460   0.0000000   2.7928460   2.7928460
 AtZNuc=   1.0000000   8.0000000   1.0000000   1.0000000   8.0000000   1.0000000   1.0000000   8.0000000   1.0000000   1.0000000

  Atom        41          42          43          44          45          46          47          48          49          50
 IAtWgt=          16           1           1          16           1           1          16           1           1          16
 AtmWgt=  15.9949146   1.0078250   1.0078250  15.9949146   1.0078250   1.0078250  15.9949146   1.0078250   1.0078250  15.9949146
 NucSpn=           0           1           1           0           1           1           0           1           1           0
 AtZEff=   0.0000000   0.0000000   0.0000000   0.0000000   0.0000000   0.0000000   0.0000000   0.0000000   0.0000000   0.0000000
 NQMom=    0.0000000   0.0000000   0.0000000   0.0000000   0.0000000   0.0000000   0.0000000   0.0000000   0.0000000   0.0000000
 NMagM=    0.0000000   2.7928460   2.7928460   0.0000000   2.7928460   2.7928460   0.0000000   2.7928460   2.7928460   0.0000000
 AtZNuc=   8.0000000   1.0000000   1.0000000   8.0000000   1.0000000   1.0000000   8.0000000   1.0000000   1.0000000   8.0000000

  Atom        51          52          53          54          55          56          57          58          59          60
 IAtWgt=           1           1          16           1           1          16           1           1          16           1
 AtmWgt=   1.0078250   1.0078250  15.9949146   1.0078250   1.0078250  15.9949146   1.0078250   1.0078250  15.9949146   1.0078250
 NucSpn=           1           1           0           1           1           0           1           1           0           1
 AtZEff=   0.0000000   0.0000000   0.0000000   0.0000000   0.0000000   0.0000000   0.0000000   0.0000000   0.0000000   0.0000000
 NQMom=    0.0000000   0.0000000   0.0000000   0.0000000   0.0000000   0.0000000   0.0000000   0.0000000   0.0000000   0.0000000
 NMagM=    2.7928460   2.7928460   0.0000000   2.7928460   2.7928460   0.0000000   2.7928460   2.7928460   0.0000000   2.7928460
 AtZNuc=   1.0000000   1.0000000   8.0000000   1.0000000   1.0000000   8.0000000   1.0000000   1.0000000   8.0000000   1.0000000

  Atom        61          62          63          64          65          66          67          68          69          70
 IAtWgt=           1          16           1           1          16           1           1          16           1           1
 AtmWgt=   1.0078250  15.9949146   1.0078250   1.0078250  15.9949146   1.0078250   1.0078250  15.9949146   1.0078250   1.0078250
 NucSpn=           1           0           1           1           0           1           1           0           1           1
 AtZEff=   0.0000000   0.0000000   0.0000000   0.0000000   0.0000000   0.0000000   0.0000000   0.0000000   0.0000000   0.0000000
 NQMom=    0.0000000   0.0000000   0.0000000   0.0000000   0.0000000   0.0000000   0.0000000   0.0000000   0.0000000   0.0000000
 NMagM=    2.7928460   0.0000000   2.7928460   2.7928460   0.0000000   2.7928460   2.7928460   0.0000000   2.7928460   2.7928460
 AtZNuc=   1.0000000   8.0000000   1.0000000   1.0000000   8.0000000   1.0000000   1.0000000   8.0000000   1.0000000   1.0000000

  Atom        71          72          73          74          75          76          77          78          79          80
 IAtWgt=          16           1           1          16           1           1          16           1           1          16
 AtmWgt=  15.9949146   1.0078250   1.0078250  15.9949146   1.0078250   1.0078250  15.9949146   1.0078250   1.0078250  15.9949146
 NucSpn=           0           1           1           0           1           1           0           1           1           0
 AtZEff=   0.0000000   0.0000000   0.0000000   0.0000000   0.0000000   0.0000000   0.0000000   0.0000000   0.0000000   0.0000000
 NQMom=    0.0000000   0.0000000   0.0000000   0.0000000   0.0000000   0.0000000   0.0000000   0.0000000   0.0000000   0.0000000
 NMagM=    0.0000000   2.7928460   2.7928460   0.0000000   2.7928460   2.7928460   0.0000000   2.7928460   2.7928460   0.0000000
 AtZNuc=   8.0000000   1.0000000   1.0000000   8.0000000   1.0000000   1.0000000   8.0000000   1.0000000   1.0000000   8.0000000

  Atom        81          82          83          84          85          86          87          88          89          90
 IAtWgt=           1           1          16           1           1          16           1           1          16           1
 AtmWgt=   1.0078250   1.0078250  15.9949146   1.0078250   1.0078250  15.9949146   1.0078250   1.0078250  15.9949146   1.0078250
 NucSpn=           1           1           0           1           1           0           1           1           0           1
 AtZEff=   0.0000000   0.0000000   0.0000000   0.0000000   0.0000000   0.0000000   0.0000000   0.0000000   0.0000000   0.0000000
 NQMom=    0.0000000   0.0000000   0.0000000   0.0000000   0.0000000   0.0000000   0.0000000   0.0000000   0.0000000   0.0000000
 NMagM=    2.7928460   2.7928460   0.0000000   2.7928460   2.7928460   0.0000000   2.7928460   2.7928460   0.0000000   2.7928460
 AtZNuc=   1.0000000   1.0000000   8.0000000   1.0000000   1.0000000   8.0000000   1.0000000   1.0000000   8.0000000   1.0000000

  Atom        91          92          93          94          95          96          97          98          99         100
 IAtWgt=           1          16           1           1          16           1           1          16           1           1
 AtmWgt=   1.0078250  15.9949146   1.0078250   1.0078250  15.9949146   1.0078250   1.0078250  15.9949146   1.0078250   1.0078250
 NucSpn=           1           0           1           1           0           1           1           0           1           1
 AtZEff=   0.0000000   0.0000000   0.0000000   0.0000000   0.0000000   0.0000000   0.0000000   0.0000000   0.0000000   0.0000000
 NQMom=    0.0000000   0.0000000   0.0000000   0.0000000   0.0000000   0.0000000   0.0000000   0.0000000   0.0000000   0.0000000
 NMagM=    2.7928460   0.0000000   2.7928460   2.7928460   0.0000000   2.7928460   2.7928460   0.0000000   2.7928460   2.7928460
 AtZNuc=   1.0000000   8.0000000   1.0000000   1.0000000   8.0000000   1.0000000   1.0000000   8.0000000   1.0000000   1.0000000

  Atom       101         102         103         104         105         106         107         108         109         110
 IAtWgt=          16           1           1          16           1           1          16           1           1          16
 AtmWgt=  15.9949146   1.0078250   1.0078250  15.9949146   1.0078250   1.0078250  15.9949146   1.0078250   1.0078250  15.9949146
 NucSpn=           0           1           1           0           1           1           0           1           1           0
 AtZEff=   0.0000000   0.0000000   0.0000000   0.0000000   0.0000000   0.0000000   0.0000000   0.0000000   0.0000000   0.0000000
 NQMom=    0.0000000   0.0000000   0.0000000   0.0000000   0.0000000   0.0000000   0.0000000   0.0000000   0.0000000   0.0000000
 NMagM=    0.0000000   2.7928460   2.7928460   0.0000000   2.7928460   2.7928460   0.0000000   2.7928460   2.7928460   0.0000000
 AtZNuc=   8.0000000   1.0000000   1.0000000   8.0000000   1.0000000   1.0000000   8.0000000   1.0000000   1.0000000   8.0000000

  Atom       111         112         113         114         115         116         117         118         119         120
 IAtWgt=           1           1          16           1           1          16           1           1          16           1
 AtmWgt=   1.0078250   1.0078250  15.9949146   1.0078250   1.0078250  15.9949146   1.0078250   1.0078250  15.9949146   1.0078250
 NucSpn=           1           1           0           1           1           0           1           1           0           1
 AtZEff=   0.0000000   0.0000000   0.0000000   0.0000000   0.0000000   0.0000000   0.0000000   0.0000000   0.0000000   0.0000000
 NQMom=    0.0000000   0.0000000   0.0000000   0.0000000   0.0000000   0.0000000   0.0000000   0.0000000   0.0000000   0.0000000
 NMagM=    2.7928460   2.7928460   0.0000000   2.7928460   2.7928460   0.0000000   2.7928460   2.7928460   0.0000000   2.7928460
 AtZNuc=   1.0000000   1.0000000   8.0000000   1.0000000   1.0000000   8.0000000   1.0000000   1.0000000   8.0000000   1.0000000

  Atom       121         122         123         124         125         126         127         128         129         130
 IAtWgt=           1          16           1           1          16           1           1          16           1           1
 AtmWgt=   1.0078250  15.9949146   1.0078250   1.0078250  15.9949146   1.0078250   1.0078250  15.9949146   1.0078250   1.0078250
 NucSpn=           1           0           1           1           0           1           1           0           1           1
 AtZEff=   0.0000000   0.0000000   0.0000000   0.0000000   0.0000000   0.0000000   0.0000000   0.0000000   0.0000000   0.0000000
 NQMom=    0.0000000   0.0000000   0.0000000   0.0000000   0.0000000   0.0000000   0.0000000   0.0000000   0.0000000   0.0000000
 NMagM=    2.7928460   0.0000000   2.7928460   2.7928460   0.0000000   2.7928460   2.7928460   0.0000000   2.7928460   2.7928460
 AtZNuc=   1.0000000   8.0000000   1.0000000   1.0000000   8.0000000   1.0000000   1.0000000   8.0000000   1.0000000   1.0000000

  Atom       131         132         133         134         135         136         137         138         139         140
 IAtWgt=          16           1           1          16           1           1          16           1           1          16
 AtmWgt=  15.9949146   1.0078250   1.0078250  15.9949146   1.0078250   1.0078250  15.9949146   1.0078250   1.0078250  15.9949146
 NucSpn=           0           1           1           0           1           1           0           1           1           0
 AtZEff=   0.0000000   0.0000000   0.0000000   0.0000000   0.0000000   0.0000000   0.0000000   0.0000000   0.0000000   0.0000000
 NQMom=    0.0000000   0.0000000   0.0000000   0.0000000   0.0000000   0.0000000   0.0000000   0.0000000   0.0000000   0.0000000
 NMagM=    0.0000000   2.7928460   2.7928460   0.0000000   2.7928460   2.7928460   0.0000000   2.7928460   2.7928460   0.0000000
 AtZNuc=   8.0000000   1.0000000   1.0000000   8.0000000   1.0000000   1.0000000   8.0000000   1.0000000   1.0000000   8.0000000

  Atom       141         142         143         144         145         146         147         148         149         150
 IAtWgt=           1           1          16           1           1          16           1           1          16           1
 AtmWgt=   1.0078250   1.0078250  15.9949146   1.0078250   1.0078250  15.9949146   1.0078250   1.0078250  15.9949146   1.0078250
 NucSpn=           1           1           0           1           1           0           1           1           0           1
 AtZEff=   0.0000000   0.0000000   0.0000000   0.0000000   0.0000000   0.0000000   0.0000000   0.0000000   0.0000000   0.0000000
 NQMom=    0.0000000   0.0000000   0.0000000   0.0000000   0.0000000   0.0000000   0.0000000   0.0000000   0.0000000   0.0000000
 NMagM=    2.7928460   2.7928460   0.0000000   2.7928460   2.7928460   0.0000000   2.7928460   2.7928460   0.0000000   2.7928460
 AtZNuc=   1.0000000   1.0000000   8.0000000   1.0000000   1.0000000   8.0000000   1.0000000   1.0000000   8.0000000   1.0000000

  Atom       151         152         153         154         155         156         157         158         159         160
 IAtWgt=           1          16           1           1          16           1           1          16           1           1
 AtmWgt=   1.0078250  15.9949146   1.0078250   1.0078250  15.9949146   1.0078250   1.0078250  15.9949146   1.0078250   1.0078250
 NucSpn=           1           0           1           1           0           1           1           0           1           1
 AtZEff=   0.0000000   0.0000000   0.0000000   0.0000000   0.0000000   0.0000000   0.0000000   0.0000000   0.0000000   0.0000000
 NQMom=    0.0000000   0.0000000   0.0000000   0.0000000   0.0000000   0.0000000   0.0000000   0.0000000   0.0000000   0.0000000
 NMagM=    2.7928460   0.0000000   2.7928460   2.7928460   0.0000000   2.7928460   2.7928460   0.0000000   2.7928460   2.7928460
 AtZNuc=   1.0000000   8.0000000   1.0000000   1.0000000   8.0000000   1.0000000   1.0000000   8.0000000   1.0000000   1.0000000

  Atom       161         162         163         164         165         166         167         168         169         170
 IAtWgt=          16           1           1          16           1           1          16           1           1          16
 AtmWgt=  15.9949146   1.0078250   1.0078250  15.9949146   1.0078250   1.0078250  15.9949146   1.0078250   1.0078250  15.9949146
 NucSpn=           0           1           1           0           1           1           0           1           1           0
 AtZEff=   0.0000000   0.0000000   0.0000000   0.0000000   0.0000000   0.0000000   0.0000000   0.0000000   0.0000000   0.0000000
 NQMom=    0.0000000   0.0000000   0.0000000   0.0000000   0.0000000   0.0000000   0.0000000   0.0000000   0.0000000   0.0000000
 NMagM=    0.0000000   2.7928460   2.7928460   0.0000000   2.7928460   2.7928460   0.0000000   2.7928460   2.7928460   0.0000000
 AtZNuc=   8.0000000   1.0000000   1.0000000   8.0000000   1.0000000   1.0000000   8.0000000   1.0000000   1.0000000   8.0000000

  Atom       171         172         173         174         175         176         177         178         179         180
 IAtWgt=           1           1          16           1           1          16           1           1          16           1
 AtmWgt=   1.0078250   1.0078250  15.9949146   1.0078250   1.0078250  15.9949146   1.0078250   1.0078250  15.9949146   1.0078250
 NucSpn=           1           1           0           1           1           0           1           1           0           1
 AtZEff=   0.0000000   0.0000000   0.0000000   0.0000000   0.0000000   0.0000000   0.0000000   0.0000000   0.0000000   0.0000000
 NQMom=    0.0000000   0.0000000   0.0000000   0.0000000   0.0000000   0.0000000   0.0000000   0.0000000   0.0000000   0.0000000
 NMagM=    2.7928460   2.7928460   0.0000000   2.7928460   2.7928460   0.0000000   2.7928460   2.7928460   0.0000000   2.7928460
 AtZNuc=   1.0000000   1.0000000   8.0000000   1.0000000   1.0000000   8.0000000   1.0000000   1.0000000   8.0000000   1.0000000

  Atom       181         182         183         184         185         186         187         188         189         190
 IAtWgt=           1          16           1           1          16           1           1          16           1           1
 AtmWgt=   1.0078250  15.9949146   1.0078250   1.0078250  15.9949146   1.0078250   1.0078250  15.9949146   1.0078250   1.0078250
 NucSpn=           1           0           1           1           0           1           1           0           1           1
 AtZEff=   0.0000000   0.0000000   0.0000000   0.0000000   0.0000000   0.0000000   0.0000000   0.0000000   0.0000000   0.0000000
 NQMom=    0.0000000   0.0000000   0.0000000   0.0000000   0.0000000   0.0000000   0.0000000   0.0000000   0.0000000   0.0000000
 NMagM=    2.7928460   0.0000000   2.7928460   2.7928460   0.0000000   2.7928460   2.7928460   0.0000000   2.7928460   2.7928460
 AtZNuc=   1.0000000   8.0000000   1.0000000   1.0000000   8.0000000   1.0000000   1.0000000   8.0000000   1.0000000   1.0000000

  Atom       191         192         193         194         195         196         197         198         199         200
 IAtWgt=          16           1           1          16           1           1          16           1           1          16
 AtmWgt=  15.9949146   1.0078250   1.0078250  15.9949146   1.0078250   1.0078250  15.9949146   1.0078250   1.0078250  15.9949146
 NucSpn=           0           1           1           0           1           1           0           1           1           0
 AtZEff=   0.0000000   0.0000000   0.0000000   0.0000000   0.0000000   0.0000000   0.0000000   0.0000000   0.0000000   0.0000000
 NQMom=    0.0000000   0.0000000   0.0000000   0.0000000   0.0000000   0.0000000   0.0000000   0.0000000   0.0000000   0.0000000
 NMagM=    0.0000000   2.7928460   2.7928460   0.0000000   2.7928460   2.7928460   0.0000000   2.7928460   2.7928460   0.0000000
 AtZNuc=   8.0000000   1.0000000   1.0000000   8.0000000   1.0000000   1.0000000   8.0000000   1.0000000   1.0000000   8.0000000

  Atom       201         202         203         204         205         206         207         208         209         210
 IAtWgt=           1           1          16           1           1          16           1           1          16           1
 AtmWgt=   1.0078250   1.0078250  15.9949146   1.0078250   1.0078250  15.9949146   1.0078250   1.0078250  15.9949146   1.0078250
 NucSpn=           1           1           0           1           1           0           1           1           0           1
 AtZEff=   0.0000000   0.0000000   0.0000000   0.0000000   0.0000000   0.0000000   0.0000000   0.0000000   0.0000000   0.0000000
 NQMom=    0.0000000   0.0000000   0.0000000   0.0000000   0.0000000   0.0000000   0.0000000   0.0000000   0.0000000   0.0000000
 NMagM=    2.7928460   2.7928460   0.0000000   2.7928460   2.7928460   0.0000000   2.7928460   2.7928460   0.0000000   2.7928460
 AtZNuc=   1.0000000   1.0000000   8.0000000   1.0000000   1.0000000   8.0000000   1.0000000   1.0000000   8.0000000   1.0000000

  Atom       211         212         213         214         215         216         217         218         219         220
 IAtWgt=           1          16           1           1          16           1           1          16           1           1
 AtmWgt=   1.0078250  15.9949146   1.0078250   1.0078250  15.9949146   1.0078250   1.0078250  15.9949146   1.0078250   1.0078250
 NucSpn=           1           0           1           1           0           1           1           0           1           1
 AtZEff=   0.0000000   0.0000000   0.0000000   0.0000000   0.0000000   0.0000000   0.0000000   0.0000000   0.0000000   0.0000000
 NQMom=    0.0000000   0.0000000   0.0000000   0.0000000   0.0000000   0.0000000   0.0000000   0.0000000   0.0000000   0.0000000
 NMagM=    2.7928460   0.0000000   2.7928460   2.7928460   0.0000000   2.7928460   2.7928460   0.0000000   2.7928460   2.7928460
 AtZNuc=   1.0000000   8.0000000   1.0000000   1.0000000   8.0000000   1.0000000   1.0000000   8.0000000   1.0000000   1.0000000

  Atom       221         222         223         224         225         226         227         228         229         230
 IAtWgt=          16           1           1          16           1           1          16           1           1          16
 AtmWgt=  15.9949146   1.0078250   1.0078250  15.9949146   1.0078250   1.0078250  15.9949146   1.0078250   1.0078250  15.9949146
 NucSpn=           0           1           1           0           1           1           0           1           1           0
 AtZEff=   0.0000000   0.0000000   0.0000000   0.0000000   0.0000000   0.0000000   0.0000000   0.0000000   0.0000000   0.0000000
 NQMom=    0.0000000   0.0000000   0.0000000   0.0000000   0.0000000   0.0000000   0.0000000   0.0000000   0.0000000   0.0000000
 NMagM=    0.0000000   2.7928460   2.7928460   0.0000000   2.7928460   2.7928460   0.0000000   2.7928460   2.7928460   0.0000000
 AtZNuc=   8.0000000   1.0000000   1.0000000   8.0000000   1.0000000   1.0000000   8.0000000   1.0000000   1.0000000   8.0000000

  Atom       231         232         233         234         235         236         237         238         239         240
 IAtWgt=           1           1          16           1           1          16           1           1          16           1
 AtmWgt=   1.0078250   1.0078250  15.9949146   1.0078250   1.0078250  15.9949146   1.0078250   1.0078250  15.9949146   1.0078250
 NucSpn=           1           1           0           1           1           0           1           1           0           1
 AtZEff=   0.0000000   0.0000000   0.0000000   0.0000000   0.0000000   0.0000000   0.0000000   0.0000000   0.0000000   0.0000000
 NQMom=    0.0000000   0.0000000   0.0000000   0.0000000   0.0000000   0.0000000   0.0000000   0.0000000   0.0000000   0.0000000
 NMagM=    2.7928460   2.7928460   0.0000000   2.7928460   2.7928460   0.0000000   2.7928460   2.7928460   0.0000000   2.7928460
 AtZNuc=   1.0000000   1.0000000   8.0000000   1.0000000   1.0000000   8.0000000   1.0000000   1.0000000   8.0000000   1.0000000

  Atom       241         242         243         244         245         246         247         248         249         250
 IAtWgt=           1          16           1           1          16           1           1          16           1           1
 AtmWgt=   1.0078250  15.9949146   1.0078250   1.0078250  15.9949146   1.0078250   1.0078250  15.9949146   1.0078250   1.0078250
 NucSpn=           1           0           1           1           0           1           1           0           1           1
 AtZEff=   0.0000000   0.0000000   0.0000000   0.0000000   0.0000000   0.0000000   0.0000000   0.0000000   0.0000000   0.0000000
 NQMom=    0.0000000   0.0000000   0.0000000   0.0000000   0.0000000   0.0000000   0.0000000   0.0000000   0.0000000   0.0000000
 NMagM=    2.7928460   0.0000000   2.7928460   2.7928460   0.0000000   2.7928460   2.7928460   0.0000000   2.7928460   2.7928460
 AtZNuc=   1.0000000   8.0000000   1.0000000   1.0000000   8.0000000   1.0000000   1.0000000   8.0000000   1.0000000   1.0000000

  Atom       251         252         253         254         255         256         257         258         259         260
 IAtWgt=          16           1           1          16           1           1          16           1           1          16
 AtmWgt=  15.9949146   1.0078250   1.0078250  15.9949146   1.0078250   1.0078250  15.9949146   1.0078250   1.0078250  15.9949146
 NucSpn=           0           1           1           0           1           1           0           1           1           0
 AtZEff=   0.0000000   0.0000000   0.0000000   0.0000000   0.0000000   0.0000000   0.0000000   0.0000000   0.0000000   0.0000000
 NQMom=    0.0000000   0.0000000   0.0000000   0.0000000   0.0000000   0.0000000   0.0000000   0.0000000   0.0000000   0.0000000
 NMagM=    0.0000000   2.7928460   2.7928460   0.0000000   2.7928460   2.7928460   0.0000000   2.7928460   2.7928460   0.0000000
 AtZNuc=   8.0000000   1.0000000   1.0000000   8.0000000   1.0000000   1.0000000   8.0000000   1.0000000   1.0000000   8.0000000

  Atom       261         262         263         264         265         266         267         268         269         270
 IAtWgt=           1           1          16           1           1          16           1           1          16           1
 AtmWgt=   1.0078250   1.0078250  15.9949146   1.0078250   1.0078250  15.9949146   1.0078250   1.0078250  15.9949146   1.0078250
 NucSpn=           1           1           0           1           1           0           1           1           0           1
 AtZEff=   0.0000000   0.0000000   0.0000000   0.0000000   0.0000000   0.0000000   0.0000000   0.0000000   0.0000000   0.0000000
 NQMom=    0.0000000   0.0000000   0.0000000   0.0000000   0.0000000   0.0000000   0.0000000   0.0000000   0.0000000   0.0000000
 NMagM=    2.7928460   2.7928460   0.0000000   2.7928460   2.7928460   0.0000000   2.7928460   2.7928460   0.0000000   2.7928460
 AtZNuc=   1.0000000   1.0000000   8.0000000   1.0000000   1.0000000   8.0000000   1.0000000   1.0000000   8.0000000   1.0000000

  Atom       271         272         273         274         275         276         277         278         279         280
 IAtWgt=           1          16           1           1          16           1           1          16           1           1
 AtmWgt=   1.0078250  15.9949146   1.0078250   1.0078250  15.9949146   1.0078250   1.0078250  15.9949146   1.0078250   1.0078250
 NucSpn=           1           0           1           1           0           1           1           0           1           1
 AtZEff=   0.0000000   0.0000000   0.0000000   0.0000000   0.0000000   0.0000000   0.0000000   0.0000000   0.0000000   0.0000000
 NQMom=    0.0000000   0.0000000   0.0000000   0.0000000   0.0000000   0.0000000   0.0000000   0.0000000   0.0000000   0.0000000
 NMagM=    2.7928460   0.0000000   2.7928460   2.7928460   0.0000000   2.7928460   2.7928460   0.0000000   2.7928460   2.7928460
 AtZNuc=   1.0000000   8.0000000   1.0000000   1.0000000   8.0000000   1.0000000   1.0000000   8.0000000   1.0000000   1.0000000

  Atom       281         282         283         284         285         286         287         288         289         290
 IAtWgt=          16           1           1          16           1           1          16           1           1          16
 AtmWgt=  15.9949146   1.0078250   1.0078250  15.9949146   1.0078250   1.0078250  15.9949146   1.0078250   1.0078250  15.9949146
 NucSpn=           0           1           1           0           1           1           0           1           1           0
 AtZEff=   0.0000000   0.0000000   0.0000000   0.0000000   0.0000000   0.0000000   0.0000000   0.0000000   0.0000000   0.0000000
 NQMom=    0.0000000   0.0000000   0.0000000   0.0000000   0.0000000   0.0000000   0.0000000   0.0000000   0.0000000   0.0000000
 NMagM=    0.0000000   2.7928460   2.7928460   0.0000000   2.7928460   2.7928460   0.0000000   2.7928460   2.7928460   0.0000000
 AtZNuc=   8.0000000   1.0000000   1.0000000   8.0000000   1.0000000   1.0000000   8.0000000   1.0000000   1.0000000   8.0000000

  Atom       291         292         293         294         295         296         297         298         299         300
 IAtWgt=           1           1          16           1           1          16           1           1          16           1
 AtmWgt=   1.0078250   1.0078250  15.9949146   1.0078250   1.0078250  15.9949146   1.0078250   1.0078250  15.9949146   1.0078250
 NucSpn=           1           1           0           1           1           0           1           1           0           1
 AtZEff=   0.0000000   0.0000000   0.0000000   0.0000000   0.0000000   0.0000000   0.0000000   0.0000000   0.0000000   0.0000000
 NQMom=    0.0000000   0.0000000   0.0000000   0.0000000   0.0000000   0.0000000   0.0000000   0.0000000   0.0000000   0.0000000
 NMagM=    2.7928460   2.7928460   0.0000000   2.7928460   2.7928460   0.0000000   2.7928460   2.7928460   0.0000000   2.7928460
 AtZNuc=   1.0000000   1.0000000   8.0000000   1.0000000   1.0000000   8.0000000   1.0000000   1.0000000   8.0000000   1.0000000

  Atom       301         302         303         304         305         306         307         308         309         310
 IAtWgt=           1          16           1           1          16           1           1          16           1           1
 AtmWgt=   1.0078250  15.9949146   1.0078250   1.0078250  15.9949146   1.0078250   1.0078250  15.9949146   1.0078250   1.0078250
 NucSpn=           1           0           1           1           0           1           1           0           1           1
 AtZEff=   0.0000000   0.0000000   0.0000000   0.0000000   0.0000000   0.0000000   0.0000000   0.0000000   0.0000000   0.0000000
 NQMom=    0.0000000   0.0000000   0.0000000   0.0000000   0.0000000   0.0000000   0.0000000   0.0000000   0.0000000   0.0000000
 NMagM=    2.7928460   0.0000000   2.7928460   2.7928460   0.0000000   2.7928460   2.7928460   0.0000000   2.7928460   2.7928460
 AtZNuc=   1.0000000   8.0000000   1.0000000   1.0000000   8.0000000   1.0000000   1.0000000   8.0000000   1.0000000   1.0000000

  Atom       311         312         313         314         315         316         317         318         319         320
 IAtWgt=          16           1           1          16           1           1          16           1           1          16
 AtmWgt=  15.9949146   1.0078250   1.0078250  15.9949146   1.0078250   1.0078250  15.9949146   1.0078250   1.0078250  15.9949146
 NucSpn=           0           1           1           0           1           1           0           1           1           0
 AtZEff=   0.0000000   0.0000000   0.0000000   0.0000000   0.0000000   0.0000000   0.0000000   0.0000000   0.0000000   0.0000000
 NQMom=    0.0000000   0.0000000   0.0000000   0.0000000   0.0000000   0.0000000   0.0000000   0.0000000   0.0000000   0.0000000
 NMagM=    0.0000000   2.7928460   2.7928460   0.0000000   2.7928460   2.7928460   0.0000000   2.7928460   2.7928460   0.0000000
 AtZNuc=   8.0000000   1.0000000   1.0000000   8.0000000   1.0000000   1.0000000   8.0000000   1.0000000   1.0000000   8.0000000

  Atom       321         322         323         324         325         326         327         328         329         330
 IAtWgt=           1           1          16           1           1          16           1           1          16           1
 AtmWgt=   1.0078250   1.0078250  15.9949146   1.0078250   1.0078250  15.9949146   1.0078250   1.0078250  15.9949146   1.0078250
 NucSpn=           1           1           0           1           1           0           1           1           0           1
 AtZEff=   0.0000000   0.0000000   0.0000000   0.0000000   0.0000000   0.0000000   0.0000000   0.0000000   0.0000000   0.0000000
 NQMom=    0.0000000   0.0000000   0.0000000   0.0000000   0.0000000   0.0000000   0.0000000   0.0000000   0.0000000   0.0000000
 NMagM=    2.7928460   2.7928460   0.0000000   2.7928460   2.7928460   0.0000000   2.7928460   2.7928460   0.0000000   2.7928460
 AtZNuc=   1.0000000   1.0000000   8.0000000   1.0000000   1.0000000   8.0000000   1.0000000   1.0000000   8.0000000   1.0000000

  Atom       331         332         333         334         335         336         337         338         339         340
 IAtWgt=           1          16           1           1          16           1           1          16           1           1
 AtmWgt=   1.0078250  15.9949146   1.0078250   1.0078250  15.9949146   1.0078250   1.0078250  15.9949146   1.0078250   1.0078250
 NucSpn=           1           0           1           1           0           1           1           0           1           1
 AtZEff=   0.0000000   0.0000000   0.0000000   0.0000000   0.0000000   0.0000000   0.0000000   0.0000000   0.0000000   0.0000000
 NQMom=    0.0000000   0.0000000   0.0000000   0.0000000   0.0000000   0.0000000   0.0000000   0.0000000   0.0000000   0.0000000
 NMagM=    2.7928460   0.0000000   2.7928460   2.7928460   0.0000000   2.7928460   2.7928460   0.0000000   2.7928460   2.7928460
 AtZNuc=   1.0000000   8.0000000   1.0000000   1.0000000   8.0000000   1.0000000   1.0000000   8.0000000   1.0000000   1.0000000

  Atom       341         342         343         344         345         346         347         348         349         350
 IAtWgt=          16           1           1          16           1           1          16           1           1          16
 AtmWgt=  15.9949146   1.0078250   1.0078250  15.9949146   1.0078250   1.0078250  15.9949146   1.0078250   1.0078250  15.9949146
 NucSpn=           0           1           1           0           1           1           0           1           1           0
 AtZEff=   0.0000000   0.0000000   0.0000000   0.0000000   0.0000000   0.0000000   0.0000000   0.0000000   0.0000000   0.0000000
 NQMom=    0.0000000   0.0000000   0.0000000   0.0000000   0.0000000   0.0000000   0.0000000   0.0000000   0.0000000   0.0000000
 NMagM=    0.0000000   2.7928460   2.7928460   0.0000000   2.7928460   2.7928460   0.0000000   2.7928460   2.7928460   0.0000000
 AtZNuc=   8.0000000   1.0000000   1.0000000   8.0000000   1.0000000   1.0000000   8.0000000   1.0000000   1.0000000   8.0000000

  Atom       351         352         353         354         355         356         357         358         359         360
 IAtWgt=           1           1          16           1           1          16           1           1          16           1
 AtmWgt=   1.0078250   1.0078250  15.9949146   1.0078250   1.0078250  15.9949146   1.0078250   1.0078250  15.9949146   1.0078250
 NucSpn=           1           1           0           1           1           0           1           1           0           1
 AtZEff=   0.0000000   0.0000000   0.0000000   0.0000000   0.0000000   0.0000000   0.0000000   0.0000000   0.0000000   0.0000000
 NQMom=    0.0000000   0.0000000   0.0000000   0.0000000   0.0000000   0.0000000   0.0000000   0.0000000   0.0000000   0.0000000
 NMagM=    2.7928460   2.7928460   0.0000000   2.7928460   2.7928460   0.0000000   2.7928460   2.7928460   0.0000000   2.7928460
 AtZNuc=   1.0000000   1.0000000   8.0000000   1.0000000   1.0000000   8.0000000   1.0000000   1.0000000   8.0000000   1.0000000

  Atom       361         362         363         364         365         366         367         368         369         370
 IAtWgt=           1          16           1           1          16           1           1          16           1           1
 AtmWgt=   1.0078250  15.9949146   1.0078250   1.0078250  15.9949146   1.0078250   1.0078250  15.9949146   1.0078250   1.0078250
 NucSpn=           1           0           1           1           0           1           1           0           1           1
 AtZEff=   0.0000000   0.0000000   0.0000000   0.0000000   0.0000000   0.0000000   0.0000000   0.0000000   0.0000000   0.0000000
 NQMom=    0.0000000   0.0000000   0.0000000   0.0000000   0.0000000   0.0000000   0.0000000   0.0000000   0.0000000   0.0000000
 NMagM=    2.7928460   0.0000000   2.7928460   2.7928460   0.0000000   2.7928460   2.7928460   0.0000000   2.7928460   2.7928460
 AtZNuc=   1.0000000   8.0000000   1.0000000   1.0000000   8.0000000   1.0000000   1.0000000   8.0000000   1.0000000   1.0000000

  Atom       371         372         373         374         375         376         377         378         379         380
 IAtWgt=          16           1           1          16           1           1          16           1           1          16
 AtmWgt=  15.9949146   1.0078250   1.0078250  15.9949146   1.0078250   1.0078250  15.9949146   1.0078250   1.0078250  15.9949146
 NucSpn=           0           1           1           0           1           1           0           1           1           0
 AtZEff=   0.0000000   0.0000000   0.0000000   0.0000000   0.0000000   0.0000000   0.0000000   0.0000000   0.0000000   0.0000000
 NQMom=    0.0000000   0.0000000   0.0000000   0.0000000   0.0000000   0.0000000   0.0000000   0.0000000   0.0000000   0.0000000
 NMagM=    0.0000000   2.7928460   2.7928460   0.0000000   2.7928460   2.7928460   0.0000000   2.7928460   2.7928460   0.0000000
 AtZNuc=   8.0000000   1.0000000   1.0000000   8.0000000   1.0000000   1.0000000   8.0000000   1.0000000   1.0000000   8.0000000

  Atom       381         382         383         384         385
 IAtWgt=           1           1          16           1           1
 AtmWgt=   1.0078250   1.0078250  15.9949146   1.0078250   1.0078250
 NucSpn=           1           1           0           1           1
 AtZEff=   0.0000000   0.0000000   0.0000000   0.0000000   0.0000000
 NQMom=    0.0000000   0.0000000   0.0000000   0.0000000   0.0000000
 NMagM=    2.7928460   2.7928460   0.0000000   2.7928460   2.7928460
 AtZNuc=   1.0000000   1.0000000   8.0000000   1.0000000   1.0000000
 Leave Link  101 at Sun May  6 02:44:14 2018, MaxMem= 14763950080 cpu:        33.4
 (Enter /cm/shared/gaussian/g09.e01/intel64-sandybridge/g09/l103.exe)

 GradGradGradGradGradGradGradGradGradGradGradGradGradGradGradGradGradGrad
 Berny optimization.
 Initialization pass.
 Trust Radius=3.00D-01 FncErr=1.00D-07 GrdErr=1.00D-07
 Number of steps in this run=      2 maximum allowed number of steps=      2.
 GradGradGradGradGradGradGradGradGradGradGradGradGradGradGradGradGradGrad

 Leave Link  103 at Sun May  6 02:44:14 2018, MaxMem= 14763950080 cpu:         3.8
 (Enter /cm/shared/gaussian/g09.e01/intel64-sandybridge/g09/l202.exe)
 Symmetry turned off by external request.
 Stoichiometry    BrH256O128(1-)
 Framework group  C1[X(BrH256O128)]
 Deg. of freedom  1149
 Full point group                 C1      NOp   1
                          Input orientation:                          
 ---------------------------------------------------------------------
 Center     Atomic      Atomic             Coordinates (Angstroms)
 Number     Number       Type             X           Y           Z
 ---------------------------------------------------------------------
      1         35           0       20.000000   20.000000   20.000000
      2          8           0       19.990000   22.610000   17.960000
      3          1           0       20.030000   21.870000   18.560000
      4          1           0       19.980000   23.380000   18.520000
      5          8           0       22.100000   17.510000   20.530000
      6          1           0       22.410000   17.480000   19.630000
      7          1           0       21.520000   18.280000   20.560000
      8          8           0       18.020000   21.520000   22.200000
      9          1           0       18.570000   21.100000   21.540000
     10          1           0       17.330000   20.880000   22.380000
     11          8           0       17.300000   21.480000   18.560000
     12          1           0       17.680000   21.910000   17.790000
     13          1           0       18.020000   20.980000   18.940000
     14          8           0       20.260000   19.850000   23.330000
     15          1           0       19.710000   20.130000   22.600000
     16          1           0       21.160000   20.000000   23.030000
     17          8           0       20.160000   18.180000   17.190000
     18          1           0       20.460000   18.200000   18.090000
     19          1           0       19.270000   18.540000   17.220000
     20          8           0       22.370000   22.520000   21.010000
     21          1           0       21.660000   22.920000   20.520000
     22          1           0       22.070000   21.630000   21.190000
     23          8           0       19.390000   16.230000   19.750000
     24          1           0       18.790000   16.240000   19.000000
     25          1           0       19.310000   17.110000   20.130000
     26          8           0       22.640000   19.650000   22.170000
     27          1           0       22.860000   18.840000   21.720000
     28          1           0       23.400000   19.840000   22.710000
     29          8           0       23.130000   19.770000   17.640000
     30          1           0       22.810000   20.550000   18.090000
     31          1           0       22.330000   19.310000   17.360000
     32          8           0       18.490000   17.430000   22.240000
     33          1           0       18.960000   18.060000   22.780000
     34          1           0       17.680000   17.260000   22.730000
     35          8           0       16.360000   19.320000   21.430000
     36          1           0       16.710000   18.530000   21.010000
     37          1           0       15.410000   19.210000   21.380000
     38          8           0       17.670000   19.010000   16.600000
     39          1           0       18.010000   19.900000   16.730000
     40          1           0       17.640000   18.900000   15.650000
     41          8           0       16.590000   23.470000   20.490000
     42          1           0       17.060000   22.750000   20.080000
     43          1           0       15.690000   23.150000   20.570000
     44          8           0       17.550000   16.610000   17.840000
     45          1           0       17.630000   17.540000   17.620000
     46          1           0       17.120000   16.220000   17.070000
     47          8           0       21.070000   21.280000   15.300000
     48          1           0       20.540000   21.360000   16.090000
     49          1           0       20.550000   21.700000   14.610000
     50          8           0       21.440000   17.140000   23.650000
     51          1           0       21.570000   17.050000   22.710000
     52          1           0       21.340000   18.080000   23.790000
     53          8           0       20.380000   24.420000   19.950000
     54          1           0       20.390000   24.670000   20.870000
     55          1           0       21.060000   24.960000   19.540000
     56          8           0       18.910000   22.490000   24.520000
     57          1           0       18.660000   22.160000   23.650000
     58          1           0       19.790000   22.840000   24.400000
     59          8           0       21.860000   22.770000   24.120000
     60          1           0       22.540000   22.730000   24.780000
     61          1           0       22.210000   22.280000   23.380000
     62          8           0       14.400000   21.210000   19.030000
     63          1           0       14.050000   21.090000   18.150000
     64          1           0       15.340000   21.050000   18.940000
     65          8           0       18.880000   19.610000   25.840000
     66          1           0       18.220000   20.280000   26.020000
     67          1           0       19.060000   19.680000   24.910000
     68          8           0       22.250000   14.610000   21.330000
     69          1           0       22.080000   15.500000   21.030000
     70          1           0       21.400000   14.160000   21.230000
     71          8           0       22.900000   23.270000   16.060000
     72          1           0       22.360000   23.260000   16.840000
     73          1           0       22.470000   22.670000   15.450000
     74          8           0       17.700000   21.960000   15.830000
     75          1           0       18.100000   22.820000   15.710000
     76          1           0       17.860000   21.510000   14.990000
     77          8           0       22.450000   17.780000   15.110000
     78          1           0       21.640000   18.200000   15.370000
     79          1           0       22.910000   17.610000   15.930000
     80          8           0       25.260000   23.350000   20.720000
     81          1           0       24.420000   22.880000   20.760000
     82          1           0       25.220000   23.820000   19.890000
     83          8           0       23.510000   16.900000   17.390000
     84          1           0       23.800000   16.270000   16.730000
     85          1           0       24.260000   16.970000   17.990000
     86          8           0       20.290000   15.490000   15.450000
     87          1           0       20.380000   15.740000   14.530000
     88          1           0       19.860000   16.240000   15.860000
     89          8           0       21.540000   14.290000   17.420000
     90          1           0       21.430000   14.810000   16.620000
     91          1           0       21.580000   14.940000   18.130000
     92          8           0       14.830000   19.710000   16.330000
     93          1           0       15.560000   19.130000   16.580000
     94          1           0       14.200000   19.130000   15.900000
     95          8           0       20.150000   25.400000   23.500000
     96          1           0       20.820000   25.960000   23.880000
     97          1           0       20.520000   24.520000   23.540000
     98          8           0       21.890000   19.580000   25.920000
     99          1           0       22.150000   20.310000   26.470000
    100          1           0       20.980000   19.770000   25.680000
    101          8           0       19.600000   13.700000   21.310000
    102          1           0       19.140000   13.870000   20.480000
    103          1           0       19.470000   14.510000   21.810000
    104          8           0       15.950000   14.850000   19.340000
    105          1           0       16.350000   14.040000   19.010000
    106          1           0       16.410000   15.550000   18.890000
    107          8           0       26.490000   19.680000   18.970000
    108          1           0       26.770000   20.310000   18.310000
    109          1           0       25.670000   19.320000   18.640000
    110          8           0       16.380000   23.870000   23.780000
    111          1           0       16.450000   24.050000   22.840000
    112          1           0       16.920000   23.100000   23.920000
    113          8           0       17.690000   25.920000   20.960000
    114          1           0       17.290000   25.080000   21.190000
    115          1           0       18.130000   25.750000   20.130000
    116          8           0       19.880000   15.090000   24.530000
    117          1           0       20.370000   14.920000   25.330000
    118          1           0       20.440000   15.690000   24.030000
    119          8           0       24.260000   20.840000   24.440000
    120          1           0       23.580000   20.240000   24.740000
    121          1           0       24.690000   21.140000   25.240000
    122          8           0       16.280000   24.790000   17.870000
    123          1           0       16.020000   23.950000   17.490000
    124          1           0       16.380000   24.600000   18.800000
    125          8           0       14.200000   22.220000   21.520000
    126          1           0       13.550000   22.870000   21.250000
    127          1           0       14.290000   21.650000   20.760000
    128          8           0       25.800000   21.080000   16.420000
    129          1           0       25.940000   22.020000   16.510000
    130          1           0       24.850000   20.970000   16.470000
    131          8           0       15.030000   22.470000   16.180000
    132          1           0       15.880000   22.200000   15.840000
    133          1           0       14.490000   21.680000   16.150000
    134          8           0       22.600000   25.490000   21.850000
    135          1           0       22.650000   26.330000   22.310000
    136          1           0       23.170000   24.900000   22.350000
    137          8           0       16.940000   16.630000   24.370000
    138          1           0       16.240000   16.440000   23.750000
    139          1           0       17.580000   15.940000   24.230000
    140          8           0       25.240000   17.580000   22.700000
    141          1           0       25.490000   16.860000   22.130000
    142          1           0       24.930000   17.160000   23.500000
    143          8           0       22.850000   25.790000   18.970000
    144          1           0       22.700000   25.790000   19.910000
    145          1           0       23.540000   26.440000   18.830000
    146          8           0       18.440000   20.600000   13.730000
    147          1           0       18.050000   19.740000   13.870000
    148          1           0       18.130000   20.880000   12.870000
    149          8           0       23.550000   17.410000   25.390000
    150          1           0       22.980000   16.900000   24.810000
    151          1           0       22.950000   17.870000   25.970000
    152          8           0       15.790000   15.340000   22.260000
    153          1           0       15.770000   15.120000   21.330000
    154          1           0       16.010000   14.520000   22.700000
    155          8           0       15.010000   18.930000   24.580000
    156          1           0       15.800000   18.480000   24.870000
    157          1           0       14.450000   18.230000   24.240000
    158          8           0       18.550000   13.470000   18.290000
    159          1           0       18.890000   12.650000   18.650000
    160          1           0       19.270000   13.820000   17.770000
    161          8           0       26.470000   19.790000   23.270000
    162          1           0       25.930000   19.140000   22.820000
    163          1           0       25.840000   20.350000   23.730000
    164          8           0       25.230000   23.990000   18.160000
    165          1           0       24.470000   24.570000   18.080000
    166          1           0       25.950000   24.470000   17.750000
    167          8           0       24.020000   14.820000   23.440000
    168          1           0       24.850000   14.510000   23.080000
    169          1           0       23.430000   14.870000   22.680000
    170          8           0       25.890000   16.940000   18.670000
    171          1           0       26.750000   17.220000   18.380000
    172          1           0       25.840000   16.010000   18.430000
    173          8           0       17.710000   18.100000   13.880000
    174          1           0       18.520000   17.600000   13.780000
    175          1           0       17.150000   17.780000   13.170000
    176          8           0       14.100000   21.500000   24.390000
    177          1           0       14.660000   20.740000   24.300000
    178          1           0       14.360000   22.070000   23.670000
    179          8           0       19.800000   23.520000   14.010000
    180          1           0       19.400000   24.200000   14.550000
    181          1           0       19.140000   23.310000   13.360000
    182          8           0       17.870000   25.210000   15.570000
    183          1           0       17.260000   25.270000   16.310000
    184          1           0       17.420000   25.660000   14.850000
    185          8           0       20.700000   26.330000   15.320000
    186          1           0       20.630000   25.910000   16.180000
    187          1           0       21.510000   25.960000   14.940000
    188          8           0       19.210000   17.370000   27.120000
    189          1           0       19.220000   18.290000   26.850000
    190          1           0       18.910000   16.890000   26.360000
    191          8           0       13.070000   19.260000   21.880000
    192          1           0       13.330000   19.910000   22.540000
    193          1           0       12.110000   19.220000   21.960000
    194          8           0       25.570000   24.280000   23.220000
    195          1           0       24.890000   23.820000   23.720000
    196          1           0       25.720000   23.710000   22.460000
    197          8           0       17.860000   22.710000   27.360000
    198          1           0       18.150000   22.800000   26.450000
    199          1           0       17.250000   21.980000   27.340000
    200          8           0       12.420000   19.230000   19.150000
    201          1           0       12.650000   20.130000   18.930000
    202          1           0       12.780000   19.090000   20.020000
    203          8           0       18.050000   25.710000   25.240000
    204          1           0       17.630000   25.000000   24.750000
    205          1           0       18.700000   26.060000   24.630000
    206          8           0       13.380000   15.460000   20.120000
    207          1           0       14.280000   15.420000   19.820000
[...]
   Z335      42.36766   0.00555   0.00000   0.00038   0.00067  42.36833
   X336      50.21002   0.00121   0.00000   0.00284   0.00187  50.21190
   Y336      25.32233  -0.00674   0.00000  -0.00653  -0.00718  25.31515
   Z336      41.93302  -0.00352   0.00000  -0.00549  -0.00515  41.92787
   X337      51.85409   0.01903   0.00000   0.01138   0.01054  51.86463
   Y337      27.66559   0.01324   0.00000   0.01709   0.01635  27.68194
   Z337      41.85743  -0.00488   0.00000  -0.00138  -0.00113  41.85631
   X338      27.87346  -0.00848   0.00000  -0.00640  -0.00750  27.86597
   Y338      24.35857   0.00339   0.00000   0.00123   0.00143  24.36000
   Z338      31.21828  -0.00861   0.00000  -0.00747  -0.00694  31.21133
   X339      28.04354   0.00415   0.00000   0.00518   0.00406  28.04759
   Y339      23.58378  -0.00263   0.00000  -0.00077  -0.00052  23.58326
   Z339      32.84344   0.00560   0.00000   0.00122   0.00177  32.84522
   X340      29.57421   0.00362   0.00000   0.00311   0.00203  29.57624
   Y340      24.60423   0.00051   0.00000   0.00147   0.00157  24.60580
   Z340      30.63246   0.00518   0.00000   0.00888   0.00939  30.64185
   X341      26.55065   0.00165   0.00000   0.00671   0.00666  26.55732
   Y341      44.69202   0.00423   0.00000   0.00962   0.00970  44.70172
   Z341      25.17115  -0.00859   0.00000  -0.00884  -0.00895  25.16221
   X342      26.53175  -0.00505   0.00000  -0.01001  -0.01001  26.52175
   Y342      45.33453  -0.00423   0.00000  -0.01127  -0.01113  45.32340
   Z342      26.87191   0.00769   0.00000   0.00722   0.00709  26.87900
   X343      28.19471   0.00326   0.00000   0.00317   0.00308  28.19779
   Y343      43.93613  -0.00532   0.00000  -0.00899  -0.00900  43.92713
   Z343      25.01997   0.00306   0.00000   0.00612   0.00603  25.02600
   X344      37.24650  -0.00524   0.00000  -0.00317  -0.00437  37.24213
   Y344      20.48463  -0.00712   0.00000  -0.00575  -0.00561  20.47902
   Z344      45.05107   0.00414   0.00000   0.00009   0.00067  45.05174
   X345      39.06064   0.00329   0.00000   0.00176   0.00056  39.06120
   Y345      20.50353   0.00290   0.00000   0.00418   0.00422  20.50775
   Z345      45.06997  -0.00186   0.00000  -0.00287  -0.00230  45.06767
   X346      36.79297   0.00161   0.00000   0.00430   0.00316  36.79613
   Y346      21.82634   0.00695   0.00000   0.00658   0.00671  21.83304
   Z346      43.91724  -0.00353   0.00000  -0.00141  -0.00087  43.91637
   X347      30.46239  -0.01119   0.00000  -0.01105  -0.01077  30.45161
   Y347      47.16756  -0.00427   0.00000  -0.00322  -0.00251  47.16505
   Z347      51.45724   0.01176   0.00000   0.00791   0.00770  51.46494
   X348      31.74740   0.00105   0.00000  -0.00008   0.00014  31.74754
   Y348      46.03373   0.00042   0.00000   0.00040   0.00105  46.03478
   Z348      52.08085  -0.00357   0.00000  -0.00557  -0.00576  52.07510
   X349      31.21828   0.00675   0.00000   0.00366   0.00397  31.22224
   Y349      47.92345   0.00713   0.00000   0.00724   0.00786  47.93131
   Z349      50.00215  -0.00690   0.00000   0.00079   0.00055  50.00270
   X350      37.71893  -0.00476   0.00000  -0.00442  -0.00567  37.71326
   Y350      20.93817   0.00309   0.00000   0.00349   0.00326  20.94143
   Z350      34.24184   0.02385   0.00000   0.01639   0.01696  34.25880
   X351      37.49217  -0.00360   0.00000  -0.00407  -0.00531  37.48686
   Y351      21.44839   0.00286   0.00000   0.00019  -0.00008  21.44831
   Z351      32.52219  -0.01847   0.00000  -0.01027  -0.00972  32.51247
   X352      38.60710   0.00454   0.00000   0.00479   0.00345  38.61056
   Y352      19.36969  -0.00483   0.00000  -0.00073  -0.00101  19.36869
   Z352      34.12845  -0.00036   0.00000   0.00196   0.00257  34.13102
   X353      54.61309  -0.00919   0.00000  -0.01034  -0.01104  54.60205
   Y353      30.44349  -0.02477   0.00000  -0.01675  -0.01767  30.42581
   Z353      40.78029  -0.01325   0.00000  -0.00698  -0.00684  40.77345
   X354      55.99259   0.00946   0.00000   0.00277   0.00209  55.99468
   Y354      30.63246   0.00483   0.00000   0.00364   0.00268  30.63514
   Z354      41.91413   0.01072   0.00000   0.00562   0.00575  41.91987
   X355      53.72491  -0.00376   0.00000   0.00275   0.00214  53.72706
   Y355      32.01196   0.02036   0.00000   0.01669   0.01582  32.02778
   Z355      40.85588   0.00380   0.00000   0.00344   0.00354  40.85942
   X356      55.74692  -0.01261   0.00000  -0.00949  -0.01003  55.73689
   Y356      34.27963  -0.00071   0.00000  -0.00278  -0.00398  34.27566
   Z356      34.12845  -0.00874   0.00000  -0.00776  -0.00774  34.12071
   X357      54.59419   0.00495   0.00000   0.00789   0.00735  54.60154
   Y357      34.09066   0.00384   0.00000   0.00869   0.00760  34.09826
   Z357      35.52685   0.00462   0.00000   0.00774   0.00777  35.53462
   X358      57.37209   0.00622   0.00000   0.00041  -0.00015  57.37194
   Y358      33.95838  -0.00169   0.00000   0.00048  -0.00078  33.95760
   Z358      34.84655   0.00652   0.00000   0.00466   0.00467  34.85122
   X359      30.12223   0.00126   0.00000  -0.00287  -0.00357  30.11866
   Y359      32.73006  -0.00016   0.00000  -0.00301  -0.00319  32.72687
   Z359      23.05466   0.00538   0.00000  -0.00122  -0.00097  23.05369
   X360      29.40414  -0.00538   0.00000  -0.00476  -0.00544  29.39870
   Y360      33.24028   0.00313   0.00000   0.00233   0.00214  33.24242
   Z360      21.48619  -0.01229   0.00000  -0.01245  -0.01221  21.47397
   X361      29.80098  -0.00292   0.00000  -0.00402  -0.00482  29.79616
   Y361      30.95371  -0.00839   0.00000  -0.00940  -0.00955  30.94416
   Z361      23.14915  -0.00095   0.00000  -0.00252  -0.00222  23.14693
   X362      28.89391   0.00698   0.00000   0.00859   0.00823  28.90215
   Y362      39.26851   0.00603   0.00000   0.00455   0.00443  39.27294
   Z362      22.94128  -0.00066   0.00000   0.00057   0.00062  22.94190
   X363      27.45772  -0.00319   0.00000   0.00056   0.00018  27.45790
   Y363      38.55041   0.00007   0.00000   0.00425   0.00424  38.55465
   Z363      23.79165   0.00372   0.00000   0.00360   0.00368  23.79533
   X364      29.59311  -0.00024   0.00000  -0.00105  -0.00149  29.59162
   Y364      37.88901  -0.00365   0.00000  -0.00368  -0.00386  37.88515
   Z364      21.99641  -0.00142   0.00000  -0.00117  -0.00108  21.99533
   X365      20.14448  -0.01922   0.00000  -0.02218  -0.02278  20.12170
   Y365      33.31587   0.00645   0.00000   0.00713   0.00781  33.32368
   Z365      33.14580  -0.01255   0.00000  -0.00460  -0.00430  33.14150
   X366      21.05155   0.00987   0.00000   0.00874   0.00820  21.05975
   Y366      34.18515   0.00724   0.00000   0.00675   0.00742  34.19256
   Z366      34.44971   0.00794   0.00000  -0.00030  -0.00003  34.44968
   X367      20.40904   0.00573   0.00000   0.00816   0.00747  20.41651
   Y367      31.55843  -0.00492   0.00000   0.00130   0.00197  31.56040
   Z367      33.50484   0.00380   0.00000   0.00236   0.00271  33.50756
   X368      24.07511   0.00593   0.00000   0.00890   0.00893  24.08404
   Y368      42.67002   0.01319   0.00000   0.00111   0.00212  42.67214
   Z368      50.30451   0.01515   0.00000   0.01540   0.01537  50.31988
   X369      22.65782  -0.01109   0.00000  -0.00884  -0.00887  22.64894
   Y369      41.59287  -0.00831   0.00000  -0.00514  -0.00405  41.58882
   Z369      50.53128  -0.00170   0.00000  -0.00398  -0.00396  50.52732
   X370      25.07667   0.00685   0.00000   0.00323   0.00320  25.07987
   Y370      41.85743  -0.00982   0.00000  -0.00865  -0.00773  41.84970
   Z370      49.03839  -0.01282   0.00000  -0.01020  -0.01021  49.02819
   X371      37.81342  -0.02489   0.00000  -0.00919  -0.01042  37.80300
   Y371      22.05310  -0.00728   0.00000  -0.00653  -0.00692  22.04618
   Z371      29.30965  -0.00832   0.00000  -0.01071  -0.01018  29.29948
   X372      37.39768   0.00014   0.00000   0.00063  -0.00054  37.39714
   Y372      23.30032   0.00545   0.00000   0.01002   0.00961  23.30993
   Z372      28.06243   0.00042   0.00000   0.00120   0.00170  28.06413
   X373      39.55197   0.02936   0.00000   0.02121   0.02000  39.57197
   Y373      22.31767   0.00185   0.00000  -0.00220  -0.00267  22.31500
   Z373      29.66870   0.00790   0.00000   0.00793   0.00844  29.67714
   X374      36.16936   0.01485   0.00000   0.01335   0.01355  36.18291
   Y374      45.24004   0.01556   0.00000   0.01114   0.01166  45.25170
   Z374      55.18000   0.02182   0.00000   0.02011   0.01991  55.19992
   X375      37.58665   0.00021   0.00000   0.00411   0.00426  37.59091
   Y375      44.31408  -0.00237   0.00000  -0.00624  -0.00578  44.30830
   Z375      55.84141   0.00081   0.00000   0.00411   0.00394  55.84534
   X376      35.43236  -0.00811   0.00000  -0.00439  -0.00426  35.42811
   Y376      44.12511  -0.00851   0.00000   0.00276   0.00328  44.12839
   Z376      53.95168  -0.01234   0.00000  -0.00354  -0.00369  53.94799
   X377      56.10597   0.00409   0.00000   0.00682   0.00662  56.11259
   Y377      40.00550   0.00794   0.00000   0.00484   0.00379  40.00930
   Z377      39.47638  -0.00882   0.00000  -0.00847  -0.00864  39.46774
   X378      55.18000   0.00189   0.00000   0.01052   0.01024  55.19025
   Y378      38.49372  -0.01421   0.00000  -0.01534  -0.01633  38.47739
   Z378      39.87322  -0.00694   0.00000  -0.01717  -0.01728  39.85594
   X379      57.48547   0.00287   0.00000   0.00062   0.00043  57.48590
   Y379      40.00550   0.00237   0.00000   0.00599   0.00491  40.01041
   Z379      40.64801   0.00692   0.00000   0.00878   0.00860  40.65661
   X380      54.70757   0.01635   0.00000   0.01417   0.01390  54.72147
   Y380      37.62445  -0.00239   0.00000   0.00094   0.00020  37.62465
   Z380      46.95969  -0.00065   0.00000  -0.00534  -0.00542  46.95428
   X381      53.95168  -0.00530   0.00000  -0.00383  -0.00402  53.94766
   Y381      38.92836   0.00229   0.00000  -0.00117  -0.00184  38.92652
   Z381      47.96125   0.00084   0.00000  -0.00156  -0.00168  47.95957
   X382      53.40366  -0.01233   0.00000  -0.01208  -0.01238  53.39128
   Y382      37.11422  -0.00099   0.00000   0.00022  -0.00048  37.11374
   Z382      45.80696  -0.00139   0.00000   0.00475   0.00470  45.81166
   X383      46.10932  -0.00352   0.00000   0.00619   0.00667  46.11598
   Y383      51.81629   0.00461   0.00000   0.00405   0.00370  51.81999
   Z383      44.42746  -0.00994   0.00000  -0.00802  -0.00849  44.41897
   X384      47.35654   0.01310   0.00000   0.01199   0.01243  47.36897
   Y384      51.13599  -0.01247   0.00000  -0.01545  -0.01584  51.12015
   Z384      45.52350   0.00795   0.00000   0.00293   0.00247  45.52598
   X385      46.92190   0.00325   0.00000   0.00550   0.00604  46.92794
   Y385      53.23359   0.00651   0.00000   0.00989   0.00946  53.24305
   Z385      43.65267  -0.00431   0.00000  -0.00585  -0.00637  43.64630
         Item               Value     Threshold  Converged?
 Maximum Force            0.036566     0.000450     NO 
 RMS     Force            0.010227     0.000300     NO 
 Maximum Displacement     0.027724     0.001800     NO 
 RMS     Displacement     0.008826     0.001200     NO 
 Predicted change in Energy=-6.942146D-02
 GradGradGradGradGradGradGradGradGradGradGradGradGradGradGradGradGradGrad

 Leave Link  103 at Sun May  6 05:11:43 2018, MaxMem= 14763950080 cpu:      2591.4
 (Enter /cm/shared/gaussian/g09.e01/intel64-sandybridge/g09/l9999.exe)
 1\1\GINC-POPLE01\Force\RPBE1PBE\CC-pVDZ\Br1H256O128(1-)\M.PELUSO\06-Ma
 y-2018\0\\#p PBE1PBE/cc-pvDZ force Counterpoise=2 noSymm\\forces on ch
 loride comput - NWATER: 128\\-1,1\Br,20.,20.,20.\O,19.99,22.61,17.96\H
 ,20.03,21.87,18.56\H,19.98,23.38,18.52\O,22.1,17.51,20.53\H,22.41,17.4
 8,19.63\H,21.52,18.28,20.56\O,18.02,21.52,22.2\H,18.57,21.1,21.54\H,17
 .33,20.88,22.38\O,17.3,21.48,18.56\H,17.68,21.91,17.79\H,18.02,20.98,1
 8.94\O,20.26,19.85,23.33\H,19.71,20.13,22.6\H,21.16,20.,23.03\O,20.16,
 18.18,17.19\H,20.46,18.2,18.09\H,19.27,18.54,17.22\O,22.37,22.52,21.01
 \H,21.66,22.92,20.52\H,22.07,21.63,21.19\O,19.39,16.23,19.75\H,18.79,1
 6.24,19.\H,19.31,17.11,20.13\O,22.64,19.65,22.17\H,22.86,18.84,21.72\H
 ,23.4,19.84,22.71\O,23.13,19.77,17.64\H,22.81,20.55,18.09\H,22.33,19.3
 1,17.36\O,18.49,17.43,22.24\H,18.96,18.06,22.78\H,17.68,17.26,22.73\O,
 16.36,19.32,21.43\H,16.71,18.53,21.01\H,15.41,19.21,21.38\O,17.67,19.0
 1,16.6\H,18.01,19.9,16.73\H,17.64,18.9,15.65\O,16.59,23.47,20.49\H,17.
 06,22.75,20.08\H,15.69,23.15,20.57\O,17.55,16.61,17.84\H,17.63,17.54,1
 7.62\H,17.12,16.22,17.07\O,21.07,21.28,15.3\H,20.54,21.36,16.09\H,20.5
 5,21.7,14.61\O,21.44,17.14,23.65\H,21.57,17.05,22.71\H,21.34,18.08,23.
 79\O,20.38,24.42,19.95\H,20.39,24.67,20.87\H,21.06,24.96,19.54\O,18.91
 ,22.49,24.52\H,18.66,22.16,23.65\H,19.79,22.84,24.4\O,21.86,22.77,24.1
 2\H,22.54,22.73,24.78\H,22.21,22.28,23.38\O,14.4,21.21,19.03\H,14.05,2
 1.09,18.15\H,15.34,21.05,18.94\O,18.88,19.61,25.84\H,18.22,20.28,26.02
 \H,19.06,19.68,24.91\O,22.25,14.61,21.33\H,22.08,15.5,21.03\H,21.4,14.
 16,21.23\O,22.9,23.27,16.06\H,22.36,23.26,16.84\H,22.47,22.67,15.45\O,
 17.7,21.96,15.83\H,18.1,22.82,15.71\H,17.86,21.51,14.99\O,22.45,17.78,
 15.11\H,21.64,18.2,15.37\H,22.91,17.61,15.93\O,25.26,23.35,20.72\H,24.
 42,22.88,20.76\H,25.22,23.82,19.89\O,23.51,16.9,17.39\H,23.8,16.27,16.
 73\H,24.26,16.97,17.99\O,20.29,15.49,15.45\H,20.38,15.74,14.53\H,19.86
 ,16.24,15.86\O,21.54,14.29,17.42\H,21.43,14.81,16.62\H,21.58,14.94,18.
 13\O,14.83,19.71,16.33\H,15.56,19.13,16.58\H,14.2,19.13,15.9\O,20.15,2
 5.4,23.5\H,20.82,25.96,23.88\H,20.52,24.52,23.54\O,21.89,19.58,25.92\H
 ,22.15,20.31,26.47\H,20.98,19.77,25.68\O,19.6,13.7,21.31\H,19.14,13.87
 ,20.48\H,19.47,14.51,21.81\O,15.95,14.85,19.34\H,16.35,14.04,19.01\H,1
 6.41,15.55,18.89\O,26.49,19.68,18.97\H,26.77,20.31,18.31\H,25.67,19.32
 ,18.64\O,16.38,23.87,23.78\H,16.45,24.05,22.84\H,16.92,23.1,23.92\O,17
 .69,25.92,20.96\H,17.29,25.08,21.19\H,18.13,25.75,20.13\O,19.88,15.09,
 24.53\H,20.37,14.92,25.33\H,20.44,15.69,24.03\O,24.26,20.84,24.44\H,23
 .58,20.24,24.74\H,24.69,21.14,25.24\O,16.28,24.79,17.87\H,16.02,23.95,
 17.49\H,16.38,24.6,18.8\O,14.2,22.22,21.52\H,13.55,22.87,21.25\H,14.29
 ,21.65,20.76\O,25.8,21.08,16.42\H,25.94,22.02,16.51\H,24.85,20.97,16.4
 7\O,15.03,22.47,16.18\H,15.88,22.2,15.84\H,14.49,21.68,16.15\O,22.6,25
 .49,21.85\H,22.65,26.33,22.31\H,23.17,24.9,22.35\O,16.94,16.63,24.37\H
 ,16.24,16.44,23.75\H,17.58,15.94,24.23\O,25.24,17.58,22.7\H,25.49,16.8
 6,22.13\H,24.93,17.16,23.5\O,22.85,25.79,18.97\H,22.7,25.79,19.91\H,23
 .54,26.44,18.83\O,18.44,20.6,13.73\H,18.05,19.74,13.87\H,18.13,20.88,1
 2.87\O,23.55,17.41,25.39\H,22.98,16.9,24.81\H,22.95,17.87,25.97\O,15.7
 9,15.34,22.26\H,15.77,15.12,21.33\H,16.01,14.52,22.7\O,15.01,18.93,24.
 58\H,15.8,18.48,24.87\H,14.45,18.23,24.24\O,18.55,13.47,18.29\H,18.89,
 12.65,18.65\H,19.27,13.82,17.77\O,26.47,19.79,23.27\H,25.93,19.14,22.8
 2\H,25.84,20.35,23.73\O,25.23,23.99,18.16\H,24.47,24.57,18.08\H,25.95,
 24.47,17.75\O,24.02,14.82,23.44\H,24.85,14.51,23.08\H,23.43,14.87,22.6
 8\O,25.89,16.94,18.67\H,26.75,17.22,18.38\H,25.84,16.01,18.43\O,17.71,
 18.1,13.88\H,18.52,17.6,13.78\H,17.15,17.78,13.17\O,14.1,21.5,24.39\H,
 14.66,20.74,24.3\H,14.36,22.07,23.67\O,19.8,23.52,14.01\H,19.4,24.2,14
 .55\H,19.14,23.31,13.36\O,17.87,25.21,15.57\H,17.26,25.27,16.31\H,17.4
 2,25.66,14.85\O,20.7,26.33,15.32\H,20.63,25.91,16.18\H,21.51,25.96,14.
 94\O,19.21,17.37,27.12\H,19.22,18.29,26.85\H,18.91,16.89,26.36\O,13.07
 ,19.26,21.88\H,13.33,19.91,22.54\H,12.11,19.22,21.96\O,25.57,24.28,23.
 22\H,24.89,23.82,23.72\H,25.72,23.71,22.46\O,17.86,22.71,27.36\H,18.15
 ,22.8,26.45\H,17.25,21.98,27.34\O,12.42,19.23,19.15\H,12.65,20.13,18.9
 3\H,12.78,19.09,20.02\O,18.05,25.71,25.24\H,17.63,25.,24.75\H,18.7,26.
 06,24.63\O,13.38,15.46,20.12\H,14.28,15.42,19.82\H,13.36,14.9,20.9\O,2
 3.8,12.65,20.02\H,23.11,11.99,20.02\H,23.36,13.45,20.29\O,17.6,27.32,1
 7.77\H,17.19,27.75,17.02\H,17.1,26.51,17.88\O,25.63,19.85,14.\H,25.06,
 19.3,14.54\H,26.27,20.21,14.62\O,23.07,16.94,12.63\H,24.02,16.9,12.72\
 H,22.76,17.18,13.51\O,28.17,18.97,21.25\H,27.49,18.87,20.58\H,27.84,19
 .65,21.83\O,16.4,15.33,15.19\H,16.83,14.51,14.94\H,15.68,15.43,14.57\O
 ,24.08,25.79,15.19\H,24.86,26.02,15.69\H,23.94,24.86,15.37\O,20.43,27.
 67,18.46\H,21.,27.83,17.71\H,19.55,27.67,18.09\O,28.03,23.21,21.41\H,2
 7.08,23.12,21.32\H,28.38,22.37,21.11\O,20.39,16.39,12.97\H,21.3,16.28,
 12.7\H,19.88,15.95,12.29\O,24.61,15.48,15.33\H,25.42,14.98,15.39\H,24.
 74,16.08,14.6\O,17.66,28.14,22.65\H,18.36,28.32,22.03\H,17.54,27.19,22
 .6\O,22.15,14.64,26.2\H,22.26,13.76,26.56\H,22.62,14.61,25.36\O,25.81,
 13.73,18.17\H,25.49,12.86,17.92\H,25.23,13.99,18.89\O,24.04,24.11,25.6
 2\H,23.49,24.9,25.67\H,24.62,24.18,26.38\O,13.76,16.23,24.36\H,13.98,1
 5.93,23.48\H,12.81,16.14,24.41\O,17.92,13.24,25.37\H,18.58,13.8,24.95\
 H,18.24,13.13,26.27\O,13.07,24.24,16.45\H,12.78,23.62,17.11\H,14.02,24
 .16,16.45\O,20.73,28.64,21.16\H,20.51,28.14,20.37\H,21.59,29.02,20.96\
 O,22.65,11.91,16.71\H,22.76,12.37,15.88\H,22.27,12.56,17.3\O,15.88,20.
 87,27.13\H,15.5,21.19,27.95\H,15.22,20.28,26.77\O,26.28,18.43,26.27\H,
 25.61,17.76,26.17\H,26.1,19.05,25.57\O,17.48,23.54,12.78\H,17.12,23.3,
 11.92\H,17.11,24.4,12.96\O,15.58,14.78,26.43\H,14.96,14.16,26.04\H,15.
 92,15.27,25.68\O,13.77,24.76,24.83\H,14.45,24.84,24.16\H,13.96,23.93,2
 5.28\O,26.15,22.69,13.71\H,26.39,22.54,12.8\H,25.54,21.98,13.92\O,13.9
 9,26.26,20.05\H,14.77,26.65,19.64\H,13.26,26.59,19.52\O,27.06,25.97,20
 .6\H,27.01,26.34,21.48\H,26.77,25.06,20.71\O,23.6,21.62,27.57\H,23.78,
 22.48,27.19\H,23.36,21.81,28.48\O,23.16,13.31,14.33\H,23.3,14.08,14.88
 \H,22.79,13.67,13.52\O,22.,27.15,24.36\H,21.53,27.98,24.25\H,22.89,27.
 34,24.07\O,11.73,22.72,18.87\H,11.3,22.07,19.42\H,12.07,23.37,19.48\O,
 12.4,24.44,20.89\H,13.02,25.14,20.68\H,11.56,24.89,20.96\O,21.5,24.57,
 11.67\H,21.8,25.4,12.03\H,21.06,24.13,12.4\O,12.22,15.58,17.82\H,12.58
 ,15.52,18.7\H,12.15,14.67,17.52\O,15.98,12.98,23.38\H,16.05,12.24,22.7
 8\H,16.46,12.7,24.16\O,21.93,20.65,10.64\H,21.45,21.41,10.96\H,22.15,2
 0.16,11.44\O,10.95,22.04,22.42\H,11.01,21.62,21.56\H,11.85,22.02,22.76
 \O,12.76,17.39,15.56\H,12.9,16.62,15.01\H,12.38,17.04,16.37\O,21.32,17
 .,29.17\H,20.78,17.24,28.42\H,22.17,17.42,29.\O,20.21,25.93,27.44\H,20
 .18,25.52,28.3\H,19.42,25.62,26.99\O,25.52,14.91,25.97\H,25.46,14.91,2
 5.02\H,24.7,15.31,26.26\O,26.58,14.33,22.42\H,26.57,13.4,22.19\H,27.44
 ,14.64,22.15\O,14.75,12.89,16.52\H,14.84,12.48,17.38\H,15.65,13.02,16.
 21\O,14.05,23.65,13.32\H,14.04,23.99,14.22\H,14.92,23.25,13.24\O,19.71
 ,10.84,23.84\H,20.67,10.85,23.85\H,19.47,11.55,23.24\O,16.12,24.96,27.
 23\H,16.8,24.36,27.56\H,16.52,25.36,26.46\O,19.96,11.08,18.12\H,19.84,
 11.35,17.21\H,20.43,10.25,18.06\O,28.9,16.11,21.58\H,29.63,16.21,22.18
 \H,28.43,16.94,21.62\O,29.5,18.14,18.06\H,28.89,18.04,18.8\H,30.36,17.
 97,18.44\O,15.94,17.32,12.2\H,15.56,17.59,11.37\H,15.77,16.38,12.25\O,
 15.29,20.78,12.14\H,14.53,20.4,12.59\H,15.66,20.05,11.64\O,10.66,17.63
 ,17.54\H,11.14,18.09,18.23\H,10.8,16.7,17.73\O,12.74,22.58,26.62\H,11.
 99,22.01,26.74\H,13.27,22.15,25.95\O,20.01,11.67,15.51\H,19.79,12.33,1
 4.85\H,20.93,11.81,15.7\O,19.14,23.94,29.2\H,19.89,23.45,29.55\H,18.75
 ,23.35,28.55\O,29.69,21.17,20.89\H,29.2,20.37,21.1\H,30.42,21.17,21.51
 \O,28.95,19.91,24.85\H,28.55,20.6,25.38\H,28.26,19.64,24.24\O,24.4,27.
 42,23.51\H,25.06,27.06,24.09\H,24.83,28.17,23.1\\Version=ES64L-G09RevE
 .01\HF=-9773.3212147\RMSD=1.679e-09\RMSF=1.023e-02\Dipole=-0.1472757,-
 7.8541692,-14.3803384\Quadrupole=514.4927906,46.4182826,-560.9110732,-
 1615.8374515,-1904.9407365,-2241.1641121\PG=C01 [X(Br1H256O128)]\\@


 I HAVE NOT FAILED, I HAVE ONLY DISCOVERED 10,000
 WAYS THAT DIDN'T WORK.  -- THOMAS A. EDISON
 Job cpu time:       6 days 10 hours 49 minutes  2.8 seconds.
 File lengths (MBytes):  RWF=   7285 Int=      0 D2E=      0 Chk=   2411 Scr=      1
 Normal termination of Gaussian 09 at Sun May  6 05:12:10 2018.
