 Entering Gaussian System, Link 0=/cm/shared/gaussian/g09.e01/intel64-sandybridge/g09/g09
 Initial command:
 /cm/shared/gaussian/g09.e01/intel64-sandybridge/g09/l1.exe "/local/scratch/m.peluso/128_wat/370/Gau-62447.inp" -scrdir="/local/scratch/m.peluso/128_wat/370/"
 Entering Link 1 = /cm/shared/gaussian/g09.e01/intel64-sandybridge/g09/l1.exe PID=     62448.
  
 Copyright (c) 1988,1990,1992,1993,1995,1998,2003,2009,2015,
            Gaussian, Inc.  All Rights Reserved.
  
 This is part of the Gaussian(R) 09 program.  It is based on
 the Gaussian(R) 03 system (copyright 2003, Gaussian, Inc.),
 the Gaussian(R) 98 system (copyright 1998, Gaussian, Inc.),
 the Gaussian(R) 94 system (copyright 1995, Gaussian, Inc.),
 the Gaussian 92(TM) system (copyright 1992, Gaussian, Inc.),
 the Gaussian 90(TM) system (copyright 1990, Gaussian, Inc.),
 the Gaussian 88(TM) system (copyright 1988, Gaussian, Inc.),
 the Gaussian 86(TM) system (copyright 1986, Carnegie Mellon
 University), and the Gaussian 82(TM) system (copyright 1983,
 Carnegie Mellon University). Gaussian is a federally registered
 trademark of Gaussian, Inc.
  
 This software contains proprietary and confidential information,
 including trade secrets, belonging to Gaussian, Inc.
  
 This software is provided under written license and may be
 used, copied, transmitted, or stored only in accord with that
 written license.
  
 The following legend is applicable only to US Government
 contracts under FAR:
  
                    RESTRICTED RIGHTS LEGEND
  
 Use, reproduction and disclosure by the US Government is
 subject to restrictions as set forth in subparagraphs (a)
 and (c) of the Commercial Computer Software - Restricted
 Rights clause in FAR 52.227-19.
  
 Gaussian, Inc.
 340 Quinnipiac St., Bldg. 40, Wallingford CT 06492
  
  
 ---------------------------------------------------------------
 Warning -- This program may not be used in any manner that
 competes with the business of Gaussian, Inc. or will provide
 assistance to any competitor of Gaussian, Inc.  The licensee
 of this program is prohibited from giving any competitor of
 Gaussian, Inc. access to this program.  By using this program,
 the user acknowledges that Gaussian, Inc. is engaged in the
 business of creating and licensing software in the field of
 computational chemistry and represents and warrants to the
 licensee that it is not a competitor of Gaussian, Inc. and that
 it will not use this program in any manner prohibited above.
 ---------------------------------------------------------------
  

 Cite this work as:
 Gaussian 09, Revision E.01,
 M. J. Frisch, G. W. Trucks, H. B. Schlegel, G. E. Scuseria, 
 M. A. Robb, J. R. Cheeseman, G. Scalmani, V. Barone, B. Mennucci, 
 G. A. Petersson, H. Nakatsuji, M. Caricato, X. Li, H. P. Hratchian, 
 A. F. Izmaylov, J. Bloino, G. Zheng, J. L. Sonnenberg, M. Hada, 
 M. Ehara, K. Toyota, R. Fukuda, J. Hasegawa, M. Ishida, T. Nakajima, 
 Y. Honda, O. Kitao, H. Nakai, T. Vreven, J. A. Montgomery, Jr., 
 J. E. Peralta, F. Ogliaro, M. Bearpark, J. J. Heyd, E. Brothers, 
 K. N. Kudin, V. N. Staroverov, T. Keith, R. Kobayashi, J. Normand, 
 K. Raghavachari, A. Rendell, J. C. Burant, S. S. Iyengar, J. Tomasi, 
 M. Cossi, N. Rega, J. M. Millam, M. Klene, J. E. Knox, J. B. Cross, 
 V. Bakken, C. Adamo, J. Jaramillo, R. Gomperts, R. E. Stratmann, 
 O. Yazyev, A. J. Austin, R. Cammi, C. Pomelli, J. W. Ochterski, 
 R. L. Martin, K. Morokuma, V. G. Zakrzewski, G. A. Voth, 
 P. Salvador, J. J. Dannenberg, S. Dapprich, A. D. Daniels, 
 O. Farkas, J. B. Foresman, J. V. Ortiz, J. Cioslowski, 
 and D. J. Fox, Gaussian, Inc., Wallingford CT, 2013.
 
 ******************************************
 Gaussian 09:  ES64L-G09RevE.01 30-Nov-2015
                 5-May-2018 
 ******************************************
 %Mem=110GB
 %NProcShared=64
 Will use up to   64 processors via shared memory.
 %chk=snap10.chk
 ----------------------------------------------
 #p PBE1PBE/cc-pvDZ force Counterpoise=2 noSymm
 ----------------------------------------------
 1/10=7,30=1,38=1,62=2/1,3;
 2/12=2,15=1,17=6,18=5,40=1/2;
 1/10=7,30=1,38=1,53=2,62=2,63=101/22;
 3/5=16,11=2,16=1,25=1,30=1,71=1,74=-13/1,2,3;
 4//1;
 5/5=2,38=5/2;
 6/7=2,8=2,9=2,10=2,28=1/1;
 7/7=1,29=1,30=1,33=-1/1,2,3,16;
 1/10=7,30=1,53=2,62=2,63=101/22;
 3/5=7,6=11,11=2,16=1,25=1,30=1,71=1,74=-13,82=7/1,2,3;
 4//1;
 5/5=2,38=5/2;
 6/7=2,8=2,9=2,10=2,28=1/1;
 7/7=1,29=1,30=1,33=-1/1,2,3,16;
 1/10=7,30=1,53=2,62=2,63=101/22(-5);
 7/9=1,29=1,44=-1/16;
 1/10=7,30=1,62=2/3;
 99//99;
 Leave Link    1 at Sat May  5 22:23:22 2018, MaxMem= 14763950080 cpu:         7.9
 (Enter /cm/shared/gaussian/g09.e01/intel64-sandybridge/g09/l101.exe)
 ---------------------------------------
 forces on chloride comput - NWATER: 128
 ---------------------------------------
 Symbolic Z-matrix:
 Charge = -1 Multiplicity = 1 in supermolecule
 Charge = -1 Multiplicity = 1 in fragment      1.
 Charge =  0 Multiplicity = 1 in fragment      2.
 Br(Fragment=1)        20.       20.       20. 
 O(Fragment=2)         17.13     20.14     18.99 
 H(Fragment=2)         16.87     20.93     19.47 
 H(Fragment=2)         18.08     20.1      19.09 
 O(Fragment=2)         21.06     20.2      23.13 
 H(Fragment=2)         20.84     20.24     22.2 
 H(Fragment=2)         20.21     20.1      23.57 
 O(Fragment=2)         17.7      19.24     22.26 
 H(Fragment=2)         17.58     19.89     22.96 
 H(Fragment=2)         18.25     19.69     21.61 
 O(Fragment=2)         21.08     23.19     20.6 
 H(Fragment=2)         20.79     22.35     20.24 
 H(Fragment=2)         20.33     23.76     20.51 
 O(Fragment=2)         20.54     17.34     17.94 
 H(Fragment=2)         20.12     18.15     18.24 
 H(Fragment=2)         20.03     17.08     17.17 
 O(Fragment=2)         21.1      21.91     17.14 
 H(Fragment=2)         21.76     21.37     16.69 
 H(Fragment=2)         20.84     21.38     17.9 
 O(Fragment=2)         21.22     16.8      20.99 
 H(Fragment=2)         21.73     16.44     20.26 
 H(Fragment=2)         20.49     17.26     20.58 
 O(Fragment=2)         23.58     22.74     19.13 
 H(Fragment=2)         22.97     22.05     18.87 
 H(Fragment=2)         23.09     23.28     19.75 
 O(Fragment=2)         24.6      20.08     20.79 
 H(Fragment=2)         23.79     19.88     20.33 
 H(Fragment=2)         24.72     19.35     21.4 
 O(Fragment=2)         18.03     20.99     15.82 
 H(Fragment=2)         18.27     21.89     15.6 
 H(Fragment=2)         18.2      20.92     16.76 
 O(Fragment=2)         16.5      17.69     20.06 
 H(Fragment=2)         16.67     17.84     20.99 
 H(Fragment=2)         16.43     18.57     19.68 
 O(Fragment=2)         23.39     22.13     22.58 
 H(Fragment=2)         22.49     21.96     22.32 
 H(Fragment=2)         23.92     21.82     21.84 
 O(Fragment=2)         17.89     18.26     16.6 
 H(Fragment=2)         17.45     18.88     17.18 
 H(Fragment=2)         18.3      18.81     15.93 
 O(Fragment=2)         16.54     22.48     20.33 
 H(Fragment=2)         15.81     22.07     20.79 
 H(Fragment=2)         17.17     22.69     21.01 
 O(Fragment=2)         18.72     23.58     22.15 
 H(Fragment=2)         19.38     23.52     22.84 
 H(Fragment=2)         18.43     24.49     22.16 
 O(Fragment=2)         22.41     16.62     23.52 
 H(Fragment=2)         23.17     17.21     23.52 
 H(Fragment=2)         21.94     16.85     22.71 
 O(Fragment=2)         22.71     19.9      16.15 
 H(Fragment=2)         22.66     19.26     15.43 
 H(Fragment=2)         23.63     19.87     16.42 
 O(Fragment=2)         14.96     20.87     17.56 
 H(Fragment=2)         15.02     20.48     16.69 
 H(Fragment=2)         15.73     20.54     18.02 
 O(Fragment=2)         17.51     21.51     23.88 
 H(Fragment=2)         17.3      21.66     24.8 
 H(Fragment=2)         17.75     22.37     23.55 
 O(Fragment=2)         16.09     23.36     17.86 
 H(Fragment=2)         15.49     22.63     17.71 
 H(Fragment=2)         16.46     23.19     18.73 
 O(Fragment=2)         22.6      15.82     16.9 
 H(Fragment=2)         23.24     15.87     17.61 
 H(Fragment=2)         21.91     16.43     17.16 
 O(Fragment=2)         21.52     24.68     16.84 
 H(Fragment=2)         21.43     25.2      17.64 
 H(Fragment=2)         21.75     23.81     17.15 
 O(Fragment=2)         17.35     15.13     18.76 
 H(Fragment=2)         17.01     15.99     19. 
 H(Fragment=2)         17.23     15.09     17.81 
 O(Fragment=2)         17.05     16.61     23.85 
 H(Fragment=2)         16.64     15.95     23.3 
 H(Fragment=2)         17.11     17.39     23.3 
 O(Fragment=2)         18.83     23.67     15.65 
 H(Fragment=2)         19.43     23.6      16.39 
 H(Fragment=2)         19.23     24.31     15.07 
 O(Fragment=2)         25.42     19.85     17.67 
 H(Fragment=2)         26.36     19.84     17.84 
 H(Fragment=2)         25.02     19.95     18.54 
 O(Fragment=2)         19.44     14.11     21.07 
 H(Fragment=2)         18.69     14.42     20.56 
 H(Fragment=2)         19.96     14.9      21.24 
 O(Fragment=2)         20.54     21.52     14.16 
 H(Fragment=2)         21.23     21.86     14.73 
 H(Fragment=2)         20.25     20.71     14.58 
 O(Fragment=2)         20.26     23.37     24.33 
 H(Fragment=2)         21.12     23.68     24.05 
 H(Fragment=2)         20.25     23.5      25.28 
 O(Fragment=2)         20.87     19.18     25.97 
 H(Fragment=2)         20.6      18.33     25.61 
 H(Fragment=2)         21.52     19.51     25.34 
 O(Fragment=2)         24.75     18.2      23.09 
 H(Fragment=2)         24.22     18.9      23.48 
 H(Fragment=2)         25.64     18.39     23.38 
 O(Fragment=2)         20.53     25.92     18.96 
 H(Fragment=2)         20.39     25.6      19.85 
 H(Fragment=2)         20.97     26.76     19.06 
 O(Fragment=2)         18.43     15.62     15.48 
 H(Fragment=2)         18.9      15.83     14.67 
 H(Fragment=2)         18.28     16.47     15.89 
 O(Fragment=2)         19.72     18.76     14.34 
 H(Fragment=2)         20.65     18.51     14.37 
 H(Fragment=2)         19.51     18.75     13.41 
 O(Fragment=2)         24.16     20.73     24.75 
 H(Fragment=2)         23.87     21.39     24.12 
 H(Fragment=2)         25.11     20.68     24.62 
 O(Fragment=2)         24.07     15.98     18.91 
 H(Fragment=2)         24.16     15.25     19.53 
 H(Fragment=2)         24.96     16.14     18.6 
 O(Fragment=2)         15.04     21.75     22.52 
 H(Fragment=2)         14.46     20.99     22.51 
 H(Fragment=2)         15.52     21.68     23.34 
 O(Fragment=2)         22.84     25.19     23.35 
 H(Fragment=2)         22.6      24.53     22.69 
 H(Fragment=2)         23.67     24.87     23.72 
 O(Fragment=2)         26.51     22.23     19.68 
 H(Fragment=2)         25.57     22.26     19.47 
 H(Fragment=2)         26.53     22.08     20.63 
 O(Fragment=2)         12.83     21.       19.59 
 H(Fragment=2)         12.88     20.32     20.26 
 H(Fragment=2)         13.74     21.14     19.34 
 O(Fragment=2)         19.24     14.69     24.23 
 H(Fragment=2)         19.35     13.94     23.64 
 H(Fragment=2)         18.44     15.12     23.92 
 O(Fragment=2)         14.02     24.05     21.15 
 H(Fragment=2)         14.16     23.51     21.92 
 H(Fragment=2)         14.85     24.       20.67 
 O(Fragment=2)         13.34     19.24     21.91 
 H(Fragment=2)         13.94     18.51     22.07 
 H(Fragment=2)         12.53     18.97     22.33 
 O(Fragment=2)         18.98     12.93     18.3 
 H(Fragment=2)         18.26     12.32     18.44 
 H(Fragment=2)         18.57     13.8      18.34 
 O(Fragment=2)         27.43     19.86     21.18 
 H(Fragment=2)         26.48     19.78     21.25 
 H(Fragment=2)         27.57     20.5      20.48 
 O(Fragment=2)         15.21     15.99     15.79 
 H(Fragment=2)         15.73     16.75     16.05 
 H(Fragment=2)         14.31     16.24     15.99 
 O(Fragment=2)         16.33     25.58     20.44 
 H(Fragment=2)         16.04     26.01     19.64 
 H(Fragment=2)         17.16     26.02     20.66 
 O(Fragment=2)         24.94     25.36     18.23 
 H(Fragment=2)         24.76     24.42     18.22 
 H(Fragment=2)         24.81     25.64     17.32 
 O(Fragment=2)         16.47     19.37     13.38 
 H(Fragment=2)         17.22     19.72     13.86 
 H(Fragment=2)         16.73     18.49     13.13 
 O(Fragment=2)         20.38     16.29     26.52 
 H(Fragment=2)         20.07     16.09     25.63 
 H(Fragment=2)         21.23     15.85     26.58 
 O(Fragment=2)         22.32     17.63     13.87 
 H(Fragment=2)         22.93     17.63     13.13 
 H(Fragment=2)         22.63     16.93     14.44 
 O(Fragment=2)         16.44     25.13     15.7 
 H(Fragment=2)         16.31     24.65     16.52 
 H(Fragment=2)         17.03     24.57     15.19 
 O(Fragment=2)         18.69     26.97     17.08 
 H(Fragment=2)         19.02     27.11     16.19 
 H(Fragment=2)         19.4      26.51     17.53 
 O(Fragment=2)         25.94     20.07     14.99 
 H(Fragment=2)         25.73     20.14     15.92 
 H(Fragment=2)         25.15     20.38     14.54 
 O(Fragment=2)         21.26     13.01     16.9 
 H(Fragment=2)         21.74     13.82     17.09 
 H(Fragment=2)         20.58     12.97     17.57 
 O(Fragment=2)         22.06     12.51     20.19 
 H(Fragment=2)         21.27     13.03     20.08 
 H(Fragment=2)         22.72     13.13     20.49 
 O(Fragment=2)         18.62     26.78     21.74 
 H(Fragment=2)         19.51     27.12     21.7 
 H(Fragment=2)         18.06     27.55     21.6 
 O(Fragment=2)         14.8      15.11     21.06 
 H(Fragment=2)         14.46     15.63     21.79 
 H(Fragment=2)         14.4      15.5      20.28 
 O(Fragment=2)         16.29     14.1      23.1 
 H(Fragment=2)         16.06     14.34     22.21 
 H(Fragment=2)         15.48     13.76     23.48 
 O(Fragment=2)         22.31     14.58     25.76 
 H(Fragment=2)         22.08     13.66     25.62 
 H(Fragment=2)         22.21     14.99     24.9 
 O(Fragment=2)         14.22     19.71     15.19 
 H(Fragment=2)         14.98     19.82     14.62 
 H(Fragment=2)         13.62     19.15     14.68 
 O(Fragment=2)         16.5      24.95     24.36 
 H(Fragment=2)         15.99     25.53     23.79 
 H(Fragment=2)         15.85     24.33     24.7 
 O(Fragment=2)         26.79     16.77     17.59 
 H(Fragment=2)         27.34     17.31     18.15 
 H(Fragment=2)         26.39     17.4      16.98 
 O(Fragment=2)         22.07     14.79     14.12 
 H(Fragment=2)         21.24     15.24     14. 
 H(Fragment=2)         22.19     14.74     15.07 
 O(Fragment=2)         20.51     21.77     28.12 
 H(Fragment=2)         20.18     22.49     27.57 
 H(Fragment=2)         20.59     21.03     27.51 
 O(Fragment=2)         13.89     16.67     23.1 
 H(Fragment=2)         13.79     17.15     23.92 
 H(Fragment=2)         13.23     15.98     23.14 
 O(Fragment=2)         23.23     17.55     27.39 
 H(Fragment=2)         22.51     17.22     27.93 
 H(Fragment=2)         22.99     17.32     26.49 
 O(Fragment=2)         14.91     19.38     25.91 
 H(Fragment=2)         14.82     20.28     26.23 
 H(Fragment=2)         15.73     19.08     26.29 
 O(Fragment=2)         20.4      23.83     12.3 
 H(Fragment=2)         20.54     23.16     12.97 
 H(Fragment=2)         19.67     23.5      11.78 
 O(Fragment=2)         16.95     12.13     20.42 
 H(Fragment=2)         17.23     12.82     21.02 
 H(Fragment=2)         17.6      11.43     20.53 
 O(Fragment=2)         23.82     20.46     13.11 
 H(Fragment=2)         23.4      19.89     12.46 
 H(Fragment=2)         23.93     21.29     12.65 
 O(Fragment=2)         25.26     20.32     27.09 
 H(Fragment=2)         24.86     20.26     26.23 
 H(Fragment=2)         26.09     20.77     26.94 
 O(Fragment=2)         25.87     25.89     20.73 
 H(Fragment=2)         25.32     25.85     19.95 
 H(Fragment=2)         26.03     26.82     20.87 
 O(Fragment=2)         16.14     27.36     18.33 
 H(Fragment=2)         15.81     27.82     17.56 
 H(Fragment=2)         17.04     27.14     18.11 
 O(Fragment=2)         18.28     21.41     11.58 
 H(Fragment=2)         18.77     20.81     12.14 
 H(Fragment=2)         18.78     21.42     10.76 
 O(Fragment=2)         24.96     13.72     20.6 
 H(Fragment=2)         25.52     14.13     21.27 
 H(Fragment=2)         25.52     13.06     20.19 
 O(Fragment=2)         19.36     16.03     13.04 
 H(Fragment=2)         19.25     15.32     12.41 
 H(Fragment=2)         19.15     16.83     12.55 
 O(Fragment=2)         12.17     21.68     16.57 
 H(Fragment=2)         12.62     21.96     15.78 
 H(Fragment=2)         12.63     20.89     16.85 
 O(Fragment=2)         15.89     15.33     26.48 
 H(Fragment=2)         16.07     15.7      25.61 
 H(Fragment=2)         16.68     14.82     26.68 
 O(Fragment=2)         21.15     27.83     21.87 
 H(Fragment=2)         21.45     28.59     21.37 
 H(Fragment=2)         21.94     27.51     22.31 
 O(Fragment=2)         20.73     18.87     28.76 
 H(Fragment=2)         21.17     19.2      27.98 
 H(Fragment=2)         20.1      18.24     28.43 
 O(Fragment=2)         15.4      22.86     26.06 
 H(Fragment=2)         15.18     23.03     26.98 
 H(Fragment=2)         14.55     22.71     25.64 
 O(Fragment=2)         26.81     20.32     24.43 
 H(Fragment=2)         27.23     21.16     24.24 
 H(Fragment=2)         27.52     19.75     24.7 
 O(Fragment=2)         22.56     26.59     14.46 
 H(Fragment=2)         21.61     26.71     14.39 
 H(Fragment=2)         22.67     26.02     15.22 
 O(Fragment=2)         20.18     24.38     26.86 
 H(Fragment=2)         20.74     25.14     26.69 
 H(Fragment=2)         19.31     24.75     27. 
 O(Fragment=2)         15.15     26.69     22.93 
 H(Fragment=2)         15.58     27.48     23.24 
 H(Fragment=2)         15.58     26.51     22.09 
 O(Fragment=2)         26.16     24.73     24.11 
 H(Fragment=2)         26.97     25.13     23.82 
 H(Fragment=2)         26.21     23.83     23.8 
 O(Fragment=2)         13.32     25.04     16.45 
 H(Fragment=2)         12.74     24.89     17.19 
 H(Fragment=2)         14.2      25.06     16.84 
 O(Fragment=2)         19.9      25.82     14.05 
 H(Fragment=2)         20.22     25.16     13.43 
 H(Fragment=2)         19.46     26.47     13.5 
 O(Fragment=2)         19.4      28.13     24.3 
 H(Fragment=2)         19.13     27.31     23.89 
 H(Fragment=2)         19.34     27.96     25.24 
 O(Fragment=2)         28.34     18.24     19.08 
 H(Fragment=2)         28.27     18.65     19.94 
 H(Fragment=2)         29.22     17.87     19.06 
 O(Fragment=2)         25.69     14.54     23.36 
 H(Fragment=2)         24.91     13.99     23.27 
 H(Fragment=2)         25.53     15.06     24.15 
 O(Fragment=2)         12.28     24.09     18.9 
 H(Fragment=2)         12.3      23.15     18.69 
 H(Fragment=2)         12.62     24.15     19.79 
 O(Fragment=2)         13.57     17.11     25.77 
 H(Fragment=2)         14.14     17.88     25.71 
 H(Fragment=2)         14.07     16.48     26.28 
 O(Fragment=2)         18.66     18.7      11.71 
 H(Fragment=2)         19.29     18.5      11.02 
 H(Fragment=2)         17.85     18.91     11.24 
 O(Fragment=2)         16.68     13.45     14.44 
 H(Fragment=2)         17.03     14.34     14.39 
 H(Fragment=2)         17.45     12.9      14.6 
 O(Fragment=2)         21.36     28.39     18.65 
 H(Fragment=2)         21.99     28.48     17.93 
 H(Fragment=2)         21.26     29.28     19. 
 O(Fragment=2)         18.24     13.83     26.91 
 H(Fragment=2)         18.78     14.08     26.15 
 H(Fragment=2)         17.97     12.93     26.73 
 O(Fragment=2)         12.29     15.83     19.73 
 H(Fragment=2)         11.62     15.47     19.15 
 H(Fragment=2)         12.       16.73     19.9 
 O(Fragment=2)         18.18     16.23     28.3 
 H(Fragment=2)         17.6      15.48     28.27 
 H(Fragment=2)         18.83     16.06     27.63 
 O(Fragment=2)         28.07     24.39     18.73 
 H(Fragment=2)         27.42     25.02     18.42 
 H(Fragment=2)         27.7      24.03     19.54 
 O(Fragment=2)         14.8      16.54     12.94 
 H(Fragment=2)         14.34     17.36     13.1 
 H(Fragment=2)         15.11     16.26     13.81 
 O(Fragment=2)         21.65     26.71     25.96 
 H(Fragment=2)         21.2      26.99     25.16 
 H(Fragment=2)         22.56     26.98     25.82 
 O(Fragment=2)         11.34     18.41     17.92 
 H(Fragment=2)         10.67     18.89     17.43 
 H(Fragment=2)         11.39     18.87     18.76 
 O(Fragment=2)         27.95     22.76     22.5 
 H(Fragment=2)         28.63     23.15     21.96 
 H(Fragment=2)         28.21     22.95     23.4 
 O(Fragment=2)         19.05     11.63     15.19 
 H(Fragment=2)         19.4      12.29     15.79 
 H(Fragment=2)         19.82     11.23     14.8 
 O(Fragment=2)         12.55     16.19     16.72 
 H(Fragment=2)         11.85     15.71     17.17 
 H(Fragment=2)         12.28     17.1      16.77 
 O(Fragment=2)         17.79     25.68     26.96 
 H(Fragment=2)         17.09     25.45     26.35 
 H(Fragment=2)         17.34     25.86     27.79 
 O(Fragment=2)         28.08     22.18     15.2 
 H(Fragment=2)         27.36     21.55     15.25 
 H(Fragment=2)         27.97     22.61     14.35 
 O(Fragment=2)         13.48     13.73     18.38 
 H(Fragment=2)         13.19     14.34     19.06 
 H(Fragment=2)         13.3      14.19     17.56 
 O(Fragment=2)         25.76     14.38     14.94 
 H(Fragment=2)         25.16     15.07     14.65 
 H(Fragment=2)         25.36     13.57     14.62 
 O(Fragment=2)         17.76     12.       24.25 
 H(Fragment=2)         17.33     11.49     24.93 
 H(Fragment=2)         17.06     12.5      23.83 
 O(Fragment=2)         28.62     20.11     16.95 
 H(Fragment=2)         28.93     21.01     17.11 
 H(Fragment=2)         28.72     19.68     17.8 
 O(Fragment=2)         26.25     18.13     12.88 
 H(Fragment=2)         26.19     18.79     13.58 
 H(Fragment=2)         26.74     17.41     13.27 
 O(Fragment=2)         17.26     20.88     28.68 
 H(Fragment=2)         17.26     21.77     29.03 
 H(Fragment=2)         18.15     20.56     28.82 
 O(Fragment=2)         23.03     24.68     12.53 
 H(Fragment=2)         23.21     25.5      12.98 
 H(Fragment=2)         22.07     24.64     12.48 
 O(Fragment=2)         12.64     22.54     24.69 
 H(Fragment=2)         12.18     21.71     24.78 
 H(Fragment=2)         11.95     23.17     24.49 
 O(Fragment=2)         15.48     27.46     15.05 
 H(Fragment=2)         14.6      27.24     14.75 
 H(Fragment=2)         15.85     26.62     15.33 
 O(Fragment=2)         24.25     27.01     25.3 
 H(Fragment=2)         25.04     27.42     25.62 
 H(Fragment=2)         24.55     26.21     24.87 
 O(Fragment=2)         26.14     13.64     17.43 
 H(Fragment=2)         25.98     14.01     16.56 
 H(Fragment=2)         26.9      14.11     17.76 
 O(Fragment=2)         12.09     26.08     21.57 
 H(Fragment=2)         12.72     25.38     21.42 
 H(Fragment=2)         11.51     25.75     22.25 
 O(Fragment=2)         25.15     15.19     25.91 
 H(Fragment=2)         25.45     15.49     26.77 
 H(Fragment=2)         24.34     14.71     26.1 
 O(Fragment=2)         22.84     22.35     11.4 
 H(Fragment=2)         22.42     22.63     10.59 
 H(Fragment=2)         22.96     23.15     11.91 
 O(Fragment=2)         14.28     12.16     20.79 
 H(Fragment=2)         13.93     12.85     20.21 
 H(Fragment=2)         15.22     12.14     20.6 
 O(Fragment=2)         13.99     23.55     13.68 
 H(Fragment=2)         14.69     23.89     13.12 
 H(Fragment=2)         13.94     24.17     14.4 
 O(Fragment=2)         26.62     25.11     15.52 
 H(Fragment=2)         27.25     24.64     16.06 
 H(Fragment=2)         26.3      24.45     14.9 
 O(Fragment=2)         29.06     17.51     23.03 
 H(Fragment=2)         29.28     17.8      23.92 
 H(Fragment=2)         28.76     18.3      22.59 
 O(Fragment=2)         15.4      11.71     17.71 
 H(Fragment=2)         14.8      12.42     17.93 
 H(Fragment=2)         16.04     11.71     18.43 
 
 NAtoms=    385 NQM=      385 NQMF=       0 NMMI=      0 NMMIF=      0
                NMic=       0 NMicF=      0.
                    Isotopes and Nuclear Properties:
 (Nuclear quadrupole moments (NQMom) in fm**2, nuclear magnetic moments (NMagM)
  in nuclear magnetons)

  Atom         1           2           3           4           5           6           7           8           9          10
 IAtWgt=          79          16           1           1          16           1           1          16           1           1
 AtmWgt=  78.9183361  15.9949146   1.0078250   1.0078250  15.9949146   1.0078250   1.0078250  15.9949146   1.0078250   1.0078250
 NucSpn=           3           0           1           1           0           1           1           0           1           1
 AtZEff=   0.0000000   0.0000000   0.0000000   0.0000000   0.0000000   0.0000000   0.0000000   0.0000000   0.0000000   0.0000000
 NQMom=   31.3000000   0.0000000   0.0000000   0.0000000   0.0000000   0.0000000   0.0000000   0.0000000   0.0000000   0.0000000
 NMagM=    2.1063990   0.0000000   2.7928460   2.7928460   0.0000000   2.7928460   2.7928460   0.0000000   2.7928460   2.7928460
 AtZNuc=  35.0000000   8.0000000   1.0000000   1.0000000   8.0000000   1.0000000   1.0000000   8.0000000   1.0000000   1.0000000

  Atom        11          12          13          14          15          16          17          18          19          20
 IAtWgt=          16           1           1          16           1           1          16           1           1          16
 AtmWgt=  15.9949146   1.0078250   1.0078250  15.9949146   1.0078250   1.0078250  15.9949146   1.0078250   1.0078250  15.9949146
 NucSpn=           0           1           1           0           1           1           0           1           1           0
 AtZEff=   0.0000000   0.0000000   0.0000000   0.0000000   0.0000000   0.0000000   0.0000000   0.0000000   0.0000000   0.0000000
 NQMom=    0.0000000   0.0000000   0.0000000   0.0000000   0.0000000   0.0000000   0.0000000   0.0000000   0.0000000   0.0000000
 NMagM=    0.0000000   2.7928460   2.7928460   0.0000000   2.7928460   2.7928460   0.0000000   2.7928460   2.7928460   0.0000000
 AtZNuc=   8.0000000   1.0000000   1.0000000   8.0000000   1.0000000   1.0000000   8.0000000   1.0000000   1.0000000   8.0000000

  Atom        21          22          23          24          25          26          27          28          29          30
 IAtWgt=           1           1          16           1           1          16           1           1          16           1
 AtmWgt=   1.0078250   1.0078250  15.9949146   1.0078250   1.0078250  15.9949146   1.0078250   1.0078250  15.9949146   1.0078250
 NucSpn=           1           1           0           1           1           0           1           1           0           1
 AtZEff=   0.0000000   0.0000000   0.0000000   0.0000000   0.0000000   0.0000000   0.0000000   0.0000000   0.0000000   0.0000000
 NQMom=    0.0000000   0.0000000   0.0000000   0.0000000   0.0000000   0.0000000   0.0000000   0.0000000   0.0000000   0.0000000
 NMagM=    2.7928460   2.7928460   0.0000000   2.7928460   2.7928460   0.0000000   2.7928460   2.7928460   0.0000000   2.7928460
 AtZNuc=   1.0000000   1.0000000   8.0000000   1.0000000   1.0000000   8.0000000   1.0000000   1.0000000   8.0000000   1.0000000

  Atom        31          32          33          34          35          36          37          38          39          40
 IAtWgt=           1          16           1           1          16           1           1          16           1           1
 AtmWgt=   1.0078250  15.9949146   1.0078250   1.0078250  15.9949146   1.0078250   1.0078250  15.9949146   1.0078250   1.0078250
 NucSpn=           1           0           1           1           0           1           1           0           1           1
 AtZEff=   0.0000000   0.0000000   0.0000000   0.0000000   0.0000000   0.0000000   0.0000000   0.0000000   0.0000000   0.0000000
 NQMom=    0.0000000   0.0000000   0.0000000   0.0000000   0.0000000   0.0000000   0.0000000   0.0000000   0.0000000   0.0000000
 NMagM=    2.7928460   0.0000000   2.7928460   2.7928460   0.0000000   2.7928460   2.7928460   0.0000000   2.7928460   2.7928460
 AtZNuc=   1.0000000   8.0000000   1.0000000   1.0000000   8.0000000   1.0000000   1.0000000   8.0000000   1.0000000   1.0000000

  Atom        41          42          43          44          45          46          47          48          49          50
 IAtWgt=          16           1           1          16           1           1          16           1           1          16
 AtmWgt=  15.9949146   1.0078250   1.0078250  15.9949146   1.0078250   1.0078250  15.9949146   1.0078250   1.0078250  15.9949146
 NucSpn=           0           1           1           0           1           1           0           1           1           0
 AtZEff=   0.0000000   0.0000000   0.0000000   0.0000000   0.0000000   0.0000000   0.0000000   0.0000000   0.0000000   0.0000000
 NQMom=    0.0000000   0.0000000   0.0000000   0.0000000   0.0000000   0.0000000   0.0000000   0.0000000   0.0000000   0.0000000
 NMagM=    0.0000000   2.7928460   2.7928460   0.0000000   2.7928460   2.7928460   0.0000000   2.7928460   2.7928460   0.0000000
 AtZNuc=   8.0000000   1.0000000   1.0000000   8.0000000   1.0000000   1.0000000   8.0000000   1.0000000   1.0000000   8.0000000

  Atom        51          52          53          54          55          56          57          58          59          60
 IAtWgt=           1           1          16           1           1          16           1           1          16           1
 AtmWgt=   1.0078250   1.0078250  15.9949146   1.0078250   1.0078250  15.9949146   1.0078250   1.0078250  15.9949146   1.0078250
 NucSpn=           1           1           0           1           1           0           1           1           0           1
 AtZEff=   0.0000000   0.0000000   0.0000000   0.0000000   0.0000000   0.0000000   0.0000000   0.0000000   0.0000000   0.0000000
 NQMom=    0.0000000   0.0000000   0.0000000   0.0000000   0.0000000   0.0000000   0.0000000   0.0000000   0.0000000   0.0000000
 NMagM=    2.7928460   2.7928460   0.0000000   2.7928460   2.7928460   0.0000000   2.7928460   2.7928460   0.0000000   2.7928460
 AtZNuc=   1.0000000   1.0000000   8.0000000   1.0000000   1.0000000   8.0000000   1.0000000   1.0000000   8.0000000   1.0000000

  Atom        61          62          63          64          65          66          67          68          69          70
 IAtWgt=           1          16           1           1          16           1           1          16           1           1
 AtmWgt=   1.0078250  15.9949146   1.0078250   1.0078250  15.9949146   1.0078250   1.0078250  15.9949146   1.0078250   1.0078250
 NucSpn=           1           0           1           1           0           1           1           0           1           1
 AtZEff=   0.0000000   0.0000000   0.0000000   0.0000000   0.0000000   0.0000000   0.0000000   0.0000000   0.0000000   0.0000000
 NQMom=    0.0000000   0.0000000   0.0000000   0.0000000   0.0000000   0.0000000   0.0000000   0.0000000   0.0000000   0.0000000
 NMagM=    2.7928460   0.0000000   2.7928460   2.7928460   0.0000000   2.7928460   2.7928460   0.0000000   2.7928460   2.7928460
 AtZNuc=   1.0000000   8.0000000   1.0000000   1.0000000   8.0000000   1.0000000   1.0000000   8.0000000   1.0000000   1.0000000

  Atom        71          72          73          74          75          76          77          78          79          80
 IAtWgt=          16           1           1          16           1           1          16           1           1          16
 AtmWgt=  15.9949146   1.0078250   1.0078250  15.9949146   1.0078250   1.0078250  15.9949146   1.0078250   1.0078250  15.9949146
 NucSpn=           0           1           1           0           1           1           0           1           1           0
 AtZEff=   0.0000000   0.0000000   0.0000000   0.0000000   0.0000000   0.0000000   0.0000000   0.0000000   0.0000000   0.0000000
 NQMom=    0.0000000   0.0000000   0.0000000   0.0000000   0.0000000   0.0000000   0.0000000   0.0000000   0.0000000   0.0000000
 NMagM=    0.0000000   2.7928460   2.7928460   0.0000000   2.7928460   2.7928460   0.0000000   2.7928460   2.7928460   0.0000000
 AtZNuc=   8.0000000   1.0000000   1.0000000   8.0000000   1.0000000   1.0000000   8.0000000   1.0000000   1.0000000   8.0000000

  Atom        81          82          83          84          85          86          87          88          89          90
 IAtWgt=           1           1          16           1           1          16           1           1          16           1
 AtmWgt=   1.0078250   1.0078250  15.9949146   1.0078250   1.0078250  15.9949146   1.0078250   1.0078250  15.9949146   1.0078250
 NucSpn=           1           1           0           1           1           0           1           1           0           1
 AtZEff=   0.0000000   0.0000000   0.0000000   0.0000000   0.0000000   0.0000000   0.0000000   0.0000000   0.0000000   0.0000000
 NQMom=    0.0000000   0.0000000   0.0000000   0.0000000   0.0000000   0.0000000   0.0000000   0.0000000   0.0000000   0.0000000
 NMagM=    2.7928460   2.7928460   0.0000000   2.7928460   2.7928460   0.0000000   2.7928460   2.7928460   0.0000000   2.7928460
 AtZNuc=   1.0000000   1.0000000   8.0000000   1.0000000   1.0000000   8.0000000   1.0000000   1.0000000   8.0000000   1.0000000

  Atom        91          92          93          94          95          96          97          98          99         100
 IAtWgt=           1          16           1           1          16           1           1          16           1           1
 AtmWgt=   1.0078250  15.9949146   1.0078250   1.0078250  15.9949146   1.0078250   1.0078250  15.9949146   1.0078250   1.0078250
 NucSpn=           1           0           1           1           0           1           1           0           1           1
 AtZEff=   0.0000000   0.0000000   0.0000000   0.0000000   0.0000000   0.0000000   0.0000000   0.0000000   0.0000000   0.0000000
 NQMom=    0.0000000   0.0000000   0.0000000   0.0000000   0.0000000   0.0000000   0.0000000   0.0000000   0.0000000   0.0000000
 NMagM=    2.7928460   0.0000000   2.7928460   2.7928460   0.0000000   2.7928460   2.7928460   0.0000000   2.7928460   2.7928460
 AtZNuc=   1.0000000   8.0000000   1.0000000   1.0000000   8.0000000   1.0000000   1.0000000   8.0000000   1.0000000   1.0000000

  Atom       101         102         103         104         105         106         107         108         109         110
 IAtWgt=          16           1           1          16           1           1          16           1           1          16
 AtmWgt=  15.9949146   1.0078250   1.0078250  15.9949146   1.0078250   1.0078250  15.9949146   1.0078250   1.0078250  15.9949146
 NucSpn=           0           1           1           0           1           1           0           1           1           0
 AtZEff=   0.0000000   0.0000000   0.0000000   0.0000000   0.0000000   0.0000000   0.0000000   0.0000000   0.0000000   0.0000000
 NQMom=    0.0000000   0.0000000   0.0000000   0.0000000   0.0000000   0.0000000   0.0000000   0.0000000   0.0000000   0.0000000
 NMagM=    0.0000000   2.7928460   2.7928460   0.0000000   2.7928460   2.7928460   0.0000000   2.7928460   2.7928460   0.0000000
 AtZNuc=   8.0000000   1.0000000   1.0000000   8.0000000   1.0000000   1.0000000   8.0000000   1.0000000   1.0000000   8.0000000

  Atom       111         112         113         114         115         116         117         118         119         120
 IAtWgt=           1           1          16           1           1          16           1           1          16           1
 AtmWgt=   1.0078250   1.0078250  15.9949146   1.0078250   1.0078250  15.9949146   1.0078250   1.0078250  15.9949146   1.0078250
 NucSpn=           1           1           0           1           1           0           1           1           0           1
 AtZEff=   0.0000000   0.0000000   0.0000000   0.0000000   0.0000000   0.0000000   0.0000000   0.0000000   0.0000000   0.0000000
 NQMom=    0.0000000   0.0000000   0.0000000   0.0000000   0.0000000   0.0000000   0.0000000   0.0000000   0.0000000   0.0000000
 NMagM=    2.7928460   2.7928460   0.0000000   2.7928460   2.7928460   0.0000000   2.7928460   2.7928460   0.0000000   2.7928460
 AtZNuc=   1.0000000   1.0000000   8.0000000   1.0000000   1.0000000   8.0000000   1.0000000   1.0000000   8.0000000   1.0000000

  Atom       121         122         123         124         125         126         127         128         129         130
 IAtWgt=           1          16           1           1          16           1           1          16           1           1
 AtmWgt=   1.0078250  15.9949146   1.0078250   1.0078250  15.9949146   1.0078250   1.0078250  15.9949146   1.0078250   1.0078250
 NucSpn=           1           0           1           1           0           1           1           0           1           1
 AtZEff=   0.0000000   0.0000000   0.0000000   0.0000000   0.0000000   0.0000000   0.0000000   0.0000000   0.0000000   0.0000000
 NQMom=    0.0000000   0.0000000   0.0000000   0.0000000   0.0000000   0.0000000   0.0000000   0.0000000   0.0000000   0.0000000
 NMagM=    2.7928460   0.0000000   2.7928460   2.7928460   0.0000000   2.7928460   2.7928460   0.0000000   2.7928460   2.7928460
 AtZNuc=   1.0000000   8.0000000   1.0000000   1.0000000   8.0000000   1.0000000   1.0000000   8.0000000   1.0000000   1.0000000

  Atom       131         132         133         134         135         136         137         138         139         140
 IAtWgt=          16           1           1          16           1           1          16           1           1          16
 AtmWgt=  15.9949146   1.0078250   1.0078250  15.9949146   1.0078250   1.0078250  15.9949146   1.0078250   1.0078250  15.9949146
 NucSpn=           0           1           1           0           1           1           0           1           1           0
 AtZEff=   0.0000000   0.0000000   0.0000000   0.0000000   0.0000000   0.0000000   0.0000000   0.0000000   0.0000000   0.0000000
 NQMom=    0.0000000   0.0000000   0.0000000   0.0000000   0.0000000   0.0000000   0.0000000   0.0000000   0.0000000   0.0000000
 NMagM=    0.0000000   2.7928460   2.7928460   0.0000000   2.7928460   2.7928460   0.0000000   2.7928460   2.7928460   0.0000000
 AtZNuc=   8.0000000   1.0000000   1.0000000   8.0000000   1.0000000   1.0000000   8.0000000   1.0000000   1.0000000   8.0000000

  Atom       141         142         143         144         145         146         147         148         149         150
 IAtWgt=           1           1          16           1           1          16           1           1          16           1
 AtmWgt=   1.0078250   1.0078250  15.9949146   1.0078250   1.0078250  15.9949146   1.0078250   1.0078250  15.9949146   1.0078250
 NucSpn=           1           1           0           1           1           0           1           1           0           1
 AtZEff=   0.0000000   0.0000000   0.0000000   0.0000000   0.0000000   0.0000000   0.0000000   0.0000000   0.0000000   0.0000000
 NQMom=    0.0000000   0.0000000   0.0000000   0.0000000   0.0000000   0.0000000   0.0000000   0.0000000   0.0000000   0.0000000
 NMagM=    2.7928460   2.7928460   0.0000000   2.7928460   2.7928460   0.0000000   2.7928460   2.7928460   0.0000000   2.7928460
 AtZNuc=   1.0000000   1.0000000   8.0000000   1.0000000   1.0000000   8.0000000   1.0000000   1.0000000   8.0000000   1.0000000

  Atom       151         152         153         154         155         156         157         158         159         160
 IAtWgt=           1          16           1           1          16           1           1          16           1           1
 AtmWgt=   1.0078250  15.9949146   1.0078250   1.0078250  15.9949146   1.0078250   1.0078250  15.9949146   1.0078250   1.0078250
 NucSpn=           1           0           1           1           0           1           1           0           1           1
 AtZEff=   0.0000000   0.0000000   0.0000000   0.0000000   0.0000000   0.0000000   0.0000000   0.0000000   0.0000000   0.0000000
 NQMom=    0.0000000   0.0000000   0.0000000   0.0000000   0.0000000   0.0000000   0.0000000   0.0000000   0.0000000   0.0000000
 NMagM=    2.7928460   0.0000000   2.7928460   2.7928460   0.0000000   2.7928460   2.7928460   0.0000000   2.7928460   2.7928460
 AtZNuc=   1.0000000   8.0000000   1.0000000   1.0000000   8.0000000   1.0000000   1.0000000   8.0000000   1.0000000   1.0000000

  Atom       161         162         163         164         165         166         167         168         169         170
 IAtWgt=          16           1           1          16           1           1          16           1           1          16
 AtmWgt=  15.9949146   1.0078250   1.0078250  15.9949146   1.0078250   1.0078250  15.9949146   1.0078250   1.0078250  15.9949146
 NucSpn=           0           1           1           0           1           1           0           1           1           0
 AtZEff=   0.0000000   0.0000000   0.0000000   0.0000000   0.0000000   0.0000000   0.0000000   0.0000000   0.0000000   0.0000000
 NQMom=    0.0000000   0.0000000   0.0000000   0.0000000   0.0000000   0.0000000   0.0000000   0.0000000   0.0000000   0.0000000
 NMagM=    0.0000000   2.7928460   2.7928460   0.0000000   2.7928460   2.7928460   0.0000000   2.7928460   2.7928460   0.0000000
 AtZNuc=   8.0000000   1.0000000   1.0000000   8.0000000   1.0000000   1.0000000   8.0000000   1.0000000   1.0000000   8.0000000

  Atom       171         172         173         174         175         176         177         178         179         180
 IAtWgt=           1           1          16           1           1          16           1           1          16           1
 AtmWgt=   1.0078250   1.0078250  15.9949146   1.0078250   1.0078250  15.9949146   1.0078250   1.0078250  15.9949146   1.0078250
 NucSpn=           1           1           0           1           1           0           1           1           0           1
 AtZEff=   0.0000000   0.0000000   0.0000000   0.0000000   0.0000000   0.0000000   0.0000000   0.0000000   0.0000000   0.0000000
 NQMom=    0.0000000   0.0000000   0.0000000   0.0000000   0.0000000   0.0000000   0.0000000   0.0000000   0.0000000   0.0000000
 NMagM=    2.7928460   2.7928460   0.0000000   2.7928460   2.7928460   0.0000000   2.7928460   2.7928460   0.0000000   2.7928460
 AtZNuc=   1.0000000   1.0000000   8.0000000   1.0000000   1.0000000   8.0000000   1.0000000   1.0000000   8.0000000   1.0000000

  Atom       181         182         183         184         185         186         187         188         189         190
 IAtWgt=           1          16           1           1          16           1           1          16           1           1
 AtmWgt=   1.0078250  15.9949146   1.0078250   1.0078250  15.9949146   1.0078250   1.0078250  15.9949146   1.0078250   1.0078250
 NucSpn=           1           0           1           1           0           1           1           0           1           1
 AtZEff=   0.0000000   0.0000000   0.0000000   0.0000000   0.0000000   0.0000000   0.0000000   0.0000000   0.0000000   0.0000000
 NQMom=    0.0000000   0.0000000   0.0000000   0.0000000   0.0000000   0.0000000   0.0000000   0.0000000   0.0000000   0.0000000
 NMagM=    2.7928460   0.0000000   2.7928460   2.7928460   0.0000000   2.7928460   2.7928460   0.0000000   2.7928460   2.7928460
 AtZNuc=   1.0000000   8.0000000   1.0000000   1.0000000   8.0000000   1.0000000   1.0000000   8.0000000   1.0000000   1.0000000

  Atom       191         192         193         194         195         196         197         198         199         200
 IAtWgt=          16           1           1          16           1           1          16           1           1          16
 AtmWgt=  15.9949146   1.0078250   1.0078250  15.9949146   1.0078250   1.0078250  15.9949146   1.0078250   1.0078250  15.9949146
 NucSpn=           0           1           1           0           1           1           0           1           1           0
 AtZEff=   0.0000000   0.0000000   0.0000000   0.0000000   0.0000000   0.0000000   0.0000000   0.0000000   0.0000000   0.0000000
 NQMom=    0.0000000   0.0000000   0.0000000   0.0000000   0.0000000   0.0000000   0.0000000   0.0000000   0.0000000   0.0000000
 NMagM=    0.0000000   2.7928460   2.7928460   0.0000000   2.7928460   2.7928460   0.0000000   2.7928460   2.7928460   0.0000000
 AtZNuc=   8.0000000   1.0000000   1.0000000   8.0000000   1.0000000   1.0000000   8.0000000   1.0000000   1.0000000   8.0000000

  Atom       201         202         203         204         205         206         207         208         209         210
 IAtWgt=           1           1          16           1           1          16           1           1          16           1
 AtmWgt=   1.0078250   1.0078250  15.9949146   1.0078250   1.0078250  15.9949146   1.0078250   1.0078250  15.9949146   1.0078250
 NucSpn=           1           1           0           1           1           0           1           1           0           1
 AtZEff=   0.0000000   0.0000000   0.0000000   0.0000000   0.0000000   0.0000000   0.0000000   0.0000000   0.0000000   0.0000000
 NQMom=    0.0000000   0.0000000   0.0000000   0.0000000   0.0000000   0.0000000   0.0000000   0.0000000   0.0000000   0.0000000
 NMagM=    2.7928460   2.7928460   0.0000000   2.7928460   2.7928460   0.0000000   2.7928460   2.7928460   0.0000000   2.7928460
 AtZNuc=   1.0000000   1.0000000   8.0000000   1.0000000   1.0000000   8.0000000   1.0000000   1.0000000   8.0000000   1.0000000

  Atom       211         212         213         214         215         216         217         218         219         220
 IAtWgt=           1          16           1           1          16           1           1          16           1           1
 AtmWgt=   1.0078250  15.9949146   1.0078250   1.0078250  15.9949146   1.0078250   1.0078250  15.9949146   1.0078250   1.0078250
 NucSpn=           1           0           1           1           0           1           1           0           1           1
 AtZEff=   0.0000000   0.0000000   0.0000000   0.0000000   0.0000000   0.0000000   0.0000000   0.0000000   0.0000000   0.0000000
 NQMom=    0.0000000   0.0000000   0.0000000   0.0000000   0.0000000   0.0000000   0.0000000   0.0000000   0.0000000   0.0000000
 NMagM=    2.7928460   0.0000000   2.7928460   2.7928460   0.0000000   2.7928460   2.7928460   0.0000000   2.7928460   2.7928460
 AtZNuc=   1.0000000   8.0000000   1.0000000   1.0000000   8.0000000   1.0000000   1.0000000   8.0000000   1.0000000   1.0000000

  Atom       221         222         223         224         225         226         227         228         229         230
 IAtWgt=          16           1           1          16           1           1          16           1           1          16
 AtmWgt=  15.9949146   1.0078250   1.0078250  15.9949146   1.0078250   1.0078250  15.9949146   1.0078250   1.0078250  15.9949146
 NucSpn=           0           1           1           0           1           1           0           1           1           0
 AtZEff=   0.0000000   0.0000000   0.0000000   0.0000000   0.0000000   0.0000000   0.0000000   0.0000000   0.0000000   0.0000000
 NQMom=    0.0000000   0.0000000   0.0000000   0.0000000   0.0000000   0.0000000   0.0000000   0.0000000   0.0000000   0.0000000
 NMagM=    0.0000000   2.7928460   2.7928460   0.0000000   2.7928460   2.7928460   0.0000000   2.7928460   2.7928460   0.0000000
 AtZNuc=   8.0000000   1.0000000   1.0000000   8.0000000   1.0000000   1.0000000   8.0000000   1.0000000   1.0000000   8.0000000

  Atom       231         232         233         234         235         236         237         238         239         240
 IAtWgt=           1           1          16           1           1          16           1           1          16           1
 AtmWgt=   1.0078250   1.0078250  15.9949146   1.0078250   1.0078250  15.9949146   1.0078250   1.0078250  15.9949146   1.0078250
 NucSpn=           1           1           0           1           1           0           1           1           0           1
 AtZEff=   0.0000000   0.0000000   0.0000000   0.0000000   0.0000000   0.0000000   0.0000000   0.0000000   0.0000000   0.0000000
 NQMom=    0.0000000   0.0000000   0.0000000   0.0000000   0.0000000   0.0000000   0.0000000   0.0000000   0.0000000   0.0000000
 NMagM=    2.7928460   2.7928460   0.0000000   2.7928460   2.7928460   0.0000000   2.7928460   2.7928460   0.0000000   2.7928460
 AtZNuc=   1.0000000   1.0000000   8.0000000   1.0000000   1.0000000   8.0000000   1.0000000   1.0000000   8.0000000   1.0000000

  Atom       241         242         243         244         245         246         247         248         249         250
 IAtWgt=           1          16           1           1          16           1           1          16           1           1
 AtmWgt=   1.0078250  15.9949146   1.0078250   1.0078250  15.9949146   1.0078250   1.0078250  15.9949146   1.0078250   1.0078250
 NucSpn=           1           0           1           1           0           1           1           0           1           1
 AtZEff=   0.0000000   0.0000000   0.0000000   0.0000000   0.0000000   0.0000000   0.0000000   0.0000000   0.0000000   0.0000000
 NQMom=    0.0000000   0.0000000   0.0000000   0.0000000   0.0000000   0.0000000   0.0000000   0.0000000   0.0000000   0.0000000
 NMagM=    2.7928460   0.0000000   2.7928460   2.7928460   0.0000000   2.7928460   2.7928460   0.0000000   2.7928460   2.7928460
 AtZNuc=   1.0000000   8.0000000   1.0000000   1.0000000   8.0000000   1.0000000   1.0000000   8.0000000   1.0000000   1.0000000

  Atom       251         252         253         254         255         256         257         258         259         260
 IAtWgt=          16           1           1          16           1           1          16           1           1          16
 AtmWgt=  15.9949146   1.0078250   1.0078250  15.9949146   1.0078250   1.0078250  15.9949146   1.0078250   1.0078250  15.9949146
 NucSpn=           0           1           1           0           1           1           0           1           1           0
 AtZEff=   0.0000000   0.0000000   0.0000000   0.0000000   0.0000000   0.0000000   0.0000000   0.0000000   0.0000000   0.0000000
 NQMom=    0.0000000   0.0000000   0.0000000   0.0000000   0.0000000   0.0000000   0.0000000   0.0000000   0.0000000   0.0000000
 NMagM=    0.0000000   2.7928460   2.7928460   0.0000000   2.7928460   2.7928460   0.0000000   2.7928460   2.7928460   0.0000000
 AtZNuc=   8.0000000   1.0000000   1.0000000   8.0000000   1.0000000   1.0000000   8.0000000   1.0000000   1.0000000   8.0000000

  Atom       261         262         263         264         265         266         267         268         269         270
 IAtWgt=           1           1          16           1           1          16           1           1          16           1
 AtmWgt=   1.0078250   1.0078250  15.9949146   1.0078250   1.0078250  15.9949146   1.0078250   1.0078250  15.9949146   1.0078250
 NucSpn=           1           1           0           1           1           0           1           1           0           1
 AtZEff=   0.0000000   0.0000000   0.0000000   0.0000000   0.0000000   0.0000000   0.0000000   0.0000000   0.0000000   0.0000000
 NQMom=    0.0000000   0.0000000   0.0000000   0.0000000   0.0000000   0.0000000   0.0000000   0.0000000   0.0000000   0.0000000
 NMagM=    2.7928460   2.7928460   0.0000000   2.7928460   2.7928460   0.0000000   2.7928460   2.7928460   0.0000000   2.7928460
 AtZNuc=   1.0000000   1.0000000   8.0000000   1.0000000   1.0000000   8.0000000   1.0000000   1.0000000   8.0000000   1.0000000

  Atom       271         272         273         274         275         276         277         278         279         280
 IAtWgt=           1          16           1           1          16           1           1          16           1           1
 AtmWgt=   1.0078250  15.9949146   1.0078250   1.0078250  15.9949146   1.0078250   1.0078250  15.9949146   1.0078250   1.0078250
 NucSpn=           1           0           1           1           0           1           1           0           1           1
 AtZEff=   0.0000000   0.0000000   0.0000000   0.0000000   0.0000000   0.0000000   0.0000000   0.0000000   0.0000000   0.0000000
 NQMom=    0.0000000   0.0000000   0.0000000   0.0000000   0.0000000   0.0000000   0.0000000   0.0000000   0.0000000   0.0000000
 NMagM=    2.7928460   0.0000000   2.7928460   2.7928460   0.0000000   2.7928460   2.7928460   0.0000000   2.7928460   2.7928460
 AtZNuc=   1.0000000   8.0000000   1.0000000   1.0000000   8.0000000   1.0000000   1.0000000   8.0000000   1.0000000   1.0000000

  Atom       281         282         283         284         285         286         287         288         289         290
 IAtWgt=          16           1           1          16           1           1          16           1           1          16
 AtmWgt=  15.9949146   1.0078250   1.0078250  15.9949146   1.0078250   1.0078250  15.9949146   1.0078250   1.0078250  15.9949146
 NucSpn=           0           1           1           0           1           1           0           1           1           0
 AtZEff=   0.0000000   0.0000000   0.0000000   0.0000000   0.0000000   0.0000000   0.0000000   0.0000000   0.0000000   0.0000000
 NQMom=    0.0000000   0.0000000   0.0000000   0.0000000   0.0000000   0.0000000   0.0000000   0.0000000   0.0000000   0.0000000
 NMagM=    0.0000000   2.7928460   2.7928460   0.0000000   2.7928460   2.7928460   0.0000000   2.7928460   2.7928460   0.0000000
 AtZNuc=   8.0000000   1.0000000   1.0000000   8.0000000   1.0000000   1.0000000   8.0000000   1.0000000   1.0000000   8.0000000

  Atom       291         292         293         294         295         296         297         298         299         300
 IAtWgt=           1           1          16           1           1          16           1           1          16           1
 AtmWgt=   1.0078250   1.0078250  15.9949146   1.0078250   1.0078250  15.9949146   1.0078250   1.0078250  15.9949146   1.0078250
 NucSpn=           1           1           0           1           1           0           1           1           0           1
 AtZEff=   0.0000000   0.0000000   0.0000000   0.0000000   0.0000000   0.0000000   0.0000000   0.0000000   0.0000000   0.0000000
 NQMom=    0.0000000   0.0000000   0.0000000   0.0000000   0.0000000   0.0000000   0.0000000   0.0000000   0.0000000   0.0000000
 NMagM=    2.7928460   2.7928460   0.0000000   2.7928460   2.7928460   0.0000000   2.7928460   2.7928460   0.0000000   2.7928460
 AtZNuc=   1.0000000   1.0000000   8.0000000   1.0000000   1.0000000   8.0000000   1.0000000   1.0000000   8.0000000   1.0000000

  Atom       301         302         303         304         305         306         307         308         309         310
 IAtWgt=           1          16           1           1          16           1           1          16           1           1
 AtmWgt=   1.0078250  15.9949146   1.0078250   1.0078250  15.9949146   1.0078250   1.0078250  15.9949146   1.0078250   1.0078250
 NucSpn=           1           0           1           1           0           1           1           0           1           1
 AtZEff=   0.0000000   0.0000000   0.0000000   0.0000000   0.0000000   0.0000000   0.0000000   0.0000000   0.0000000   0.0000000
 NQMom=    0.0000000   0.0000000   0.0000000   0.0000000   0.0000000   0.0000000   0.0000000   0.0000000   0.0000000   0.0000000
 NMagM=    2.7928460   0.0000000   2.7928460   2.7928460   0.0000000   2.7928460   2.7928460   0.0000000   2.7928460   2.7928460
 AtZNuc=   1.0000000   8.0000000   1.0000000   1.0000000   8.0000000   1.0000000   1.0000000   8.0000000   1.0000000   1.0000000

  Atom       311         312         313         314         315         316         317         318         319         320
 IAtWgt=          16           1           1          16           1           1          16           1           1          16
 AtmWgt=  15.9949146   1.0078250   1.0078250  15.9949146   1.0078250   1.0078250  15.9949146   1.0078250   1.0078250  15.9949146
 NucSpn=           0           1           1           0           1           1           0           1           1           0
 AtZEff=   0.0000000   0.0000000   0.0000000   0.0000000   0.0000000   0.0000000   0.0000000   0.0000000   0.0000000   0.0000000
 NQMom=    0.0000000   0.0000000   0.0000000   0.0000000   0.0000000   0.0000000   0.0000000   0.0000000   0.0000000   0.0000000
 NMagM=    0.0000000   2.7928460   2.7928460   0.0000000   2.7928460   2.7928460   0.0000000   2.7928460   2.7928460   0.0000000
 AtZNuc=   8.0000000   1.0000000   1.0000000   8.0000000   1.0000000   1.0000000   8.0000000   1.0000000   1.0000000   8.0000000

  Atom       321         322         323         324         325         326         327         328         329         330
 IAtWgt=           1           1          16           1           1          16           1           1          16           1
 AtmWgt=   1.0078250   1.0078250  15.9949146   1.0078250   1.0078250  15.9949146   1.0078250   1.0078250  15.9949146   1.0078250
 NucSpn=           1           1           0           1           1           0           1           1           0           1
 AtZEff=   0.0000000   0.0000000   0.0000000   0.0000000   0.0000000   0.0000000   0.0000000   0.0000000   0.0000000   0.0000000
 NQMom=    0.0000000   0.0000000   0.0000000   0.0000000   0.0000000   0.0000000   0.0000000   0.0000000   0.0000000   0.0000000
 NMagM=    2.7928460   2.7928460   0.0000000   2.7928460   2.7928460   0.0000000   2.7928460   2.7928460   0.0000000   2.7928460
 AtZNuc=   1.0000000   1.0000000   8.0000000   1.0000000   1.0000000   8.0000000   1.0000000   1.0000000   8.0000000   1.0000000

  Atom       331         332         333         334         335         336         337         338         339         340
 IAtWgt=           1          16           1           1          16           1           1          16           1           1
 AtmWgt=   1.0078250  15.9949146   1.0078250   1.0078250  15.9949146   1.0078250   1.0078250  15.9949146   1.0078250   1.0078250
 NucSpn=           1           0           1           1           0           1           1           0           1           1
 AtZEff=   0.0000000   0.0000000   0.0000000   0.0000000   0.0000000   0.0000000   0.0000000   0.0000000   0.0000000   0.0000000
 NQMom=    0.0000000   0.0000000   0.0000000   0.0000000   0.0000000   0.0000000   0.0000000   0.0000000   0.0000000   0.0000000
 NMagM=    2.7928460   0.0000000   2.7928460   2.7928460   0.0000000   2.7928460   2.7928460   0.0000000   2.7928460   2.7928460
 AtZNuc=   1.0000000   8.0000000   1.0000000   1.0000000   8.0000000   1.0000000   1.0000000   8.0000000   1.0000000   1.0000000

  Atom       341         342         343         344         345         346         347         348         349         350
 IAtWgt=          16           1           1          16           1           1          16           1           1          16
 AtmWgt=  15.9949146   1.0078250   1.0078250  15.9949146   1.0078250   1.0078250  15.9949146   1.0078250   1.0078250  15.9949146
 NucSpn=           0           1           1           0           1           1           0           1           1           0
 AtZEff=   0.0000000   0.0000000   0.0000000   0.0000000   0.0000000   0.0000000   0.0000000   0.0000000   0.0000000   0.0000000
 NQMom=    0.0000000   0.0000000   0.0000000   0.0000000   0.0000000   0.0000000   0.0000000   0.0000000   0.0000000   0.0000000
 NMagM=    0.0000000   2.7928460   2.7928460   0.0000000   2.7928460   2.7928460   0.0000000   2.7928460   2.7928460   0.0000000
 AtZNuc=   8.0000000   1.0000000   1.0000000   8.0000000   1.0000000   1.0000000   8.0000000   1.0000000   1.0000000   8.0000000

  Atom       351         352         353         354         355         356         357         358         359         360
 IAtWgt=           1           1          16           1           1          16           1           1          16           1
 AtmWgt=   1.0078250   1.0078250  15.9949146   1.0078250   1.0078250  15.9949146   1.0078250   1.0078250  15.9949146   1.0078250
 NucSpn=           1           1           0           1           1           0           1           1           0           1
 AtZEff=   0.0000000   0.0000000   0.0000000   0.0000000   0.0000000   0.0000000   0.0000000   0.0000000   0.0000000   0.0000000
 NQMom=    0.0000000   0.0000000   0.0000000   0.0000000   0.0000000   0.0000000   0.0000000   0.0000000   0.0000000   0.0000000
 NMagM=    2.7928460   2.7928460   0.0000000   2.7928460   2.7928460   0.0000000   2.7928460   2.7928460   0.0000000   2.7928460
 AtZNuc=   1.0000000   1.0000000   8.0000000   1.0000000   1.0000000   8.0000000   1.0000000   1.0000000   8.0000000   1.0000000

  Atom       361         362         363         364         365         366         367         368         369         370
 IAtWgt=           1          16           1           1          16           1           1          16           1           1
 AtmWgt=   1.0078250  15.9949146   1.0078250   1.0078250  15.9949146   1.0078250   1.0078250  15.9949146   1.0078250   1.0078250
 NucSpn=           1           0           1           1           0           1           1           0           1           1
 AtZEff=   0.0000000   0.0000000   0.0000000   0.0000000   0.0000000   0.0000000   0.0000000   0.0000000   0.0000000   0.0000000
 NQMom=    0.0000000   0.0000000   0.0000000   0.0000000   0.0000000   0.0000000   0.0000000   0.0000000   0.0000000   0.0000000
 NMagM=    2.7928460   0.0000000   2.7928460   2.7928460   0.0000000   2.7928460   2.7928460   0.0000000   2.7928460   2.7928460
 AtZNuc=   1.0000000   8.0000000   1.0000000   1.0000000   8.0000000   1.0000000   1.0000000   8.0000000   1.0000000   1.0000000

  Atom       371         372         373         374         375         376         377         378         379         380
 IAtWgt=          16           1           1          16           1           1          16           1           1          16
 AtmWgt=  15.9949146   1.0078250   1.0078250  15.9949146   1.0078250   1.0078250  15.9949146   1.0078250   1.0078250  15.9949146
 NucSpn=           0           1           1           0           1           1           0           1           1           0
 AtZEff=   0.0000000   0.0000000   0.0000000   0.0000000   0.0000000   0.0000000   0.0000000   0.0000000   0.0000000   0.0000000
 NQMom=    0.0000000   0.0000000   0.0000000   0.0000000   0.0000000   0.0000000   0.0000000   0.0000000   0.0000000   0.0000000
 NMagM=    0.0000000   2.7928460   2.7928460   0.0000000   2.7928460   2.7928460   0.0000000   2.7928460   2.7928460   0.0000000
 AtZNuc=   8.0000000   1.0000000   1.0000000   8.0000000   1.0000000   1.0000000   8.0000000   1.0000000   1.0000000   8.0000000

  Atom       381         382         383         384         385
 IAtWgt=           1           1          16           1           1
 AtmWgt=   1.0078250   1.0078250  15.9949146   1.0078250   1.0078250
 NucSpn=           1           1           0           1           1
 AtZEff=   0.0000000   0.0000000   0.0000000   0.0000000   0.0000000
 NQMom=    0.0000000   0.0000000   0.0000000   0.0000000   0.0000000
 NMagM=    2.7928460   2.7928460   0.0000000   2.7928460   2.7928460
 AtZNuc=   1.0000000   1.0000000   8.0000000   1.0000000   1.0000000
 Leave Link  101 at Sat May  5 22:23:22 2018, MaxMem= 14763950080 cpu:        33.3
 (Enter /cm/shared/gaussian/g09.e01/intel64-sandybridge/g09/l103.exe)

 GradGradGradGradGradGradGradGradGradGradGradGradGradGradGradGradGradGrad
 Berny optimization.
 Initialization pass.
 Trust Radius=3.00D-01 FncErr=1.00D-07 GrdErr=1.00D-07
 Number of steps in this run=      2 maximum allowed number of steps=      2.
 GradGradGradGradGradGradGradGradGradGradGradGradGradGradGradGradGradGrad

 Leave Link  103 at Sat May  5 22:23:22 2018, MaxMem= 14763950080 cpu:         3.7
 (Enter /cm/shared/gaussian/g09.e01/intel64-sandybridge/g09/l202.exe)
 Symmetry turned off by external request.
 Stoichiometry    BrH256O128(1-)
 Framework group  C1[X(BrH256O128)]
 Deg. of freedom  1149
 Full point group                 C1      NOp   1
                          Input orientation:                          
 ---------------------------------------------------------------------
 Center     Atomic      Atomic             Coordinates (Angstroms)
 Number     Number       Type             X           Y           Z
 ---------------------------------------------------------------------
      1         35           0       20.000000   20.000000   20.000000
      2          8           0       17.130000   20.140000   18.990000
      3          1           0       16.870000   20.930000   19.470000
      4          1           0       18.080000   20.100000   19.090000
      5          8           0       21.060000   20.200000   23.130000
      6          1           0       20.840000   20.240000   22.200000
      7          1           0       20.210000   20.100000   23.570000
      8          8           0       17.700000   19.240000   22.260000
      9          1           0       17.580000   19.890000   22.960000
     10          1           0       18.250000   19.690000   21.610000
     11          8           0       21.080000   23.190000   20.600000
     12          1           0       20.790000   22.350000   20.240000
     13          1           0       20.330000   23.760000   20.510000
     14          8           0       20.540000   17.340000   17.940000
     15          1           0       20.120000   18.150000   18.240000
     16          1           0       20.030000   17.080000   17.170000
     17          8           0       21.100000   21.910000   17.140000
     18          1           0       21.760000   21.370000   16.690000
     19          1           0       20.840000   21.380000   17.900000
     20          8           0       21.220000   16.800000   20.990000
     21          1           0       21.730000   16.440000   20.260000
     22          1           0       20.490000   17.260000   20.580000
     23          8           0       23.580000   22.740000   19.130000
     24          1           0       22.970000   22.050000   18.870000
     25          1           0       23.090000   23.280000   19.750000
     26          8           0       24.600000   20.080000   20.790000
     27          1           0       23.790000   19.880000   20.330000
     28          1           0       24.720000   19.350000   21.400000
     29          8           0       18.030000   20.990000   15.820000
     30          1           0       18.270000   21.890000   15.600000
     31          1           0       18.200000   20.920000   16.760000
     32          8           0       16.500000   17.690000   20.060000
     33          1           0       16.670000   17.840000   20.990000
     34          1           0       16.430000   18.570000   19.680000
     35          8           0       23.390000   22.130000   22.580000
     36          1           0       22.490000   21.960000   22.320000
     37          1           0       23.920000   21.820000   21.840000
     38          8           0       17.890000   18.260000   16.600000
     39          1           0       17.450000   18.880000   17.180000
     40          1           0       18.300000   18.810000   15.930000
     41          8           0       16.540000   22.480000   20.330000
     42          1           0       15.810000   22.070000   20.790000
     43          1           0       17.170000   22.690000   21.010000
     44          8           0       18.720000   23.580000   22.150000
     45          1           0       19.380000   23.520000   22.840000
     46          1           0       18.430000   24.490000   22.160000
     47          8           0       22.410000   16.620000   23.520000
     48          1           0       23.170000   17.210000   23.520000
     49          1           0       21.940000   16.850000   22.710000
     50          8           0       22.710000   19.900000   16.150000
     51          1           0       22.660000   19.260000   15.430000
     52          1           0       23.630000   19.870000   16.420000
     53          8           0       14.960000   20.870000   17.560000
     54          1           0       15.020000   20.480000   16.690000
     55          1           0       15.730000   20.540000   18.020000
     56          8           0       17.510000   21.510000   23.880000
     57          1           0       17.300000   21.660000   24.800000
     58          1           0       17.750000   22.370000   23.550000
     59          8           0       16.090000   23.360000   17.860000
     60          1           0       15.490000   22.630000   17.710000
     61          1           0       16.460000   23.190000   18.730000
     62          8           0       22.600000   15.820000   16.900000
     63          1           0       23.240000   15.870000   17.610000
     64          1           0       21.910000   16.430000   17.160000
     65          8           0       21.520000   24.680000   16.840000
     66          1           0       21.430000   25.200000   17.640000
     67          1           0       21.750000   23.810000   17.150000
     68          8           0       17.350000   15.130000   18.760000
     69          1           0       17.010000   15.990000   19.000000
     70          1           0       17.230000   15.090000   17.810000
     71          8           0       17.050000   16.610000   23.850000
     72          1           0       16.640000   15.950000   23.300000
     73          1           0       17.110000   17.390000   23.300000
     74          8           0       18.830000   23.670000   15.650000
     75          1           0       19.430000   23.600000   16.390000
     76          1           0       19.230000   24.310000   15.070000
     77          8           0       25.420000   19.850000   17.670000
     78          1           0       26.360000   19.840000   17.840000
     79          1           0       25.020000   19.950000   18.540000
     80          8           0       19.440000   14.110000   21.070000
     81          1           0       18.690000   14.420000   20.560000
     82          1           0       19.960000   14.900000   21.240000
     83          8           0       20.540000   21.520000   14.160000
     84          1           0       21.230000   21.860000   14.730000
     85          1           0       20.250000   20.710000   14.580000
     86          8           0       20.260000   23.370000   24.330000
     87          1           0       21.120000   23.680000   24.050000
     88          1           0       20.250000   23.500000   25.280000
     89          8           0       20.870000   19.180000   25.970000
     90          1           0       20.600000   18.330000   25.610000
     91          1           0       21.520000   19.510000   25.340000
     92          8           0       24.750000   18.200000   23.090000
     93          1           0       24.220000   18.900000   23.480000
     94          1           0       25.640000   18.390000   23.380000
     95          8           0       20.530000   25.920000   18.960000
     96          1           0       20.390000   25.600000   19.850000
     97          1           0       20.970000   26.760000   19.060000
     98          8           0       18.430000   15.620000   15.480000
     99          1           0       18.900000   15.830000   14.670000
    100          1           0       18.280000   16.470000   15.890000
    101          8           0       19.720000   18.760000   14.340000
    102          1           0       20.650000   18.510000   14.370000
    103          1           0       19.510000   18.750000   13.410000
    104          8           0       24.160000   20.730000   24.750000
    105          1           0       23.870000   21.390000   24.120000
    106          1           0       25.110000   20.680000   24.620000
    107          8           0       24.070000   15.980000   18.910000
    108          1           0       24.160000   15.250000   19.530000
    109          1           0       24.960000   16.140000   18.600000
    110          8           0       15.040000   21.750000   22.520000
    111          1           0       14.460000   20.990000   22.510000
    112          1           0       15.520000   21.680000   23.340000
    113          8           0       22.840000   25.190000   23.350000
    114          1           0       22.600000   24.530000   22.690000
    115          1           0       23.670000   24.870000   23.720000
    116          8           0       26.510000   22.230000   19.680000
    117          1           0       25.570000   22.260000   19.470000
    118          1           0       26.530000   22.080000   20.630000
    119          8           0       12.830000   21.000000   19.590000
    120          1           0       12.880000   20.320000   20.260000
    121          1           0       13.740000   21.140000   19.340000
    122          8           0       19.240000   14.690000   24.230000
    123          1           0       19.350000   13.940000   23.640000
    124          1           0       18.440000   15.120000   23.920000
    125          8           0       14.020000   24.050000   21.150000
    126          1           0       14.160000   23.510000   21.920000
    127          1           0       14.850000   24.000000   20.670000
    128          8           0       13.340000   19.240000   21.910000
    129          1           0       13.940000   18.510000   22.070000
    130          1           0       12.530000   18.970000   22.330000
    131          8           0       18.980000   12.930000   18.300000
    132          1           0       18.260000   12.320000   18.440000
    133          1           0       18.570000   13.800000   18.340000
    134          8           0       27.430000   19.860000   21.180000
    135          1           0       26.480000   19.780000   21.250000
    136          1           0       27.570000   20.500000   20.480000
    137          8           0       15.210000   15.990000   15.790000
    138          1           0       15.730000   16.750000   16.050000
    139          1           0       14.310000   16.240000   15.990000
    140          8           0       16.330000   25.580000   20.440000
    141          1           0       16.040000   26.010000   19.640000
    142          1           0       17.160000   26.020000   20.660000
    143          8           0       24.940000   25.360000   18.230000
    144          1           0       24.760000   24.420000   18.220000
    145          1           0       24.810000   25.640000   17.320000
    146          8           0       16.470000   19.370000   13.380000
    147          1           0       17.220000   19.720000   13.860000
    148          1           0       16.730000   18.490000   13.130000
    149          8           0       20.380000   16.290000   26.520000
    150          1           0       20.070000   16.090000   25.630000
    151          1           0       21.230000   15.850000   26.580000
    152          8           0       22.320000   17.630000   13.870000
    153          1           0       22.930000   17.630000   13.130000
    154          1           0       22.630000   16.930000   14.440000
    155          8           0       16.440000   25.130000   15.700000
    156          1           0       16.310000   24.650000   16.520000
    157          1           0       17.030000   24.570000   15.190000
    158          8           0       18.690000   26.970000   17.080000
    159          1           0       19.020000   27.110000   16.190000
    160          1           0       19.400000   26.510000   17.530000
    161          8           0       25.940000   20.070000   14.990000
    162          1           0       25.730000   20.140000   15.920000
    163          1           0       25.150000   20.380000   14.540000
    164          8           0       21.260000   13.010000   16.900000
    165          1           0       21.740000   13.820000   17.090000
    166          1           0       20.580000   12.970000   17.570000
    167          8           0       22.060000   12.510000   20.190000
    168          1           0       21.270000   13.030000   20.080000
    169          1           0       22.720000   13.130000   20.490000
    170          8           0       18.620000   26.780000   21.740000
    171          1           0       19.510000   27.120000   21.700000
    172          1           0       18.060000   27.550000   21.600000
    173          8           0       14.800000   15.110000   21.060000
    174          1           0       14.460000   15.630000   21.790000
    175          1           0       14.400000   15.500000   20.280000
    176          8           0       16.290000   14.100000   23.100000
    177          1           0       16.060000   14.340000   22.210000
    178          1           0       15.480000   13.760000   23.480000
    179          8           0       22.310000   14.580000   25.760000
    180          1           0       22.080000   13.660000   25.620000
    181          1           0       22.210000   14.990000   24.900000
    182          8           0       14.220000   19.710000   15.190000
    183          1           0       14.980000   19.820000   14.620000
    184          1           0       13.620000   19.150000   14.680000
    185          8           0       16.500000   24.950000   24.360000
    186          1           0       15.990000   25.530000   23.790000
    187          1           0       15.850000   24.330000   24.700000
    188          8           0       26.790000   16.770000   17.590000
    189          1           0       27.340000   17.310000   18.150000
    190          1           0       26.390000   17.400000   16.980000
    191          8           0       22.070000   14.790000   14.120000
    192          1           0       21.240000   15.240000   14.000000
    193          1           0       22.190000   14.740000   15.070000
    194          8           0       20.510000   21.770000   28.120000
    195          1           0       20.180000   22.490000   27.570000
    196          1           0       20.590000   21.030000   27.510000
    197          8           0       13.890000   16.670000   23.100000
    198          1           0       13.790000   17.150000   23.920000
    199          1           0       13.230000   15.980000   23.140000
    200          8           0       23.230000   17.550000   27.390000
    201          1           0       22.510000   17.220000   27.930000
    202          1           0       22.990000   17.320000   26.490000
    203          8           0       14.910000   19.380000   25.910000
    204          1           0       14.820000   20.280000   26.230000
    205          1           0       15.730000   19.080000   26.290000
    206          8           0       20.400000   23.830000   12.300000
    207          1           0       20.540000   23.160000   12.970000
[...]
   Z335      45.82586   0.00118   0.00000   0.00459   0.00377  45.82963
   X336      32.74895  -0.00730   0.00000  -0.00760  -0.00761  32.74135
   Y336      21.71295  -0.00785   0.00000  -0.00878  -0.00899  21.70396
   Z336      47.11087   0.00544   0.00000   0.00277   0.00189  47.11276
   X337      32.23873  -0.00496   0.00000   0.00399   0.00405  32.24278
   Y337      23.62158   0.00945   0.00000   0.00918   0.00901  23.63059
   Z337      45.03217  -0.00648   0.00000  -0.00464  -0.00548  45.02669
   X338      54.08396  -0.00482   0.00000  -0.00877  -0.00840  54.07556
   Y338      38.00239   0.00384   0.00000   0.00225   0.00281  38.00520
   Z338      32.03086  -0.00211   0.00000   0.00273   0.00320  32.03406
   X339      54.66978  -0.00248   0.00000  -0.00513  -0.00480  54.66497
   Y339      39.70315   0.00406   0.00000   0.00512   0.00568  39.70883
   Z339      32.33321  -0.00538   0.00000  -0.00919  -0.00864  32.32457
   X340      54.27293   0.00053   0.00000   0.00030   0.00062  54.27355
   Y340      37.18981  -0.00903   0.00000  -0.01106  -0.01054  37.17927
   Z340      33.63713   0.00824   0.00000   0.00635   0.00681  33.64393
   X341      49.60531  -0.01043   0.00000  -0.01307  -0.01231  49.59300
   Y341      34.26073   0.00046   0.00000  -0.00330  -0.00260  34.25814
   Z341      24.33967  -0.01300   0.00000  -0.00761  -0.00743  24.33224
   X342      49.49193   0.00193   0.00000   0.00267   0.00335  49.49527
   Y342      35.50795   0.00321   0.00000  -0.00048   0.00018  35.50814
   Z342      25.66248   0.00826   0.00000   0.00588   0.00609  25.66857
   X343      50.53128   0.00604   0.00000   0.00371   0.00446  50.53573
   Y343      32.90013  -0.00591   0.00000  -0.00243  -0.00173  32.89840
   Z343      25.07667   0.00647   0.00000   0.00434   0.00453  25.08119
   X344      32.61667  -0.01912   0.00000  -0.01177  -0.01236  32.60431
   Y344      39.45748  -0.00483   0.00000  -0.00378  -0.00419  39.45329
   Z344      54.19735  -0.00889   0.00000  -0.00737  -0.00777  54.18958
   X345      32.61667   0.00698   0.00000   0.01013   0.00947  32.62614
   Y345      41.13934   0.00502   0.00000   0.00153   0.00110  41.14044
   Z345      54.85875   0.00363   0.00000   0.00279   0.00244  54.86119
   X346      34.29853   0.01593   0.00000   0.01071   0.01011  34.30864
   Y346      38.85277   0.00031   0.00000   0.00447   0.00408  38.85685
   Z346      54.46191   0.00136   0.00000  -0.00166  -0.00200  54.45991
   X347      43.52039   0.00363   0.00000   0.00202   0.00260  43.52299
   Y347      46.63844  -0.01353   0.00000  -0.00457  -0.00395  46.63449
   Z347      23.67827  -0.01044   0.00000  -0.00834  -0.00808  23.67019
   X348      43.86054   0.00012   0.00000  -0.00286  -0.00234  43.85820
   Y348      48.18802   0.01559   0.00000   0.00823   0.00883  48.19685
   Z348      24.52865   0.01519   0.00000   0.01697   0.01730  24.54594
   X349      41.70626  -0.00594   0.00000  -0.00483  -0.00425  41.70201
   Y349      46.56285   0.00356   0.00000   0.00511   0.00569  46.56855
   Z349      23.58378  -0.00318   0.00000  -0.00655  -0.00637  23.57741
   X350      23.88614   0.01732   0.00000   0.01319   0.01285  23.89899
   Y350      42.59443   0.00295   0.00000   0.00166   0.00131  42.59574
   Z350      46.65734   0.00441   0.00000   0.00771   0.00703  46.66437
   X351      23.01686  -0.00615   0.00000  -0.00256  -0.00288  23.01399
   Y351      41.02595  -0.01060   0.00000  -0.00697  -0.00734  41.01861
   Z351      46.82741   0.00026   0.00000  -0.00021  -0.00097  46.82644
   X352      22.58223  -0.00572   0.00000   0.00070   0.00037  22.58259
   Y352      43.78495   0.00704   0.00000   0.00528   0.00492  43.78988
   Z352      46.27939  -0.00243   0.00000  -0.00126  -0.00196  46.27743
   X353      29.25296   0.00095   0.00000   0.00002   0.00030  29.25326
   Y353      51.89188   0.02951   0.00000   0.02234   0.02258  51.91446
   Z353      28.44038  -0.00263   0.00000   0.00025   0.00005  28.44043
   X354      27.59000  -0.00895   0.00000  -0.00710  -0.00678  27.58322
   Y354      51.47614  -0.00471   0.00000  -0.00330  -0.00307  51.47307
   Z354      27.87346   0.00161   0.00000   0.00601   0.00574  27.87920
   X355      29.95216   0.00694   0.00000   0.00433   0.00462  29.95678
   Y355      50.30451  -0.01830   0.00000  -0.00752  -0.00728  50.29723
   Z355      28.96950   0.00444   0.00000   0.00074   0.00053  28.97003
   X356      45.82586  -0.01601   0.00000  -0.00564  -0.00616  45.81970
   Y356      51.04150   0.00350   0.00000   0.00524   0.00523  51.04673
   Z356      47.81007  -0.00468   0.00000  -0.00798  -0.00750  47.80257
   X357      47.31874   0.01554   0.00000   0.01111   0.01055  47.32929
   Y357      51.81629   0.00724   0.00000   0.00547   0.00547  51.82176
   Z357      48.41478   0.00755   0.00000   0.00717   0.00774  48.42252
   X358      46.39278   0.00680   0.00000   0.00807   0.00761  46.40039
   Y358      49.52972  -0.00853   0.00000  -0.00651  -0.00649  49.52323
   Z358      46.99749  -0.00316   0.00000  -0.00128  -0.00081  46.99668
   X359      49.39744  -0.00512   0.00000  -0.00214  -0.00161  49.39583
   Y359      25.77586  -0.01830   0.00000  -0.01553  -0.01508  25.76079
   Z359      32.93793   0.02217   0.00000   0.02067   0.02061  32.95854
   X360      49.09508  -0.00139   0.00000  -0.00198  -0.00139  49.09369
   Y360      26.47506   0.00878   0.00000   0.00439   0.00489  26.47995
   Z360      31.29386  -0.00961   0.00000   0.00354   0.00348  31.29735
   X361      50.83363   0.00741   0.00000   0.00433   0.00482  50.83846
   Y361      26.66404   0.01011   0.00000   0.01092   0.01139  26.67542
   Z361      33.56154  -0.00025   0.00000  -0.00109  -0.00107  33.56047
   X362      22.84679  -0.00905   0.00000  -0.00683  -0.00703  22.83976
   Y362      49.28406   0.01965   0.00000   0.01285   0.01265  49.29670
   Z362      40.76139  -0.00496   0.00000  -0.00314  -0.00368  40.75771
   X363      24.03732   0.01635   0.00000   0.01525   0.01509  24.05241
   Y363      47.96125  -0.01021   0.00000   0.00005  -0.00012  47.96112
   Z363      40.47793  -0.00042   0.00000   0.00220   0.00167  40.47960
   X364      21.75075  -0.00527   0.00000  -0.00389  -0.00413  21.74662
   Y364      48.66045  -0.00615   0.00000  -0.00605  -0.00631  48.65414
   Z364      42.04641   0.00650   0.00000   0.00463   0.00403  42.05043
   X365      47.52661   0.00845   0.00000   0.00670   0.00650  47.53311
   Y365      28.70494   0.00098   0.00000  -0.00330  -0.00332  28.70162
   Z365      48.96280  -0.00271   0.00000   0.00082   0.00076  48.96356
   X366      48.09353  -0.00086   0.00000  -0.00261  -0.00288  48.09065
   Y366      29.27186   0.00554   0.00000   0.00924   0.00919  29.28105
   Z366      50.58797   0.00374   0.00000   0.00367   0.00365  50.59162
   X367      45.99593  -0.01350   0.00000  -0.01440  -0.01460  45.98134
   Y367      27.79787   0.00004   0.00000   0.00649   0.00644  27.80431
   Z367      49.32185   0.00008   0.00000  -0.00227  -0.00242  49.31944
   X368      43.16134   0.00155   0.00000  -0.00010   0.00064  43.16198
   Y368      42.23538  -0.02877   0.00000  -0.02329  -0.02262  42.21276
   Z368      21.54288  -0.00423   0.00000  -0.00192  -0.00179  21.54108
   X369      42.36766  -0.00125   0.00000   0.00104   0.00184  42.36950
   Y369      42.76450   0.00531   0.00000   0.00356   0.00426  42.76876
   Z369      20.01220  -0.00496   0.00000  -0.00303  -0.00292  20.00928
   X370      43.38811   0.00600   0.00000   0.00877   0.00945  43.39756
   Y370      43.74716   0.01840   0.00000   0.00832   0.00896  43.75612
   Z370      22.50664   0.00530   0.00000  -0.00280  -0.00262  22.50401
   X371      26.98529  -0.01955   0.00000  -0.01566  -0.01535  26.96994
   Y371      22.97907   0.00189   0.00000   0.00118   0.00109  22.98016
   Z371      39.28741   0.00874   0.00000   0.01592   0.01482  39.30223
   X372      26.32389   0.00643   0.00000   0.00691   0.00725  26.33113
   Y372      24.28298  -0.00691   0.00000  -0.00864  -0.00871  24.27427
   Z372      38.19137   0.00202   0.00000   0.00149   0.00041  38.19178
   X373      28.76163   0.00744   0.00000  -0.00271  -0.00239  28.75925
   Y373      22.94128  -0.00142   0.00000  -0.00432  -0.00437  22.93691
   Z373      38.92836  -0.00451   0.00000  -0.00254  -0.00356  38.92480
   X374      26.43727  -0.00436   0.00000  -0.00542  -0.00490  26.43237
   Y374      44.50305  -0.01501   0.00000  -0.00791  -0.00764  44.49541
   Z374      25.85145  -0.01217   0.00000  -0.00484  -0.00536  25.84609
   X375      27.76008   0.00417   0.00000   0.00344   0.00399  27.76407
   Y375      45.14556   0.00238   0.00000   0.00143   0.00175  45.14731
   Z375      24.79321   0.00030   0.00000   0.00316   0.00271  24.79592
   X376      26.34278  -0.00174   0.00000  -0.00305  -0.00261  26.34017
   Y376      45.67468   0.01245   0.00000   0.00538   0.00561  45.68029
   Z376      27.21206   0.01887   0.00000   0.01625   0.01576  27.22781
   X377      50.30451  -0.01174   0.00000  -0.00934  -0.00902  50.29549
   Y377      47.45102   0.01445   0.00000   0.00805   0.00863  47.45965
   Z377      29.32855  -0.00290   0.00000   0.00161   0.00219  29.33074
   X378      51.49504   0.00976   0.00000   0.00489   0.00518  51.50022
   Y378      46.56285  -0.01337   0.00000  -0.01281  -0.01225  46.55060
   Z378      30.34900   0.00641   0.00000   0.00130   0.00190  30.35090
   X379      49.69980   0.00077   0.00000   0.00132   0.00171  49.70151
   Y379      46.20380  -0.00523   0.00000  -0.00468  -0.00409  46.19972
   Z379      28.15692  -0.00001   0.00000   0.00186   0.00237  28.15929
   X380      54.91544   0.00212   0.00000  -0.00098  -0.00102  54.91442
   Y380      33.08910  -0.01040   0.00000  -0.00399  -0.00373  33.08537
   Z380      43.52039   0.00376   0.00000   0.00052   0.00089  43.52129
   X381      55.33118   0.00134   0.00000   0.00225   0.00213  55.33331
   Y381      33.63713   0.00046   0.00000  -0.00036  -0.00015  33.63698
   Z381      45.20225   0.00154   0.00000   0.00077   0.00118  45.20343
   X382      54.34852  -0.00596   0.00000  -0.00567  -0.00570  54.34283
   Y382      34.58199   0.01395   0.00000   0.01116   0.01143  34.59342
   Z382      42.68891  -0.00644   0.00000  -0.00463  -0.00423  42.68468
   X383      29.10178   0.01109   0.00000   0.00702   0.00759  29.10937
   Y383      22.12869  -0.01443   0.00000  -0.01090  -0.01079  22.11790
   Z383      33.46705  -0.00610   0.00000  -0.00359  -0.00461  33.46244
   X384      27.96795  -0.00540   0.00000  -0.00003   0.00050  27.96844
   Y384      23.47040   0.00985   0.00000   0.00406   0.00414  23.47454
   Z384      33.88279   0.00599   0.00000   0.00544   0.00441  33.88719
   X385      30.31121  -0.00421   0.00000  -0.00571  -0.00520  30.30601
   Y385      22.12869   0.00319   0.00000   0.00400   0.00408  22.13277
   Z385      34.82765   0.00232   0.00000   0.00527   0.00429  34.83195
         Item               Value     Threshold  Converged?
 Maximum Force            0.046474     0.000450     NO 
 RMS     Force            0.010031     0.000300     NO 
 Maximum Displacement     0.043019     0.001800     NO 
 RMS     Displacement     0.008839     0.001200     NO 
 Predicted change in Energy=-6.954248D-02
 GradGradGradGradGradGradGradGradGradGradGradGradGradGradGradGradGradGrad

 Leave Link  103 at Sun May  6 00:30:32 2018, MaxMem= 14763950080 cpu:      2688.0
 (Enter /cm/shared/gaussian/g09.e01/intel64-sandybridge/g09/l9999.exe)
 1\1\GINC-POPLE01\Force\RPBE1PBE\CC-pVDZ\Br1H256O128(1-)\M.PELUSO\06-Ma
 y-2018\0\\#p PBE1PBE/cc-pvDZ force Counterpoise=2 noSymm\\forces on ch
 loride comput - NWATER: 128\\-1,1\Br,20.,20.,20.\O,17.13,20.14,18.99\H
 ,16.87,20.93,19.47\H,18.08,20.1,19.09\O,21.06,20.2,23.13\H,20.84,20.24
 ,22.2\H,20.21,20.1,23.57\O,17.7,19.24,22.26\H,17.58,19.89,22.96\H,18.2
 5,19.69,21.61\O,21.08,23.19,20.6\H,20.79,22.35,20.24\H,20.33,23.76,20.
 51\O,20.54,17.34,17.94\H,20.12,18.15,18.24\H,20.03,17.08,17.17\O,21.1,
 21.91,17.14\H,21.76,21.37,16.69\H,20.84,21.38,17.9\O,21.22,16.8,20.99\
 H,21.73,16.44,20.26\H,20.49,17.26,20.58\O,23.58,22.74,19.13\H,22.97,22
 .05,18.87\H,23.09,23.28,19.75\O,24.6,20.08,20.79\H,23.79,19.88,20.33\H
 ,24.72,19.35,21.4\O,18.03,20.99,15.82\H,18.27,21.89,15.6\H,18.2,20.92,
 16.76\O,16.5,17.69,20.06\H,16.67,17.84,20.99\H,16.43,18.57,19.68\O,23.
 39,22.13,22.58\H,22.49,21.96,22.32\H,23.92,21.82,21.84\O,17.89,18.26,1
 6.6\H,17.45,18.88,17.18\H,18.3,18.81,15.93\O,16.54,22.48,20.33\H,15.81
 ,22.07,20.79\H,17.17,22.69,21.01\O,18.72,23.58,22.15\H,19.38,23.52,22.
 84\H,18.43,24.49,22.16\O,22.41,16.62,23.52\H,23.17,17.21,23.52\H,21.94
 ,16.85,22.71\O,22.71,19.9,16.15\H,22.66,19.26,15.43\H,23.63,19.87,16.4
 2\O,14.96,20.87,17.56\H,15.02,20.48,16.69\H,15.73,20.54,18.02\O,17.51,
 21.51,23.88\H,17.3,21.66,24.8\H,17.75,22.37,23.55\O,16.09,23.36,17.86\
 H,15.49,22.63,17.71\H,16.46,23.19,18.73\O,22.6,15.82,16.9\H,23.24,15.8
 7,17.61\H,21.91,16.43,17.16\O,21.52,24.68,16.84\H,21.43,25.2,17.64\H,2
 1.75,23.81,17.15\O,17.35,15.13,18.76\H,17.01,15.99,19.\H,17.23,15.09,1
 7.81\O,17.05,16.61,23.85\H,16.64,15.95,23.3\H,17.11,17.39,23.3\O,18.83
 ,23.67,15.65\H,19.43,23.6,16.39\H,19.23,24.31,15.07\O,25.42,19.85,17.6
 7\H,26.36,19.84,17.84\H,25.02,19.95,18.54\O,19.44,14.11,21.07\H,18.69,
 14.42,20.56\H,19.96,14.9,21.24\O,20.54,21.52,14.16\H,21.23,21.86,14.73
 \H,20.25,20.71,14.58\O,20.26,23.37,24.33\H,21.12,23.68,24.05\H,20.25,2
 3.5,25.28\O,20.87,19.18,25.97\H,20.6,18.33,25.61\H,21.52,19.51,25.34\O
 ,24.75,18.2,23.09\H,24.22,18.9,23.48\H,25.64,18.39,23.38\O,20.53,25.92
 ,18.96\H,20.39,25.6,19.85\H,20.97,26.76,19.06\O,18.43,15.62,15.48\H,18
 .9,15.83,14.67\H,18.28,16.47,15.89\O,19.72,18.76,14.34\H,20.65,18.51,1
 4.37\H,19.51,18.75,13.41\O,24.16,20.73,24.75\H,23.87,21.39,24.12\H,25.
 11,20.68,24.62\O,24.07,15.98,18.91\H,24.16,15.25,19.53\H,24.96,16.14,1
 8.6\O,15.04,21.75,22.52\H,14.46,20.99,22.51\H,15.52,21.68,23.34\O,22.8
 4,25.19,23.35\H,22.6,24.53,22.69\H,23.67,24.87,23.72\O,26.51,22.23,19.
 68\H,25.57,22.26,19.47\H,26.53,22.08,20.63\O,12.83,21.,19.59\H,12.88,2
 0.32,20.26\H,13.74,21.14,19.34\O,19.24,14.69,24.23\H,19.35,13.94,23.64
 \H,18.44,15.12,23.92\O,14.02,24.05,21.15\H,14.16,23.51,21.92\H,14.85,2
 4.,20.67\O,13.34,19.24,21.91\H,13.94,18.51,22.07\H,12.53,18.97,22.33\O
 ,18.98,12.93,18.3\H,18.26,12.32,18.44\H,18.57,13.8,18.34\O,27.43,19.86
 ,21.18\H,26.48,19.78,21.25\H,27.57,20.5,20.48\O,15.21,15.99,15.79\H,15
 .73,16.75,16.05\H,14.31,16.24,15.99\O,16.33,25.58,20.44\H,16.04,26.01,
 19.64\H,17.16,26.02,20.66\O,24.94,25.36,18.23\H,24.76,24.42,18.22\H,24
 .81,25.64,17.32\O,16.47,19.37,13.38\H,17.22,19.72,13.86\H,16.73,18.49,
 13.13\O,20.38,16.29,26.52\H,20.07,16.09,25.63\H,21.23,15.85,26.58\O,22
 .32,17.63,13.87\H,22.93,17.63,13.13\H,22.63,16.93,14.44\O,16.44,25.13,
 15.7\H,16.31,24.65,16.52\H,17.03,24.57,15.19\O,18.69,26.97,17.08\H,19.
 02,27.11,16.19\H,19.4,26.51,17.53\O,25.94,20.07,14.99\H,25.73,20.14,15
 .92\H,25.15,20.38,14.54\O,21.26,13.01,16.9\H,21.74,13.82,17.09\H,20.58
 ,12.97,17.57\O,22.06,12.51,20.19\H,21.27,13.03,20.08\H,22.72,13.13,20.
 49\O,18.62,26.78,21.74\H,19.51,27.12,21.7\H,18.06,27.55,21.6\O,14.8,15
 .11,21.06\H,14.46,15.63,21.79\H,14.4,15.5,20.28\O,16.29,14.1,23.1\H,16
 .06,14.34,22.21\H,15.48,13.76,23.48\O,22.31,14.58,25.76\H,22.08,13.66,
 25.62\H,22.21,14.99,24.9\O,14.22,19.71,15.19\H,14.98,19.82,14.62\H,13.
 62,19.15,14.68\O,16.5,24.95,24.36\H,15.99,25.53,23.79\H,15.85,24.33,24
 .7\O,26.79,16.77,17.59\H,27.34,17.31,18.15\H,26.39,17.4,16.98\O,22.07,
 14.79,14.12\H,21.24,15.24,14.\H,22.19,14.74,15.07\O,20.51,21.77,28.12\
 H,20.18,22.49,27.57\H,20.59,21.03,27.51\O,13.89,16.67,23.1\H,13.79,17.
 15,23.92\H,13.23,15.98,23.14\O,23.23,17.55,27.39\H,22.51,17.22,27.93\H
 ,22.99,17.32,26.49\O,14.91,19.38,25.91\H,14.82,20.28,26.23\H,15.73,19.
 08,26.29\O,20.4,23.83,12.3\H,20.54,23.16,12.97\H,19.67,23.5,11.78\O,16
 .95,12.13,20.42\H,17.23,12.82,21.02\H,17.6,11.43,20.53\O,23.82,20.46,1
 3.11\H,23.4,19.89,12.46\H,23.93,21.29,12.65\O,25.26,20.32,27.09\H,24.8
 6,20.26,26.23\H,26.09,20.77,26.94\O,25.87,25.89,20.73\H,25.32,25.85,19
 .95\H,26.03,26.82,20.87\O,16.14,27.36,18.33\H,15.81,27.82,17.56\H,17.0
 4,27.14,18.11\O,18.28,21.41,11.58\H,18.77,20.81,12.14\H,18.78,21.42,10
 .76\O,24.96,13.72,20.6\H,25.52,14.13,21.27\H,25.52,13.06,20.19\O,19.36
 ,16.03,13.04\H,19.25,15.32,12.41\H,19.15,16.83,12.55\O,12.17,21.68,16.
 57\H,12.62,21.96,15.78\H,12.63,20.89,16.85\O,15.89,15.33,26.48\H,16.07
 ,15.7,25.61\H,16.68,14.82,26.68\O,21.15,27.83,21.87\H,21.45,28.59,21.3
 7\H,21.94,27.51,22.31\O,20.73,18.87,28.76\H,21.17,19.2,27.98\H,20.1,18
 .24,28.43\O,15.4,22.86,26.06\H,15.18,23.03,26.98\H,14.55,22.71,25.64\O
 ,26.81,20.32,24.43\H,27.23,21.16,24.24\H,27.52,19.75,24.7\O,22.56,26.5
 9,14.46\H,21.61,26.71,14.39\H,22.67,26.02,15.22\O,20.18,24.38,26.86\H,
 20.74,25.14,26.69\H,19.31,24.75,27.\O,15.15,26.69,22.93\H,15.58,27.48,
 23.24\H,15.58,26.51,22.09\O,26.16,24.73,24.11\H,26.97,25.13,23.82\H,26
 .21,23.83,23.8\O,13.32,25.04,16.45\H,12.74,24.89,17.19\H,14.2,25.06,16
 .84\O,19.9,25.82,14.05\H,20.22,25.16,13.43\H,19.46,26.47,13.5\O,19.4,2
 8.13,24.3\H,19.13,27.31,23.89\H,19.34,27.96,25.24\O,28.34,18.24,19.08\
 H,28.27,18.65,19.94\H,29.22,17.87,19.06\O,25.69,14.54,23.36\H,24.91,13
 .99,23.27\H,25.53,15.06,24.15\O,12.28,24.09,18.9\H,12.3,23.15,18.69\H,
 12.62,24.15,19.79\O,13.57,17.11,25.77\H,14.14,17.88,25.71\H,14.07,16.4
 8,26.28\O,18.66,18.7,11.71\H,19.29,18.5,11.02\H,17.85,18.91,11.24\O,16
 .68,13.45,14.44\H,17.03,14.34,14.39\H,17.45,12.9,14.6\O,21.36,28.39,18
 .65\H,21.99,28.48,17.93\H,21.26,29.28,19.\O,18.24,13.83,26.91\H,18.78,
 14.08,26.15\H,17.97,12.93,26.73\O,12.29,15.83,19.73\H,11.62,15.47,19.1
 5\H,12.,16.73,19.9\O,18.18,16.23,28.3\H,17.6,15.48,28.27\H,18.83,16.06
 ,27.63\O,28.07,24.39,18.73\H,27.42,25.02,18.42\H,27.7,24.03,19.54\O,14
 .8,16.54,12.94\H,14.34,17.36,13.1\H,15.11,16.26,13.81\O,21.65,26.71,25
 .96\H,21.2,26.99,25.16\H,22.56,26.98,25.82\O,11.34,18.41,17.92\H,10.67
 ,18.89,17.43\H,11.39,18.87,18.76\O,27.95,22.76,22.5\H,28.63,23.15,21.9
 6\H,28.21,22.95,23.4\O,19.05,11.63,15.19\H,19.4,12.29,15.79\H,19.82,11
 .23,14.8\O,12.55,16.19,16.72\H,11.85,15.71,17.17\H,12.28,17.1,16.77\O,
 17.79,25.68,26.96\H,17.09,25.45,26.35\H,17.34,25.86,27.79\O,28.08,22.1
 8,15.2\H,27.36,21.55,15.25\H,27.97,22.61,14.35\O,13.48,13.73,18.38\H,1
 3.19,14.34,19.06\H,13.3,14.19,17.56\O,25.76,14.38,14.94\H,25.16,15.07,
 14.65\H,25.36,13.57,14.62\O,17.76,12.,24.25\H,17.33,11.49,24.93\H,17.0
 6,12.5,23.83\O,28.62,20.11,16.95\H,28.93,21.01,17.11\H,28.72,19.68,17.
 8\O,26.25,18.13,12.88\H,26.19,18.79,13.58\H,26.74,17.41,13.27\O,17.26,
 20.88,28.68\H,17.26,21.77,29.03\H,18.15,20.56,28.82\O,23.03,24.68,12.5
 3\H,23.21,25.5,12.98\H,22.07,24.64,12.48\O,12.64,22.54,24.69\H,12.18,2
 1.71,24.78\H,11.95,23.17,24.49\O,15.48,27.46,15.05\H,14.6,27.24,14.75\
 H,15.85,26.62,15.33\O,24.25,27.01,25.3\H,25.04,27.42,25.62\H,24.55,26.
 21,24.87\O,26.14,13.64,17.43\H,25.98,14.01,16.56\H,26.9,14.11,17.76\O,
 12.09,26.08,21.57\H,12.72,25.38,21.42\H,11.51,25.75,22.25\O,25.15,15.1
 9,25.91\H,25.45,15.49,26.77\H,24.34,14.71,26.1\O,22.84,22.35,11.4\H,22
 .42,22.63,10.59\H,22.96,23.15,11.91\O,14.28,12.16,20.79\H,13.93,12.85,
 20.21\H,15.22,12.14,20.6\O,13.99,23.55,13.68\H,14.69,23.89,13.12\H,13.
 94,24.17,14.4\O,26.62,25.11,15.52\H,27.25,24.64,16.06\H,26.3,24.45,14.
 9\O,29.06,17.51,23.03\H,29.28,17.8,23.92\H,28.76,18.3,22.59\O,15.4,11.
 71,17.71\H,14.8,12.42,17.93\H,16.04,11.71,18.43\\Version=ES64L-G09RevE
 .01\HF=-9773.2997185\RMSD=8.669e-10\RMSF=1.003e-02\Dipole=4.8186184,10
 .5520874,0.5534856\Quadrupole=71.7550392,305.3253366,-377.0803758,-765
 .5378814,-1238.4970088,-997.2626052\PG=C01 [X(Br1H256O128)]\\@


 My opinions may have changed, but not the fact that I am right.
                       -- Ashleigh Brilliant
 Job cpu time:       5 days 13 hours 16 minutes 58.8 seconds.
 File lengths (MBytes):  RWF=   7285 Int=      0 D2E=      0 Chk=   2411 Scr=      1
 Normal termination of Gaussian 09 at Sun May  6 00:31:07 2018.
