 Entering Gaussian System, Link 0=/cm/shared/gaussian/g09.e01/intel64-sandybridge/g09/g09
 Initial command:
 /cm/shared/gaussian/g09.e01/intel64-sandybridge/g09/l1.exe "/local/scratch/m.peluso/128_wat/Gau-49825.inp" -scrdir="/local/scratch/m.peluso/128_wat/"
 Entering Link 1 = /cm/shared/gaussian/g09.e01/intel64-sandybridge/g09/l1.exe PID=     49826.
  
 Copyright (c) 1988,1990,1992,1993,1995,1998,2003,2009,2015,
            Gaussian, Inc.  All Rights Reserved.
  
 This is part of the Gaussian(R) 09 program.  It is based on
 the Gaussian(R) 03 system (copyright 2003, Gaussian, Inc.),
 the Gaussian(R) 98 system (copyright 1998, Gaussian, Inc.),
 the Gaussian(R) 94 system (copyright 1995, Gaussian, Inc.),
 the Gaussian 92(TM) system (copyright 1992, Gaussian, Inc.),
 the Gaussian 90(TM) system (copyright 1990, Gaussian, Inc.),
 the Gaussian 88(TM) system (copyright 1988, Gaussian, Inc.),
 the Gaussian 86(TM) system (copyright 1986, Carnegie Mellon
 University), and the Gaussian 82(TM) system (copyright 1983,
 Carnegie Mellon University). Gaussian is a federally registered
 trademark of Gaussian, Inc.
  
 This software contains proprietary and confidential information,
 including trade secrets, belonging to Gaussian, Inc.
  
 This software is provided under written license and may be
 used, copied, transmitted, or stored only in accord with that
 written license.
  
 The following legend is applicable only to US Government
 contracts under FAR:
  
                    RESTRICTED RIGHTS LEGEND
  
 Use, reproduction and disclosure by the US Government is
 subject to restrictions as set forth in subparagraphs (a)
 and (c) of the Commercial Computer Software - Restricted
 Rights clause in FAR 52.227-19.
  
 Gaussian, Inc.
 340 Quinnipiac St., Bldg. 40, Wallingford CT 06492
  
  
 ---------------------------------------------------------------
 Warning -- This program may not be used in any manner that
 competes with the business of Gaussian, Inc. or will provide
 assistance to any competitor of Gaussian, Inc.  The licensee
 of this program is prohibited from giving any competitor of
 Gaussian, Inc. access to this program.  By using this program,
 the user acknowledges that Gaussian, Inc. is engaged in the
 business of creating and licensing software in the field of
 computational chemistry and represents and warrants to the
 licensee that it is not a competitor of Gaussian, Inc. and that
 it will not use this program in any manner prohibited above.
 ---------------------------------------------------------------
  

 Cite this work as:
 Gaussian 09, Revision E.01,
 M. J. Frisch, G. W. Trucks, H. B. Schlegel, G. E. Scuseria, 
 M. A. Robb, J. R. Cheeseman, G. Scalmani, V. Barone, B. Mennucci, 
 G. A. Petersson, H. Nakatsuji, M. Caricato, X. Li, H. P. Hratchian, 
 A. F. Izmaylov, J. Bloino, G. Zheng, J. L. Sonnenberg, M. Hada, 
 M. Ehara, K. Toyota, R. Fukuda, J. Hasegawa, M. Ishida, T. Nakajima, 
 Y. Honda, O. Kitao, H. Nakai, T. Vreven, J. A. Montgomery, Jr., 
 J. E. Peralta, F. Ogliaro, M. Bearpark, J. J. Heyd, E. Brothers, 
 K. N. Kudin, V. N. Staroverov, T. Keith, R. Kobayashi, J. Normand, 
 K. Raghavachari, A. Rendell, J. C. Burant, S. S. Iyengar, J. Tomasi, 
 M. Cossi, N. Rega, J. M. Millam, M. Klene, J. E. Knox, J. B. Cross, 
 V. Bakken, C. Adamo, J. Jaramillo, R. Gomperts, R. E. Stratmann, 
 O. Yazyev, A. J. Austin, R. Cammi, C. Pomelli, J. W. Ochterski, 
 R. L. Martin, K. Morokuma, V. G. Zakrzewski, G. A. Voth, 
 P. Salvador, J. J. Dannenberg, S. Dapprich, A. D. Daniels, 
 O. Farkas, J. B. Foresman, J. V. Ortiz, J. Cioslowski, 
 and D. J. Fox, Gaussian, Inc., Wallingford CT, 2013.
 
 ******************************************
 Gaussian 09:  ES64L-G09RevE.01 30-Nov-2015
                 6-May-2018 
 ******************************************
 %Mem=110GB
 %NProcShared=64
 Will use up to   64 processors via shared memory.
 %chk=snap15.chk
 ----------------------------------------------
 #p PBE1PBE/cc-pvDZ force Counterpoise=2 noSymm
 ----------------------------------------------
 1/10=7,30=1,38=1,62=2/1,3;
 2/12=2,15=1,17=6,18=5,40=1/2;
 1/10=7,30=1,38=1,53=2,62=2,63=101/22;
 3/5=16,11=2,16=1,25=1,30=1,71=1,74=-13/1,2,3;
 4//1;
 5/5=2,38=5/2;
 6/7=2,8=2,9=2,10=2,28=1/1;
 7/7=1,29=1,30=1,33=-1/1,2,3,16;
 1/10=7,30=1,53=2,62=2,63=101/22;
 3/5=7,6=11,11=2,16=1,25=1,30=1,71=1,74=-13,82=7/1,2,3;
 4//1;
 5/5=2,38=5/2;
 6/7=2,8=2,9=2,10=2,28=1/1;
 7/7=1,29=1,30=1,33=-1/1,2,3,16;
 1/10=7,30=1,53=2,62=2,63=101/22(-5);
 7/9=1,29=1,44=-1/16;
 1/10=7,30=1,62=2/3;
 99//99;
 Leave Link    1 at Sun May  6 17:47:58 2018, MaxMem= 14763950080 cpu:         6.1
 (Enter /cm/shared/gaussian/g09.e01/intel64-sandybridge/g09/l101.exe)
 ---------------------------------------
 forces on chloride comput - NWATER: 128
 ---------------------------------------
 Symbolic Z-matrix:
 Charge = -1 Multiplicity = 1 in supermolecule
 Charge = -1 Multiplicity = 1 in fragment      1.
 Charge =  0 Multiplicity = 1 in fragment      2.
 Br(Fragment=1)        20.       20.       20. 
 O(Fragment=2)         17.86     22.12     19.25 
 H(Fragment=2)         17.21     21.59     19.72 
 H(Fragment=2)         18.68     21.65     19.39 
 O(Fragment=2)         17.92     20.83     22.35 
 H(Fragment=2)         17.3      20.16     22.07 
 H(Fragment=2)         18.61     20.81     21.68 
 O(Fragment=2)         21.68     22.01     22.05 
 H(Fragment=2)         21.       21.99     22.73 
 H(Fragment=2)         21.35     21.42     21.37 
 O(Fragment=2)         19.74     16.89     21.11 
 H(Fragment=2)         20.13     16.45     20.35 
 H(Fragment=2)         19.6      17.79     20.83 
 O(Fragment=2)         22.67     18.29     19.35 
 H(Fragment=2)         21.97     17.73     19.02 
 H(Fragment=2)         22.23     19.07     19.68 
 O(Fragment=2)         20.76     22.29     17.62 
 H(Fragment=2)         20.62     21.98     16.73 
 H(Fragment=2)         20.58     21.53     18.17 
 O(Fragment=2)         20.31     18.66     16.94 
 H(Fragment=2)         19.76     17.97     17.31 
 H(Fragment=2)         20.34     19.33     17.62 
 O(Fragment=2)         16.63     19.5      18.61 
 H(Fragment=2)         17.2      19.42     19.38 
 H(Fragment=2)         15.89     18.92     18.81 
 O(Fragment=2)         18.11     17.04     18.02 
 H(Fragment=2)         17.8      16.44     17.34 
 H(Fragment=2)         17.49     17.77     18. 
 O(Fragment=2)         23.32     22.63     18.07 
 H(Fragment=2)         23.97     21.94     17.95 
 H(Fragment=2)         22.48     22.21     17.88 
 O(Fragment=2)         18.78     24.52     20.41 
 H(Fragment=2)         18.8      23.8      19.78 
 H(Fragment=2)         19.69     24.81     20.49 
 O(Fragment=2)         19.94     21.32     24.22 
 H(Fragment=2)         20.14     20.7      24.92 
 H(Fragment=2)         19.14     20.97     23.82 
 O(Fragment=2)         17.91     22.1      16.05 
 H(Fragment=2)         18.69     21.65     15.72 
 H(Fragment=2)         17.84     21.83     16.96 
 O(Fragment=2)         24.51     20.26     18.08 
 H(Fragment=2)         24.57     19.64     17.36 
 H(Fragment=2)         24.       19.8      18.75 
 O(Fragment=2)         16.3      18.59     21.41 
 H(Fragment=2)         15.96     18.13     22.18 
 H(Fragment=2)         16.02     18.05     20.67 
 O(Fragment=2)         24.54     21.69     21.51 
 H(Fragment=2)         24.91     22.08     20.72 
 H(Fragment=2)         23.6      21.9      21.46 
 O(Fragment=2)         23.81     16.57     21.15 
 H(Fragment=2)         23.85     17.       22.01 
 H(Fragment=2)         23.47     17.25     20.57 
 O(Fragment=2)         21.45     24.95     19.05 
 H(Fragment=2)         21.1      25.43     18.29 
 H(Fragment=2)         21.5      24.04     18.75 
 O(Fragment=2)         20.88     16.37     23.9 
 H(Fragment=2)         20.57     16.55     23.01 
 H(Fragment=2)         21.11     15.44     23.89 
 O(Fragment=2)         21.89     24.76     21.83 
 H(Fragment=2)         21.77     23.82     21.96 
 H(Fragment=2)         21.91     24.87     20.88 
 O(Fragment=2)         20.61     15.5      18.8 
 H(Fragment=2)         19.81     15.22     18.34 
 H(Fragment=2)         21.16     15.86     18.11 
 O(Fragment=2)         16.39     22.25     23.95 
 H(Fragment=2)         16.56     21.82     24.79 
 H(Fragment=2)         16.96     21.8      23.33 
 O(Fragment=2)         20.7      18.55     14.37 
 H(Fragment=2)         19.95     18.09     13.98 
 H(Fragment=2)         20.53     18.5      15.32 
 O(Fragment=2)         15.04     21.3      17.22 
 H(Fragment=2)         14.2      21.16     17.67 
 H(Fragment=2)         15.65     20.71     17.66 
 O(Fragment=2)         20.09     21.17     15.01 
 H(Fragment=2)         20.33     20.31     14.68 
 H(Fragment=2)         20.76     21.76     14.66 
 O(Fragment=2)         17.84     19.38     24.95 
 H(Fragment=2)         17.12     19.32     24.32 
 H(Fragment=2)         18.15     18.48     25.05 
 O(Fragment=2)         16.41     24.25     21.73 
 H(Fragment=2)         16.55     23.8      22.56 
 H(Fragment=2)         17.28     24.32     21.34 
 O(Fragment=2)         16.49     24.72     17.89 
 H(Fragment=2)         17.12     24.05     18.15 
 H(Fragment=2)         16.65     25.44     18.5 
 O(Fragment=2)         18.89     14.27     22.35 
 H(Fragment=2)         19.44     15.02     22.1 
 H(Fragment=2)         18.28     14.62     23. 
 O(Fragment=2)         22.26     16.17     16.51 
 H(Fragment=2)         22.14     16.8      15.81 
 H(Fragment=2)         23.19     15.95     16.49 
 O(Fragment=2)         18.91     16.82     25.5 
 H(Fragment=2)         19.42     16.75     26.31 
 H(Fragment=2)         19.56     16.75     24.8 
 O(Fragment=2)         24.37     24.93     18.83 
 H(Fragment=2)         24.01     24.07     18.61 
 H(Fragment=2)         25.11     24.74     19.4 
 O(Fragment=2)         14.28     22.11     20.55 
 H(Fragment=2)         14.82     22.78     20.13 
 H(Fragment=2)         13.88     21.63     19.82 
 O(Fragment=2)         23.06     19.69     14.87 
 H(Fragment=2)         22.23     19.34     14.54 
 H(Fragment=2)         23.61     18.92     15.02 
 O(Fragment=2)         14.51     17.96     18.95 
 H(Fragment=2)         14.31     17.02     18.91 
 H(Fragment=2)         13.75     18.35     19.39 
 O(Fragment=2)         26.53     19.73     21.91 
 H(Fragment=2)         25.71     20.18     21.73 
 H(Fragment=2)         26.41     19.35     22.78 
 O(Fragment=2)         21.37     23.67     14.91 
 H(Fragment=2)         20.74     23.94     15.57 
 H(Fragment=2)         22.21     24.       15.22 
 O(Fragment=2)         17.69     21.07     13.41 
 H(Fragment=2)         18.17     20.75     14.18 
 H(Fragment=2)         18.19     21.82     13.11 
 O(Fragment=2)         21.58     12.99     19.84 
 H(Fragment=2)         21.22     13.88     19.89 
 H(Fragment=2)         22.22     12.96     20.56 
 O(Fragment=2)         15.53     18.01     23.95 
 H(Fragment=2)         15.56     17.07     24.11 
 H(Fragment=2)         14.67     18.28     24.3 
 O(Fragment=2)         23.91     22.47     25.4 
 H(Fragment=2)         23.8      22.47     24.45 
 H(Fragment=2)         24.35     23.29     25.6 
 O(Fragment=2)         18.33     14.25     17.34 
 H(Fragment=2)         17.51     14.61     17.69 
 H(Fragment=2)         18.1      13.93     16.46 
 O(Fragment=2)         26.15     16.53     19.55 
 H(Fragment=2)         26.57     15.68     19.67 
 H(Fragment=2)         25.27     16.41     19.91 
 O(Fragment=2)         26.61     21.86     18.7 
 H(Fragment=2)         27.55     21.73     18.8 
 H(Fragment=2)         26.23     20.99     18.79 
 O(Fragment=2)         20.44     26.27     23.53 
 H(Fragment=2)         20.4      25.96     24.44 
 H(Fragment=2)         21.12     25.73     23.13 
 O(Fragment=2)         24.43     22.03     14.63 
 H(Fragment=2)         23.78     22.73     14.71 
 H(Fragment=2)         23.92     21.23     14.75 
 O(Fragment=2)         16.93     21.15     26.75 
 H(Fragment=2)         17.38     20.57     26.14 
 H(Fragment=2)         16.68     20.59     27.48 
 O(Fragment=2)         23.31     13.69     22.12 
 H(Fragment=2)         24.03     13.13     21.83 
 H(Fragment=2)         23.51     14.55     21.74 
 O(Fragment=2)         23.63     24.69     15.8 
 H(Fragment=2)         24.18     25.47     15.67 
 H(Fragment=2)         24.01     24.26     16.56 
 O(Fragment=2)         16.72     24.57     15.03 
 H(Fragment=2)         16.87     24.93     15.91 
 H(Fragment=2)         16.99     23.65     15.1 
 O(Fragment=2)         13.7      22.18     23.23 
 H(Fragment=2)         13.73     22.05     22.28 
 H(Fragment=2)         14.61     22.39     23.46 
 O(Fragment=2)         16.89     26.96     20. 
 H(Fragment=2)         17.65     26.42     20.25 
 H(Fragment=2)         16.76     27.55     20.74 
 O(Fragment=2)         15.01     20.46     14.4 
 H(Fragment=2)         15.02     20.72     15.33 
 H(Fragment=2)         15.92     20.51     14.13 
 O(Fragment=2)         15.79     15.56     16.61 
 H(Fragment=2)         15.41     16.37     16.29 
 H(Fragment=2)         15.04     15.01     16.84 
 O(Fragment=2)         20.47     14.7      14.63 
 H(Fragment=2)         21.13     15.16     15.16 
 H(Fragment=2)         20.84     14.68     13.75 
 O(Fragment=2)         25.13     15.87     16.94 
 H(Fragment=2)         25.59     16.55     16.45 
 H(Fragment=2)         25.33     16.05     17.86 
 O(Fragment=2)         23.77     26.03     23.61 
 H(Fragment=2)         23.22     26.75     23.92 
 H(Fragment=2)         23.24     25.61     22.92 
 O(Fragment=2)         14.56     15.11     19.94 
 H(Fragment=2)         15.35     14.59     20.07 
 H(Fragment=2)         13.86     14.47     19.88 
 O(Fragment=2)         26.18     23.29     23.44 
 H(Fragment=2)         26.99     22.88     23.75 
 H(Fragment=2)         26.01     22.87     22.6 
 O(Fragment=2)         26.13     18.62     16.25 
 H(Fragment=2)         26.47     18.62     17.14 
 H(Fragment=2)         26.53     19.39     15.84 
 O(Fragment=2)         21.48     13.75     23.86 
 H(Fragment=2)         22.18     13.91     23.22 
 H(Fragment=2)         21.26     12.82     23.76 
 O(Fragment=2)         14.13     25.15     20.36 
 H(Fragment=2)         14.12     24.35     19.83 
 H(Fragment=2)         14.89     25.06     20.92 
 O(Fragment=2)         14.11     17.82     16.09 
 H(Fragment=2)         13.66     18.58     15.72 
 H(Fragment=2)         13.79     17.77     16.99 
 O(Fragment=2)         15.99     17.57     13.89 
 H(Fragment=2)         15.59     18.15     14.53 
 H(Fragment=2)         15.59     17.81     13.06 
 O(Fragment=2)         13.89     23.82     16.36 
 H(Fragment=2)         14.37     22.99     16.41 
 H(Fragment=2)         14.44     24.44     16.85 
 O(Fragment=2)         19.22     23.25     13.06 
 H(Fragment=2)         18.41     23.75     13.08 
 H(Fragment=2)         19.82     23.72     13.64 
 O(Fragment=2)         20.81     26.62     16.82 
 H(Fragment=2)         20.55     27.43     17.26 
 H(Fragment=2)         20.52     26.75     15.91 
 O(Fragment=2)         18.56     17.26     13.23 
 H(Fragment=2)         18.57     16.49     12.66 
 H(Fragment=2)         17.65     17.33     13.52 
 O(Fragment=2)         13.38     16.78     21.79 
 H(Fragment=2)         13.75     16.2      21.13 
 H(Fragment=2)         12.96     16.2      22.42 
 O(Fragment=2)         23.11     16.99     13.92 
 H(Fragment=2)         23.85     16.49     13.58 
 H(Fragment=2)         22.48     17.02     13.19 
 O(Fragment=2)         19.06     23.85     26.97 
 H(Fragment=2)         18.8      22.96     26.76 
 H(Fragment=2)         18.25     24.29     27.24 
 O(Fragment=2)         17.21     14.83     25.69 
 H(Fragment=2)         16.52     15.03     25.06 
 H(Fragment=2)         17.8      15.57     25.65 
 O(Fragment=2)         12.6      20.59     18.45 
 H(Fragment=2)         11.79     20.46     17.96 
 H(Fragment=2)         12.51     20.02     19.21 
 O(Fragment=2)         21.52     24.74     26.68 
 H(Fragment=2)         20.61     24.44     26.73 
 H(Fragment=2)         21.89     24.24     25.94 
 O(Fragment=2)         27.67     18.51     18.72 
 H(Fragment=2)         28.09     18.85     19.51 
 H(Fragment=2)         27.15     17.77     19.03 
 O(Fragment=2)         15.39     14.89     23.76 
 H(Fragment=2)         14.49     14.63     23.99 
 H(Fragment=2)         15.48     14.65     22.84 
 O(Fragment=2)         18.22     27.58     22.4 
 H(Fragment=2)         18.61     28.44     22.3 
 H(Fragment=2)         18.95     27.01     22.64 
 O(Fragment=2)         22.28     21.92     27.62 
 H(Fragment=2)         22.8      21.84     26.82 
 H(Fragment=2)         21.78     21.1      27.66 
 O(Fragment=2)         23.38     27.37     17.75 
 H(Fragment=2)         23.45     26.54     18.22 
 H(Fragment=2)         22.63     27.25     17.16 
 O(Fragment=2)         12.37     18.83     20.46 
 H(Fragment=2)         12.59     18.08     21.01 
 H(Fragment=2)         11.88     19.42     21.03 
 O(Fragment=2)         20.21     19.75     28.1 
 H(Fragment=2)         20.1      19.59     29.04 
 H(Fragment=2)         19.88     18.95     27.68 
 O(Fragment=2)         26.31     18.77     24.44 
 H(Fragment=2)         27.2      18.79     24.79 
 H(Fragment=2)         26.17     17.85     24.2 
 O(Fragment=2)         17.79     14.24     14.31 
 H(Fragment=2)         18.68     14.54     14.47 
 H(Fragment=2)         17.24     15.       14.51 
 O(Fragment=2)         18.89     11.51     21.89 
 H(Fragment=2)         19.02     12.44     22.02 
 H(Fragment=2)         19.18     11.11     22.71 
 O(Fragment=2)         24.97     18.27     27.04 
 H(Fragment=2)         24.23     18.12     27.62 
 H(Fragment=2)         24.65     18.04     26.16 
 O(Fragment=2)         21.59     12.18     16.51 
 H(Fragment=2)         22.34     12.76     16.45 
 H(Fragment=2)         20.94     12.67     17.02 
 O(Fragment=2)         27.25     24.45     19.18 
 H(Fragment=2)         27.01     23.61     18.78 
 H(Fragment=2)         28.17     24.34     19.42 
 O(Fragment=2)         28.86     19.05     21.12 
 H(Fragment=2)         29.1      18.28     21.63 
 H(Fragment=2)         27.93     19.2      21.31 
 O(Fragment=2)         15.93     12.84     21.49 
 H(Fragment=2)         16.17     11.98     21.16 
 H(Fragment=2)         16.52     12.98     22.24 
 O(Fragment=2)         27.33     21.38     15.15 
 H(Fragment=2)         26.48     21.76     15.37 
 H(Fragment=2)         27.16     20.88     14.35 
 O(Fragment=2)         24.21     13.48     16.11 
 H(Fragment=2)         24.5      12.78     16.7 
 H(Fragment=2)         24.64     14.27     16.45 
 O(Fragment=2)         17.08     11.89     18.12 
 H(Fragment=2)         16.6      12.06     17.31 
 H(Fragment=2)         17.94     12.3      17.98 
 O(Fragment=2)         25.89     20.97     26.63 
 H(Fragment=2)         25.63     20.11     26.28 
 H(Fragment=2)         25.31     21.59     26.2 
 O(Fragment=2)         11.74     20.23     22.69 
 H(Fragment=2)         12.28     20.85     23.18 
 H(Fragment=2)         12.18     19.39     22.8 
 O(Fragment=2)         24.       14.88     25.71 
 H(Fragment=2)         23.06     14.69     25.67 
 H(Fragment=2)         24.25     14.7      26.62 
 O(Fragment=2)         20.73     16.4      27.54 
 H(Fragment=2)         20.31     16.       28.31 
 H(Fragment=2)         21.32     15.72     27.22 
 O(Fragment=2)         22.65     25.65     13.01 
 H(Fragment=2)         23.53     25.98     13.22 
 H(Fragment=2)         22.46     25.02     13.71 
 O(Fragment=2)         25.25     13.35     20.15 
 H(Fragment=2)         26.14     13.6      20.39 
 H(Fragment=2)         25.36     12.76     19.4 
 O(Fragment=2)         22.28     18.39     11.53 
 H(Fragment=2)         21.51     18.95     11.63 
 H(Fragment=2)         22.75     18.77     10.79 
 O(Fragment=2)         24.42     27.5      21.14 
 H(Fragment=2)         24.6      27.23     20.24 
 H(Fragment=2)         25.04     26.99     21.67 
 O(Fragment=2)         26.42     16.13     24.68 
 H(Fragment=2)         27.07     15.83     25.32 
 H(Fragment=2)         25.62     15.66     24.91 
 O(Fragment=2)         21.53     14.03     26.79 
 H(Fragment=2)         21.11     13.82     25.95 
 H(Fragment=2)         22.05     13.25     26.99 
 O(Fragment=2)         18.28     19.89     10.73 
 H(Fragment=2)         17.94     20.16     11.58 
 H(Fragment=2)         18.56     18.99     10.86 
 O(Fragment=2)         12.41     19.96     14.83 
 H(Fragment=2)         11.93     20.74     14.54 
 H(Fragment=2)         13.29     20.06     14.47 
 O(Fragment=2)         16.4      26.91     24.42 
 H(Fragment=2)         16.71     27.24     23.58 
 H(Fragment=2)         17.18     26.89     24.98 
 O(Fragment=2)         22.19     28.74     20.54 
 H(Fragment=2)         21.79     28.79     21.41 
 H(Fragment=2)         22.98     28.21     20.67 
 O(Fragment=2)         16.92     28.92     18.06 
 H(Fragment=2)         17.15     28.19     18.63 
 H(Fragment=2)         16.18     28.6      17.54 
 O(Fragment=2)         12.14     16.59     18.08 
 H(Fragment=2)         11.88     15.9      18.7 
 H(Fragment=2)         11.35     16.77     17.58 
 O(Fragment=2)         13.89     25.69     24.07 
 H(Fragment=2)         13.82     24.95     24.67 
 H(Fragment=2)         14.83     25.86     24.01 
 O(Fragment=2)         20.43     10.41     19.67 
 H(Fragment=2)         19.74     10.62     20.3 
 H(Fragment=2)         20.88     11.24     19.52 
 O(Fragment=2)         25.31     18.71     12.51 
 H(Fragment=2)         25.57     17.8      12.66 
 H(Fragment=2)         24.36     18.68     12.45 
 O(Fragment=2)         25.69     21.32     12.22 
 H(Fragment=2)         25.27     21.62     13.03 
 H(Fragment=2)         25.69     20.37     12.29 
 O(Fragment=2)         13.22     23.61     25.82 
 H(Fragment=2)         13.92     23.47     26.46 
 H(Fragment=2)         13.36     22.93     25.16 
 O(Fragment=2)         14.64     22.18     27.92 
 H(Fragment=2)         15.4      22.04     27.35 
 H(Fragment=2)         14.92     22.84     28.55 
 O(Fragment=2)         22.7      17.73     28.66 
 H(Fragment=2)         21.96     17.24     28.28 
 H(Fragment=2)         22.3      18.5      29.05 
 O(Fragment=2)         14.24     23.34     13.18 
 H(Fragment=2)         15.09     23.36     12.74 
 H(Fragment=2)         14.42     23.69     14.06 
 O(Fragment=2)         25.3      24.75     25.87 
 H(Fragment=2)         25.02     25.67     25.93 
 H(Fragment=2)         25.75     24.69     25.03 
 O(Fragment=2)         20.06     29.17     18.62 
 H(Fragment=2)         19.76     30.06     18.79 
 H(Fragment=2)         20.6      28.95     19.38 
 O(Fragment=2)         28.46     21.59     23.42 
 H(Fragment=2)         28.55     20.97     22.7 
 H(Fragment=2)         28.83     22.41     23.08 
 O(Fragment=2)         12.71     15.55     15.08 
 H(Fragment=2)         13.47     15.54     15.66 
 H(Fragment=2)         12.21     16.32     15.35 
 O(Fragment=2)         18.82     11.76     15.18 
 H(Fragment=2)         18.86     12.66     14.86 
 H(Fragment=2)         19.69     11.4      14.99 
 O(Fragment=2)         27.01     26.07     22.32 
 H(Fragment=2)         26.9      25.19     22.69 
 H(Fragment=2)         27.07     26.64     23.08 
 O(Fragment=2)         18.41     12.64     26.52 
 H(Fragment=2)         18.62     12.92     27.41 
 H(Fragment=2)         18.18     13.45     26.06 
 O(Fragment=2)         12.6      18.43     25.11 
 H(Fragment=2)         11.78     18.66     25.56 
 H(Fragment=2)         12.72     17.5      25.31 
 O(Fragment=2)         14.74     26.33     14.28 
 H(Fragment=2)         15.07     26.59     13.42 
 H(Fragment=2)         15.26     25.55     14.51 
 O(Fragment=2)         27.2      25.54     15.9 
 H(Fragment=2)         26.72     25.34     16.71 
 H(Fragment=2)         27.99     25.01     15.96 
 O(Fragment=2)         23.7      13.62     13.51 
 H(Fragment=2)         23.62     13.61     14.46 
 H(Fragment=2)         23.99     12.74     13.28 
 O(Fragment=2)         28.91     22.45     17.25 
 H(Fragment=2)         29.21     23.02     16.53 
 H(Fragment=2)         28.52     21.7      16.81 
 
 NAtoms=    385 NQM=      385 NQMF=       0 NMMI=      0 NMMIF=      0
                NMic=       0 NMicF=      0.
                    Isotopes and Nuclear Properties:
 (Nuclear quadrupole moments (NQMom) in fm**2, nuclear magnetic moments (NMagM)
  in nuclear magnetons)

  Atom         1           2           3           4           5           6           7           8           9          10
 IAtWgt=          79          16           1           1          16           1           1          16           1           1
 AtmWgt=  78.9183361  15.9949146   1.0078250   1.0078250  15.9949146   1.0078250   1.0078250  15.9949146   1.0078250   1.0078250
 NucSpn=           3           0           1           1           0           1           1           0           1           1
 AtZEff=   0.0000000   0.0000000   0.0000000   0.0000000   0.0000000   0.0000000   0.0000000   0.0000000   0.0000000   0.0000000
 NQMom=   31.3000000   0.0000000   0.0000000   0.0000000   0.0000000   0.0000000   0.0000000   0.0000000   0.0000000   0.0000000
 NMagM=    2.1063990   0.0000000   2.7928460   2.7928460   0.0000000   2.7928460   2.7928460   0.0000000   2.7928460   2.7928460
 AtZNuc=  35.0000000   8.0000000   1.0000000   1.0000000   8.0000000   1.0000000   1.0000000   8.0000000   1.0000000   1.0000000

  Atom        11          12          13          14          15          16          17          18          19          20
 IAtWgt=          16           1           1          16           1           1          16           1           1          16
 AtmWgt=  15.9949146   1.0078250   1.0078250  15.9949146   1.0078250   1.0078250  15.9949146   1.0078250   1.0078250  15.9949146
 NucSpn=           0           1           1           0           1           1           0           1           1           0
 AtZEff=   0.0000000   0.0000000   0.0000000   0.0000000   0.0000000   0.0000000   0.0000000   0.0000000   0.0000000   0.0000000
 NQMom=    0.0000000   0.0000000   0.0000000   0.0000000   0.0000000   0.0000000   0.0000000   0.0000000   0.0000000   0.0000000
 NMagM=    0.0000000   2.7928460   2.7928460   0.0000000   2.7928460   2.7928460   0.0000000   2.7928460   2.7928460   0.0000000
 AtZNuc=   8.0000000   1.0000000   1.0000000   8.0000000   1.0000000   1.0000000   8.0000000   1.0000000   1.0000000   8.0000000

  Atom        21          22          23          24          25          26          27          28          29          30
 IAtWgt=           1           1          16           1           1          16           1           1          16           1
 AtmWgt=   1.0078250   1.0078250  15.9949146   1.0078250   1.0078250  15.9949146   1.0078250   1.0078250  15.9949146   1.0078250
 NucSpn=           1           1           0           1           1           0           1           1           0           1
 AtZEff=   0.0000000   0.0000000   0.0000000   0.0000000   0.0000000   0.0000000   0.0000000   0.0000000   0.0000000   0.0000000
 NQMom=    0.0000000   0.0000000   0.0000000   0.0000000   0.0000000   0.0000000   0.0000000   0.0000000   0.0000000   0.0000000
 NMagM=    2.7928460   2.7928460   0.0000000   2.7928460   2.7928460   0.0000000   2.7928460   2.7928460   0.0000000   2.7928460
 AtZNuc=   1.0000000   1.0000000   8.0000000   1.0000000   1.0000000   8.0000000   1.0000000   1.0000000   8.0000000   1.0000000

  Atom        31          32          33          34          35          36          37          38          39          40
 IAtWgt=           1          16           1           1          16           1           1          16           1           1
 AtmWgt=   1.0078250  15.9949146   1.0078250   1.0078250  15.9949146   1.0078250   1.0078250  15.9949146   1.0078250   1.0078250
 NucSpn=           1           0           1           1           0           1           1           0           1           1
 AtZEff=   0.0000000   0.0000000   0.0000000   0.0000000   0.0000000   0.0000000   0.0000000   0.0000000   0.0000000   0.0000000
 NQMom=    0.0000000   0.0000000   0.0000000   0.0000000   0.0000000   0.0000000   0.0000000   0.0000000   0.0000000   0.0000000
 NMagM=    2.7928460   0.0000000   2.7928460   2.7928460   0.0000000   2.7928460   2.7928460   0.0000000   2.7928460   2.7928460
 AtZNuc=   1.0000000   8.0000000   1.0000000   1.0000000   8.0000000   1.0000000   1.0000000   8.0000000   1.0000000   1.0000000

  Atom        41          42          43          44          45          46          47          48          49          50
 IAtWgt=          16           1           1          16           1           1          16           1           1          16
 AtmWgt=  15.9949146   1.0078250   1.0078250  15.9949146   1.0078250   1.0078250  15.9949146   1.0078250   1.0078250  15.9949146
 NucSpn=           0           1           1           0           1           1           0           1           1           0
 AtZEff=   0.0000000   0.0000000   0.0000000   0.0000000   0.0000000   0.0000000   0.0000000   0.0000000   0.0000000   0.0000000
 NQMom=    0.0000000   0.0000000   0.0000000   0.0000000   0.0000000   0.0000000   0.0000000   0.0000000   0.0000000   0.0000000
 NMagM=    0.0000000   2.7928460   2.7928460   0.0000000   2.7928460   2.7928460   0.0000000   2.7928460   2.7928460   0.0000000
 AtZNuc=   8.0000000   1.0000000   1.0000000   8.0000000   1.0000000   1.0000000   8.0000000   1.0000000   1.0000000   8.0000000

  Atom        51          52          53          54          55          56          57          58          59          60
 IAtWgt=           1           1          16           1           1          16           1           1          16           1
 AtmWgt=   1.0078250   1.0078250  15.9949146   1.0078250   1.0078250  15.9949146   1.0078250   1.0078250  15.9949146   1.0078250
 NucSpn=           1           1           0           1           1           0           1           1           0           1
 AtZEff=   0.0000000   0.0000000   0.0000000   0.0000000   0.0000000   0.0000000   0.0000000   0.0000000   0.0000000   0.0000000
 NQMom=    0.0000000   0.0000000   0.0000000   0.0000000   0.0000000   0.0000000   0.0000000   0.0000000   0.0000000   0.0000000
 NMagM=    2.7928460   2.7928460   0.0000000   2.7928460   2.7928460   0.0000000   2.7928460   2.7928460   0.0000000   2.7928460
 AtZNuc=   1.0000000   1.0000000   8.0000000   1.0000000   1.0000000   8.0000000   1.0000000   1.0000000   8.0000000   1.0000000

  Atom        61          62          63          64          65          66          67          68          69          70
 IAtWgt=           1          16           1           1          16           1           1          16           1           1
 AtmWgt=   1.0078250  15.9949146   1.0078250   1.0078250  15.9949146   1.0078250   1.0078250  15.9949146   1.0078250   1.0078250
 NucSpn=           1           0           1           1           0           1           1           0           1           1
 AtZEff=   0.0000000   0.0000000   0.0000000   0.0000000   0.0000000   0.0000000   0.0000000   0.0000000   0.0000000   0.0000000
 NQMom=    0.0000000   0.0000000   0.0000000   0.0000000   0.0000000   0.0000000   0.0000000   0.0000000   0.0000000   0.0000000
 NMagM=    2.7928460   0.0000000   2.7928460   2.7928460   0.0000000   2.7928460   2.7928460   0.0000000   2.7928460   2.7928460
 AtZNuc=   1.0000000   8.0000000   1.0000000   1.0000000   8.0000000   1.0000000   1.0000000   8.0000000   1.0000000   1.0000000

  Atom        71          72          73          74          75          76          77          78          79          80
 IAtWgt=          16           1           1          16           1           1          16           1           1          16
 AtmWgt=  15.9949146   1.0078250   1.0078250  15.9949146   1.0078250   1.0078250  15.9949146   1.0078250   1.0078250  15.9949146
 NucSpn=           0           1           1           0           1           1           0           1           1           0
 AtZEff=   0.0000000   0.0000000   0.0000000   0.0000000   0.0000000   0.0000000   0.0000000   0.0000000   0.0000000   0.0000000
 NQMom=    0.0000000   0.0000000   0.0000000   0.0000000   0.0000000   0.0000000   0.0000000   0.0000000   0.0000000   0.0000000
 NMagM=    0.0000000   2.7928460   2.7928460   0.0000000   2.7928460   2.7928460   0.0000000   2.7928460   2.7928460   0.0000000
 AtZNuc=   8.0000000   1.0000000   1.0000000   8.0000000   1.0000000   1.0000000   8.0000000   1.0000000   1.0000000   8.0000000

  Atom        81          82          83          84          85          86          87          88          89          90
 IAtWgt=           1           1          16           1           1          16           1           1          16           1
 AtmWgt=   1.0078250   1.0078250  15.9949146   1.0078250   1.0078250  15.9949146   1.0078250   1.0078250  15.9949146   1.0078250
 NucSpn=           1           1           0           1           1           0           1           1           0           1
 AtZEff=   0.0000000   0.0000000   0.0000000   0.0000000   0.0000000   0.0000000   0.0000000   0.0000000   0.0000000   0.0000000
 NQMom=    0.0000000   0.0000000   0.0000000   0.0000000   0.0000000   0.0000000   0.0000000   0.0000000   0.0000000   0.0000000
 NMagM=    2.7928460   2.7928460   0.0000000   2.7928460   2.7928460   0.0000000   2.7928460   2.7928460   0.0000000   2.7928460
 AtZNuc=   1.0000000   1.0000000   8.0000000   1.0000000   1.0000000   8.0000000   1.0000000   1.0000000   8.0000000   1.0000000

  Atom        91          92          93          94          95          96          97          98          99         100
 IAtWgt=           1          16           1           1          16           1           1          16           1           1
 AtmWgt=   1.0078250  15.9949146   1.0078250   1.0078250  15.9949146   1.0078250   1.0078250  15.9949146   1.0078250   1.0078250
 NucSpn=           1           0           1           1           0           1           1           0           1           1
 AtZEff=   0.0000000   0.0000000   0.0000000   0.0000000   0.0000000   0.0000000   0.0000000   0.0000000   0.0000000   0.0000000
 NQMom=    0.0000000   0.0000000   0.0000000   0.0000000   0.0000000   0.0000000   0.0000000   0.0000000   0.0000000   0.0000000
 NMagM=    2.7928460   0.0000000   2.7928460   2.7928460   0.0000000   2.7928460   2.7928460   0.0000000   2.7928460   2.7928460
 AtZNuc=   1.0000000   8.0000000   1.0000000   1.0000000   8.0000000   1.0000000   1.0000000   8.0000000   1.0000000   1.0000000

  Atom       101         102         103         104         105         106         107         108         109         110
 IAtWgt=          16           1           1          16           1           1          16           1           1          16
 AtmWgt=  15.9949146   1.0078250   1.0078250  15.9949146   1.0078250   1.0078250  15.9949146   1.0078250   1.0078250  15.9949146
 NucSpn=           0           1           1           0           1           1           0           1           1           0
 AtZEff=   0.0000000   0.0000000   0.0000000   0.0000000   0.0000000   0.0000000   0.0000000   0.0000000   0.0000000   0.0000000
 NQMom=    0.0000000   0.0000000   0.0000000   0.0000000   0.0000000   0.0000000   0.0000000   0.0000000   0.0000000   0.0000000
 NMagM=    0.0000000   2.7928460   2.7928460   0.0000000   2.7928460   2.7928460   0.0000000   2.7928460   2.7928460   0.0000000
 AtZNuc=   8.0000000   1.0000000   1.0000000   8.0000000   1.0000000   1.0000000   8.0000000   1.0000000   1.0000000   8.0000000

  Atom       111         112         113         114         115         116         117         118         119         120
 IAtWgt=           1           1          16           1           1          16           1           1          16           1
 AtmWgt=   1.0078250   1.0078250  15.9949146   1.0078250   1.0078250  15.9949146   1.0078250   1.0078250  15.9949146   1.0078250
 NucSpn=           1           1           0           1           1           0           1           1           0           1
 AtZEff=   0.0000000   0.0000000   0.0000000   0.0000000   0.0000000   0.0000000   0.0000000   0.0000000   0.0000000   0.0000000
 NQMom=    0.0000000   0.0000000   0.0000000   0.0000000   0.0000000   0.0000000   0.0000000   0.0000000   0.0000000   0.0000000
 NMagM=    2.7928460   2.7928460   0.0000000   2.7928460   2.7928460   0.0000000   2.7928460   2.7928460   0.0000000   2.7928460
 AtZNuc=   1.0000000   1.0000000   8.0000000   1.0000000   1.0000000   8.0000000   1.0000000   1.0000000   8.0000000   1.0000000

  Atom       121         122         123         124         125         126         127         128         129         130
 IAtWgt=           1          16           1           1          16           1           1          16           1           1
 AtmWgt=   1.0078250  15.9949146   1.0078250   1.0078250  15.9949146   1.0078250   1.0078250  15.9949146   1.0078250   1.0078250
 NucSpn=           1           0           1           1           0           1           1           0           1           1
 AtZEff=   0.0000000   0.0000000   0.0000000   0.0000000   0.0000000   0.0000000   0.0000000   0.0000000   0.0000000   0.0000000
 NQMom=    0.0000000   0.0000000   0.0000000   0.0000000   0.0000000   0.0000000   0.0000000   0.0000000   0.0000000   0.0000000
 NMagM=    2.7928460   0.0000000   2.7928460   2.7928460   0.0000000   2.7928460   2.7928460   0.0000000   2.7928460   2.7928460
 AtZNuc=   1.0000000   8.0000000   1.0000000   1.0000000   8.0000000   1.0000000   1.0000000   8.0000000   1.0000000   1.0000000

  Atom       131         132         133         134         135         136         137         138         139         140
 IAtWgt=          16           1           1          16           1           1          16           1           1          16
 AtmWgt=  15.9949146   1.0078250   1.0078250  15.9949146   1.0078250   1.0078250  15.9949146   1.0078250   1.0078250  15.9949146
 NucSpn=           0           1           1           0           1           1           0           1           1           0
 AtZEff=   0.0000000   0.0000000   0.0000000   0.0000000   0.0000000   0.0000000   0.0000000   0.0000000   0.0000000   0.0000000
 NQMom=    0.0000000   0.0000000   0.0000000   0.0000000   0.0000000   0.0000000   0.0000000   0.0000000   0.0000000   0.0000000
 NMagM=    0.0000000   2.7928460   2.7928460   0.0000000   2.7928460   2.7928460   0.0000000   2.7928460   2.7928460   0.0000000
 AtZNuc=   8.0000000   1.0000000   1.0000000   8.0000000   1.0000000   1.0000000   8.0000000   1.0000000   1.0000000   8.0000000

  Atom       141         142         143         144         145         146         147         148         149         150
 IAtWgt=           1           1          16           1           1          16           1           1          16           1
 AtmWgt=   1.0078250   1.0078250  15.9949146   1.0078250   1.0078250  15.9949146   1.0078250   1.0078250  15.9949146   1.0078250
 NucSpn=           1           1           0           1           1           0           1           1           0           1
 AtZEff=   0.0000000   0.0000000   0.0000000   0.0000000   0.0000000   0.0000000   0.0000000   0.0000000   0.0000000   0.0000000
 NQMom=    0.0000000   0.0000000   0.0000000   0.0000000   0.0000000   0.0000000   0.0000000   0.0000000   0.0000000   0.0000000
 NMagM=    2.7928460   2.7928460   0.0000000   2.7928460   2.7928460   0.0000000   2.7928460   2.7928460   0.0000000   2.7928460
 AtZNuc=   1.0000000   1.0000000   8.0000000   1.0000000   1.0000000   8.0000000   1.0000000   1.0000000   8.0000000   1.0000000

  Atom       151         152         153         154         155         156         157         158         159         160
 IAtWgt=           1          16           1           1          16           1           1          16           1           1
 AtmWgt=   1.0078250  15.9949146   1.0078250   1.0078250  15.9949146   1.0078250   1.0078250  15.9949146   1.0078250   1.0078250
 NucSpn=           1           0           1           1           0           1           1           0           1           1
 AtZEff=   0.0000000   0.0000000   0.0000000   0.0000000   0.0000000   0.0000000   0.0000000   0.0000000   0.0000000   0.0000000
 NQMom=    0.0000000   0.0000000   0.0000000   0.0000000   0.0000000   0.0000000   0.0000000   0.0000000   0.0000000   0.0000000
 NMagM=    2.7928460   0.0000000   2.7928460   2.7928460   0.0000000   2.7928460   2.7928460   0.0000000   2.7928460   2.7928460
 AtZNuc=   1.0000000   8.0000000   1.0000000   1.0000000   8.0000000   1.0000000   1.0000000   8.0000000   1.0000000   1.0000000

  Atom       161         162         163         164         165         166         167         168         169         170
 IAtWgt=          16           1           1          16           1           1          16           1           1          16
 AtmWgt=  15.9949146   1.0078250   1.0078250  15.9949146   1.0078250   1.0078250  15.9949146   1.0078250   1.0078250  15.9949146
 NucSpn=           0           1           1           0           1           1           0           1           1           0
 AtZEff=   0.0000000   0.0000000   0.0000000   0.0000000   0.0000000   0.0000000   0.0000000   0.0000000   0.0000000   0.0000000
 NQMom=    0.0000000   0.0000000   0.0000000   0.0000000   0.0000000   0.0000000   0.0000000   0.0000000   0.0000000   0.0000000
 NMagM=    0.0000000   2.7928460   2.7928460   0.0000000   2.7928460   2.7928460   0.0000000   2.7928460   2.7928460   0.0000000
 AtZNuc=   8.0000000   1.0000000   1.0000000   8.0000000   1.0000000   1.0000000   8.0000000   1.0000000   1.0000000   8.0000000

  Atom       171         172         173         174         175         176         177         178         179         180
 IAtWgt=           1           1          16           1           1          16           1           1          16           1
 AtmWgt=   1.0078250   1.0078250  15.9949146   1.0078250   1.0078250  15.9949146   1.0078250   1.0078250  15.9949146   1.0078250
 NucSpn=           1           1           0           1           1           0           1           1           0           1
 AtZEff=   0.0000000   0.0000000   0.0000000   0.0000000   0.0000000   0.0000000   0.0000000   0.0000000   0.0000000   0.0000000
 NQMom=    0.0000000   0.0000000   0.0000000   0.0000000   0.0000000   0.0000000   0.0000000   0.0000000   0.0000000   0.0000000
 NMagM=    2.7928460   2.7928460   0.0000000   2.7928460   2.7928460   0.0000000   2.7928460   2.7928460   0.0000000   2.7928460
 AtZNuc=   1.0000000   1.0000000   8.0000000   1.0000000   1.0000000   8.0000000   1.0000000   1.0000000   8.0000000   1.0000000

  Atom       181         182         183         184         185         186         187         188         189         190
 IAtWgt=           1          16           1           1          16           1           1          16           1           1
 AtmWgt=   1.0078250  15.9949146   1.0078250   1.0078250  15.9949146   1.0078250   1.0078250  15.9949146   1.0078250   1.0078250
 NucSpn=           1           0           1           1           0           1           1           0           1           1
 AtZEff=   0.0000000   0.0000000   0.0000000   0.0000000   0.0000000   0.0000000   0.0000000   0.0000000   0.0000000   0.0000000
 NQMom=    0.0000000   0.0000000   0.0000000   0.0000000   0.0000000   0.0000000   0.0000000   0.0000000   0.0000000   0.0000000
 NMagM=    2.7928460   0.0000000   2.7928460   2.7928460   0.0000000   2.7928460   2.7928460   0.0000000   2.7928460   2.7928460
 AtZNuc=   1.0000000   8.0000000   1.0000000   1.0000000   8.0000000   1.0000000   1.0000000   8.0000000   1.0000000   1.0000000

  Atom       191         192         193         194         195         196         197         198         199         200
 IAtWgt=          16           1           1          16           1           1          16           1           1          16
 AtmWgt=  15.9949146   1.0078250   1.0078250  15.9949146   1.0078250   1.0078250  15.9949146   1.0078250   1.0078250  15.9949146
 NucSpn=           0           1           1           0           1           1           0           1           1           0
 AtZEff=   0.0000000   0.0000000   0.0000000   0.0000000   0.0000000   0.0000000   0.0000000   0.0000000   0.0000000   0.0000000
 NQMom=    0.0000000   0.0000000   0.0000000   0.0000000   0.0000000   0.0000000   0.0000000   0.0000000   0.0000000   0.0000000
 NMagM=    0.0000000   2.7928460   2.7928460   0.0000000   2.7928460   2.7928460   0.0000000   2.7928460   2.7928460   0.0000000
 AtZNuc=   8.0000000   1.0000000   1.0000000   8.0000000   1.0000000   1.0000000   8.0000000   1.0000000   1.0000000   8.0000000

  Atom       201         202         203         204         205         206         207         208         209         210
 IAtWgt=           1           1          16           1           1          16           1           1          16           1
 AtmWgt=   1.0078250   1.0078250  15.9949146   1.0078250   1.0078250  15.9949146   1.0078250   1.0078250  15.9949146   1.0078250
 NucSpn=           1           1           0           1           1           0           1           1           0           1
 AtZEff=   0.0000000   0.0000000   0.0000000   0.0000000   0.0000000   0.0000000   0.0000000   0.0000000   0.0000000   0.0000000
 NQMom=    0.0000000   0.0000000   0.0000000   0.0000000   0.0000000   0.0000000   0.0000000   0.0000000   0.0000000   0.0000000
 NMagM=    2.7928460   2.7928460   0.0000000   2.7928460   2.7928460   0.0000000   2.7928460   2.7928460   0.0000000   2.7928460
 AtZNuc=   1.0000000   1.0000000   8.0000000   1.0000000   1.0000000   8.0000000   1.0000000   1.0000000   8.0000000   1.0000000

  Atom       211         212         213         214         215         216         217         218         219         220
 IAtWgt=           1          16           1           1          16           1           1          16           1           1
 AtmWgt=   1.0078250  15.9949146   1.0078250   1.0078250  15.9949146   1.0078250   1.0078250  15.9949146   1.0078250   1.0078250
 NucSpn=           1           0           1           1           0           1           1           0           1           1
 AtZEff=   0.0000000   0.0000000   0.0000000   0.0000000   0.0000000   0.0000000   0.0000000   0.0000000   0.0000000   0.0000000
 NQMom=    0.0000000   0.0000000   0.0000000   0.0000000   0.0000000   0.0000000   0.0000000   0.0000000   0.0000000   0.0000000
 NMagM=    2.7928460   0.0000000   2.7928460   2.7928460   0.0000000   2.7928460   2.7928460   0.0000000   2.7928460   2.7928460
 AtZNuc=   1.0000000   8.0000000   1.0000000   1.0000000   8.0000000   1.0000000   1.0000000   8.0000000   1.0000000   1.0000000

  Atom       221         222         223         224         225         226         227         228         229         230
 IAtWgt=          16           1           1          16           1           1          16           1           1          16
 AtmWgt=  15.9949146   1.0078250   1.0078250  15.9949146   1.0078250   1.0078250  15.9949146   1.0078250   1.0078250  15.9949146
 NucSpn=           0           1           1           0           1           1           0           1           1           0
 AtZEff=   0.0000000   0.0000000   0.0000000   0.0000000   0.0000000   0.0000000   0.0000000   0.0000000   0.0000000   0.0000000
 NQMom=    0.0000000   0.0000000   0.0000000   0.0000000   0.0000000   0.0000000   0.0000000   0.0000000   0.0000000   0.0000000
 NMagM=    0.0000000   2.7928460   2.7928460   0.0000000   2.7928460   2.7928460   0.0000000   2.7928460   2.7928460   0.0000000
 AtZNuc=   8.0000000   1.0000000   1.0000000   8.0000000   1.0000000   1.0000000   8.0000000   1.0000000   1.0000000   8.0000000

  Atom       231         232         233         234         235         236         237         238         239         240
 IAtWgt=           1           1          16           1           1          16           1           1          16           1
 AtmWgt=   1.0078250   1.0078250  15.9949146   1.0078250   1.0078250  15.9949146   1.0078250   1.0078250  15.9949146   1.0078250
 NucSpn=           1           1           0           1           1           0           1           1           0           1
 AtZEff=   0.0000000   0.0000000   0.0000000   0.0000000   0.0000000   0.0000000   0.0000000   0.0000000   0.0000000   0.0000000
 NQMom=    0.0000000   0.0000000   0.0000000   0.0000000   0.0000000   0.0000000   0.0000000   0.0000000   0.0000000   0.0000000
 NMagM=    2.7928460   2.7928460   0.0000000   2.7928460   2.7928460   0.0000000   2.7928460   2.7928460   0.0000000   2.7928460
 AtZNuc=   1.0000000   1.0000000   8.0000000   1.0000000   1.0000000   8.0000000   1.0000000   1.0000000   8.0000000   1.0000000

  Atom       241         242         243         244         245         246         247         248         249         250
 IAtWgt=           1          16           1           1          16           1           1          16           1           1
 AtmWgt=   1.0078250  15.9949146   1.0078250   1.0078250  15.9949146   1.0078250   1.0078250  15.9949146   1.0078250   1.0078250
 NucSpn=           1           0           1           1           0           1           1           0           1           1
 AtZEff=   0.0000000   0.0000000   0.0000000   0.0000000   0.0000000   0.0000000   0.0000000   0.0000000   0.0000000   0.0000000
 NQMom=    0.0000000   0.0000000   0.0000000   0.0000000   0.0000000   0.0000000   0.0000000   0.0000000   0.0000000   0.0000000
 NMagM=    2.7928460   0.0000000   2.7928460   2.7928460   0.0000000   2.7928460   2.7928460   0.0000000   2.7928460   2.7928460
 AtZNuc=   1.0000000   8.0000000   1.0000000   1.0000000   8.0000000   1.0000000   1.0000000   8.0000000   1.0000000   1.0000000

  Atom       251         252         253         254         255         256         257         258         259         260
 IAtWgt=          16           1           1          16           1           1          16           1           1          16
 AtmWgt=  15.9949146   1.0078250   1.0078250  15.9949146   1.0078250   1.0078250  15.9949146   1.0078250   1.0078250  15.9949146
 NucSpn=           0           1           1           0           1           1           0           1           1           0
 AtZEff=   0.0000000   0.0000000   0.0000000   0.0000000   0.0000000   0.0000000   0.0000000   0.0000000   0.0000000   0.0000000
 NQMom=    0.0000000   0.0000000   0.0000000   0.0000000   0.0000000   0.0000000   0.0000000   0.0000000   0.0000000   0.0000000
 NMagM=    0.0000000   2.7928460   2.7928460   0.0000000   2.7928460   2.7928460   0.0000000   2.7928460   2.7928460   0.0000000
 AtZNuc=   8.0000000   1.0000000   1.0000000   8.0000000   1.0000000   1.0000000   8.0000000   1.0000000   1.0000000   8.0000000

  Atom       261         262         263         264         265         266         267         268         269         270
 IAtWgt=           1           1          16           1           1          16           1           1          16           1
 AtmWgt=   1.0078250   1.0078250  15.9949146   1.0078250   1.0078250  15.9949146   1.0078250   1.0078250  15.9949146   1.0078250
 NucSpn=           1           1           0           1           1           0           1           1           0           1
 AtZEff=   0.0000000   0.0000000   0.0000000   0.0000000   0.0000000   0.0000000   0.0000000   0.0000000   0.0000000   0.0000000
 NQMom=    0.0000000   0.0000000   0.0000000   0.0000000   0.0000000   0.0000000   0.0000000   0.0000000   0.0000000   0.0000000
 NMagM=    2.7928460   2.7928460   0.0000000   2.7928460   2.7928460   0.0000000   2.7928460   2.7928460   0.0000000   2.7928460
 AtZNuc=   1.0000000   1.0000000   8.0000000   1.0000000   1.0000000   8.0000000   1.0000000   1.0000000   8.0000000   1.0000000

  Atom       271         272         273         274         275         276         277         278         279         280
 IAtWgt=           1          16           1           1          16           1           1          16           1           1
 AtmWgt=   1.0078250  15.9949146   1.0078250   1.0078250  15.9949146   1.0078250   1.0078250  15.9949146   1.0078250   1.0078250
 NucSpn=           1           0           1           1           0           1           1           0           1           1
 AtZEff=   0.0000000   0.0000000   0.0000000   0.0000000   0.0000000   0.0000000   0.0000000   0.0000000   0.0000000   0.0000000
 NQMom=    0.0000000   0.0000000   0.0000000   0.0000000   0.0000000   0.0000000   0.0000000   0.0000000   0.0000000   0.0000000
 NMagM=    2.7928460   0.0000000   2.7928460   2.7928460   0.0000000   2.7928460   2.7928460   0.0000000   2.7928460   2.7928460
 AtZNuc=   1.0000000   8.0000000   1.0000000   1.0000000   8.0000000   1.0000000   1.0000000   8.0000000   1.0000000   1.0000000

  Atom       281         282         283         284         285         286         287         288         289         290
 IAtWgt=          16           1           1          16           1           1          16           1           1          16
 AtmWgt=  15.9949146   1.0078250   1.0078250  15.9949146   1.0078250   1.0078250  15.9949146   1.0078250   1.0078250  15.9949146
 NucSpn=           0           1           1           0           1           1           0           1           1           0
 AtZEff=   0.0000000   0.0000000   0.0000000   0.0000000   0.0000000   0.0000000   0.0000000   0.0000000   0.0000000   0.0000000
 NQMom=    0.0000000   0.0000000   0.0000000   0.0000000   0.0000000   0.0000000   0.0000000   0.0000000   0.0000000   0.0000000
 NMagM=    0.0000000   2.7928460   2.7928460   0.0000000   2.7928460   2.7928460   0.0000000   2.7928460   2.7928460   0.0000000
 AtZNuc=   8.0000000   1.0000000   1.0000000   8.0000000   1.0000000   1.0000000   8.0000000   1.0000000   1.0000000   8.0000000

  Atom       291         292         293         294         295         296         297         298         299         300
 IAtWgt=           1           1          16           1           1          16           1           1          16           1
 AtmWgt=   1.0078250   1.0078250  15.9949146   1.0078250   1.0078250  15.9949146   1.0078250   1.0078250  15.9949146   1.0078250
 NucSpn=           1           1           0           1           1           0           1           1           0           1
 AtZEff=   0.0000000   0.0000000   0.0000000   0.0000000   0.0000000   0.0000000   0.0000000   0.0000000   0.0000000   0.0000000
 NQMom=    0.0000000   0.0000000   0.0000000   0.0000000   0.0000000   0.0000000   0.0000000   0.0000000   0.0000000   0.0000000
 NMagM=    2.7928460   2.7928460   0.0000000   2.7928460   2.7928460   0.0000000   2.7928460   2.7928460   0.0000000   2.7928460
 AtZNuc=   1.0000000   1.0000000   8.0000000   1.0000000   1.0000000   8.0000000   1.0000000   1.0000000   8.0000000   1.0000000

  Atom       301         302         303         304         305         306         307         308         309         310
 IAtWgt=           1          16           1           1          16           1           1          16           1           1
 AtmWgt=   1.0078250  15.9949146   1.0078250   1.0078250  15.9949146   1.0078250   1.0078250  15.9949146   1.0078250   1.0078250
 NucSpn=           1           0           1           1           0           1           1           0           1           1
 AtZEff=   0.0000000   0.0000000   0.0000000   0.0000000   0.0000000   0.0000000   0.0000000   0.0000000   0.0000000   0.0000000
 NQMom=    0.0000000   0.0000000   0.0000000   0.0000000   0.0000000   0.0000000   0.0000000   0.0000000   0.0000000   0.0000000
 NMagM=    2.7928460   0.0000000   2.7928460   2.7928460   0.0000000   2.7928460   2.7928460   0.0000000   2.7928460   2.7928460
 AtZNuc=   1.0000000   8.0000000   1.0000000   1.0000000   8.0000000   1.0000000   1.0000000   8.0000000   1.0000000   1.0000000

  Atom       311         312         313         314         315         316         317         318         319         320
 IAtWgt=          16           1           1          16           1           1          16           1           1          16
 AtmWgt=  15.9949146   1.0078250   1.0078250  15.9949146   1.0078250   1.0078250  15.9949146   1.0078250   1.0078250  15.9949146
 NucSpn=           0           1           1           0           1           1           0           1           1           0
 AtZEff=   0.0000000   0.0000000   0.0000000   0.0000000   0.0000000   0.0000000   0.0000000   0.0000000   0.0000000   0.0000000
 NQMom=    0.0000000   0.0000000   0.0000000   0.0000000   0.0000000   0.0000000   0.0000000   0.0000000   0.0000000   0.0000000
 NMagM=    0.0000000   2.7928460   2.7928460   0.0000000   2.7928460   2.7928460   0.0000000   2.7928460   2.7928460   0.0000000
 AtZNuc=   8.0000000   1.0000000   1.0000000   8.0000000   1.0000000   1.0000000   8.0000000   1.0000000   1.0000000   8.0000000

  Atom       321         322         323         324         325         326         327         328         329         330
 IAtWgt=           1           1          16           1           1          16           1           1          16           1
 AtmWgt=   1.0078250   1.0078250  15.9949146   1.0078250   1.0078250  15.9949146   1.0078250   1.0078250  15.9949146   1.0078250
 NucSpn=           1           1           0           1           1           0           1           1           0           1
 AtZEff=   0.0000000   0.0000000   0.0000000   0.0000000   0.0000000   0.0000000   0.0000000   0.0000000   0.0000000   0.0000000
 NQMom=    0.0000000   0.0000000   0.0000000   0.0000000   0.0000000   0.0000000   0.0000000   0.0000000   0.0000000   0.0000000
 NMagM=    2.7928460   2.7928460   0.0000000   2.7928460   2.7928460   0.0000000   2.7928460   2.7928460   0.0000000   2.7928460
 AtZNuc=   1.0000000   1.0000000   8.0000000   1.0000000   1.0000000   8.0000000   1.0000000   1.0000000   8.0000000   1.0000000

  Atom       331         332         333         334         335         336         337         338         339         340
 IAtWgt=           1          16           1           1          16           1           1          16           1           1
 AtmWgt=   1.0078250  15.9949146   1.0078250   1.0078250  15.9949146   1.0078250   1.0078250  15.9949146   1.0078250   1.0078250
 NucSpn=           1           0           1           1           0           1           1           0           1           1
 AtZEff=   0.0000000   0.0000000   0.0000000   0.0000000   0.0000000   0.0000000   0.0000000   0.0000000   0.0000000   0.0000000
 NQMom=    0.0000000   0.0000000   0.0000000   0.0000000   0.0000000   0.0000000   0.0000000   0.0000000   0.0000000   0.0000000
 NMagM=    2.7928460   0.0000000   2.7928460   2.7928460   0.0000000   2.7928460   2.7928460   0.0000000   2.7928460   2.7928460
 AtZNuc=   1.0000000   8.0000000   1.0000000   1.0000000   8.0000000   1.0000000   1.0000000   8.0000000   1.0000000   1.0000000

  Atom       341         342         343         344         345         346         347         348         349         350
 IAtWgt=          16           1           1          16           1           1          16           1           1          16
 AtmWgt=  15.9949146   1.0078250   1.0078250  15.9949146   1.0078250   1.0078250  15.9949146   1.0078250   1.0078250  15.9949146
 NucSpn=           0           1           1           0           1           1           0           1           1           0
 AtZEff=   0.0000000   0.0000000   0.0000000   0.0000000   0.0000000   0.0000000   0.0000000   0.0000000   0.0000000   0.0000000
 NQMom=    0.0000000   0.0000000   0.0000000   0.0000000   0.0000000   0.0000000   0.0000000   0.0000000   0.0000000   0.0000000
 NMagM=    0.0000000   2.7928460   2.7928460   0.0000000   2.7928460   2.7928460   0.0000000   2.7928460   2.7928460   0.0000000
 AtZNuc=   8.0000000   1.0000000   1.0000000   8.0000000   1.0000000   1.0000000   8.0000000   1.0000000   1.0000000   8.0000000

  Atom       351         352         353         354         355         356         357         358         359         360
 IAtWgt=           1           1          16           1           1          16           1           1          16           1
 AtmWgt=   1.0078250   1.0078250  15.9949146   1.0078250   1.0078250  15.9949146   1.0078250   1.0078250  15.9949146   1.0078250
 NucSpn=           1           1           0           1           1           0           1           1           0           1
 AtZEff=   0.0000000   0.0000000   0.0000000   0.0000000   0.0000000   0.0000000   0.0000000   0.0000000   0.0000000   0.0000000
 NQMom=    0.0000000   0.0000000   0.0000000   0.0000000   0.0000000   0.0000000   0.0000000   0.0000000   0.0000000   0.0000000
 NMagM=    2.7928460   2.7928460   0.0000000   2.7928460   2.7928460   0.0000000   2.7928460   2.7928460   0.0000000   2.7928460
 AtZNuc=   1.0000000   1.0000000   8.0000000   1.0000000   1.0000000   8.0000000   1.0000000   1.0000000   8.0000000   1.0000000

  Atom       361         362         363         364         365         366         367         368         369         370
 IAtWgt=           1          16           1           1          16           1           1          16           1           1
 AtmWgt=   1.0078250  15.9949146   1.0078250   1.0078250  15.9949146   1.0078250   1.0078250  15.9949146   1.0078250   1.0078250
 NucSpn=           1           0           1           1           0           1           1           0           1           1
 AtZEff=   0.0000000   0.0000000   0.0000000   0.0000000   0.0000000   0.0000000   0.0000000   0.0000000   0.0000000   0.0000000
 NQMom=    0.0000000   0.0000000   0.0000000   0.0000000   0.0000000   0.0000000   0.0000000   0.0000000   0.0000000   0.0000000
 NMagM=    2.7928460   0.0000000   2.7928460   2.7928460   0.0000000   2.7928460   2.7928460   0.0000000   2.7928460   2.7928460
 AtZNuc=   1.0000000   8.0000000   1.0000000   1.0000000   8.0000000   1.0000000   1.0000000   8.0000000   1.0000000   1.0000000

  Atom       371         372         373         374         375         376         377         378         379         380
 IAtWgt=          16           1           1          16           1           1          16           1           1          16
 AtmWgt=  15.9949146   1.0078250   1.0078250  15.9949146   1.0078250   1.0078250  15.9949146   1.0078250   1.0078250  15.9949146
 NucSpn=           0           1           1           0           1           1           0           1           1           0
 AtZEff=   0.0000000   0.0000000   0.0000000   0.0000000   0.0000000   0.0000000   0.0000000   0.0000000   0.0000000   0.0000000
 NQMom=    0.0000000   0.0000000   0.0000000   0.0000000   0.0000000   0.0000000   0.0000000   0.0000000   0.0000000   0.0000000
 NMagM=    0.0000000   2.7928460   2.7928460   0.0000000   2.7928460   2.7928460   0.0000000   2.7928460   2.7928460   0.0000000
 AtZNuc=   8.0000000   1.0000000   1.0000000   8.0000000   1.0000000   1.0000000   8.0000000   1.0000000   1.0000000   8.0000000

  Atom       381         382         383         384         385
 IAtWgt=           1           1          16           1           1
 AtmWgt=   1.0078250   1.0078250  15.9949146   1.0078250   1.0078250
 NucSpn=           1           1           0           1           1
 AtZEff=   0.0000000   0.0000000   0.0000000   0.0000000   0.0000000
 NQMom=    0.0000000   0.0000000   0.0000000   0.0000000   0.0000000
 NMagM=    2.7928460   2.7928460   0.0000000   2.7928460   2.7928460
 AtZNuc=   1.0000000   1.0000000   8.0000000   1.0000000   1.0000000
 Leave Link  101 at Sun May  6 17:47:59 2018, MaxMem= 14763950080 cpu:        37.5
 (Enter /cm/shared/gaussian/g09.e01/intel64-sandybridge/g09/l103.exe)

 GradGradGradGradGradGradGradGradGradGradGradGradGradGradGradGradGradGrad
 Berny optimization.
 Initialization pass.
 Trust Radius=3.00D-01 FncErr=1.00D-07 GrdErr=1.00D-07
 Number of steps in this run=      2 maximum allowed number of steps=      2.
 GradGradGradGradGradGradGradGradGradGradGradGradGradGradGradGradGradGrad

 Leave Link  103 at Sun May  6 17:47:59 2018, MaxMem= 14763950080 cpu:        11.1
 (Enter /cm/shared/gaussian/g09.e01/intel64-sandybridge/g09/l202.exe)
 Symmetry turned off by external request.
 Stoichiometry    BrH256O128(1-)
 Framework group  C1[X(BrH256O128)]
 Deg. of freedom  1149
 Full point group                 C1      NOp   1
                          Input orientation:                          
 ---------------------------------------------------------------------
 Center     Atomic      Atomic             Coordinates (Angstroms)
 Number     Number       Type             X           Y           Z
 ---------------------------------------------------------------------
      1         35           0       20.000000   20.000000   20.000000
      2          8           0       17.860000   22.120000   19.250000
      3          1           0       17.210000   21.590000   19.720000
      4          1           0       18.680000   21.650000   19.390000
      5          8           0       17.920000   20.830000   22.350000
      6          1           0       17.300000   20.160000   22.070000
      7          1           0       18.610000   20.810000   21.680000
      8          8           0       21.680000   22.010000   22.050000
      9          1           0       21.000000   21.990000   22.730000
     10          1           0       21.350000   21.420000   21.370000
     11          8           0       19.740000   16.890000   21.110000
     12          1           0       20.130000   16.450000   20.350000
     13          1           0       19.600000   17.790000   20.830000
     14          8           0       22.670000   18.290000   19.350000
     15          1           0       21.970000   17.730000   19.020000
     16          1           0       22.230000   19.070000   19.680000
     17          8           0       20.760000   22.290000   17.620000
     18          1           0       20.620000   21.980000   16.730000
     19          1           0       20.580000   21.530000   18.170000
     20          8           0       20.310000   18.660000   16.940000
     21          1           0       19.760000   17.970000   17.310000
     22          1           0       20.340000   19.330000   17.620000
     23          8           0       16.630000   19.500000   18.610000
     24          1           0       17.200000   19.420000   19.380000
     25          1           0       15.890000   18.920000   18.810000
     26          8           0       18.110000   17.040000   18.020000
     27          1           0       17.800000   16.440000   17.340000
     28          1           0       17.490000   17.770000   18.000000
     29          8           0       23.320000   22.630000   18.070000
     30          1           0       23.970000   21.940000   17.950000
     31          1           0       22.480000   22.210000   17.880000
     32          8           0       18.780000   24.520000   20.410000
     33          1           0       18.800000   23.800000   19.780000
     34          1           0       19.690000   24.810000   20.490000
     35          8           0       19.940000   21.320000   24.220000
     36          1           0       20.140000   20.700000   24.920000
     37          1           0       19.140000   20.970000   23.820000
     38          8           0       17.910000   22.100000   16.050000
     39          1           0       18.690000   21.650000   15.720000
     40          1           0       17.840000   21.830000   16.960000
     41          8           0       24.510000   20.260000   18.080000
     42          1           0       24.570000   19.640000   17.360000
     43          1           0       24.000000   19.800000   18.750000
     44          8           0       16.300000   18.590000   21.410000
     45          1           0       15.960000   18.130000   22.180000
     46          1           0       16.020000   18.050000   20.670000
     47          8           0       24.540000   21.690000   21.510000
     48          1           0       24.910000   22.080000   20.720000
     49          1           0       23.600000   21.900000   21.460000
     50          8           0       23.810000   16.570000   21.150000
     51          1           0       23.850000   17.000000   22.010000
     52          1           0       23.470000   17.250000   20.570000
     53          8           0       21.450000   24.950000   19.050000
     54          1           0       21.100000   25.430000   18.290000
     55          1           0       21.500000   24.040000   18.750000
     56          8           0       20.880000   16.370000   23.900000
     57          1           0       20.570000   16.550000   23.010000
     58          1           0       21.110000   15.440000   23.890000
     59          8           0       21.890000   24.760000   21.830000
     60          1           0       21.770000   23.820000   21.960000
     61          1           0       21.910000   24.870000   20.880000
     62          8           0       20.610000   15.500000   18.800000
     63          1           0       19.810000   15.220000   18.340000
     64          1           0       21.160000   15.860000   18.110000
     65          8           0       16.390000   22.250000   23.950000
     66          1           0       16.560000   21.820000   24.790000
     67          1           0       16.960000   21.800000   23.330000
     68          8           0       20.700000   18.550000   14.370000
     69          1           0       19.950000   18.090000   13.980000
     70          1           0       20.530000   18.500000   15.320000
     71          8           0       15.040000   21.300000   17.220000
     72          1           0       14.200000   21.160000   17.670000
     73          1           0       15.650000   20.710000   17.660000
     74          8           0       20.090000   21.170000   15.010000
     75          1           0       20.330000   20.310000   14.680000
     76          1           0       20.760000   21.760000   14.660000
     77          8           0       17.840000   19.380000   24.950000
     78          1           0       17.120000   19.320000   24.320000
     79          1           0       18.150000   18.480000   25.050000
     80          8           0       16.410000   24.250000   21.730000
     81          1           0       16.550000   23.800000   22.560000
     82          1           0       17.280000   24.320000   21.340000
     83          8           0       16.490000   24.720000   17.890000
     84          1           0       17.120000   24.050000   18.150000
     85          1           0       16.650000   25.440000   18.500000
     86          8           0       18.890000   14.270000   22.350000
     87          1           0       19.440000   15.020000   22.100000
     88          1           0       18.280000   14.620000   23.000000
     89          8           0       22.260000   16.170000   16.510000
     90          1           0       22.140000   16.800000   15.810000
     91          1           0       23.190000   15.950000   16.490000
     92          8           0       18.910000   16.820000   25.500000
     93          1           0       19.420000   16.750000   26.310000
     94          1           0       19.560000   16.750000   24.800000
     95          8           0       24.370000   24.930000   18.830000
     96          1           0       24.010000   24.070000   18.610000
     97          1           0       25.110000   24.740000   19.400000
     98          8           0       14.280000   22.110000   20.550000
     99          1           0       14.820000   22.780000   20.130000
    100          1           0       13.880000   21.630000   19.820000
    101          8           0       23.060000   19.690000   14.870000
    102          1           0       22.230000   19.340000   14.540000
    103          1           0       23.610000   18.920000   15.020000
    104          8           0       14.510000   17.960000   18.950000
    105          1           0       14.310000   17.020000   18.910000
    106          1           0       13.750000   18.350000   19.390000
    107          8           0       26.530000   19.730000   21.910000
    108          1           0       25.710000   20.180000   21.730000
    109          1           0       26.410000   19.350000   22.780000
    110          8           0       21.370000   23.670000   14.910000
    111          1           0       20.740000   23.940000   15.570000
    112          1           0       22.210000   24.000000   15.220000
    113          8           0       17.690000   21.070000   13.410000
    114          1           0       18.170000   20.750000   14.180000
    115          1           0       18.190000   21.820000   13.110000
    116          8           0       21.580000   12.990000   19.840000
    117          1           0       21.220000   13.880000   19.890000
    118          1           0       22.220000   12.960000   20.560000
    119          8           0       15.530000   18.010000   23.950000
    120          1           0       15.560000   17.070000   24.110000
    121          1           0       14.670000   18.280000   24.300000
    122          8           0       23.910000   22.470000   25.400000
    123          1           0       23.800000   22.470000   24.450000
    124          1           0       24.350000   23.290000   25.600000
    125          8           0       18.330000   14.250000   17.340000
    126          1           0       17.510000   14.610000   17.690000
    127          1           0       18.100000   13.930000   16.460000
    128          8           0       26.150000   16.530000   19.550000
    129          1           0       26.570000   15.680000   19.670000
    130          1           0       25.270000   16.410000   19.910000
    131          8           0       26.610000   21.860000   18.700000
    132          1           0       27.550000   21.730000   18.800000
    133          1           0       26.230000   20.990000   18.790000
    134          8           0       20.440000   26.270000   23.530000
    135          1           0       20.400000   25.960000   24.440000
    136          1           0       21.120000   25.730000   23.130000
    137          8           0       24.430000   22.030000   14.630000
    138          1           0       23.780000   22.730000   14.710000
    139          1           0       23.920000   21.230000   14.750000
    140          8           0       16.930000   21.150000   26.750000
    141          1           0       17.380000   20.570000   26.140000
    142          1           0       16.680000   20.590000   27.480000
    143          8           0       23.310000   13.690000   22.120000
    144          1           0       24.030000   13.130000   21.830000
    145          1           0       23.510000   14.550000   21.740000
    146          8           0       23.630000   24.690000   15.800000
    147          1           0       24.180000   25.470000   15.670000
    148          1           0       24.010000   24.260000   16.560000
    149          8           0       16.720000   24.570000   15.030000
    150          1           0       16.870000   24.930000   15.910000
    151          1           0       16.990000   23.650000   15.100000
    152          8           0       13.700000   22.180000   23.230000
    153          1           0       13.730000   22.050000   22.280000
    154          1           0       14.610000   22.390000   23.460000
    155          8           0       16.890000   26.960000   20.000000
    156          1           0       17.650000   26.420000   20.250000
    157          1           0       16.760000   27.550000   20.740000
    158          8           0       15.010000   20.460000   14.400000
    159          1           0       15.020000   20.720000   15.330000
    160          1           0       15.920000   20.510000   14.130000
    161          8           0       15.790000   15.560000   16.610000
    162          1           0       15.410000   16.370000   16.290000
    163          1           0       15.040000   15.010000   16.840000
    164          8           0       20.470000   14.700000   14.630000
    165          1           0       21.130000   15.160000   15.160000
    166          1           0       20.840000   14.680000   13.750000
    167          8           0       25.130000   15.870000   16.940000
    168          1           0       25.590000   16.550000   16.450000
    169          1           0       25.330000   16.050000   17.860000
    170          8           0       23.770000   26.030000   23.610000
    171          1           0       23.220000   26.750000   23.920000
    172          1           0       23.240000   25.610000   22.920000
    173          8           0       14.560000   15.110000   19.940000
    174          1           0       15.350000   14.590000   20.070000
    175          1           0       13.860000   14.470000   19.880000
    176          8           0       26.180000   23.290000   23.440000
    177          1           0       26.990000   22.880000   23.750000
    178          1           0       26.010000   22.870000   22.600000
    179          8           0       26.130000   18.620000   16.250000
    180          1           0       26.470000   18.620000   17.140000
    181          1           0       26.530000   19.390000   15.840000
    182          8           0       21.480000   13.750000   23.860000
    183          1           0       22.180000   13.910000   23.220000
    184          1           0       21.260000   12.820000   23.760000
    185          8           0       14.130000   25.150000   20.360000
    186          1           0       14.120000   24.350000   19.830000
    187          1           0       14.890000   25.060000   20.920000
    188          8           0       14.110000   17.820000   16.090000
    189          1           0       13.660000   18.580000   15.720000
    190          1           0       13.790000   17.770000   16.990000
    191          8           0       15.990000   17.570000   13.890000
    192          1           0       15.590000   18.150000   14.530000
    193          1           0       15.590000   17.810000   13.060000
    194          8           0       13.890000   23.820000   16.360000
    195          1           0       14.370000   22.990000   16.410000
    196          1           0       14.440000   24.440000   16.850000
    197          8           0       19.220000   23.250000   13.060000
    198          1           0       18.410000   23.750000   13.080000
    199          1           0       19.820000   23.720000   13.640000
    200          8           0       20.810000   26.620000   16.820000
    201          1           0       20.550000   27.430000   17.260000
    202          1           0       20.520000   26.750000   15.910000
    203          8           0       18.560000   17.260000   13.230000
    204          1           0       18.570000   16.490000   12.660000
    205          1           0       17.650000   17.330000   13.520000
    206          8           0       13.380000   16.780000   21.790000
    207          1           0       13.750000   16.200000   21.130000
[...]
   Z335      23.09245  -0.00926   0.00000  -0.00212  -0.00255  23.08990
   X336      47.75338  -0.00792   0.00000  -0.00859  -0.00868  47.74470
   Y336      40.85588   0.00553   0.00000   0.00781   0.00702  40.86290
   Z336      24.62313   0.00772   0.00000   0.00294   0.00247  24.62560
   X337      48.54706   0.00057   0.00000   0.00170   0.00167  48.54873
   Y337      38.49372  -0.01372   0.00000  -0.00539  -0.00626  38.48746
   Z337      23.22473   0.00060   0.00000  -0.00133  -0.00164  23.22309
   X338      24.98218  -0.00587   0.00000  -0.00239  -0.00248  24.97970
   Y338      44.61643   0.00909   0.00000   0.00476   0.00516  44.62159
   Z338      48.79273   0.00268   0.00000   0.00196   0.00130  48.79403
   X339      26.30499   0.00266   0.00000  -0.00100  -0.00108  26.30391
   Y339      44.35187  -0.00716   0.00000  -0.01212  -0.01160  44.34027
   Z339      50.00215   0.00718   0.00000   0.00846   0.00782  50.00997
   X340      25.24674  -0.00145   0.00000  -0.00490  -0.00496  25.24178
   Y340      43.33142  -0.00634   0.00000  -0.00202  -0.00171  43.32971
   Z340      47.54551  -0.01115   0.00000  -0.01093  -0.01150  47.53401
   X341      27.66559  -0.01201   0.00000  -0.00605  -0.00606  27.65953
   Y341      41.91413  -0.00593   0.00000  -0.00498  -0.00425  41.90988
   Z341      52.76115   0.00053   0.00000   0.00181   0.00134  52.76249
   X342      29.10178   0.00958   0.00000   0.00637   0.00636  29.10815
   Y342      41.64956   0.00009   0.00000   0.00078   0.00147  41.65104
   Z342      51.68401  -0.00689   0.00000  -0.00517  -0.00563  51.67838
   X343      28.19471   0.00474   0.00000   0.00406   0.00403  28.19874
   Y343      43.16134   0.00738   0.00000   0.00479   0.00562  43.16697
   Z343      53.95168   0.00614   0.00000   0.00438   0.00381  53.95550
   X344      42.89678   0.01744   0.00000   0.01470   0.01489  42.91167
   Y344      33.50484  -0.00812   0.00000  -0.00720  -0.00601  33.49883
   Z344      54.15955   0.00496   0.00000   0.01244   0.01250  54.17205
   X345      41.49839  -0.00392   0.00000   0.00082   0.00102  41.49941
   Y345      32.57888   0.00405   0.00000   0.00969   0.01080  32.58968
   Z345      53.44146  -0.00397   0.00000  -0.00466  -0.00452  53.43693
   X346      42.14089  -0.00388   0.00000   0.00180   0.00195  42.14285
   Y346      34.95993   0.01465   0.00000   0.01350   0.01472  34.97466
   Z346      54.89654   0.00153   0.00000  -0.00330  -0.00334  54.89321
   X347      26.90970  -0.00756   0.00000  -0.00515  -0.00531  26.90439
   Y347      44.10621  -0.00318   0.00000  -0.00052  -0.00177  44.10444
   Z347      24.90659  -0.00352   0.00000  -0.00139  -0.00202  24.90457
   X348      28.51597   0.00637   0.00000   0.00545   0.00528  28.52125
   Y348      44.14400   0.00014   0.00000   0.00062  -0.00065  44.14336
   Z348      24.07511   0.00087   0.00000   0.00459   0.00395  24.07907
   X349      27.24985  -0.00228   0.00000  -0.00615  -0.00632  27.24353
   Y349      44.76761   0.00316   0.00000   0.00373   0.00261  44.77022
   Z349      26.56955   0.00619   0.00000   0.00521   0.00453  26.57408
   X350      47.81007   0.00245   0.00000   0.01280   0.01266  47.82274
   Y350      46.77072  -0.00050   0.00000  -0.00132  -0.00039  46.77033
   Z350      48.88722   0.01547   0.00000   0.01395   0.01306  48.90027
   X351      47.28095  -0.00561   0.00000  -0.01046  -0.01063  47.27031
   Y351      48.50927  -0.00245   0.00000  -0.00620  -0.00528  48.50399
   Z351      49.00060  -0.00363   0.00000  -0.00504  -0.00605  48.99455
   X352      48.66045   0.00189   0.00000  -0.00418  -0.00432  48.65613
   Y352      46.65734  -0.00054   0.00000  -0.00165  -0.00081  46.65652
   Z352      47.29985  -0.01584   0.00000  -0.01357  -0.01446  47.28539
   X353      37.90791  -0.00578   0.00000  -0.00375  -0.00413  37.90378
   Y353      55.12331  -0.01316   0.00000  -0.01463  -0.01490  55.10842
   Z353      35.18670  -0.01288   0.00000  -0.00345  -0.00489  35.18181
   X354      37.34099  -0.00474   0.00000  -0.00457  -0.00499  37.33600
   Y354      56.80517   0.00646   0.00000  -0.00064  -0.00090  56.80427
   Z354      35.50795  -0.00155   0.00000  -0.00499  -0.00655  35.50141
   X355      38.92836   0.01743   0.00000   0.02230   0.02194  38.95030
   Y355      54.70757  -0.00280   0.00000  -0.00159  -0.00174  54.70584
   Z355      36.62289   0.00969   0.00000   0.00403   0.00262  36.62551
   X356      53.78161   0.00039   0.00000   0.00427   0.00425  53.78586
   Y356      40.79919   0.00988   0.00000   0.00557   0.00631  40.80550
   Z356      44.25739   0.01473   0.00000   0.01005   0.00956  44.26694
   X357      53.95168  -0.00215   0.00000  -0.00645  -0.00644  53.94524
   Y357      39.62756  -0.00933   0.00000  -0.00529  -0.00465  39.62291
   Z357      42.89678  -0.01316   0.00000  -0.00786  -0.00827  42.88851
   X358      54.48080   0.00563   0.00000   0.00947   0.00942  54.49022
   Y358      42.34876   0.00028   0.00000  -0.00090  -0.00019  42.34857
   Z358      43.61488  -0.00393   0.00000  -0.00506  -0.00567  43.60921
   X359      24.01842  -0.00924   0.00000  -0.01384  -0.01365  24.00477
   Y359      29.38524  -0.01760   0.00000  -0.01921  -0.02027  29.36497
   Z359      28.49707  -0.00826   0.00000  -0.00352  -0.00310  28.49397
   X360      25.45461   0.00219   0.00000  -0.00137  -0.00118  25.45343
   Y360      29.36634   0.00909   0.00000   0.01398   0.01303  29.37938
   Z360      29.59311   0.00074   0.00000  -0.00591  -0.00549  29.58762
   X361      23.07356   0.00509   0.00000   0.01115   0.01131  23.08487
   Y361      30.84033   0.00778   0.00000   0.00693   0.00589  30.84622
   Z361      29.00730   0.00251   0.00000  -0.00105  -0.00072  29.00657
   X362      35.56465  -0.00719   0.00000  -0.00584  -0.00548  35.55916
   Y362      22.22318  -0.00861   0.00000  -0.00615  -0.00693  22.21625
   Z362      28.68604   0.00632   0.00000   0.00438   0.00526  28.69130
   X363      35.64023  -0.00020   0.00000  -0.00246  -0.00215  35.63809
   Y363      23.92393   0.00452   0.00000  -0.00053  -0.00135  23.92258
   Z363      28.08133  -0.00656   0.00000  -0.00871  -0.00794  28.07339
   X364      37.20871   0.00713   0.00000   0.00686   0.00723  37.21594
   Y364      21.54288   0.00202   0.00000   0.00518   0.00441  21.54729
   Z364      28.32699   0.00479   0.00000   0.01012   0.01105  28.33805
   X365      51.04150   0.00085   0.00000   0.00135   0.00114  51.04264
   Y365      49.26516   0.00229   0.00000  -0.00003   0.00050  49.26566
   Z365      42.17869  -0.01696   0.00000  -0.00897  -0.01005  42.16864
   X366      50.83363  -0.00700   0.00000  -0.01130  -0.01148  50.82216
   Y366      47.60220  -0.01052   0.00000  -0.00789  -0.00732  47.59488
   Z366      42.87789   0.00497   0.00000   0.00317   0.00221  42.88010
   X367      51.15489  -0.00031   0.00000  -0.00129  -0.00152  51.15336
   Y367      50.34230   0.00636   0.00000   0.00278   0.00342  50.34572
   Z367      43.61488   0.01168   0.00000   0.00840   0.00724  43.62212
   X368      34.78986   0.01610   0.00000   0.02521   0.02561  34.81546
   Y368      23.88614  -0.02286   0.00000  -0.01725  -0.01654  23.86960
   Z368      50.11554  -0.00163   0.00000  -0.00626  -0.00549  50.11005
   X369      35.18670  -0.00033   0.00000  -0.00214  -0.00175  35.18495
   Y369      24.41526   0.00442   0.00000   0.00260   0.00344  24.41870
   Z369      51.79739   0.00546   0.00000   0.00256   0.00330  51.80069
   X370      34.35522  -0.01346   0.00000  -0.01989  -0.01954  34.33568
   Y370      25.41682   0.01233   0.00000   0.00117   0.00182  25.41863
   Z370      49.24626  -0.00400   0.00000   0.00115   0.00181  49.24807
   X371      23.81055   0.00710   0.00000   0.00651   0.00665  23.81720
   Y371      34.82765  -0.00102   0.00000  -0.00534  -0.00507  34.82259
   Z371      47.45102  -0.00779   0.00000  -0.00953  -0.00949  47.44153
   X372      22.26097  -0.00079   0.00000   0.00469   0.00482  22.26580
   Y372      35.26229   0.00440   0.00000   0.00698   0.00728  35.26957
   Z372      48.30140  -0.00012   0.00000  -0.00388  -0.00387  48.29753
   X373      24.03732  -0.00281   0.00000  -0.00508  -0.00490  24.03241
   Y373      33.07021  -0.00594   0.00000  -0.00725  -0.00694  33.06327
   Z373      47.82897   0.00474   0.00000   0.00736   0.00753  47.83650
   X374      27.85456  -0.00991   0.00000  -0.00719  -0.00748  27.84709
   Y374      49.75649   0.00754   0.00000   0.00837   0.00730  49.76379
   Z374      26.98529   0.00572   0.00000   0.00578   0.00475  26.99004
   X375      28.47817   0.00352   0.00000   0.00257   0.00227  28.48044
   Y375      50.24782  -0.00153   0.00000  -0.00254  -0.00372  50.24410
   Z375      25.36012  -0.00536   0.00000  -0.00222  -0.00328  25.35684
   X376      28.83722   0.00589   0.00000   0.00461   0.00437  28.84159
   Y376      48.28250  -0.00327   0.00000   0.00244   0.00141  48.28391
   Z376      27.41993   0.00018   0.00000   0.00043  -0.00050  27.41943
   X377      51.40055  -0.01175   0.00000  -0.01097  -0.01120  51.38935
   Y377      48.26361   0.00710   0.00000   0.00252   0.00220  48.26580
   Z377      30.04665  -0.00738   0.00000  -0.00419  -0.00520  30.04144
   X378      50.49348   0.00295   0.00000   0.00649   0.00627  50.49975
   Y378      47.88566  -0.00055   0.00000   0.00154   0.00130  47.88696
   Z378      31.57732   0.00867   0.00000   0.01178   0.01080  31.58813
   X379      52.89343   0.00604   0.00000   0.00014  -0.00008  52.89336
   Y379      47.26205  -0.00718   0.00000  -0.00437  -0.00465  47.25740
   Z379      30.16003   0.00366   0.00000   0.00449   0.00355  30.16358
   X380      44.78651  -0.00684   0.00000  -0.00964  -0.00938  44.77713
   Y380      25.73807   0.01785   0.00000   0.01605   0.01526  25.75333
   Z380      25.53020  -0.02400   0.00000  -0.02007  -0.01947  25.51073
   X381      44.63533   0.00240   0.00000   0.00501   0.00528  44.64061
   Y381      25.71917  -0.00602   0.00000  -0.00617  -0.00683  25.71234
   Z381      27.32544   0.01560   0.00000   0.00414   0.00475  27.33019
   X382      45.33453   0.00217   0.00000  -0.00028   0.00002  45.33455
   Y382      24.07511  -0.00784   0.00000  -0.00025  -0.00106  24.07405
   Z382      25.09556   0.00071   0.00000  -0.00017   0.00055  25.09611
   X383      54.63198   0.01174   0.00000   0.01072   0.01063  54.64261
   Y383      42.42435   0.01450   0.00000   0.00540   0.00534  42.42969
   Z383      32.59778   0.01400   0.00000   0.01264   0.01203  32.60981
   X384      55.19890  -0.00241   0.00000  -0.00229  -0.00241  55.19649
   Y384      43.50150  -0.00546   0.00000  -0.00605  -0.00620  43.49530
   Z384      31.23717   0.00082   0.00000   0.00204   0.00135  31.23853
   X385      53.89499  -0.00860   0.00000  -0.00671  -0.00678  53.88821
   Y385      41.00706  -0.00873   0.00000   0.00148   0.00134  41.00839
   Z385      31.76630  -0.01579   0.00000  -0.01469  -0.01520  31.75110
         Item               Value     Threshold  Converged?
 Maximum Force            0.037742     0.000450     NO 
 RMS     Force            0.010355     0.000300     NO 
 Maximum Displacement     0.030505     0.001800     NO 
 RMS     Displacement     0.008833     0.001200     NO 
 Predicted change in Energy=-7.161862D-02
 GradGradGradGradGradGradGradGradGradGradGradGradGradGradGradGradGradGrad

 Leave Link  103 at Sun May  6 21:07:14 2018, MaxMem= 14763950080 cpu:      3414.8
 (Enter /cm/shared/gaussian/g09.e01/intel64-sandybridge/g09/l9999.exe)
 1\1\GINC-POPLE07\Force\RPBE1PBE\CC-pVDZ\Br1H256O128(1-)\M.PELUSO\06-Ma
 y-2018\0\\#p PBE1PBE/cc-pvDZ force Counterpoise=2 noSymm\\forces on ch
 loride comput - NWATER: 128\\-1,1\Br,20.,20.,20.\O,17.86,22.12,19.25\H
 ,17.21,21.59,19.72\H,18.68,21.65,19.39\O,17.92,20.83,22.35\H,17.3,20.1
 6,22.07\H,18.61,20.81,21.68\O,21.68,22.01,22.05\H,21.,21.99,22.73\H,21
 .35,21.42,21.37\O,19.74,16.89,21.11\H,20.13,16.45,20.35\H,19.6,17.79,2
 0.83\O,22.67,18.29,19.35\H,21.97,17.73,19.02\H,22.23,19.07,19.68\O,20.
 76,22.29,17.62\H,20.62,21.98,16.73\H,20.58,21.53,18.17\O,20.31,18.66,1
 6.94\H,19.76,17.97,17.31\H,20.34,19.33,17.62\O,16.63,19.5,18.61\H,17.2
 ,19.42,19.38\H,15.89,18.92,18.81\O,18.11,17.04,18.02\H,17.8,16.44,17.3
 4\H,17.49,17.77,18.\O,23.32,22.63,18.07\H,23.97,21.94,17.95\H,22.48,22
 .21,17.88\O,18.78,24.52,20.41\H,18.8,23.8,19.78\H,19.69,24.81,20.49\O,
 19.94,21.32,24.22\H,20.14,20.7,24.92\H,19.14,20.97,23.82\O,17.91,22.1,
 16.05\H,18.69,21.65,15.72\H,17.84,21.83,16.96\O,24.51,20.26,18.08\H,24
 .57,19.64,17.36\H,24.,19.8,18.75\O,16.3,18.59,21.41\H,15.96,18.13,22.1
 8\H,16.02,18.05,20.67\O,24.54,21.69,21.51\H,24.91,22.08,20.72\H,23.6,2
 1.9,21.46\O,23.81,16.57,21.15\H,23.85,17.,22.01\H,23.47,17.25,20.57\O,
 21.45,24.95,19.05\H,21.1,25.43,18.29\H,21.5,24.04,18.75\O,20.88,16.37,
 23.9\H,20.57,16.55,23.01\H,21.11,15.44,23.89\O,21.89,24.76,21.83\H,21.
 77,23.82,21.96\H,21.91,24.87,20.88\O,20.61,15.5,18.8\H,19.81,15.22,18.
 34\H,21.16,15.86,18.11\O,16.39,22.25,23.95\H,16.56,21.82,24.79\H,16.96
 ,21.8,23.33\O,20.7,18.55,14.37\H,19.95,18.09,13.98\H,20.53,18.5,15.32\
 O,15.04,21.3,17.22\H,14.2,21.16,17.67\H,15.65,20.71,17.66\O,20.09,21.1
 7,15.01\H,20.33,20.31,14.68\H,20.76,21.76,14.66\O,17.84,19.38,24.95\H,
 17.12,19.32,24.32\H,18.15,18.48,25.05\O,16.41,24.25,21.73\H,16.55,23.8
 ,22.56\H,17.28,24.32,21.34\O,16.49,24.72,17.89\H,17.12,24.05,18.15\H,1
 6.65,25.44,18.5\O,18.89,14.27,22.35\H,19.44,15.02,22.1\H,18.28,14.62,2
 3.\O,22.26,16.17,16.51\H,22.14,16.8,15.81\H,23.19,15.95,16.49\O,18.91,
 16.82,25.5\H,19.42,16.75,26.31\H,19.56,16.75,24.8\O,24.37,24.93,18.83\
 H,24.01,24.07,18.61\H,25.11,24.74,19.4\O,14.28,22.11,20.55\H,14.82,22.
 78,20.13\H,13.88,21.63,19.82\O,23.06,19.69,14.87\H,22.23,19.34,14.54\H
 ,23.61,18.92,15.02\O,14.51,17.96,18.95\H,14.31,17.02,18.91\H,13.75,18.
 35,19.39\O,26.53,19.73,21.91\H,25.71,20.18,21.73\H,26.41,19.35,22.78\O
 ,21.37,23.67,14.91\H,20.74,23.94,15.57\H,22.21,24.,15.22\O,17.69,21.07
 ,13.41\H,18.17,20.75,14.18\H,18.19,21.82,13.11\O,21.58,12.99,19.84\H,2
 1.22,13.88,19.89\H,22.22,12.96,20.56\O,15.53,18.01,23.95\H,15.56,17.07
 ,24.11\H,14.67,18.28,24.3\O,23.91,22.47,25.4\H,23.8,22.47,24.45\H,24.3
 5,23.29,25.6\O,18.33,14.25,17.34\H,17.51,14.61,17.69\H,18.1,13.93,16.4
 6\O,26.15,16.53,19.55\H,26.57,15.68,19.67\H,25.27,16.41,19.91\O,26.61,
 21.86,18.7\H,27.55,21.73,18.8\H,26.23,20.99,18.79\O,20.44,26.27,23.53\
 H,20.4,25.96,24.44\H,21.12,25.73,23.13\O,24.43,22.03,14.63\H,23.78,22.
 73,14.71\H,23.92,21.23,14.75\O,16.93,21.15,26.75\H,17.38,20.57,26.14\H
 ,16.68,20.59,27.48\O,23.31,13.69,22.12\H,24.03,13.13,21.83\H,23.51,14.
 55,21.74\O,23.63,24.69,15.8\H,24.18,25.47,15.67\H,24.01,24.26,16.56\O,
 16.72,24.57,15.03\H,16.87,24.93,15.91\H,16.99,23.65,15.1\O,13.7,22.18,
 23.23\H,13.73,22.05,22.28\H,14.61,22.39,23.46\O,16.89,26.96,20.\H,17.6
 5,26.42,20.25\H,16.76,27.55,20.74\O,15.01,20.46,14.4\H,15.02,20.72,15.
 33\H,15.92,20.51,14.13\O,15.79,15.56,16.61\H,15.41,16.37,16.29\H,15.04
 ,15.01,16.84\O,20.47,14.7,14.63\H,21.13,15.16,15.16\H,20.84,14.68,13.7
 5\O,25.13,15.87,16.94\H,25.59,16.55,16.45\H,25.33,16.05,17.86\O,23.77,
 26.03,23.61\H,23.22,26.75,23.92\H,23.24,25.61,22.92\O,14.56,15.11,19.9
 4\H,15.35,14.59,20.07\H,13.86,14.47,19.88\O,26.18,23.29,23.44\H,26.99,
 22.88,23.75\H,26.01,22.87,22.6\O,26.13,18.62,16.25\H,26.47,18.62,17.14
 \H,26.53,19.39,15.84\O,21.48,13.75,23.86\H,22.18,13.91,23.22\H,21.26,1
 2.82,23.76\O,14.13,25.15,20.36\H,14.12,24.35,19.83\H,14.89,25.06,20.92
 \O,14.11,17.82,16.09\H,13.66,18.58,15.72\H,13.79,17.77,16.99\O,15.99,1
 7.57,13.89\H,15.59,18.15,14.53\H,15.59,17.81,13.06\O,13.89,23.82,16.36
 \H,14.37,22.99,16.41\H,14.44,24.44,16.85\O,19.22,23.25,13.06\H,18.41,2
 3.75,13.08\H,19.82,23.72,13.64\O,20.81,26.62,16.82\H,20.55,27.43,17.26
 \H,20.52,26.75,15.91\O,18.56,17.26,13.23\H,18.57,16.49,12.66\H,17.65,1
 7.33,13.52\O,13.38,16.78,21.79\H,13.75,16.2,21.13\H,12.96,16.2,22.42\O
 ,23.11,16.99,13.92\H,23.85,16.49,13.58\H,22.48,17.02,13.19\O,19.06,23.
 85,26.97\H,18.8,22.96,26.76\H,18.25,24.29,27.24\O,17.21,14.83,25.69\H,
 16.52,15.03,25.06\H,17.8,15.57,25.65\O,12.6,20.59,18.45\H,11.79,20.46,
 17.96\H,12.51,20.02,19.21\O,21.52,24.74,26.68\H,20.61,24.44,26.73\H,21
 .89,24.24,25.94\O,27.67,18.51,18.72\H,28.09,18.85,19.51\H,27.15,17.77,
 19.03\O,15.39,14.89,23.76\H,14.49,14.63,23.99\H,15.48,14.65,22.84\O,18
 .22,27.58,22.4\H,18.61,28.44,22.3\H,18.95,27.01,22.64\O,22.28,21.92,27
 .62\H,22.8,21.84,26.82\H,21.78,21.1,27.66\O,23.38,27.37,17.75\H,23.45,
 26.54,18.22\H,22.63,27.25,17.16\O,12.37,18.83,20.46\H,12.59,18.08,21.0
 1\H,11.88,19.42,21.03\O,20.21,19.75,28.1\H,20.1,19.59,29.04\H,19.88,18
 .95,27.68\O,26.31,18.77,24.44\H,27.2,18.79,24.79\H,26.17,17.85,24.2\O,
 17.79,14.24,14.31\H,18.68,14.54,14.47\H,17.24,15.,14.51\O,18.89,11.51,
 21.89\H,19.02,12.44,22.02\H,19.18,11.11,22.71\O,24.97,18.27,27.04\H,24
 .23,18.12,27.62\H,24.65,18.04,26.16\O,21.59,12.18,16.51\H,22.34,12.76,
 16.45\H,20.94,12.67,17.02\O,27.25,24.45,19.18\H,27.01,23.61,18.78\H,28
 .17,24.34,19.42\O,28.86,19.05,21.12\H,29.1,18.28,21.63\H,27.93,19.2,21
 .31\O,15.93,12.84,21.49\H,16.17,11.98,21.16\H,16.52,12.98,22.24\O,27.3
 3,21.38,15.15\H,26.48,21.76,15.37\H,27.16,20.88,14.35\O,24.21,13.48,16
 .11\H,24.5,12.78,16.7\H,24.64,14.27,16.45\O,17.08,11.89,18.12\H,16.6,1
 2.06,17.31\H,17.94,12.3,17.98\O,25.89,20.97,26.63\H,25.63,20.11,26.28\
 H,25.31,21.59,26.2\O,11.74,20.23,22.69\H,12.28,20.85,23.18\H,12.18,19.
 39,22.8\O,24.,14.88,25.71\H,23.06,14.69,25.67\H,24.25,14.7,26.62\O,20.
 73,16.4,27.54\H,20.31,16.,28.31\H,21.32,15.72,27.22\O,22.65,25.65,13.0
 1\H,23.53,25.98,13.22\H,22.46,25.02,13.71\O,25.25,13.35,20.15\H,26.14,
 13.6,20.39\H,25.36,12.76,19.4\O,22.28,18.39,11.53\H,21.51,18.95,11.63\
 H,22.75,18.77,10.79\O,24.42,27.5,21.14\H,24.6,27.23,20.24\H,25.04,26.9
 9,21.67\O,26.42,16.13,24.68\H,27.07,15.83,25.32\H,25.62,15.66,24.91\O,
 21.53,14.03,26.79\H,21.11,13.82,25.95\H,22.05,13.25,26.99\O,18.28,19.8
 9,10.73\H,17.94,20.16,11.58\H,18.56,18.99,10.86\O,12.41,19.96,14.83\H,
 11.93,20.74,14.54\H,13.29,20.06,14.47\O,16.4,26.91,24.42\H,16.71,27.24
 ,23.58\H,17.18,26.89,24.98\O,22.19,28.74,20.54\H,21.79,28.79,21.41\H,2
 2.98,28.21,20.67\O,16.92,28.92,18.06\H,17.15,28.19,18.63\H,16.18,28.6,
 17.54\O,12.14,16.59,18.08\H,11.88,15.9,18.7\H,11.35,16.77,17.58\O,13.8
 9,25.69,24.07\H,13.82,24.95,24.67\H,14.83,25.86,24.01\O,20.43,10.41,19
 .67\H,19.74,10.62,20.3\H,20.88,11.24,19.52\O,25.31,18.71,12.51\H,25.57
 ,17.8,12.66\H,24.36,18.68,12.45\O,25.69,21.32,12.22\H,25.27,21.62,13.0
 3\H,25.69,20.37,12.29\O,13.22,23.61,25.82\H,13.92,23.47,26.46\H,13.36,
 22.93,25.16\O,14.64,22.18,27.92\H,15.4,22.04,27.35\H,14.92,22.84,28.55
 \O,22.7,17.73,28.66\H,21.96,17.24,28.28\H,22.3,18.5,29.05\O,14.24,23.3
 4,13.18\H,15.09,23.36,12.74\H,14.42,23.69,14.06\O,25.3,24.75,25.87\H,2
 5.02,25.67,25.93\H,25.75,24.69,25.03\O,20.06,29.17,18.62\H,19.76,30.06
 ,18.79\H,20.6,28.95,19.38\O,28.46,21.59,23.42\H,28.55,20.97,22.7\H,28.
 83,22.41,23.08\O,12.71,15.55,15.08\H,13.47,15.54,15.66\H,12.21,16.32,1
 5.35\O,18.82,11.76,15.18\H,18.86,12.66,14.86\H,19.69,11.4,14.99\O,27.0
 1,26.07,22.32\H,26.9,25.19,22.69\H,27.07,26.64,23.08\O,18.41,12.64,26.
 52\H,18.62,12.92,27.41\H,18.18,13.45,26.06\O,12.6,18.43,25.11\H,11.78,
 18.66,25.56\H,12.72,17.5,25.31\O,14.74,26.33,14.28\H,15.07,26.59,13.42
 \H,15.26,25.55,14.51\O,27.2,25.54,15.9\H,26.72,25.34,16.71\H,27.99,25.
 01,15.96\O,23.7,13.62,13.51\H,23.62,13.61,14.46\H,23.99,12.74,13.28\O,
 28.91,22.45,17.25\H,29.21,23.02,16.53\H,28.52,21.7,16.81\\Version=ES64
 L-G09RevE.01\HF=-9773.3978991\RMSD=2.677e-09\RMSF=1.035e-02\Dipole=3.5
 049731,-21.0172586,6.3155171\Quadrupole=594.9747669,-1378.5610706,783.
 5863036,-2051.7503518,-1120.9512775,-2039.1895032\PG=C01 [X(Br1H256O12
 8)]\\@


 A true friend is someone who is there for
 you when he'd rather be anywhere else.
                               -- Len Wein
 Job cpu time:       8 days 17 hours  3 minutes 25.2 seconds.
 File lengths (MBytes):  RWF=   7285 Int=      0 D2E=      0 Chk=   2411 Scr=      1
 Normal termination of Gaussian 09 at Sun May  6 21:07:45 2018.
