 Entering Gaussian System, Link 0=/cm/shared/gaussian/g09.e01/intel64-sandybridge/g09/g09
 Initial command:
 /cm/shared/gaussian/g09.e01/intel64-sandybridge/g09/l1.exe "/local/scratch/m.peluso/128_wat/370/Gau-32067.inp" -scrdir="/local/scratch/m.peluso/128_wat/370/"
 Entering Link 1 = /cm/shared/gaussian/g09.e01/intel64-sandybridge/g09/l1.exe PID=     32068.
  
 Copyright (c) 1988,1990,1992,1993,1995,1998,2003,2009,2015,
            Gaussian, Inc.  All Rights Reserved.
  
 This is part of the Gaussian(R) 09 program.  It is based on
 the Gaussian(R) 03 system (copyright 2003, Gaussian, Inc.),
 the Gaussian(R) 98 system (copyright 1998, Gaussian, Inc.),
 the Gaussian(R) 94 system (copyright 1995, Gaussian, Inc.),
 the Gaussian 92(TM) system (copyright 1992, Gaussian, Inc.),
 the Gaussian 90(TM) system (copyright 1990, Gaussian, Inc.),
 the Gaussian 88(TM) system (copyright 1988, Gaussian, Inc.),
 the Gaussian 86(TM) system (copyright 1986, Carnegie Mellon
 University), and the Gaussian 82(TM) system (copyright 1983,
 Carnegie Mellon University). Gaussian is a federally registered
 trademark of Gaussian, Inc.
  
 This software contains proprietary and confidential information,
 including trade secrets, belonging to Gaussian, Inc.
  
 This software is provided under written license and may be
 used, copied, transmitted, or stored only in accord with that
 written license.
  
 The following legend is applicable only to US Government
 contracts under FAR:
  
                    RESTRICTED RIGHTS LEGEND
  
 Use, reproduction and disclosure by the US Government is
 subject to restrictions as set forth in subparagraphs (a)
 and (c) of the Commercial Computer Software - Restricted
 Rights clause in FAR 52.227-19.
  
 Gaussian, Inc.
 340 Quinnipiac St., Bldg. 40, Wallingford CT 06492
  
  
 ---------------------------------------------------------------
 Warning -- This program may not be used in any manner that
 competes with the business of Gaussian, Inc. or will provide
 assistance to any competitor of Gaussian, Inc.  The licensee
 of this program is prohibited from giving any competitor of
 Gaussian, Inc. access to this program.  By using this program,
 the user acknowledges that Gaussian, Inc. is engaged in the
 business of creating and licensing software in the field of
 computational chemistry and represents and warrants to the
 licensee that it is not a competitor of Gaussian, Inc. and that
 it will not use this program in any manner prohibited above.
 ---------------------------------------------------------------
  

 Cite this work as:
 Gaussian 09, Revision E.01,
 M. J. Frisch, G. W. Trucks, H. B. Schlegel, G. E. Scuseria, 
 M. A. Robb, J. R. Cheeseman, G. Scalmani, V. Barone, B. Mennucci, 
 G. A. Petersson, H. Nakatsuji, M. Caricato, X. Li, H. P. Hratchian, 
 A. F. Izmaylov, J. Bloino, G. Zheng, J. L. Sonnenberg, M. Hada, 
 M. Ehara, K. Toyota, R. Fukuda, J. Hasegawa, M. Ishida, T. Nakajima, 
 Y. Honda, O. Kitao, H. Nakai, T. Vreven, J. A. Montgomery, Jr., 
 J. E. Peralta, F. Ogliaro, M. Bearpark, J. J. Heyd, E. Brothers, 
 K. N. Kudin, V. N. Staroverov, T. Keith, R. Kobayashi, J. Normand, 
 K. Raghavachari, A. Rendell, J. C. Burant, S. S. Iyengar, J. Tomasi, 
 M. Cossi, N. Rega, J. M. Millam, M. Klene, J. E. Knox, J. B. Cross, 
 V. Bakken, C. Adamo, J. Jaramillo, R. Gomperts, R. E. Stratmann, 
 O. Yazyev, A. J. Austin, R. Cammi, C. Pomelli, J. W. Ochterski, 
 R. L. Martin, K. Morokuma, V. G. Zakrzewski, G. A. Voth, 
 P. Salvador, J. J. Dannenberg, S. Dapprich, A. D. Daniels, 
 O. Farkas, J. B. Foresman, J. V. Ortiz, J. Cioslowski, 
 and D. J. Fox, Gaussian, Inc., Wallingford CT, 2013.
 
 ******************************************
 Gaussian 09:  ES64L-G09RevE.01 30-Nov-2015
                 9-May-2018 
 ******************************************
 %Mem=110GB
 %NProcShared=64
 Will use up to   64 processors via shared memory.
 %chk=snap107.chk
 ----------------------------------------------
 #p PBE1PBE/cc-pvDZ force Counterpoise=2 noSymm
 ----------------------------------------------
 1/10=7,30=1,38=1,62=2/1,3;
 2/12=2,15=1,17=6,18=5,40=1/2;
 1/10=7,30=1,38=1,53=2,62=2,63=101/22;
 3/5=16,11=2,16=1,25=1,30=1,71=1,74=-13/1,2,3;
 4//1;
 5/5=2,38=5/2;
 6/7=2,8=2,9=2,10=2,28=1/1;
 7/7=1,29=1,30=1,33=-1/1,2,3,16;
 1/10=7,30=1,53=2,62=2,63=101/22;
 3/5=7,6=11,11=2,16=1,25=1,30=1,71=1,74=-13,82=7/1,2,3;
 4//1;
 5/5=2,38=5/2;
 6/7=2,8=2,9=2,10=2,28=1/1;
 7/7=1,29=1,30=1,33=-1/1,2,3,16;
 1/10=7,30=1,53=2,62=2,63=101/22(-5);
 7/9=1,29=1,44=-1/16;
 1/10=7,30=1,62=2/3;
 99//99;
 Leave Link    1 at Wed May  9 03:18:18 2018, MaxMem= 14763950080 cpu:       313.0
 (Enter /cm/shared/gaussian/g09.e01/intel64-sandybridge/g09/l101.exe)
 ---------------------------------------
 forces on chloride comput - NWATER: 128
 ---------------------------------------
 Symbolic Z-matrix:
 Charge = -1 Multiplicity = 1 in supermolecule
 Charge = -1 Multiplicity = 1 in fragment      1.
 Charge =  0 Multiplicity = 1 in fragment      2.
 Br(Fragment=1)        20.       20.       20. 
 O(Fragment=2)         22.81     21.35     19.16 
 H(Fragment=2)         22.14     20.68     19.33 
 H(Fragment=2)         23.32     21.       18.43 
 O(Fragment=2)         17.32     19.92     18.38 
 H(Fragment=2)         18.06     20.41     18.73 
 H(Fragment=2)         17.62     19.02     18.35 
 O(Fragment=2)         19.32     20.83     23.02 
 H(Fragment=2)         19.71     20.95     22.15 
 H(Fragment=2)         19.76     21.47     23.57 
 O(Fragment=2)         20.3      21.21     16.69 
 H(Fragment=2)         20.45     20.94     17.59 
 H(Fragment=2)         20.17     22.16     16.74 
 O(Fragment=2)         18.85     16.91     20.7 
 H(Fragment=2)         18.78     17.78     21.1 
 H(Fragment=2)         18.86     17.08     19.75 
 O(Fragment=2)         23.09     17.68     20.44 
 H(Fragment=2)         22.46     17.05     20.79 
 H(Fragment=2)         22.56     18.4      20.1 
 O(Fragment=2)         19.68     23.81     19.24 
 H(Fragment=2)         20.35     23.15     19.44 
 H(Fragment=2)         19.09     23.79     20. 
 O(Fragment=2)         18.21     18.41     23.4 
 H(Fragment=2)         17.31     18.57     23.68 
 H(Fragment=2)         18.58     19.28     23.23 
 O(Fragment=2)         17.59     23.33     20.86 
 H(Fragment=2)         16.84     22.99     20.37 
 H(Fragment=2)         17.72     22.7      21.57 
 O(Fragment=2)         22.02     22.38     22.91 
 H(Fragment=2)         22.55     22.7      23.63 
 H(Fragment=2)         22.23     21.44     22.86 
 O(Fragment=2)         21.03     16.14     22.02 
 H(Fragment=2)         21.07     15.19     22.13 
 H(Fragment=2)         20.32     16.27     21.39 
 O(Fragment=2)         18.       17.21     17.68 
 H(Fragment=2)         17.42     16.44     17.71 
 H(Fragment=2)         18.88     16.84     17.71 
 O(Fragment=2)         16.51     21.47     22.87 
 H(Fragment=2)         17.2      20.8      22.86 
 H(Fragment=2)         16.97     22.28     23.09 
 O(Fragment=2)         19.02     18.5      15.64 
 H(Fragment=2)         19.38     19.37     15.79 
 H(Fragment=2)         18.92     18.12     16.51 
 O(Fragment=2)         20.48     16.21     17.81 
 H(Fragment=2)         21.33     16.58     18.04 
 H(Fragment=2)         20.66     15.63     17.07 
 O(Fragment=2)         23.47     19.59     22.84 
 H(Fragment=2)         24.23     19.39     23.38 
 H(Fragment=2)         23.54     19.       22.09 
 O(Fragment=2)         17.88     23.23     16.88 
 H(Fragment=2)         17.42     24.07     16.93 
 H(Fragment=2)         18.44     23.21     17.66 
 O(Fragment=2)         20.85     17.79     24.14 
 H(Fragment=2)         21.05     17.19     23.41 
 H(Fragment=2)         19.98     18.12     23.94 
 O(Fragment=2)         15.86     17.25     20.95 
 H(Fragment=2)         16.81     17.2      21.1 
 H(Fragment=2)         15.47     16.9      21.75 
 O(Fragment=2)         24.67     21.72     21.6 
 H(Fragment=2)         23.77     21.9      21.31 
 H(Fragment=2)         24.58     21.08     22.3 
 O(Fragment=2)         22.94     20.33     16. 
 H(Fragment=2)         23.26     20.57     15.13 
 H(Fragment=2)         22.05     20.68     16.03 
 O(Fragment=2)         14.92     20.3      20.24 
 H(Fragment=2)         15.5      19.54     20.26 
 H(Fragment=2)         15.48     21.03     19.96 
 O(Fragment=2)         22.38     23.95     17.2 
 H(Fragment=2)         22.56     23.15     17.7 
 H(Fragment=2)         23.07     23.99     16.55 
 O(Fragment=2)         20.8      24.96     21.71 
 H(Fragment=2)         21.26     24.14     21.9 
 H(Fragment=2)         21.27     25.33     20.96 
 O(Fragment=2)         15.77     22.69     19.08 
 H(Fragment=2)         16.31     22.58     18.3 
 H(Fragment=2)         15.06     23.27     18.79 
 O(Fragment=2)         15.87     19.94     15.62 
 H(Fragment=2)         15.95     18.99     15.57 
 H(Fragment=2)         16.4      20.2      16.37 
 O(Fragment=2)         14.85     18.27     18.18 
 H(Fragment=2)         15.23     17.92     18.98 
 H(Fragment=2)         15.34     19.07     18. 
 O(Fragment=2)         24.48     18.53     17.49 
 H(Fragment=2)         24.08     19.17     16.9 
 H(Fragment=2)         25.3      18.28     17.05 
 O(Fragment=2)         23.5      15.75     17.68 
 H(Fragment=2)         23.84     16.59     17.98 
 H(Fragment=2)         23.88     15.63     16.81 
 O(Fragment=2)         22.27     25.71     19.58 
 H(Fragment=2)         21.81     25.12     18.99 
 H(Fragment=2)         23.19     25.65     19.32 
 O(Fragment=2)         26.34     20.03     20.21 
 H(Fragment=2)         25.49     20.39     20.47 
 H(Fragment=2)         26.12     19.22     19.75 
 O(Fragment=2)         17.5      21.88     14.42 
 H(Fragment=2)         16.64     21.5      14.58 
 H(Fragment=2)         17.84     22.07     15.29 
 O(Fragment=2)         22.47     20.46     25.62 
 H(Fragment=2)         22.54     19.71     25.03 
 H(Fragment=2)         21.54     20.52     25.82 
 O(Fragment=2)         17.96     25.79     21.83 
 H(Fragment=2)         18.92     25.79     21.74 
 H(Fragment=2)         17.67     25.01     21.37 
 O(Fragment=2)         21.17     21.84     13.75 
 H(Fragment=2)         20.92     21.37     14.55 
 H(Fragment=2)         20.34     22.17     13.4 
 O(Fragment=2)         25.45     16.24     20.7 
 H(Fragment=2)         24.67     16.75     20.48 
 H(Fragment=2)         26.03     16.35     19.94 
 O(Fragment=2)         17.76     23.62     23.99 
 H(Fragment=2)         18.37     24.24     23.58 
 H(Fragment=2)         17.33     24.13     24.68 
 O(Fragment=2)         19.49     26.39     18.17 
 H(Fragment=2)         19.36     25.46     18.01 
 H(Fragment=2)         19.49     26.47     19.12 
 O(Fragment=2)         14.31     22.61     21.78 
 H(Fragment=2)         14.19     22.05     21.01 
 H(Fragment=2)         15.07     22.23     22.24 
 O(Fragment=2)         18.78     13.64     18.74 
 H(Fragment=2)         19.43     14.32     18.57 
 H(Fragment=2)         19.03     12.91     18.19 
 O(Fragment=2)         13.78     19.57     22.73 
 H(Fragment=2)         13.78     19.64     21.78 
 H(Fragment=2)         14.69     19.69     22.98 
 O(Fragment=2)         23.31     17.74     25.31 
 H(Fragment=2)         22.37     17.73     25.15 
 H(Fragment=2)         23.66     17.04     24.77 
 O(Fragment=2)         17.56     17.35     13.83 
 H(Fragment=2)         18.       17.66     14.62 
 H(Fragment=2)         17.57     18.1      13.24 
 O(Fragment=2)         19.68     21.23     26.24 
 H(Fragment=2)         18.76     21.26     25.98 
 H(Fragment=2)         19.78     21.96     26.85 
 O(Fragment=2)         15.8      18.92     24.53 
 H(Fragment=2)         15.86     19.7      25.09 
 H(Fragment=2)         15.3      18.29     25.04 
 O(Fragment=2)         16.58     21.29     25.95 
 H(Fragment=2)         16.92     21.78     25.21 
 H(Fragment=2)         15.73     21.69     26.13 
 O(Fragment=2)         26.16     23.04     19.79 
 H(Fragment=2)         26.97     23.44     20.13 
 H(Fragment=2)         25.68     22.77     20.58 
 O(Fragment=2)         20.39     17.03     26.6 
 H(Fragment=2)         20.75     17.18     25.72 
 H(Fragment=2)         21.13     17.15     27.19 
 O(Fragment=2)         16.26     15.02     18.13 
 H(Fragment=2)         16.77     14.22     18.28 
 H(Fragment=2)         15.64     14.79     17.43 
 O(Fragment=2)         20.15     16.16     13.67 
 H(Fragment=2)         19.36     15.65     13.83 
 H(Fragment=2)         19.98     16.99     14.11 
 O(Fragment=2)         22.51     13.03     18.5 
 H(Fragment=2)         22.31     13.96     18.38 
 H(Fragment=2)         23.18     13.02     19.18 
 O(Fragment=2)         21.19     25.47     15.06 
 H(Fragment=2)         20.57     24.79     14.79 
 H(Fragment=2)         21.58     25.12     15.86 
 O(Fragment=2)         21.46     14.93     15.67 
 H(Fragment=2)         21.22     15.29     14.82 
 H(Fragment=2)         22.02     14.18     15.46 
 O(Fragment=2)         17.66     19.02     26.98 
 H(Fragment=2)         18.28     18.53     26.44 
 H(Fragment=2)         17.51     19.83     26.5 
 O(Fragment=2)         19.31     24.1      13.75 
 H(Fragment=2)         18.63     23.82     14.36 
 H(Fragment=2)         18.88     24.1      12.9 
 O(Fragment=2)         23.58     23.76     24.67 
 H(Fragment=2)         24.37     23.23     24.74 
 H(Fragment=2)         23.33     23.94     25.57 
 O(Fragment=2)         20.33     24.56     25.28 
 H(Fragment=2)         20.28     25.51     25.25 
 H(Fragment=2)         20.71     24.36     26.14 
 O(Fragment=2)         26.04     19.9      23.58 
 H(Fragment=2)         26.41     20.78     23.53 
 H(Fragment=2)         26.55     19.47     24.26 
 O(Fragment=2)         15.43     16.07     23.63 
 H(Fragment=2)         15.33     15.12     23.55 
 H(Fragment=2)         16.01     16.19     24.38 
 O(Fragment=2)         24.69     25.32     22.36 
 H(Fragment=2)         25.16     24.48     22.28 
 H(Fragment=2)         23.92     25.11     22.89 
 O(Fragment=2)         15.28     25.62     18.28 
 H(Fragment=2)         16.14     25.57     17.85 
 H(Fragment=2)         14.66     25.66     17.56 
 O(Fragment=2)         22.07     27.29     22.67 
 H(Fragment=2)         22.93     27.23     22.26 
 H(Fragment=2)         21.58     26.56     22.3 
 O(Fragment=2)         13.02     20.42     17.07 
 H(Fragment=2)         13.38     19.86     16.38 
 H(Fragment=2)         13.53     21.23     17.02 
 O(Fragment=2)         21.99     13.32     21.92 
 H(Fragment=2)         22.34     12.64     22.5 
 H(Fragment=2)         21.22     12.91     21.51 
 O(Fragment=2)         15.68     13.64     22.01 
 H(Fragment=2)         16.58     13.95     22.02 
 H(Fragment=2)         15.74     12.75     21.66 
 O(Fragment=2)         17.16     25.78     16.63 
 H(Fragment=2)         16.79     26.11     15.81 
 H(Fragment=2)         17.93     26.33     16.78 
 O(Fragment=2)         13.61     15.13     19.57 
 H(Fragment=2)         13.39     15.68     20.32 
 H(Fragment=2)         14.57     15.19     19.51 
 O(Fragment=2)         26.69     22.92     16.98 
 H(Fragment=2)         27.13     23.77     17.02 
 H(Fragment=2)         26.46     22.72     17.89 
 O(Fragment=2)         19.52     12.19     20.99 
 H(Fragment=2)         19.12     12.74     20.32 
 H(Fragment=2)         19.37     11.29     20.69 
 O(Fragment=2)         18.54     20.19     12.31 
 H(Fragment=2)         18.78     20.74     11.56 
 H(Fragment=2)         18.17     20.81     12.95 
 O(Fragment=2)         24.46     13.69     20.62 
 H(Fragment=2)         23.75     13.73     21.26 
 H(Fragment=2)         24.87     14.56     20.66 
 O(Fragment=2)         13.17     16.98     16.52 
 H(Fragment=2)         13.65     16.16     16.51 
 H(Fragment=2)         13.69     17.56     17.08 
 O(Fragment=2)         12.11     20.02     19.68 
 H(Fragment=2)         12.11     20.43     18.81 
 H(Fragment=2)         12.67     19.25     19.58 
 O(Fragment=2)         17.57     14.81     14.62 
 H(Fragment=2)         17.18     15.33     13.91 
 H(Fragment=2)         17.05     15.02     15.39 
 O(Fragment=2)         23.75     19.91     13.52 
 H(Fragment=2)         23.77     20.77     13.1 
 H(Fragment=2)         23.12     19.41     13.01 
 O(Fragment=2)         14.01     23.08     16.71 
 H(Fragment=2)         13.5      23.85     16.96 
 H(Fragment=2)         13.98     23.08     15.75 
 O(Fragment=2)         24.64     15.74     24.28 
 H(Fragment=2)         24.84     14.95     24.79 
 H(Fragment=2)         25.06     15.6      23.43 
 O(Fragment=2)         20.35     19.53     28.48 
 H(Fragment=2)         21.2      19.11     28.38 
 H(Fragment=2)         20.08     19.76     27.59 
 O(Fragment=2)         21.19     19.16     12.12 
 H(Fragment=2)         20.48     18.55     11.95 
 H(Fragment=2)         20.75     19.96     12.43 
 O(Fragment=2)         24.52     20.89     27.22 
 H(Fragment=2)         23.84     20.92     26.55 
 H(Fragment=2)         25.09     20.17     26.96 
 O(Fragment=2)         18.05     27.67     23.59 
 H(Fragment=2)         18.25     26.84     23.17 
 H(Fragment=2)         18.88     27.95     23.97 
 O(Fragment=2)         25.82     18.51     26.19 
 H(Fragment=2)         25.04     18.32     25.67 
 H(Fragment=2)         26.22     17.66     26.34 
 O(Fragment=2)         24.71     26.58     19.62 
 H(Fragment=2)         24.81     27.53     19.68 
 H(Fragment=2)         24.56     26.29     20.53 
 O(Fragment=2)         24.43     24.14     15.05 
 H(Fragment=2)         25.27     24.04     15.49 
 H(Fragment=2)         24.53     23.65     14.23 
 O(Fragment=2)         25.16     16.54     14.47 
 H(Fragment=2)         25.81     16.96     15.03 
 H(Fragment=2)         24.62     17.26     14.15 
 O(Fragment=2)         26.81     16.31     18.2 
 H(Fragment=2)         26.65     15.38     18.04 
 H(Fragment=2)         27.73     16.35     18.46 
 O(Fragment=2)         19.71     14.07     25.88 
 H(Fragment=2)         20.1      14.91     26.14 
 H(Fragment=2)         20.46     13.53     25.64 
 O(Fragment=2)         25.98     22.49     25.08 
 H(Fragment=2)         25.76     21.58     25.31 
 H(Fragment=2)         26.37     22.85     25.88 
 O(Fragment=2)         28.8      20.5      21.11 
 H(Fragment=2)         27.96     20.69     20.68 
 H(Fragment=2)         28.72     20.87     21.99 
 O(Fragment=2)         14.15     25.78     22.9 
 H(Fragment=2)         14.02     25.64     23.84 
 H(Fragment=2)         15.1      25.77     22.79 
 O(Fragment=2)         21.21     28.15     17.13 
 H(Fragment=2)         20.39     27.69     17.31 
 H(Fragment=2)         21.82     27.81     17.78 
 O(Fragment=2)         22.53     23.96     12.33 
 H(Fragment=2)         22.09     23.24     12.79 
 H(Fragment=2)         22.48     24.7      12.94 
 O(Fragment=2)         12.59     22.47     24.01 
 H(Fragment=2)         12.74     22.42     23.07 
 H(Fragment=2)         12.74     21.58     24.33 
 O(Fragment=2)         22.36     16.26     12.08 
 H(Fragment=2)         22.03     15.53     11.56 
 H(Fragment=2)         21.77     16.31     12.83 
 O(Fragment=2)         13.5      18.81     13.97 
 H(Fragment=2)         14.29     19.34     14.06 
 H(Fragment=2)         13.53     18.21     14.71 
 O(Fragment=2)         22.63     17.8      27.94 
 H(Fragment=2)         23.29     17.74     27.25 
 H(Fragment=2)         23.12     17.99     28.73 
 O(Fragment=2)         23.28     14.81     26.7 
 H(Fragment=2)         23.06     14.8      25.77 
 H(Fragment=2)         23.2      13.89     26.98 
 O(Fragment=2)         27.08     17.91     16.07 
 H(Fragment=2)         27.64     18.6      16.42 
 H(Fragment=2)         27.3      17.14     16.59 
 O(Fragment=2)         16.24     11.89     18.77 
 H(Fragment=2)         16.63     12.27     19.56 
 H(Fragment=2)         16.15     10.96     18.96 
 O(Fragment=2)         19.89     11.36     17.76 
 H(Fragment=2)         20.71     11.82     17.89 
 H(Fragment=2)         20.13     10.44     17.74 
 O(Fragment=2)         11.67     18.97     24.39 
 H(Fragment=2)         11.02     19.19     23.72 
 H(Fragment=2)         12.47     18.77     23.9 
 O(Fragment=2)         17.69     28.39     19.59 
 H(Fragment=2)         17.77     28.46     18.64 
 H(Fragment=2)         16.84     27.98     19.73 
 O(Fragment=2)         11.22     21.96     21.48 
 H(Fragment=2)         10.51     21.41     21.8 
 H(Fragment=2)         11.57     21.51     20.72 
 O(Fragment=2)         29.13     22.46     18.93 
 H(Fragment=2)         28.27     22.23     19.29 
 H(Fragment=2)         29.46     23.14     19.52 
 O(Fragment=2)         13.1      26.26     20.21 
 H(Fragment=2)         13.62     26.24     19.4 
 H(Fragment=2)         13.44     25.52     20.72 
 O(Fragment=2)         15.17     24.07     13.76 
 H(Fragment=2)         16.01     23.89     13.33 
 H(Fragment=2)         14.52     23.62     13.22 
 O(Fragment=2)         17.05     13.66     25.82 
 H(Fragment=2)         16.75     12.75     25.81 
 H(Fragment=2)         17.96     13.62     25.54 
 O(Fragment=2)         14.57     14.47     16.01 
 H(Fragment=2)         15.07     13.72     15.69 
 H(Fragment=2)         14.1      14.79     15.25 
 O(Fragment=2)         22.86     24.06     27.35 
 H(Fragment=2)         22.15     24.11     27.99 
 H(Fragment=2)         23.26     23.2      27.49 
 O(Fragment=2)         22.05     13.1      25.09 
 H(Fragment=2)         22.28     12.67     24.26 
 H(Fragment=2)         22.44     12.55     25.77 
 O(Fragment=2)         25.75     26.82     16.69 
 H(Fragment=2)         25.06     26.68     17.34 
 H(Fragment=2)         26.57     26.72     17.18 
 O(Fragment=2)         14.47     22.7      26.3 
 H(Fragment=2)         14.01     22.72     27.13 
 H(Fragment=2)         13.81     22.94     25.65 
 O(Fragment=2)         21.48     27.46     25.49 
 H(Fragment=2)         21.57     27.43     24.54 
 H(Fragment=2)         22.37     27.31     25.82 
 O(Fragment=2)         28.09     21.96     23.51 
 H(Fragment=2)         27.47     22.33     24.13 
 H(Fragment=2)         28.69     22.68     23.32 
 O(Fragment=2)         16.6      25.15     26.39 
 H(Fragment=2)         16.86     25.35     27.29 
 H(Fragment=2)         15.93     24.47     26.48 
 O(Fragment=2)         28.98     18.12     19.36 
 H(Fragment=2)         28.67     18.64     18.62 
 H(Fragment=2)         29.28     18.76     20. 
 O(Fragment=2)         18.09     15.48     27.96 
 H(Fragment=2)         19.       15.67     27.7 
 H(Fragment=2)         17.8      14.82     27.33 
 O(Fragment=2)         21.9      29.59     20.77 
 H(Fragment=2)         22.58     29.69     21.43 
 H(Fragment=2)         21.5      28.73     20.95 
 O(Fragment=2)         19.83     23.27     28.29 
 H(Fragment=2)         19.49     23.81     29. 
 H(Fragment=2)         20.37     22.61     28.73 
 O(Fragment=2)         19.12     11.75     14.68 
 H(Fragment=2)         18.86     11.04     15.26 
 H(Fragment=2)         19.03     12.54     15.21 
 O(Fragment=2)         13.85     17.49     26.01 
 H(Fragment=2)         13.27     17.18     25.31 
 H(Fragment=2)         13.35     17.35     26.81 
 O(Fragment=2)         16.28     19.42     29.16 
 H(Fragment=2)         16.77     19.36     28.34 
 H(Fragment=2)         15.6      18.75     29.09 
 O(Fragment=2)         22.44     21.72     28.88 
 H(Fragment=2)         22.35     21.29     29.73 
 H(Fragment=2)         23.09     21.19     28.41 
 O(Fragment=2)         22.72     27.81     14.49 
 H(Fragment=2)         22.39     26.93     14.65 
 H(Fragment=2)         22.8      28.2      15.36 
 O(Fragment=2)         26.11     13.23     18.19 
 H(Fragment=2)         25.8      13.01     19.07 
 H(Fragment=2)         26.83     12.61     18.03 
 O(Fragment=2)         14.02     14.57     25.79 
 H(Fragment=2)         14.74     15.2      25.74 
 H(Fragment=2)         13.7      14.64     26.69 
 O(Fragment=2)         18.8      17.13     10.73 
 H(Fragment=2)         18.79     16.64     11.55 
 H(Fragment=2)         19.44     16.67     10.18 
 O(Fragment=2)         23.86     26.37     26.34 
 H(Fragment=2)         23.73     25.58     26.87 
 H(Fragment=2)         24.22     26.05     25.51 
 
 NAtoms=    385 NQM=      385 NQMF=       0 NMMI=      0 NMMIF=      0
                NMic=       0 NMicF=      0.
                    Isotopes and Nuclear Properties:
 (Nuclear quadrupole moments (NQMom) in fm**2, nuclear magnetic moments (NMagM)
  in nuclear magnetons)

  Atom         1           2           3           4           5           6           7           8           9          10
 IAtWgt=          79          16           1           1          16           1           1          16           1           1
 AtmWgt=  78.9183361  15.9949146   1.0078250   1.0078250  15.9949146   1.0078250   1.0078250  15.9949146   1.0078250   1.0078250
 NucSpn=           3           0           1           1           0           1           1           0           1           1
 AtZEff=   0.0000000   0.0000000   0.0000000   0.0000000   0.0000000   0.0000000   0.0000000   0.0000000   0.0000000   0.0000000
 NQMom=   31.3000000   0.0000000   0.0000000   0.0000000   0.0000000   0.0000000   0.0000000   0.0000000   0.0000000   0.0000000
 NMagM=    2.1063990   0.0000000   2.7928460   2.7928460   0.0000000   2.7928460   2.7928460   0.0000000   2.7928460   2.7928460
 AtZNuc=  35.0000000   8.0000000   1.0000000   1.0000000   8.0000000   1.0000000   1.0000000   8.0000000   1.0000000   1.0000000

  Atom        11          12          13          14          15          16          17          18          19          20
 IAtWgt=          16           1           1          16           1           1          16           1           1          16
 AtmWgt=  15.9949146   1.0078250   1.0078250  15.9949146   1.0078250   1.0078250  15.9949146   1.0078250   1.0078250  15.9949146
 NucSpn=           0           1           1           0           1           1           0           1           1           0
 AtZEff=   0.0000000   0.0000000   0.0000000   0.0000000   0.0000000   0.0000000   0.0000000   0.0000000   0.0000000   0.0000000
 NQMom=    0.0000000   0.0000000   0.0000000   0.0000000   0.0000000   0.0000000   0.0000000   0.0000000   0.0000000   0.0000000
 NMagM=    0.0000000   2.7928460   2.7928460   0.0000000   2.7928460   2.7928460   0.0000000   2.7928460   2.7928460   0.0000000
 AtZNuc=   8.0000000   1.0000000   1.0000000   8.0000000   1.0000000   1.0000000   8.0000000   1.0000000   1.0000000   8.0000000

  Atom        21          22          23          24          25          26          27          28          29          30
 IAtWgt=           1           1          16           1           1          16           1           1          16           1
 AtmWgt=   1.0078250   1.0078250  15.9949146   1.0078250   1.0078250  15.9949146   1.0078250   1.0078250  15.9949146   1.0078250
 NucSpn=           1           1           0           1           1           0           1           1           0           1
 AtZEff=   0.0000000   0.0000000   0.0000000   0.0000000   0.0000000   0.0000000   0.0000000   0.0000000   0.0000000   0.0000000
 NQMom=    0.0000000   0.0000000   0.0000000   0.0000000   0.0000000   0.0000000   0.0000000   0.0000000   0.0000000   0.0000000
 NMagM=    2.7928460   2.7928460   0.0000000   2.7928460   2.7928460   0.0000000   2.7928460   2.7928460   0.0000000   2.7928460
 AtZNuc=   1.0000000   1.0000000   8.0000000   1.0000000   1.0000000   8.0000000   1.0000000   1.0000000   8.0000000   1.0000000

  Atom        31          32          33          34          35          36          37          38          39          40
 IAtWgt=           1          16           1           1          16           1           1          16           1           1
 AtmWgt=   1.0078250  15.9949146   1.0078250   1.0078250  15.9949146   1.0078250   1.0078250  15.9949146   1.0078250   1.0078250
 NucSpn=           1           0           1           1           0           1           1           0           1           1
 AtZEff=   0.0000000   0.0000000   0.0000000   0.0000000   0.0000000   0.0000000   0.0000000   0.0000000   0.0000000   0.0000000
 NQMom=    0.0000000   0.0000000   0.0000000   0.0000000   0.0000000   0.0000000   0.0000000   0.0000000   0.0000000   0.0000000
 NMagM=    2.7928460   0.0000000   2.7928460   2.7928460   0.0000000   2.7928460   2.7928460   0.0000000   2.7928460   2.7928460
 AtZNuc=   1.0000000   8.0000000   1.0000000   1.0000000   8.0000000   1.0000000   1.0000000   8.0000000   1.0000000   1.0000000

  Atom        41          42          43          44          45          46          47          48          49          50
 IAtWgt=          16           1           1          16           1           1          16           1           1          16
 AtmWgt=  15.9949146   1.0078250   1.0078250  15.9949146   1.0078250   1.0078250  15.9949146   1.0078250   1.0078250  15.9949146
 NucSpn=           0           1           1           0           1           1           0           1           1           0
 AtZEff=   0.0000000   0.0000000   0.0000000   0.0000000   0.0000000   0.0000000   0.0000000   0.0000000   0.0000000   0.0000000
 NQMom=    0.0000000   0.0000000   0.0000000   0.0000000   0.0000000   0.0000000   0.0000000   0.0000000   0.0000000   0.0000000
 NMagM=    0.0000000   2.7928460   2.7928460   0.0000000   2.7928460   2.7928460   0.0000000   2.7928460   2.7928460   0.0000000
 AtZNuc=   8.0000000   1.0000000   1.0000000   8.0000000   1.0000000   1.0000000   8.0000000   1.0000000   1.0000000   8.0000000

  Atom        51          52          53          54          55          56          57          58          59          60
 IAtWgt=           1           1          16           1           1          16           1           1          16           1
 AtmWgt=   1.0078250   1.0078250  15.9949146   1.0078250   1.0078250  15.9949146   1.0078250   1.0078250  15.9949146   1.0078250
 NucSpn=           1           1           0           1           1           0           1           1           0           1
 AtZEff=   0.0000000   0.0000000   0.0000000   0.0000000   0.0000000   0.0000000   0.0000000   0.0000000   0.0000000   0.0000000
 NQMom=    0.0000000   0.0000000   0.0000000   0.0000000   0.0000000   0.0000000   0.0000000   0.0000000   0.0000000   0.0000000
 NMagM=    2.7928460   2.7928460   0.0000000   2.7928460   2.7928460   0.0000000   2.7928460   2.7928460   0.0000000   2.7928460
 AtZNuc=   1.0000000   1.0000000   8.0000000   1.0000000   1.0000000   8.0000000   1.0000000   1.0000000   8.0000000   1.0000000

  Atom        61          62          63          64          65          66          67          68          69          70
 IAtWgt=           1          16           1           1          16           1           1          16           1           1
 AtmWgt=   1.0078250  15.9949146   1.0078250   1.0078250  15.9949146   1.0078250   1.0078250  15.9949146   1.0078250   1.0078250
 NucSpn=           1           0           1           1           0           1           1           0           1           1
 AtZEff=   0.0000000   0.0000000   0.0000000   0.0000000   0.0000000   0.0000000   0.0000000   0.0000000   0.0000000   0.0000000
 NQMom=    0.0000000   0.0000000   0.0000000   0.0000000   0.0000000   0.0000000   0.0000000   0.0000000   0.0000000   0.0000000
 NMagM=    2.7928460   0.0000000   2.7928460   2.7928460   0.0000000   2.7928460   2.7928460   0.0000000   2.7928460   2.7928460
 AtZNuc=   1.0000000   8.0000000   1.0000000   1.0000000   8.0000000   1.0000000   1.0000000   8.0000000   1.0000000   1.0000000

  Atom        71          72          73          74          75          76          77          78          79          80
 IAtWgt=          16           1           1          16           1           1          16           1           1          16
 AtmWgt=  15.9949146   1.0078250   1.0078250  15.9949146   1.0078250   1.0078250  15.9949146   1.0078250   1.0078250  15.9949146
 NucSpn=           0           1           1           0           1           1           0           1           1           0
 AtZEff=   0.0000000   0.0000000   0.0000000   0.0000000   0.0000000   0.0000000   0.0000000   0.0000000   0.0000000   0.0000000
 NQMom=    0.0000000   0.0000000   0.0000000   0.0000000   0.0000000   0.0000000   0.0000000   0.0000000   0.0000000   0.0000000
 NMagM=    0.0000000   2.7928460   2.7928460   0.0000000   2.7928460   2.7928460   0.0000000   2.7928460   2.7928460   0.0000000
 AtZNuc=   8.0000000   1.0000000   1.0000000   8.0000000   1.0000000   1.0000000   8.0000000   1.0000000   1.0000000   8.0000000

  Atom        81          82          83          84          85          86          87          88          89          90
 IAtWgt=           1           1          16           1           1          16           1           1          16           1
 AtmWgt=   1.0078250   1.0078250  15.9949146   1.0078250   1.0078250  15.9949146   1.0078250   1.0078250  15.9949146   1.0078250
 NucSpn=           1           1           0           1           1           0           1           1           0           1
 AtZEff=   0.0000000   0.0000000   0.0000000   0.0000000   0.0000000   0.0000000   0.0000000   0.0000000   0.0000000   0.0000000
 NQMom=    0.0000000   0.0000000   0.0000000   0.0000000   0.0000000   0.0000000   0.0000000   0.0000000   0.0000000   0.0000000
 NMagM=    2.7928460   2.7928460   0.0000000   2.7928460   2.7928460   0.0000000   2.7928460   2.7928460   0.0000000   2.7928460
 AtZNuc=   1.0000000   1.0000000   8.0000000   1.0000000   1.0000000   8.0000000   1.0000000   1.0000000   8.0000000   1.0000000

  Atom        91          92          93          94          95          96          97          98          99         100
 IAtWgt=           1          16           1           1          16           1           1          16           1           1
 AtmWgt=   1.0078250  15.9949146   1.0078250   1.0078250  15.9949146   1.0078250   1.0078250  15.9949146   1.0078250   1.0078250
 NucSpn=           1           0           1           1           0           1           1           0           1           1
 AtZEff=   0.0000000   0.0000000   0.0000000   0.0000000   0.0000000   0.0000000   0.0000000   0.0000000   0.0000000   0.0000000
 NQMom=    0.0000000   0.0000000   0.0000000   0.0000000   0.0000000   0.0000000   0.0000000   0.0000000   0.0000000   0.0000000
 NMagM=    2.7928460   0.0000000   2.7928460   2.7928460   0.0000000   2.7928460   2.7928460   0.0000000   2.7928460   2.7928460
 AtZNuc=   1.0000000   8.0000000   1.0000000   1.0000000   8.0000000   1.0000000   1.0000000   8.0000000   1.0000000   1.0000000

  Atom       101         102         103         104         105         106         107         108         109         110
 IAtWgt=          16           1           1          16           1           1          16           1           1          16
 AtmWgt=  15.9949146   1.0078250   1.0078250  15.9949146   1.0078250   1.0078250  15.9949146   1.0078250   1.0078250  15.9949146
 NucSpn=           0           1           1           0           1           1           0           1           1           0
 AtZEff=   0.0000000   0.0000000   0.0000000   0.0000000   0.0000000   0.0000000   0.0000000   0.0000000   0.0000000   0.0000000
 NQMom=    0.0000000   0.0000000   0.0000000   0.0000000   0.0000000   0.0000000   0.0000000   0.0000000   0.0000000   0.0000000
 NMagM=    0.0000000   2.7928460   2.7928460   0.0000000   2.7928460   2.7928460   0.0000000   2.7928460   2.7928460   0.0000000
 AtZNuc=   8.0000000   1.0000000   1.0000000   8.0000000   1.0000000   1.0000000   8.0000000   1.0000000   1.0000000   8.0000000

  Atom       111         112         113         114         115         116         117         118         119         120
 IAtWgt=           1           1          16           1           1          16           1           1          16           1
 AtmWgt=   1.0078250   1.0078250  15.9949146   1.0078250   1.0078250  15.9949146   1.0078250   1.0078250  15.9949146   1.0078250
 NucSpn=           1           1           0           1           1           0           1           1           0           1
 AtZEff=   0.0000000   0.0000000   0.0000000   0.0000000   0.0000000   0.0000000   0.0000000   0.0000000   0.0000000   0.0000000
 NQMom=    0.0000000   0.0000000   0.0000000   0.0000000   0.0000000   0.0000000   0.0000000   0.0000000   0.0000000   0.0000000
 NMagM=    2.7928460   2.7928460   0.0000000   2.7928460   2.7928460   0.0000000   2.7928460   2.7928460   0.0000000   2.7928460
 AtZNuc=   1.0000000   1.0000000   8.0000000   1.0000000   1.0000000   8.0000000   1.0000000   1.0000000   8.0000000   1.0000000

  Atom       121         122         123         124         125         126         127         128         129         130
 IAtWgt=           1          16           1           1          16           1           1          16           1           1
 AtmWgt=   1.0078250  15.9949146   1.0078250   1.0078250  15.9949146   1.0078250   1.0078250  15.9949146   1.0078250   1.0078250
 NucSpn=           1           0           1           1           0           1           1           0           1           1
 AtZEff=   0.0000000   0.0000000   0.0000000   0.0000000   0.0000000   0.0000000   0.0000000   0.0000000   0.0000000   0.0000000
 NQMom=    0.0000000   0.0000000   0.0000000   0.0000000   0.0000000   0.0000000   0.0000000   0.0000000   0.0000000   0.0000000
 NMagM=    2.7928460   0.0000000   2.7928460   2.7928460   0.0000000   2.7928460   2.7928460   0.0000000   2.7928460   2.7928460
 AtZNuc=   1.0000000   8.0000000   1.0000000   1.0000000   8.0000000   1.0000000   1.0000000   8.0000000   1.0000000   1.0000000

  Atom       131         132         133         134         135         136         137         138         139         140
 IAtWgt=          16           1           1          16           1           1          16           1           1          16
 AtmWgt=  15.9949146   1.0078250   1.0078250  15.9949146   1.0078250   1.0078250  15.9949146   1.0078250   1.0078250  15.9949146
 NucSpn=           0           1           1           0           1           1           0           1           1           0
 AtZEff=   0.0000000   0.0000000   0.0000000   0.0000000   0.0000000   0.0000000   0.0000000   0.0000000   0.0000000   0.0000000
 NQMom=    0.0000000   0.0000000   0.0000000   0.0000000   0.0000000   0.0000000   0.0000000   0.0000000   0.0000000   0.0000000
 NMagM=    0.0000000   2.7928460   2.7928460   0.0000000   2.7928460   2.7928460   0.0000000   2.7928460   2.7928460   0.0000000
 AtZNuc=   8.0000000   1.0000000   1.0000000   8.0000000   1.0000000   1.0000000   8.0000000   1.0000000   1.0000000   8.0000000

  Atom       141         142         143         144         145         146         147         148         149         150
 IAtWgt=           1           1          16           1           1          16           1           1          16           1
 AtmWgt=   1.0078250   1.0078250  15.9949146   1.0078250   1.0078250  15.9949146   1.0078250   1.0078250  15.9949146   1.0078250
 NucSpn=           1           1           0           1           1           0           1           1           0           1
 AtZEff=   0.0000000   0.0000000   0.0000000   0.0000000   0.0000000   0.0000000   0.0000000   0.0000000   0.0000000   0.0000000
 NQMom=    0.0000000   0.0000000   0.0000000   0.0000000   0.0000000   0.0000000   0.0000000   0.0000000   0.0000000   0.0000000
 NMagM=    2.7928460   2.7928460   0.0000000   2.7928460   2.7928460   0.0000000   2.7928460   2.7928460   0.0000000   2.7928460
 AtZNuc=   1.0000000   1.0000000   8.0000000   1.0000000   1.0000000   8.0000000   1.0000000   1.0000000   8.0000000   1.0000000

  Atom       151         152         153         154         155         156         157         158         159         160
 IAtWgt=           1          16           1           1          16           1           1          16           1           1
 AtmWgt=   1.0078250  15.9949146   1.0078250   1.0078250  15.9949146   1.0078250   1.0078250  15.9949146   1.0078250   1.0078250
 NucSpn=           1           0           1           1           0           1           1           0           1           1
 AtZEff=   0.0000000   0.0000000   0.0000000   0.0000000   0.0000000   0.0000000   0.0000000   0.0000000   0.0000000   0.0000000
 NQMom=    0.0000000   0.0000000   0.0000000   0.0000000   0.0000000   0.0000000   0.0000000   0.0000000   0.0000000   0.0000000
 NMagM=    2.7928460   0.0000000   2.7928460   2.7928460   0.0000000   2.7928460   2.7928460   0.0000000   2.7928460   2.7928460
 AtZNuc=   1.0000000   8.0000000   1.0000000   1.0000000   8.0000000   1.0000000   1.0000000   8.0000000   1.0000000   1.0000000

  Atom       161         162         163         164         165         166         167         168         169         170
 IAtWgt=          16           1           1          16           1           1          16           1           1          16
 AtmWgt=  15.9949146   1.0078250   1.0078250  15.9949146   1.0078250   1.0078250  15.9949146   1.0078250   1.0078250  15.9949146
 NucSpn=           0           1           1           0           1           1           0           1           1           0
 AtZEff=   0.0000000   0.0000000   0.0000000   0.0000000   0.0000000   0.0000000   0.0000000   0.0000000   0.0000000   0.0000000
 NQMom=    0.0000000   0.0000000   0.0000000   0.0000000   0.0000000   0.0000000   0.0000000   0.0000000   0.0000000   0.0000000
 NMagM=    0.0000000   2.7928460   2.7928460   0.0000000   2.7928460   2.7928460   0.0000000   2.7928460   2.7928460   0.0000000
 AtZNuc=   8.0000000   1.0000000   1.0000000   8.0000000   1.0000000   1.0000000   8.0000000   1.0000000   1.0000000   8.0000000

  Atom       171         172         173         174         175         176         177         178         179         180
 IAtWgt=           1           1          16           1           1          16           1           1          16           1
 AtmWgt=   1.0078250   1.0078250  15.9949146   1.0078250   1.0078250  15.9949146   1.0078250   1.0078250  15.9949146   1.0078250
 NucSpn=           1           1           0           1           1           0           1           1           0           1
 AtZEff=   0.0000000   0.0000000   0.0000000   0.0000000   0.0000000   0.0000000   0.0000000   0.0000000   0.0000000   0.0000000
 NQMom=    0.0000000   0.0000000   0.0000000   0.0000000   0.0000000   0.0000000   0.0000000   0.0000000   0.0000000   0.0000000
 NMagM=    2.7928460   2.7928460   0.0000000   2.7928460   2.7928460   0.0000000   2.7928460   2.7928460   0.0000000   2.7928460
 AtZNuc=   1.0000000   1.0000000   8.0000000   1.0000000   1.0000000   8.0000000   1.0000000   1.0000000   8.0000000   1.0000000

  Atom       181         182         183         184         185         186         187         188         189         190
 IAtWgt=           1          16           1           1          16           1           1          16           1           1
 AtmWgt=   1.0078250  15.9949146   1.0078250   1.0078250  15.9949146   1.0078250   1.0078250  15.9949146   1.0078250   1.0078250
 NucSpn=           1           0           1           1           0           1           1           0           1           1
 AtZEff=   0.0000000   0.0000000   0.0000000   0.0000000   0.0000000   0.0000000   0.0000000   0.0000000   0.0000000   0.0000000
 NQMom=    0.0000000   0.0000000   0.0000000   0.0000000   0.0000000   0.0000000   0.0000000   0.0000000   0.0000000   0.0000000
 NMagM=    2.7928460   0.0000000   2.7928460   2.7928460   0.0000000   2.7928460   2.7928460   0.0000000   2.7928460   2.7928460
 AtZNuc=   1.0000000   8.0000000   1.0000000   1.0000000   8.0000000   1.0000000   1.0000000   8.0000000   1.0000000   1.0000000

  Atom       191         192         193         194         195         196         197         198         199         200
 IAtWgt=          16           1           1          16           1           1          16           1           1          16
 AtmWgt=  15.9949146   1.0078250   1.0078250  15.9949146   1.0078250   1.0078250  15.9949146   1.0078250   1.0078250  15.9949146
 NucSpn=           0           1           1           0           1           1           0           1           1           0
 AtZEff=   0.0000000   0.0000000   0.0000000   0.0000000   0.0000000   0.0000000   0.0000000   0.0000000   0.0000000   0.0000000
 NQMom=    0.0000000   0.0000000   0.0000000   0.0000000   0.0000000   0.0000000   0.0000000   0.0000000   0.0000000   0.0000000
 NMagM=    0.0000000   2.7928460   2.7928460   0.0000000   2.7928460   2.7928460   0.0000000   2.7928460   2.7928460   0.0000000
 AtZNuc=   8.0000000   1.0000000   1.0000000   8.0000000   1.0000000   1.0000000   8.0000000   1.0000000   1.0000000   8.0000000

  Atom       201         202         203         204         205         206         207         208         209         210
 IAtWgt=           1           1          16           1           1          16           1           1          16           1
 AtmWgt=   1.0078250   1.0078250  15.9949146   1.0078250   1.0078250  15.9949146   1.0078250   1.0078250  15.9949146   1.0078250
 NucSpn=           1           1           0           1           1           0           1           1           0           1
 AtZEff=   0.0000000   0.0000000   0.0000000   0.0000000   0.0000000   0.0000000   0.0000000   0.0000000   0.0000000   0.0000000
 NQMom=    0.0000000   0.0000000   0.0000000   0.0000000   0.0000000   0.0000000   0.0000000   0.0000000   0.0000000   0.0000000
 NMagM=    2.7928460   2.7928460   0.0000000   2.7928460   2.7928460   0.0000000   2.7928460   2.7928460   0.0000000   2.7928460
 AtZNuc=   1.0000000   1.0000000   8.0000000   1.0000000   1.0000000   8.0000000   1.0000000   1.0000000   8.0000000   1.0000000

  Atom       211         212         213         214         215         216         217         218         219         220
 IAtWgt=           1          16           1           1          16           1           1          16           1           1
 AtmWgt=   1.0078250  15.9949146   1.0078250   1.0078250  15.9949146   1.0078250   1.0078250  15.9949146   1.0078250   1.0078250
 NucSpn=           1           0           1           1           0           1           1           0           1           1
 AtZEff=   0.0000000   0.0000000   0.0000000   0.0000000   0.0000000   0.0000000   0.0000000   0.0000000   0.0000000   0.0000000
 NQMom=    0.0000000   0.0000000   0.0000000   0.0000000   0.0000000   0.0000000   0.0000000   0.0000000   0.0000000   0.0000000
 NMagM=    2.7928460   0.0000000   2.7928460   2.7928460   0.0000000   2.7928460   2.7928460   0.0000000   2.7928460   2.7928460
 AtZNuc=   1.0000000   8.0000000   1.0000000   1.0000000   8.0000000   1.0000000   1.0000000   8.0000000   1.0000000   1.0000000

  Atom       221         222         223         224         225         226         227         228         229         230
 IAtWgt=          16           1           1          16           1           1          16           1           1          16
 AtmWgt=  15.9949146   1.0078250   1.0078250  15.9949146   1.0078250   1.0078250  15.9949146   1.0078250   1.0078250  15.9949146
 NucSpn=           0           1           1           0           1           1           0           1           1           0
 AtZEff=   0.0000000   0.0000000   0.0000000   0.0000000   0.0000000   0.0000000   0.0000000   0.0000000   0.0000000   0.0000000
 NQMom=    0.0000000   0.0000000   0.0000000   0.0000000   0.0000000   0.0000000   0.0000000   0.0000000   0.0000000   0.0000000
 NMagM=    0.0000000   2.7928460   2.7928460   0.0000000   2.7928460   2.7928460   0.0000000   2.7928460   2.7928460   0.0000000
 AtZNuc=   8.0000000   1.0000000   1.0000000   8.0000000   1.0000000   1.0000000   8.0000000   1.0000000   1.0000000   8.0000000

  Atom       231         232         233         234         235         236         237         238         239         240
 IAtWgt=           1           1          16           1           1          16           1           1          16           1
 AtmWgt=   1.0078250   1.0078250  15.9949146   1.0078250   1.0078250  15.9949146   1.0078250   1.0078250  15.9949146   1.0078250
 NucSpn=           1           1           0           1           1           0           1           1           0           1
 AtZEff=   0.0000000   0.0000000   0.0000000   0.0000000   0.0000000   0.0000000   0.0000000   0.0000000   0.0000000   0.0000000
 NQMom=    0.0000000   0.0000000   0.0000000   0.0000000   0.0000000   0.0000000   0.0000000   0.0000000   0.0000000   0.0000000
 NMagM=    2.7928460   2.7928460   0.0000000   2.7928460   2.7928460   0.0000000   2.7928460   2.7928460   0.0000000   2.7928460
 AtZNuc=   1.0000000   1.0000000   8.0000000   1.0000000   1.0000000   8.0000000   1.0000000   1.0000000   8.0000000   1.0000000

  Atom       241         242         243         244         245         246         247         248         249         250
 IAtWgt=           1          16           1           1          16           1           1          16           1           1
 AtmWgt=   1.0078250  15.9949146   1.0078250   1.0078250  15.9949146   1.0078250   1.0078250  15.9949146   1.0078250   1.0078250
 NucSpn=           1           0           1           1           0           1           1           0           1           1
 AtZEff=   0.0000000   0.0000000   0.0000000   0.0000000   0.0000000   0.0000000   0.0000000   0.0000000   0.0000000   0.0000000
 NQMom=    0.0000000   0.0000000   0.0000000   0.0000000   0.0000000   0.0000000   0.0000000   0.0000000   0.0000000   0.0000000
 NMagM=    2.7928460   0.0000000   2.7928460   2.7928460   0.0000000   2.7928460   2.7928460   0.0000000   2.7928460   2.7928460
 AtZNuc=   1.0000000   8.0000000   1.0000000   1.0000000   8.0000000   1.0000000   1.0000000   8.0000000   1.0000000   1.0000000

  Atom       251         252         253         254         255         256         257         258         259         260
 IAtWgt=          16           1           1          16           1           1          16           1           1          16
 AtmWgt=  15.9949146   1.0078250   1.0078250  15.9949146   1.0078250   1.0078250  15.9949146   1.0078250   1.0078250  15.9949146
 NucSpn=           0           1           1           0           1           1           0           1           1           0
 AtZEff=   0.0000000   0.0000000   0.0000000   0.0000000   0.0000000   0.0000000   0.0000000   0.0000000   0.0000000   0.0000000
 NQMom=    0.0000000   0.0000000   0.0000000   0.0000000   0.0000000   0.0000000   0.0000000   0.0000000   0.0000000   0.0000000
 NMagM=    0.0000000   2.7928460   2.7928460   0.0000000   2.7928460   2.7928460   0.0000000   2.7928460   2.7928460   0.0000000
 AtZNuc=   8.0000000   1.0000000   1.0000000   8.0000000   1.0000000   1.0000000   8.0000000   1.0000000   1.0000000   8.0000000

  Atom       261         262         263         264         265         266         267         268         269         270
 IAtWgt=           1           1          16           1           1          16           1           1          16           1
 AtmWgt=   1.0078250   1.0078250  15.9949146   1.0078250   1.0078250  15.9949146   1.0078250   1.0078250  15.9949146   1.0078250
 NucSpn=           1           1           0           1           1           0           1           1           0           1
 AtZEff=   0.0000000   0.0000000   0.0000000   0.0000000   0.0000000   0.0000000   0.0000000   0.0000000   0.0000000   0.0000000
 NQMom=    0.0000000   0.0000000   0.0000000   0.0000000   0.0000000   0.0000000   0.0000000   0.0000000   0.0000000   0.0000000
 NMagM=    2.7928460   2.7928460   0.0000000   2.7928460   2.7928460   0.0000000   2.7928460   2.7928460   0.0000000   2.7928460
 AtZNuc=   1.0000000   1.0000000   8.0000000   1.0000000   1.0000000   8.0000000   1.0000000   1.0000000   8.0000000   1.0000000

  Atom       271         272         273         274         275         276         277         278         279         280
 IAtWgt=           1          16           1           1          16           1           1          16           1           1
 AtmWgt=   1.0078250  15.9949146   1.0078250   1.0078250  15.9949146   1.0078250   1.0078250  15.9949146   1.0078250   1.0078250
 NucSpn=           1           0           1           1           0           1           1           0           1           1
 AtZEff=   0.0000000   0.0000000   0.0000000   0.0000000   0.0000000   0.0000000   0.0000000   0.0000000   0.0000000   0.0000000
 NQMom=    0.0000000   0.0000000   0.0000000   0.0000000   0.0000000   0.0000000   0.0000000   0.0000000   0.0000000   0.0000000
 NMagM=    2.7928460   0.0000000   2.7928460   2.7928460   0.0000000   2.7928460   2.7928460   0.0000000   2.7928460   2.7928460
 AtZNuc=   1.0000000   8.0000000   1.0000000   1.0000000   8.0000000   1.0000000   1.0000000   8.0000000   1.0000000   1.0000000

  Atom       281         282         283         284         285         286         287         288         289         290
 IAtWgt=          16           1           1          16           1           1          16           1           1          16
 AtmWgt=  15.9949146   1.0078250   1.0078250  15.9949146   1.0078250   1.0078250  15.9949146   1.0078250   1.0078250  15.9949146
 NucSpn=           0           1           1           0           1           1           0           1           1           0
 AtZEff=   0.0000000   0.0000000   0.0000000   0.0000000   0.0000000   0.0000000   0.0000000   0.0000000   0.0000000   0.0000000
 NQMom=    0.0000000   0.0000000   0.0000000   0.0000000   0.0000000   0.0000000   0.0000000   0.0000000   0.0000000   0.0000000
 NMagM=    0.0000000   2.7928460   2.7928460   0.0000000   2.7928460   2.7928460   0.0000000   2.7928460   2.7928460   0.0000000
 AtZNuc=   8.0000000   1.0000000   1.0000000   8.0000000   1.0000000   1.0000000   8.0000000   1.0000000   1.0000000   8.0000000

  Atom       291         292         293         294         295         296         297         298         299         300
 IAtWgt=           1           1          16           1           1          16           1           1          16           1
 AtmWgt=   1.0078250   1.0078250  15.9949146   1.0078250   1.0078250  15.9949146   1.0078250   1.0078250  15.9949146   1.0078250
 NucSpn=           1           1           0           1           1           0           1           1           0           1
 AtZEff=   0.0000000   0.0000000   0.0000000   0.0000000   0.0000000   0.0000000   0.0000000   0.0000000   0.0000000   0.0000000
 NQMom=    0.0000000   0.0000000   0.0000000   0.0000000   0.0000000   0.0000000   0.0000000   0.0000000   0.0000000   0.0000000
 NMagM=    2.7928460   2.7928460   0.0000000   2.7928460   2.7928460   0.0000000   2.7928460   2.7928460   0.0000000   2.7928460
 AtZNuc=   1.0000000   1.0000000   8.0000000   1.0000000   1.0000000   8.0000000   1.0000000   1.0000000   8.0000000   1.0000000

  Atom       301         302         303         304         305         306         307         308         309         310
 IAtWgt=           1          16           1           1          16           1           1          16           1           1
 AtmWgt=   1.0078250  15.9949146   1.0078250   1.0078250  15.9949146   1.0078250   1.0078250  15.9949146   1.0078250   1.0078250
 NucSpn=           1           0           1           1           0           1           1           0           1           1
 AtZEff=   0.0000000   0.0000000   0.0000000   0.0000000   0.0000000   0.0000000   0.0000000   0.0000000   0.0000000   0.0000000
 NQMom=    0.0000000   0.0000000   0.0000000   0.0000000   0.0000000   0.0000000   0.0000000   0.0000000   0.0000000   0.0000000
 NMagM=    2.7928460   0.0000000   2.7928460   2.7928460   0.0000000   2.7928460   2.7928460   0.0000000   2.7928460   2.7928460
 AtZNuc=   1.0000000   8.0000000   1.0000000   1.0000000   8.0000000   1.0000000   1.0000000   8.0000000   1.0000000   1.0000000

  Atom       311         312         313         314         315         316         317         318         319         320
 IAtWgt=          16           1           1          16           1           1          16           1           1          16
 AtmWgt=  15.9949146   1.0078250   1.0078250  15.9949146   1.0078250   1.0078250  15.9949146   1.0078250   1.0078250  15.9949146
 NucSpn=           0           1           1           0           1           1           0           1           1           0
 AtZEff=   0.0000000   0.0000000   0.0000000   0.0000000   0.0000000   0.0000000   0.0000000   0.0000000   0.0000000   0.0000000
 NQMom=    0.0000000   0.0000000   0.0000000   0.0000000   0.0000000   0.0000000   0.0000000   0.0000000   0.0000000   0.0000000
 NMagM=    0.0000000   2.7928460   2.7928460   0.0000000   2.7928460   2.7928460   0.0000000   2.7928460   2.7928460   0.0000000
 AtZNuc=   8.0000000   1.0000000   1.0000000   8.0000000   1.0000000   1.0000000   8.0000000   1.0000000   1.0000000   8.0000000

  Atom       321         322         323         324         325         326         327         328         329         330
 IAtWgt=           1           1          16           1           1          16           1           1          16           1
 AtmWgt=   1.0078250   1.0078250  15.9949146   1.0078250   1.0078250  15.9949146   1.0078250   1.0078250  15.9949146   1.0078250
 NucSpn=           1           1           0           1           1           0           1           1           0           1
 AtZEff=   0.0000000   0.0000000   0.0000000   0.0000000   0.0000000   0.0000000   0.0000000   0.0000000   0.0000000   0.0000000
 NQMom=    0.0000000   0.0000000   0.0000000   0.0000000   0.0000000   0.0000000   0.0000000   0.0000000   0.0000000   0.0000000
 NMagM=    2.7928460   2.7928460   0.0000000   2.7928460   2.7928460   0.0000000   2.7928460   2.7928460   0.0000000   2.7928460
 AtZNuc=   1.0000000   1.0000000   8.0000000   1.0000000   1.0000000   8.0000000   1.0000000   1.0000000   8.0000000   1.0000000

  Atom       331         332         333         334         335         336         337         338         339         340
 IAtWgt=           1          16           1           1          16           1           1          16           1           1
 AtmWgt=   1.0078250  15.9949146   1.0078250   1.0078250  15.9949146   1.0078250   1.0078250  15.9949146   1.0078250   1.0078250
 NucSpn=           1           0           1           1           0           1           1           0           1           1
 AtZEff=   0.0000000   0.0000000   0.0000000   0.0000000   0.0000000   0.0000000   0.0000000   0.0000000   0.0000000   0.0000000
 NQMom=    0.0000000   0.0000000   0.0000000   0.0000000   0.0000000   0.0000000   0.0000000   0.0000000   0.0000000   0.0000000
 NMagM=    2.7928460   0.0000000   2.7928460   2.7928460   0.0000000   2.7928460   2.7928460   0.0000000   2.7928460   2.7928460
 AtZNuc=   1.0000000   8.0000000   1.0000000   1.0000000   8.0000000   1.0000000   1.0000000   8.0000000   1.0000000   1.0000000

  Atom       341         342         343         344         345         346         347         348         349         350
 IAtWgt=          16           1           1          16           1           1          16           1           1          16
 AtmWgt=  15.9949146   1.0078250   1.0078250  15.9949146   1.0078250   1.0078250  15.9949146   1.0078250   1.0078250  15.9949146
 NucSpn=           0           1           1           0           1           1           0           1           1           0
 AtZEff=   0.0000000   0.0000000   0.0000000   0.0000000   0.0000000   0.0000000   0.0000000   0.0000000   0.0000000   0.0000000
 NQMom=    0.0000000   0.0000000   0.0000000   0.0000000   0.0000000   0.0000000   0.0000000   0.0000000   0.0000000   0.0000000
 NMagM=    0.0000000   2.7928460   2.7928460   0.0000000   2.7928460   2.7928460   0.0000000   2.7928460   2.7928460   0.0000000
 AtZNuc=   8.0000000   1.0000000   1.0000000   8.0000000   1.0000000   1.0000000   8.0000000   1.0000000   1.0000000   8.0000000

  Atom       351         352         353         354         355         356         357         358         359         360
 IAtWgt=           1           1          16           1           1          16           1           1          16           1
 AtmWgt=   1.0078250   1.0078250  15.9949146   1.0078250   1.0078250  15.9949146   1.0078250   1.0078250  15.9949146   1.0078250
 NucSpn=           1           1           0           1           1           0           1           1           0           1
 AtZEff=   0.0000000   0.0000000   0.0000000   0.0000000   0.0000000   0.0000000   0.0000000   0.0000000   0.0000000   0.0000000
 NQMom=    0.0000000   0.0000000   0.0000000   0.0000000   0.0000000   0.0000000   0.0000000   0.0000000   0.0000000   0.0000000
 NMagM=    2.7928460   2.7928460   0.0000000   2.7928460   2.7928460   0.0000000   2.7928460   2.7928460   0.0000000   2.7928460
 AtZNuc=   1.0000000   1.0000000   8.0000000   1.0000000   1.0000000   8.0000000   1.0000000   1.0000000   8.0000000   1.0000000

  Atom       361         362         363         364         365         366         367         368         369         370
 IAtWgt=           1          16           1           1          16           1           1          16           1           1
 AtmWgt=   1.0078250  15.9949146   1.0078250   1.0078250  15.9949146   1.0078250   1.0078250  15.9949146   1.0078250   1.0078250
 NucSpn=           1           0           1           1           0           1           1           0           1           1
 AtZEff=   0.0000000   0.0000000   0.0000000   0.0000000   0.0000000   0.0000000   0.0000000   0.0000000   0.0000000   0.0000000
 NQMom=    0.0000000   0.0000000   0.0000000   0.0000000   0.0000000   0.0000000   0.0000000   0.0000000   0.0000000   0.0000000
 NMagM=    2.7928460   0.0000000   2.7928460   2.7928460   0.0000000   2.7928460   2.7928460   0.0000000   2.7928460   2.7928460
 AtZNuc=   1.0000000   8.0000000   1.0000000   1.0000000   8.0000000   1.0000000   1.0000000   8.0000000   1.0000000   1.0000000

  Atom       371         372         373         374         375         376         377         378         379         380
 IAtWgt=          16           1           1          16           1           1          16           1           1          16
 AtmWgt=  15.9949146   1.0078250   1.0078250  15.9949146   1.0078250   1.0078250  15.9949146   1.0078250   1.0078250  15.9949146
 NucSpn=           0           1           1           0           1           1           0           1           1           0
 AtZEff=   0.0000000   0.0000000   0.0000000   0.0000000   0.0000000   0.0000000   0.0000000   0.0000000   0.0000000   0.0000000
 NQMom=    0.0000000   0.0000000   0.0000000   0.0000000   0.0000000   0.0000000   0.0000000   0.0000000   0.0000000   0.0000000
 NMagM=    0.0000000   2.7928460   2.7928460   0.0000000   2.7928460   2.7928460   0.0000000   2.7928460   2.7928460   0.0000000
 AtZNuc=   8.0000000   1.0000000   1.0000000   8.0000000   1.0000000   1.0000000   8.0000000   1.0000000   1.0000000   8.0000000

  Atom       381         382         383         384         385
 IAtWgt=           1           1          16           1           1
 AtmWgt=   1.0078250   1.0078250  15.9949146   1.0078250   1.0078250
 NucSpn=           1           1           0           1           1
 AtZEff=   0.0000000   0.0000000   0.0000000   0.0000000   0.0000000
 NQMom=    0.0000000   0.0000000   0.0000000   0.0000000   0.0000000
 NMagM=    2.7928460   2.7928460   0.0000000   2.7928460   2.7928460
 AtZNuc=   1.0000000   1.0000000   8.0000000   1.0000000   1.0000000
 Leave Link  101 at Wed May  9 03:18:20 2018, MaxMem= 14763950080 cpu:       150.7
 (Enter /cm/shared/gaussian/g09.e01/intel64-sandybridge/g09/l103.exe)

 GradGradGradGradGradGradGradGradGradGradGradGradGradGradGradGradGradGrad
 Berny optimization.
 Initialization pass.
 Trust Radius=3.00D-01 FncErr=1.00D-07 GrdErr=1.00D-07
 Number of steps in this run=      2 maximum allowed number of steps=      2.
 GradGradGradGradGradGradGradGradGradGradGradGradGradGradGradGradGradGrad

 Leave Link  103 at Wed May  9 03:18:21 2018, MaxMem= 14763950080 cpu:         3.7
 (Enter /cm/shared/gaussian/g09.e01/intel64-sandybridge/g09/l202.exe)
 Symmetry turned off by external request.
 Stoichiometry    BrH256O128(1-)
 Framework group  C1[X(BrH256O128)]
 Deg. of freedom  1149
 Full point group                 C1      NOp   1
                          Input orientation:                          
 ---------------------------------------------------------------------
 Center     Atomic      Atomic             Coordinates (Angstroms)
 Number     Number       Type             X           Y           Z
 ---------------------------------------------------------------------
      1         35           0       20.000000   20.000000   20.000000
      2          8           0       22.810000   21.350000   19.160000
      3          1           0       22.140000   20.680000   19.330000
      4          1           0       23.320000   21.000000   18.430000
      5          8           0       17.320000   19.920000   18.380000
      6          1           0       18.060000   20.410000   18.730000
      7          1           0       17.620000   19.020000   18.350000
      8          8           0       19.320000   20.830000   23.020000
      9          1           0       19.710000   20.950000   22.150000
     10          1           0       19.760000   21.470000   23.570000
     11          8           0       20.300000   21.210000   16.690000
     12          1           0       20.450000   20.940000   17.590000
     13          1           0       20.170000   22.160000   16.740000
     14          8           0       18.850000   16.910000   20.700000
     15          1           0       18.780000   17.780000   21.100000
     16          1           0       18.860000   17.080000   19.750000
     17          8           0       23.090000   17.680000   20.440000
     18          1           0       22.460000   17.050000   20.790000
     19          1           0       22.560000   18.400000   20.100000
     20          8           0       19.680000   23.810000   19.240000
     21          1           0       20.350000   23.150000   19.440000
     22          1           0       19.090000   23.790000   20.000000
     23          8           0       18.210000   18.410000   23.400000
     24          1           0       17.310000   18.570000   23.680000
     25          1           0       18.580000   19.280000   23.230000
     26          8           0       17.590000   23.330000   20.860000
     27          1           0       16.840000   22.990000   20.370000
     28          1           0       17.720000   22.700000   21.570000
     29          8           0       22.020000   22.380000   22.910000
     30          1           0       22.550000   22.700000   23.630000
     31          1           0       22.230000   21.440000   22.860000
     32          8           0       21.030000   16.140000   22.020000
     33          1           0       21.070000   15.190000   22.130000
     34          1           0       20.320000   16.270000   21.390000
     35          8           0       18.000000   17.210000   17.680000
     36          1           0       17.420000   16.440000   17.710000
     37          1           0       18.880000   16.840000   17.710000
     38          8           0       16.510000   21.470000   22.870000
     39          1           0       17.200000   20.800000   22.860000
     40          1           0       16.970000   22.280000   23.090000
     41          8           0       19.020000   18.500000   15.640000
     42          1           0       19.380000   19.370000   15.790000
     43          1           0       18.920000   18.120000   16.510000
     44          8           0       20.480000   16.210000   17.810000
     45          1           0       21.330000   16.580000   18.040000
     46          1           0       20.660000   15.630000   17.070000
     47          8           0       23.470000   19.590000   22.840000
     48          1           0       24.230000   19.390000   23.380000
     49          1           0       23.540000   19.000000   22.090000
     50          8           0       17.880000   23.230000   16.880000
     51          1           0       17.420000   24.070000   16.930000
     52          1           0       18.440000   23.210000   17.660000
     53          8           0       20.850000   17.790000   24.140000
     54          1           0       21.050000   17.190000   23.410000
     55          1           0       19.980000   18.120000   23.940000
     56          8           0       15.860000   17.250000   20.950000
     57          1           0       16.810000   17.200000   21.100000
     58          1           0       15.470000   16.900000   21.750000
     59          8           0       24.670000   21.720000   21.600000
     60          1           0       23.770000   21.900000   21.310000
     61          1           0       24.580000   21.080000   22.300000
     62          8           0       22.940000   20.330000   16.000000
     63          1           0       23.260000   20.570000   15.130000
     64          1           0       22.050000   20.680000   16.030000
     65          8           0       14.920000   20.300000   20.240000
     66          1           0       15.500000   19.540000   20.260000
     67          1           0       15.480000   21.030000   19.960000
     68          8           0       22.380000   23.950000   17.200000
     69          1           0       22.560000   23.150000   17.700000
     70          1           0       23.070000   23.990000   16.550000
     71          8           0       20.800000   24.960000   21.710000
     72          1           0       21.260000   24.140000   21.900000
     73          1           0       21.270000   25.330000   20.960000
     74          8           0       15.770000   22.690000   19.080000
     75          1           0       16.310000   22.580000   18.300000
     76          1           0       15.060000   23.270000   18.790000
     77          8           0       15.870000   19.940000   15.620000
     78          1           0       15.950000   18.990000   15.570000
     79          1           0       16.400000   20.200000   16.370000
     80          8           0       14.850000   18.270000   18.180000
     81          1           0       15.230000   17.920000   18.980000
     82          1           0       15.340000   19.070000   18.000000
     83          8           0       24.480000   18.530000   17.490000
     84          1           0       24.080000   19.170000   16.900000
     85          1           0       25.300000   18.280000   17.050000
     86          8           0       23.500000   15.750000   17.680000
     87          1           0       23.840000   16.590000   17.980000
     88          1           0       23.880000   15.630000   16.810000
     89          8           0       22.270000   25.710000   19.580000
     90          1           0       21.810000   25.120000   18.990000
     91          1           0       23.190000   25.650000   19.320000
     92          8           0       26.340000   20.030000   20.210000
     93          1           0       25.490000   20.390000   20.470000
     94          1           0       26.120000   19.220000   19.750000
     95          8           0       17.500000   21.880000   14.420000
     96          1           0       16.640000   21.500000   14.580000
     97          1           0       17.840000   22.070000   15.290000
     98          8           0       22.470000   20.460000   25.620000
     99          1           0       22.540000   19.710000   25.030000
    100          1           0       21.540000   20.520000   25.820000
    101          8           0       17.960000   25.790000   21.830000
    102          1           0       18.920000   25.790000   21.740000
    103          1           0       17.670000   25.010000   21.370000
    104          8           0       21.170000   21.840000   13.750000
    105          1           0       20.920000   21.370000   14.550000
    106          1           0       20.340000   22.170000   13.400000
    107          8           0       25.450000   16.240000   20.700000
    108          1           0       24.670000   16.750000   20.480000
    109          1           0       26.030000   16.350000   19.940000
    110          8           0       17.760000   23.620000   23.990000
    111          1           0       18.370000   24.240000   23.580000
    112          1           0       17.330000   24.130000   24.680000
    113          8           0       19.490000   26.390000   18.170000
    114          1           0       19.360000   25.460000   18.010000
    115          1           0       19.490000   26.470000   19.120000
    116          8           0       14.310000   22.610000   21.780000
    117          1           0       14.190000   22.050000   21.010000
    118          1           0       15.070000   22.230000   22.240000
    119          8           0       18.780000   13.640000   18.740000
    120          1           0       19.430000   14.320000   18.570000
    121          1           0       19.030000   12.910000   18.190000
    122          8           0       13.780000   19.570000   22.730000
    123          1           0       13.780000   19.640000   21.780000
    124          1           0       14.690000   19.690000   22.980000
    125          8           0       23.310000   17.740000   25.310000
    126          1           0       22.370000   17.730000   25.150000
    127          1           0       23.660000   17.040000   24.770000
    128          8           0       17.560000   17.350000   13.830000
    129          1           0       18.000000   17.660000   14.620000
    130          1           0       17.570000   18.100000   13.240000
    131          8           0       19.680000   21.230000   26.240000
    132          1           0       18.760000   21.260000   25.980000
    133          1           0       19.780000   21.960000   26.850000
    134          8           0       15.800000   18.920000   24.530000
    135          1           0       15.860000   19.700000   25.090000
    136          1           0       15.300000   18.290000   25.040000
    137          8           0       16.580000   21.290000   25.950000
    138          1           0       16.920000   21.780000   25.210000
    139          1           0       15.730000   21.690000   26.130000
    140          8           0       26.160000   23.040000   19.790000
    141          1           0       26.970000   23.440000   20.130000
    142          1           0       25.680000   22.770000   20.580000
    143          8           0       20.390000   17.030000   26.600000
    144          1           0       20.750000   17.180000   25.720000
    145          1           0       21.130000   17.150000   27.190000
    146          8           0       16.260000   15.020000   18.130000
    147          1           0       16.770000   14.220000   18.280000
    148          1           0       15.640000   14.790000   17.430000
    149          8           0       20.150000   16.160000   13.670000
    150          1           0       19.360000   15.650000   13.830000
    151          1           0       19.980000   16.990000   14.110000
    152          8           0       22.510000   13.030000   18.500000
    153          1           0       22.310000   13.960000   18.380000
    154          1           0       23.180000   13.020000   19.180000
    155          8           0       21.190000   25.470000   15.060000
    156          1           0       20.570000   24.790000   14.790000
    157          1           0       21.580000   25.120000   15.860000
    158          8           0       21.460000   14.930000   15.670000
    159          1           0       21.220000   15.290000   14.820000
    160          1           0       22.020000   14.180000   15.460000
    161          8           0       17.660000   19.020000   26.980000
    162          1           0       18.280000   18.530000   26.440000
    163          1           0       17.510000   19.830000   26.500000
    164          8           0       19.310000   24.100000   13.750000
    165          1           0       18.630000   23.820000   14.360000
    166          1           0       18.880000   24.100000   12.900000
    167          8           0       23.580000   23.760000   24.670000
    168          1           0       24.370000   23.230000   24.740000
    169          1           0       23.330000   23.940000   25.570000
    170          8           0       20.330000   24.560000   25.280000
    171          1           0       20.280000   25.510000   25.250000
    172          1           0       20.710000   24.360000   26.140000
    173          8           0       26.040000   19.900000   23.580000
    174          1           0       26.410000   20.780000   23.530000
    175          1           0       26.550000   19.470000   24.260000
    176          8           0       15.430000   16.070000   23.630000
    177          1           0       15.330000   15.120000   23.550000
    178          1           0       16.010000   16.190000   24.380000
    179          8           0       24.690000   25.320000   22.360000
    180          1           0       25.160000   24.480000   22.280000
    181          1           0       23.920000   25.110000   22.890000
    182          8           0       15.280000   25.620000   18.280000
    183          1           0       16.140000   25.570000   17.850000
    184          1           0       14.660000   25.660000   17.560000
    185          8           0       22.070000   27.290000   22.670000
    186          1           0       22.930000   27.230000   22.260000
    187          1           0       21.580000   26.560000   22.300000
    188          8           0       13.020000   20.420000   17.070000
    189          1           0       13.380000   19.860000   16.380000
    190          1           0       13.530000   21.230000   17.020000
    191          8           0       21.990000   13.320000   21.920000
    192          1           0       22.340000   12.640000   22.500000
    193          1           0       21.220000   12.910000   21.510000
    194          8           0       15.680000   13.640000   22.010000
    195          1           0       16.580000   13.950000   22.020000
    196          1           0       15.740000   12.750000   21.660000
    197          8           0       17.160000   25.780000   16.630000
    198          1           0       16.790000   26.110000   15.810000
    199          1           0       17.930000   26.330000   16.780000
    200          8           0       13.610000   15.130000   19.570000
    201          1           0       13.390000   15.680000   20.320000
    202          1           0       14.570000   15.190000   19.510000
    203          8           0       26.690000   22.920000   16.980000
    204          1           0       27.130000   23.770000   17.020000
    205          1           0       26.460000   22.720000   17.890000
    206          8           0       19.520000   12.190000   20.990000
    207          1           0       19.120000   12.740000   20.320000
[...]
   Z336      51.26827   0.01526   0.00000   0.01399   0.01350  51.28177
   X337      26.09712  -0.01576   0.00000  -0.01126  -0.01061  26.08651
   Y337      43.35032  -0.00006   0.00000  -0.00710  -0.00625  43.34407
   Z337      48.47148  -0.02610   0.00000  -0.02762  -0.02813  48.44335
   X338      40.59132  -0.02242   0.00000  -0.01946  -0.01880  40.57252
   Y338      51.89188   0.00363   0.00000   0.00105   0.00187  51.89375
   Z338      48.16912   0.01045   0.00000   0.00614   0.00491  48.17403
   X339      40.76139   0.00697   0.00000   0.00751   0.00814  40.76953
   Y339      51.83519   0.00098   0.00000   0.00237   0.00310  51.83829
   Z339      46.37388  -0.01582   0.00000  -0.00956  -0.01078  46.36310
   X340      42.27317   0.00879   0.00000  -0.00183  -0.00116  42.27202
   Y340      51.60842  -0.00757   0.00000  -0.01111  -0.01026  51.59816
   Z340      48.79273   0.00398   0.00000   0.00456   0.00332  48.79605
   X341      53.08241   0.01543   0.00000   0.01194   0.01251  53.09492
   Y341      41.49839  -0.01105   0.00000  -0.00563  -0.00501  41.49338
   Z341      44.42746  -0.01285   0.00000  -0.00420  -0.00514  44.42232
   X342      51.91078  -0.01664   0.00000  -0.01243  -0.01183  51.89895
   Y342      42.19758   0.00862   0.00000   0.00391   0.00459  42.20217
   Z342      45.59909   0.01351   0.00000   0.00687   0.00591  45.60501
   X343      54.21624   0.00562   0.00000   0.00671   0.00728  54.22352
   Y343      42.85899   0.00557   0.00000   0.00544   0.00604  42.86503
   Z343      44.06841  -0.00325   0.00000  -0.00443  -0.00546  44.06295
   X344      31.36945   0.00248   0.00000  -0.00223  -0.00155  31.36791
   Y344      47.52661   0.00231   0.00000  -0.00376  -0.00284  47.52378
   Z344      49.86987  -0.01228   0.00000  -0.00957  -0.01039  49.85948
   X345      31.86078   0.00338   0.00000   0.00369   0.00441  31.86520
   Y345      47.90456  -0.00038   0.00000  -0.00261  -0.00160  47.90296
   Z345      51.57063   0.00384   0.00000  -0.00165  -0.00250  51.56812
   X346      30.10334  -0.00981   0.00000  -0.01050  -0.00981  30.09352
   Y346      46.24160  -0.00900   0.00000  -0.00905  -0.00812  46.23348
   Z346      50.03995   0.00304   0.00000   0.00396   0.00323  50.04317
   X347      54.76426  -0.00333   0.00000  -0.00046  -0.00005  54.76422
   Y347      34.24184  -0.02648   0.00000  -0.01874  -0.01851  34.22332
   Z347      36.58510  -0.01200   0.00000  -0.00828  -0.00889  36.57621
   X348      54.17845  -0.00077   0.00000   0.00007   0.00046  54.17890
   Y348      35.22450   0.01038   0.00000   0.01099   0.01115  35.23564
   Z348      35.18670  -0.00135   0.00000   0.00225   0.00160  35.18831
   X349      55.33118  -0.00111   0.00000  -0.01004  -0.00961  55.32158
   Y349      35.45126   0.01745   0.00000   0.00948   0.00977  35.46103
   Z349      37.79452   0.01389   0.00000   0.00886   0.00818  37.80270
   X350      34.18515   0.00240   0.00000  -0.00057   0.00016  34.18530
   Y350      29.25296   0.00514   0.00000  -0.00233  -0.00126  29.25170
   Z350      52.83674   0.01111   0.00000   0.01020   0.01024  52.84699
   X351      35.90480  -0.00363   0.00000  -0.00665  -0.00593  35.89886
   Y351      29.61201   0.00430   0.00000   0.00756   0.00860  29.62061
   Z351      52.34541  -0.00196   0.00000  -0.00302  -0.00303  52.34239
   X352      33.63713  -0.00337   0.00000  -0.00308  -0.00238  33.63475
   Y352      28.00574  -0.00778   0.00000  -0.00539  -0.00439  28.00136
   Z352      51.64622  -0.00815   0.00000  -0.00558  -0.00546  51.64075
   X353      41.38500  -0.00480   0.00000   0.00138   0.00187  41.38687
   Y353      55.91700   0.00135   0.00000  -0.00017   0.00021  55.91720
   Z353      39.24961  -0.01708   0.00000  -0.01506  -0.01650  39.23311
   X354      42.67002   0.00329   0.00000  -0.00348  -0.00297  42.66705
   Y354      56.10597  -0.00296   0.00000  -0.00434  -0.00390  56.10207
   Z354      40.49683   0.01103   0.00000   0.01000   0.00852  40.50535
   X355      40.62911   0.00260   0.00000   0.00265   0.00315  40.63226
   Y355      54.29183   0.00204   0.00000   0.00411   0.00450  54.29633
   Z355      39.58976   0.00654   0.00000   0.01019   0.00884  39.59860
   X356      37.47327   0.00774   0.00000   0.01510   0.01586  37.48913
   Y356      43.97393   0.00403   0.00000   0.00372   0.00481  43.97874
   Z356      53.46035  -0.01226   0.00000  -0.00601  -0.00677  53.45358
   X357      36.83076  -0.00646   0.00000  -0.00775  -0.00697  36.82379
   Y357      44.99438   0.00405   0.00000  -0.00025   0.00092  44.99529
   Z357      54.80206   0.00588   0.00000   0.00203   0.00123  54.80329
   X358      38.49372   0.00793   0.00000   0.00687   0.00764  38.50136
   Y358      42.72671  -0.01196   0.00000  -0.01373  -0.01259  42.71412
   Z358      54.29183   0.00549   0.00000   0.00464   0.00392  54.29575
   X359      36.13156   0.00569   0.00000   0.00412   0.00434  36.13591
   Y359      22.20428  -0.00084   0.00000  -0.00051  -0.00071  22.20357
   Z359      27.74118  -0.01595   0.00000  -0.01131  -0.01095  27.73023
   X360      35.64023  -0.00245   0.00000  -0.00064  -0.00039  35.63984
   Y360      20.86258  -0.00413   0.00000   0.00079   0.00065  20.86322
   Z360      28.83722   0.01038   0.00000   0.00882   0.00926  28.84648
   X361      35.96149  -0.00237   0.00000  -0.00256  -0.00231  35.95918
   Y361      23.69717   0.00743   0.00000   0.00466   0.00451  23.70167
   Z361      28.74273   0.00556   0.00000   0.00136   0.00164  28.74438
   X362      26.17271   0.01356   0.00000   0.01021   0.01087  26.18357
   Y362      33.05131   0.00168   0.00000  -0.00363  -0.00274  33.04857
   Z362      49.15178  -0.00466   0.00000  -0.00392  -0.00392  49.14786
   X363      25.07667  -0.00573   0.00000  -0.00496  -0.00432  25.07234
   Y363      32.46549  -0.00295   0.00000  -0.00292  -0.00210  32.46340
   Z363      47.82897  -0.00415   0.00000  -0.00260  -0.00254  47.82643
   X364      25.22784  -0.00556   0.00000  -0.00310  -0.00242  25.22543
   Y364      32.78675   0.00112   0.00000   0.00364   0.00461  32.79135
   Z364      50.66356   0.00691   0.00000   0.00301   0.00305  50.66661
   X365      30.76474  -0.01320   0.00000  -0.01706  -0.01628  30.74846
   Y365      36.69848   0.01499   0.00000   0.01624   0.01743  36.71591
   Z365      55.10441   0.02303   0.00000   0.01644   0.01618  55.12059
   X366      31.69071   0.01092   0.00000   0.00899   0.00974  31.70044
   Y366      36.58510  -0.01034   0.00000  -0.01500  -0.01389  36.57121
   Z366      53.55484  -0.00848   0.00000   0.00652   0.00625  53.56108
   X367      29.47973  -0.00061   0.00000   0.00068   0.00145  29.48118
   Y367      35.43236  -0.00565   0.00000  -0.00652  -0.00534  35.42703
   Z367      54.97213  -0.00446   0.00000  -0.00426  -0.00444  54.96770
   X368      42.40545  -0.00674   0.00000  -0.00139  -0.00062  42.40483
   Y368      41.04485   0.01611   0.00000   0.01209   0.01324  41.05809
   Z368      54.57529   0.00205   0.00000   0.00390   0.00319  54.57848
   X369      42.23538  -0.00264   0.00000  -0.00553  -0.00473  42.23065
   Y369      40.23227  -0.00531   0.00000  -0.00588  -0.00466  40.22761
   Z369      56.18156   0.00468   0.00000   0.00264   0.00198  56.18353
   X370      43.63378   0.00851   0.00000   0.00312   0.00388  43.63765
   Y370      40.04330  -0.00995   0.00000  -0.00814  -0.00704  40.03625
   Z370      53.68712  -0.00554   0.00000  -0.00236  -0.00305  53.68407
   X371      42.93458   0.01246   0.00000   0.01475   0.01500  42.94958
   Y371      52.55328   0.01328   0.00000   0.00747   0.00724  52.56053
   Z371      27.38213  -0.01556   0.00000  -0.01010  -0.01141  27.37073
   X372      42.31097  -0.00987   0.00000  -0.01095  -0.01070  42.30027
   Y372      50.89032  -0.01061   0.00000  -0.00129  -0.00150  50.88883
   Z372      27.68449   0.00516   0.00000   0.00362   0.00241  27.68690
   X373      43.08576  -0.00620   0.00000  -0.01091  -0.01062  43.07513
   Y373      53.29028  -0.00066   0.00000  -0.00199  -0.00213  53.28815
   Z373      29.02619   0.00794   0.00000   0.00592   0.00458  29.03077
   X374      49.34075   0.00801   0.00000   0.00886   0.00922  49.34997
   Y374      25.00108   0.00798   0.00000   0.01014   0.01026  25.01134
   Z374      34.37412  -0.01028   0.00000  -0.00377  -0.00381  34.37031
   X375      48.75493  -0.00841   0.00000  -0.01020  -0.00981  48.74513
   Y375      24.58534   0.00029   0.00000   0.00407   0.00428  24.58961
   Z375      36.03708   0.01107   0.00000   0.00526   0.00526  36.04233
   X376      50.70135   0.00028   0.00000   0.00011   0.00046  50.70182
   Y376      23.82945  -0.00086   0.00000  -0.00140  -0.00130  23.82815
   Z376      34.07176   0.00003   0.00000   0.00002   0.00001  34.07177
   X377      26.49396  -0.00738   0.00000  -0.00667  -0.00603  26.48793
   Y377      27.53331  -0.01121   0.00000  -0.01132  -0.01045  27.52286
   Z377      48.73604  -0.00781   0.00000  -0.00604  -0.00576  48.73028
   X378      27.85456   0.00314   0.00000  -0.00270  -0.00205  27.85251
   Y378      28.72384   0.00573   0.00000   0.00179   0.00266  28.72649
   Z378      48.64155   0.00363   0.00000   0.00442   0.00462  48.64617
   X379      25.88925   0.00164   0.00000   0.00285   0.00353  25.89278
   Y379      27.66559   0.00251   0.00000   0.00160   0.00255  27.66814
   Z379      50.43679   0.00550   0.00000   0.00314   0.00342  50.44021
   X380      35.52685  -0.00308   0.00000  -0.00168  -0.00158  35.52527
   Y380      32.37101   0.01022   0.00000   0.00807   0.00750  32.37851
   Z380      20.27676  -0.00733   0.00000  -0.00256  -0.00271  20.27406
   X381      35.50795   0.00279   0.00000   0.00406   0.00418  35.51214
   Y381      31.44504  -0.00562   0.00000  -0.00151  -0.00201  31.44304
   Z381      21.82634   0.01108   0.00000   0.00818   0.00809  21.83443
   X382      36.73628   0.00392   0.00000   0.00391   0.00398  36.74025
   Y382      31.50173  -0.00206   0.00000  -0.00029  -0.00092  31.50081
   Z382      19.23741   0.00111   0.00000   0.00341   0.00329  19.24070
   X383      45.08887   0.01086   0.00000   0.01860   0.01929  45.10816
   Y383      49.83208   0.01827   0.00000   0.01371   0.01461  49.84669
   Z383      49.77539  -0.00108   0.00000   0.00364   0.00243  49.77782
   X384      44.84320  -0.00634   0.00000  -0.01009  -0.00939  44.83381
   Y384      48.33919  -0.00924   0.00000  -0.00302  -0.00207  48.33713
   Z384      50.77694   0.00454   0.00000   0.00106  -0.00007  50.77688
   X385      45.76917   0.00007   0.00000  -0.00227  -0.00162  45.76755
   Y385      49.22737  -0.00466   0.00000  -0.00557  -0.00475  49.22262
   Z385      48.20691  -0.00528   0.00000  -0.00443  -0.00562  48.20129
         Item               Value     Threshold  Converged?
 Maximum Force            0.039807     0.000450     NO 
 RMS     Force            0.010437     0.000300     NO 
 Maximum Displacement     0.032618     0.001800     NO 
 RMS     Displacement     0.008837     0.001200     NO 
 Predicted change in Energy=-7.313717D-02
 GradGradGradGradGradGradGradGradGradGradGradGradGradGradGradGradGradGrad

 Leave Link  103 at Wed May  9 05:57:23 2018, MaxMem= 14763950080 cpu:      2942.6
 (Enter /cm/shared/gaussian/g09.e01/intel64-sandybridge/g09/l9999.exe)
 1\1\GINC-POPLE01\Force\RPBE1PBE\CC-pVDZ\Br1H256O128(1-)\M.PELUSO\09-Ma
 y-2018\0\\#p PBE1PBE/cc-pvDZ force Counterpoise=2 noSymm\\forces on ch
 loride comput - NWATER: 128\\-1,1\Br,20.,20.,20.\O,22.81,21.35,19.16\H
 ,22.14,20.68,19.33\H,23.32,21.,18.43\O,17.32,19.92,18.38\H,18.06,20.41
 ,18.73\H,17.62,19.02,18.35\O,19.32,20.83,23.02\H,19.71,20.95,22.15\H,1
 9.76,21.47,23.57\O,20.3,21.21,16.69\H,20.45,20.94,17.59\H,20.17,22.16,
 16.74\O,18.85,16.91,20.7\H,18.78,17.78,21.1\H,18.86,17.08,19.75\O,23.0
 9,17.68,20.44\H,22.46,17.05,20.79\H,22.56,18.4,20.1\O,19.68,23.81,19.2
 4\H,20.35,23.15,19.44\H,19.09,23.79,20.\O,18.21,18.41,23.4\H,17.31,18.
 57,23.68\H,18.58,19.28,23.23\O,17.59,23.33,20.86\H,16.84,22.99,20.37\H
 ,17.72,22.7,21.57\O,22.02,22.38,22.91\H,22.55,22.7,23.63\H,22.23,21.44
 ,22.86\O,21.03,16.14,22.02\H,21.07,15.19,22.13\H,20.32,16.27,21.39\O,1
 8.,17.21,17.68\H,17.42,16.44,17.71\H,18.88,16.84,17.71\O,16.51,21.47,2
 2.87\H,17.2,20.8,22.86\H,16.97,22.28,23.09\O,19.02,18.5,15.64\H,19.38,
 19.37,15.79\H,18.92,18.12,16.51\O,20.48,16.21,17.81\H,21.33,16.58,18.0
 4\H,20.66,15.63,17.07\O,23.47,19.59,22.84\H,24.23,19.39,23.38\H,23.54,
 19.,22.09\O,17.88,23.23,16.88\H,17.42,24.07,16.93\H,18.44,23.21,17.66\
 O,20.85,17.79,24.14\H,21.05,17.19,23.41\H,19.98,18.12,23.94\O,15.86,17
 .25,20.95\H,16.81,17.2,21.1\H,15.47,16.9,21.75\O,24.67,21.72,21.6\H,23
 .77,21.9,21.31\H,24.58,21.08,22.3\O,22.94,20.33,16.\H,23.26,20.57,15.1
 3\H,22.05,20.68,16.03\O,14.92,20.3,20.24\H,15.5,19.54,20.26\H,15.48,21
 .03,19.96\O,22.38,23.95,17.2\H,22.56,23.15,17.7\H,23.07,23.99,16.55\O,
 20.8,24.96,21.71\H,21.26,24.14,21.9\H,21.27,25.33,20.96\O,15.77,22.69,
 19.08\H,16.31,22.58,18.3\H,15.06,23.27,18.79\O,15.87,19.94,15.62\H,15.
 95,18.99,15.57\H,16.4,20.2,16.37\O,14.85,18.27,18.18\H,15.23,17.92,18.
 98\H,15.34,19.07,18.\O,24.48,18.53,17.49\H,24.08,19.17,16.9\H,25.3,18.
 28,17.05\O,23.5,15.75,17.68\H,23.84,16.59,17.98\H,23.88,15.63,16.81\O,
 22.27,25.71,19.58\H,21.81,25.12,18.99\H,23.19,25.65,19.32\O,26.34,20.0
 3,20.21\H,25.49,20.39,20.47\H,26.12,19.22,19.75\O,17.5,21.88,14.42\H,1
 6.64,21.5,14.58\H,17.84,22.07,15.29\O,22.47,20.46,25.62\H,22.54,19.71,
 25.03\H,21.54,20.52,25.82\O,17.96,25.79,21.83\H,18.92,25.79,21.74\H,17
 .67,25.01,21.37\O,21.17,21.84,13.75\H,20.92,21.37,14.55\H,20.34,22.17,
 13.4\O,25.45,16.24,20.7\H,24.67,16.75,20.48\H,26.03,16.35,19.94\O,17.7
 6,23.62,23.99\H,18.37,24.24,23.58\H,17.33,24.13,24.68\O,19.49,26.39,18
 .17\H,19.36,25.46,18.01\H,19.49,26.47,19.12\O,14.31,22.61,21.78\H,14.1
 9,22.05,21.01\H,15.07,22.23,22.24\O,18.78,13.64,18.74\H,19.43,14.32,18
 .57\H,19.03,12.91,18.19\O,13.78,19.57,22.73\H,13.78,19.64,21.78\H,14.6
 9,19.69,22.98\O,23.31,17.74,25.31\H,22.37,17.73,25.15\H,23.66,17.04,24
 .77\O,17.56,17.35,13.83\H,18.,17.66,14.62\H,17.57,18.1,13.24\O,19.68,2
 1.23,26.24\H,18.76,21.26,25.98\H,19.78,21.96,26.85\O,15.8,18.92,24.53\
 H,15.86,19.7,25.09\H,15.3,18.29,25.04\O,16.58,21.29,25.95\H,16.92,21.7
 8,25.21\H,15.73,21.69,26.13\O,26.16,23.04,19.79\H,26.97,23.44,20.13\H,
 25.68,22.77,20.58\O,20.39,17.03,26.6\H,20.75,17.18,25.72\H,21.13,17.15
 ,27.19\O,16.26,15.02,18.13\H,16.77,14.22,18.28\H,15.64,14.79,17.43\O,2
 0.15,16.16,13.67\H,19.36,15.65,13.83\H,19.98,16.99,14.11\O,22.51,13.03
 ,18.5\H,22.31,13.96,18.38\H,23.18,13.02,19.18\O,21.19,25.47,15.06\H,20
 .57,24.79,14.79\H,21.58,25.12,15.86\O,21.46,14.93,15.67\H,21.22,15.29,
 14.82\H,22.02,14.18,15.46\O,17.66,19.02,26.98\H,18.28,18.53,26.44\H,17
 .51,19.83,26.5\O,19.31,24.1,13.75\H,18.63,23.82,14.36\H,18.88,24.1,12.
 9\O,23.58,23.76,24.67\H,24.37,23.23,24.74\H,23.33,23.94,25.57\O,20.33,
 24.56,25.28\H,20.28,25.51,25.25\H,20.71,24.36,26.14\O,26.04,19.9,23.58
 \H,26.41,20.78,23.53\H,26.55,19.47,24.26\O,15.43,16.07,23.63\H,15.33,1
 5.12,23.55\H,16.01,16.19,24.38\O,24.69,25.32,22.36\H,25.16,24.48,22.28
 \H,23.92,25.11,22.89\O,15.28,25.62,18.28\H,16.14,25.57,17.85\H,14.66,2
 5.66,17.56\O,22.07,27.29,22.67\H,22.93,27.23,22.26\H,21.58,26.56,22.3\
 O,13.02,20.42,17.07\H,13.38,19.86,16.38\H,13.53,21.23,17.02\O,21.99,13
 .32,21.92\H,22.34,12.64,22.5\H,21.22,12.91,21.51\O,15.68,13.64,22.01\H
 ,16.58,13.95,22.02\H,15.74,12.75,21.66\O,17.16,25.78,16.63\H,16.79,26.
 11,15.81\H,17.93,26.33,16.78\O,13.61,15.13,19.57\H,13.39,15.68,20.32\H
 ,14.57,15.19,19.51\O,26.69,22.92,16.98\H,27.13,23.77,17.02\H,26.46,22.
 72,17.89\O,19.52,12.19,20.99\H,19.12,12.74,20.32\H,19.37,11.29,20.69\O
 ,18.54,20.19,12.31\H,18.78,20.74,11.56\H,18.17,20.81,12.95\O,24.46,13.
 69,20.62\H,23.75,13.73,21.26\H,24.87,14.56,20.66\O,13.17,16.98,16.52\H
 ,13.65,16.16,16.51\H,13.69,17.56,17.08\O,12.11,20.02,19.68\H,12.11,20.
 43,18.81\H,12.67,19.25,19.58\O,17.57,14.81,14.62\H,17.18,15.33,13.91\H
 ,17.05,15.02,15.39\O,23.75,19.91,13.52\H,23.77,20.77,13.1\H,23.12,19.4
 1,13.01\O,14.01,23.08,16.71\H,13.5,23.85,16.96\H,13.98,23.08,15.75\O,2
 4.64,15.74,24.28\H,24.84,14.95,24.79\H,25.06,15.6,23.43\O,20.35,19.53,
 28.48\H,21.2,19.11,28.38\H,20.08,19.76,27.59\O,21.19,19.16,12.12\H,20.
 48,18.55,11.95\H,20.75,19.96,12.43\O,24.52,20.89,27.22\H,23.84,20.92,2
 6.55\H,25.09,20.17,26.96\O,18.05,27.67,23.59\H,18.25,26.84,23.17\H,18.
 88,27.95,23.97\O,25.82,18.51,26.19\H,25.04,18.32,25.67\H,26.22,17.66,2
 6.34\O,24.71,26.58,19.62\H,24.81,27.53,19.68\H,24.56,26.29,20.53\O,24.
 43,24.14,15.05\H,25.27,24.04,15.49\H,24.53,23.65,14.23\O,25.16,16.54,1
 4.47\H,25.81,16.96,15.03\H,24.62,17.26,14.15\O,26.81,16.31,18.2\H,26.6
 5,15.38,18.04\H,27.73,16.35,18.46\O,19.71,14.07,25.88\H,20.1,14.91,26.
 14\H,20.46,13.53,25.64\O,25.98,22.49,25.08\H,25.76,21.58,25.31\H,26.37
 ,22.85,25.88\O,28.8,20.5,21.11\H,27.96,20.69,20.68\H,28.72,20.87,21.99
 \O,14.15,25.78,22.9\H,14.02,25.64,23.84\H,15.1,25.77,22.79\O,21.21,28.
 15,17.13\H,20.39,27.69,17.31\H,21.82,27.81,17.78\O,22.53,23.96,12.33\H
 ,22.09,23.24,12.79\H,22.48,24.7,12.94\O,12.59,22.47,24.01\H,12.74,22.4
 2,23.07\H,12.74,21.58,24.33\O,22.36,16.26,12.08\H,22.03,15.53,11.56\H,
 21.77,16.31,12.83\O,13.5,18.81,13.97\H,14.29,19.34,14.06\H,13.53,18.21
 ,14.71\O,22.63,17.8,27.94\H,23.29,17.74,27.25\H,23.12,17.99,28.73\O,23
 .28,14.81,26.7\H,23.06,14.8,25.77\H,23.2,13.89,26.98\O,27.08,17.91,16.
 07\H,27.64,18.6,16.42\H,27.3,17.14,16.59\O,16.24,11.89,18.77\H,16.63,1
 2.27,19.56\H,16.15,10.96,18.96\O,19.89,11.36,17.76\H,20.71,11.82,17.89
 \H,20.13,10.44,17.74\O,11.67,18.97,24.39\H,11.02,19.19,23.72\H,12.47,1
 8.77,23.9\O,17.69,28.39,19.59\H,17.77,28.46,18.64\H,16.84,27.98,19.73\
 O,11.22,21.96,21.48\H,10.51,21.41,21.8\H,11.57,21.51,20.72\O,29.13,22.
 46,18.93\H,28.27,22.23,19.29\H,29.46,23.14,19.52\O,13.1,26.26,20.21\H,
 13.62,26.24,19.4\H,13.44,25.52,20.72\O,15.17,24.07,13.76\H,16.01,23.89
 ,13.33\H,14.52,23.62,13.22\O,17.05,13.66,25.82\H,16.75,12.75,25.81\H,1
 7.96,13.62,25.54\O,14.57,14.47,16.01\H,15.07,13.72,15.69\H,14.1,14.79,
 15.25\O,22.86,24.06,27.35\H,22.15,24.11,27.99\H,23.26,23.2,27.49\O,22.
 05,13.1,25.09\H,22.28,12.67,24.26\H,22.44,12.55,25.77\O,25.75,26.82,16
 .69\H,25.06,26.68,17.34\H,26.57,26.72,17.18\O,14.47,22.7,26.3\H,14.01,
 22.72,27.13\H,13.81,22.94,25.65\O,21.48,27.46,25.49\H,21.57,27.43,24.5
 4\H,22.37,27.31,25.82\O,28.09,21.96,23.51\H,27.47,22.33,24.13\H,28.69,
 22.68,23.32\O,16.6,25.15,26.39\H,16.86,25.35,27.29\H,15.93,24.47,26.48
 \O,28.98,18.12,19.36\H,28.67,18.64,18.62\H,29.28,18.76,20.\O,18.09,15.
 48,27.96\H,19.,15.67,27.7\H,17.8,14.82,27.33\O,21.9,29.59,20.77\H,22.5
 8,29.69,21.43\H,21.5,28.73,20.95\O,19.83,23.27,28.29\H,19.49,23.81,29.
 \H,20.37,22.61,28.73\O,19.12,11.75,14.68\H,18.86,11.04,15.26\H,19.03,1
 2.54,15.21\O,13.85,17.49,26.01\H,13.27,17.18,25.31\H,13.35,17.35,26.81
 \O,16.28,19.42,29.16\H,16.77,19.36,28.34\H,15.6,18.75,29.09\O,22.44,21
 .72,28.88\H,22.35,21.29,29.73\H,23.09,21.19,28.41\O,22.72,27.81,14.49\
 H,22.39,26.93,14.65\H,22.8,28.2,15.36\O,26.11,13.23,18.19\H,25.8,13.01
 ,19.07\H,26.83,12.61,18.03\O,14.02,14.57,25.79\H,14.74,15.2,25.74\H,13
 .7,14.64,26.69\O,18.8,17.13,10.73\H,18.79,16.64,11.55\H,19.44,16.67,10
 .18\O,23.86,26.37,26.34\H,23.73,25.58,26.87\H,24.22,26.05,25.51\\Versi
 on=ES64L-G09RevE.01\HF=-9773.3910837\RMSD=1.952e-09\RMSF=1.044e-02\Dip
 ole=10.3903459,-13.8272664,3.5837539\Quadrupole=782.5749731,-1001.9007
 393,219.3257662,-1589.1334726,-762.5089871,-1871.6981754\PG=C01 [X(Br1
 H256O128)]\\@


 CHARLIE BROWN -- WHICH DO YOU THINK LASTS LONGER IN LIFE, THE GOOD THINGS 
                  OR THE BAD THINGS?
 LINUS --         GOOD THINGS LAST EIGHT SECONDS ..
                  BAD THINGS LAST THREE WEEKS
 CHARLIE BROWN -- WHAT ABOUT IN BETWEEN?
 SNOOPY --        IN BETWEEN YOU SHOULD TAKE A NAP ...
 Job cpu time:       6 days 22 hours 52 minutes 50.4 seconds.
 File lengths (MBytes):  RWF=   7285 Int=      0 D2E=      0 Chk=   2411 Scr=      1
 Normal termination of Gaussian 09 at Wed May  9 05:57:45 2018.
