 Entering Gaussian System, Link 0=/cm/shared/gaussian/g09.e01/intel64-sandybridge/g09/g09
 Initial command:
 /cm/shared/gaussian/g09.e01/intel64-sandybridge/g09/l1.exe "/local/scratch/m.peluso/128_wat/370/Gau-13252.inp" -scrdir="/local/scratch/m.peluso/128_wat/370/"
 Entering Link 1 = /cm/shared/gaussian/g09.e01/intel64-sandybridge/g09/l1.exe PID=     13253.
  
 Copyright (c) 1988,1990,1992,1993,1995,1998,2003,2009,2015,
            Gaussian, Inc.  All Rights Reserved.
  
 This is part of the Gaussian(R) 09 program.  It is based on
 the Gaussian(R) 03 system (copyright 2003, Gaussian, Inc.),
 the Gaussian(R) 98 system (copyright 1998, Gaussian, Inc.),
 the Gaussian(R) 94 system (copyright 1995, Gaussian, Inc.),
 the Gaussian 92(TM) system (copyright 1992, Gaussian, Inc.),
 the Gaussian 90(TM) system (copyright 1990, Gaussian, Inc.),
 the Gaussian 88(TM) system (copyright 1988, Gaussian, Inc.),
 the Gaussian 86(TM) system (copyright 1986, Carnegie Mellon
 University), and the Gaussian 82(TM) system (copyright 1983,
 Carnegie Mellon University). Gaussian is a federally registered
 trademark of Gaussian, Inc.
  
 This software contains proprietary and confidential information,
 including trade secrets, belonging to Gaussian, Inc.
  
 This software is provided under written license and may be
 used, copied, transmitted, or stored only in accord with that
 written license.
  
 The following legend is applicable only to US Government
 contracts under FAR:
  
                    RESTRICTED RIGHTS LEGEND
  
 Use, reproduction and disclosure by the US Government is
 subject to restrictions as set forth in subparagraphs (a)
 and (c) of the Commercial Computer Software - Restricted
 Rights clause in FAR 52.227-19.
  
 Gaussian, Inc.
 340 Quinnipiac St., Bldg. 40, Wallingford CT 06492
  
  
 ---------------------------------------------------------------
 Warning -- This program may not be used in any manner that
 competes with the business of Gaussian, Inc. or will provide
 assistance to any competitor of Gaussian, Inc.  The licensee
 of this program is prohibited from giving any competitor of
 Gaussian, Inc. access to this program.  By using this program,
 the user acknowledges that Gaussian, Inc. is engaged in the
 business of creating and licensing software in the field of
 computational chemistry and represents and warrants to the
 licensee that it is not a competitor of Gaussian, Inc. and that
 it will not use this program in any manner prohibited above.
 ---------------------------------------------------------------
  

 Cite this work as:
 Gaussian 09, Revision E.01,
 M. J. Frisch, G. W. Trucks, H. B. Schlegel, G. E. Scuseria, 
 M. A. Robb, J. R. Cheeseman, G. Scalmani, V. Barone, B. Mennucci, 
 G. A. Petersson, H. Nakatsuji, M. Caricato, X. Li, H. P. Hratchian, 
 A. F. Izmaylov, J. Bloino, G. Zheng, J. L. Sonnenberg, M. Hada, 
 M. Ehara, K. Toyota, R. Fukuda, J. Hasegawa, M. Ishida, T. Nakajima, 
 Y. Honda, O. Kitao, H. Nakai, T. Vreven, J. A. Montgomery, Jr., 
 J. E. Peralta, F. Ogliaro, M. Bearpark, J. J. Heyd, E. Brothers, 
 K. N. Kudin, V. N. Staroverov, T. Keith, R. Kobayashi, J. Normand, 
 K. Raghavachari, A. Rendell, J. C. Burant, S. S. Iyengar, J. Tomasi, 
 M. Cossi, N. Rega, J. M. Millam, M. Klene, J. E. Knox, J. B. Cross, 
 V. Bakken, C. Adamo, J. Jaramillo, R. Gomperts, R. E. Stratmann, 
 O. Yazyev, A. J. Austin, R. Cammi, C. Pomelli, J. W. Ochterski, 
 R. L. Martin, K. Morokuma, V. G. Zakrzewski, G. A. Voth, 
 P. Salvador, J. J. Dannenberg, S. Dapprich, A. D. Daniels, 
 O. Farkas, J. B. Foresman, J. V. Ortiz, J. Cioslowski, 
 and D. J. Fox, Gaussian, Inc., Wallingford CT, 2013.
 
 ******************************************
 Gaussian 09:  ES64L-G09RevE.01 30-Nov-2015
                 4-May-2018 
 ******************************************
 %Mem=110GB
 %NProcShared=64
 Will use up to   64 processors via shared memory.
 %chk=snap64.chk
 ----------------------------------------------
 #p PBE1PBE/cc-pvDZ force Counterpoise=2 noSymm
 ----------------------------------------------
 1/10=7,30=1,38=1,62=2/1,3;
 2/12=2,15=1,17=6,18=5,40=1/2;
 1/10=7,30=1,38=1,53=2,62=2,63=101/22;
 3/5=16,11=2,16=1,25=1,30=1,71=1,74=-13/1,2,3;
 4//1;
 5/5=2,38=5/2;
 6/7=2,8=2,9=2,10=2,28=1/1;
 7/7=1,29=1,30=1,33=-1/1,2,3,16;
 1/10=7,30=1,53=2,62=2,63=101/22;
 3/5=7,6=11,11=2,16=1,25=1,30=1,71=1,74=-13,82=7/1,2,3;
 4//1;
 5/5=2,38=5/2;
 6/7=2,8=2,9=2,10=2,28=1/1;
 7/7=1,29=1,30=1,33=-1/1,2,3,16;
 1/10=7,30=1,53=2,62=2,63=101/22(-5);
 7/9=1,29=1,44=-1/16;
 1/10=7,30=1,62=2/3;
 99//99;
 Leave Link    1 at Fri May  4 22:51:38 2018, MaxMem= 14763950080 cpu:         9.0
 (Enter /cm/shared/gaussian/g09.e01/intel64-sandybridge/g09/l101.exe)
 ---------------------------------------
 forces on chloride comput - NWATER: 128
 ---------------------------------------
 Symbolic Z-matrix:
 Charge = -1 Multiplicity = 1 in supermolecule
 Charge = -1 Multiplicity = 1 in fragment      1.
 Charge =  0 Multiplicity = 1 in fragment      2.
 Br(Fragment=1)        20.       20.       20. 
 O(Fragment=2)         18.94     16.97     20.53 
 H(Fragment=2)         19.14     17.9      20.37 
 H(Fragment=2)         18.78     16.92     21.47 
 O(Fragment=2)         22.83     19.65     21.56 
 H(Fragment=2)         23.49     19.93     20.92 
 H(Fragment=2)         22.01     19.64     21.06 
 O(Fragment=2)         21.24     22.51     18.33 
 H(Fragment=2)         20.57     22.44     17.65 
 H(Fragment=2)         21.03     21.81     18.95 
 O(Fragment=2)         19.76     18.4      23.34 
 H(Fragment=2)         20.18     18.8      24.1 
 H(Fragment=2)         19.92     19.01     22.62 
 O(Fragment=2)         17.78     21.15     23.15 
 H(Fragment=2)         18.55     21.16     23.71 
 H(Fragment=2)         18.11     20.98     22.27 
 O(Fragment=2)         16.41     19.72     18.43 
 H(Fragment=2)         16.77     19.66     17.54 
 H(Fragment=2)         17.07     20.22     18.91 
 O(Fragment=2)         22.93     17.16     20.63 
 H(Fragment=2)         23.17     18.01     21. 
 H(Fragment=2)         21.98     17.2      20.55 
 O(Fragment=2)         22.87     17.94     17.69 
 H(Fragment=2)         22.76     18.86     17.92 
 H(Fragment=2)         23.6      17.64     18.24 
 O(Fragment=2)         19.95     24.11     20.37 
 H(Fragment=2)         19.07     23.85     20.09 
 H(Fragment=2)         20.53     23.66     19.76 
 O(Fragment=2)         17.36     23.06     20.78 
 H(Fragment=2)         16.93     22.23     20.99 
 H(Fragment=2)         17.81     23.31     21.58 
 O(Fragment=2)         20.54     21.67     23.56 
 H(Fragment=2)         21.32     22.01     23.13 
 H(Fragment=2)         20.31     22.35     24.19 
 O(Fragment=2)         17.15     18.51     23.18 
 H(Fragment=2)         17.09     19.45     23.33 
 H(Fragment=2)         18.09     18.32     23.18 
 O(Fragment=2)         22.28     23.65     22.25 
 H(Fragment=2)         21.63     23.44     21.58 
 H(Fragment=2)         22.02     24.51     22.58 
 O(Fragment=2)         19.42     21.69     16.19 
 H(Fragment=2)         18.52     22.       16.24 
 H(Fragment=2)         19.36     20.84     15.75 
 O(Fragment=2)         22.86     19.69     24.23 
 H(Fragment=2)         22.08     19.3      24.63 
 H(Fragment=2)         22.74     19.56     23.29 
 O(Fragment=2)         20.84     14.84     19.39 
 H(Fragment=2)         20.36     15.55     19.83 
 H(Fragment=2)         20.73     14.09     19.97 
 O(Fragment=2)         18.56     15.48     17.41 
 H(Fragment=2)         17.66     15.15     17.47 
 H(Fragment=2)         18.59     16.21     18.02 
 O(Fragment=2)         24.52     20.34     19.26 
 H(Fragment=2)         24.83     20.36     18.36 
 H(Fragment=2)         25.3      20.15     19.78 
 O(Fragment=2)         24.3      23.26     20.04 
 H(Fragment=2)         24.04     23.37     20.95 
 H(Fragment=2)         23.91     22.42     19.78 
 O(Fragment=2)         15.14     17.19     19.38 
 H(Fragment=2)         15.61     17.93     19. 
 H(Fragment=2)         15.52     17.08     20.25 
 O(Fragment=2)         17.53     14.67     20.4 
 H(Fragment=2)         18.13     15.42     20.41 
 H(Fragment=2)         18.05     13.95     20.04 
 O(Fragment=2)         19.07     24.52     22.83 
 H(Fragment=2)         19.49     24.54     21.97 
 H(Fragment=2)         19.78     24.31     23.44 
 O(Fragment=2)         21.74     22.18     14.91 
 H(Fragment=2)         21.38     21.89     14.07 
 H(Fragment=2)         20.99     22.14     15.51 
 O(Fragment=2)         15.76     16.65     21.93 
 H(Fragment=2)         16.16     15.91     22.4 
 H(Fragment=2)         16.14     17.42     22.35 
 O(Fragment=2)         14.57     20.87     20.76 
 H(Fragment=2)         13.62     20.99     20.67 
 H(Fragment=2)         14.95     21.55     20.21 
 O(Fragment=2)         23.15     18.67     14.98 
 H(Fragment=2)         23.02     18.43     15.9 
 H(Fragment=2)         22.35     18.36     14.54 
 O(Fragment=2)         15.06     23.26     19.2 
 H(Fragment=2)         14.48     23.87     19.65 
 H(Fragment=2)         15.93     23.44     19.56 
 O(Fragment=2)         24.55     22.82     16.98 
 H(Fragment=2)         23.76     23.09     16.5 
 H(Fragment=2)         24.3      22.03     17.44 
 O(Fragment=2)         16.53     19.65     15.71 
 H(Fragment=2)         15.73     19.6      15.19 
 H(Fragment=2)         16.77     20.58     15.7 
 O(Fragment=2)         17.82     17.45     14.6 
 H(Fragment=2)         17.35     16.69     14.95 
 H(Fragment=2)         17.71     18.12     15.27 
 O(Fragment=2)         24.67     22.02     23.74 
 H(Fragment=2)         25.36     21.77     24.35 
 H(Fragment=2)         24.1      21.25     23.7 
 O(Fragment=2)         14.57     21.44     23.55 
 H(Fragment=2)         14.74     22.37     23.66 
 H(Fragment=2)         15.25     21.14     22.94 
 O(Fragment=2)         18.84     15.61     23.47 
 H(Fragment=2)         19.77     15.41     23.54 
 H(Fragment=2)         18.63     16.06     24.29 
 O(Fragment=2)         21.88     24.9      16.19 
 H(Fragment=2)         21.84     23.95     16.23 
 H(Fragment=2)         22.62     25.13     16.75 
 O(Fragment=2)         19.41     21.95     26.16 
 H(Fragment=2)         20.07     22.11     26.84 
 H(Fragment=2)         19.79     21.24     25.64 
 O(Fragment=2)         17.56     25.55     18.41 
 H(Fragment=2)         17.78     25.97     19.24 
 H(Fragment=2)         18.4      25.24     18.07 
 O(Fragment=2)         14.16     21.14     17.32 
 H(Fragment=2)         14.59     21.91     17.7 
 H(Fragment=2)         14.78     20.42     17.47 
 O(Fragment=2)         16.83     22.61     15.74 
 H(Fragment=2)         16.64     23.32     16.35 
 H(Fragment=2)         16.83     23.03     14.88 
 O(Fragment=2)         20.47     19.15     25.84 
 H(Fragment=2)         19.7      18.73     26.23 
 H(Fragment=2)         20.91     19.57     26.58 
 O(Fragment=2)         23.68     15.12     22.47 
 H(Fragment=2)         24.07     14.26     22.28 
 H(Fragment=2)         23.49     15.49     21.61 
 O(Fragment=2)         25.06     20.1      16.62 
 H(Fragment=2)         24.49     19.76     15.92 
 H(Fragment=2)         25.82     20.44     16.16 
 O(Fragment=2)         23.8      25.38     18.42 
 H(Fragment=2)         23.97     24.56     18.89 
 H(Fragment=2)         24.66     25.66     18.11 
 O(Fragment=2)         23.34     14.2      18.7 
 H(Fragment=2)         23.34     13.28     18.43 
 H(Fragment=2)         22.42     14.41     18.87 
 O(Fragment=2)         20.78     17.42     14.16 
 H(Fragment=2)         21.04     16.76     13.52 
 H(Fragment=2)         19.9      17.16     14.44 
 O(Fragment=2)         15.86     15.27     17.48 
 H(Fragment=2)         15.57     15.87     18.17 
 H(Fragment=2)         15.62     15.71     16.67 
 O(Fragment=2)         25.45     18.5      22.94 
 H(Fragment=2)         25.28     18.62     23.88 
 H(Fragment=2)         25.79     17.61     22.87 
 O(Fragment=2)         20.79     24.43     24.66 
 H(Fragment=2)         21.61     23.95     24.76 
 H(Fragment=2)         20.47     24.55     25.56 
 O(Fragment=2)         20.04     26.13     17.58 
 H(Fragment=2)         20.71     25.69     17.04 
 H(Fragment=2)         20.52     26.45     18.34 
 O(Fragment=2)         20.85     13.87     15.99 
 H(Fragment=2)         20.46     13.04     16.28 
 H(Fragment=2)         20.46     14.53     16.57 
 O(Fragment=2)         16.96     25.93     23.07 
 H(Fragment=2)         17.57     25.21     23.23 
 H(Fragment=2)         16.67     25.81     22.16 
 O(Fragment=2)         23.18     17.08     25. 
 H(Fragment=2)         23.4      16.35     24.41 
 H(Fragment=2)         23.87     17.72     24.85 
 O(Fragment=2)         26.8      19.86     20.83 
 H(Fragment=2)         26.42     19.43     21.6 
 H(Fragment=2)         27.74     19.73     20.92 
 O(Fragment=2)         19.64     20.03     13.28 
 H(Fragment=2)         18.75     19.98     12.95 
 H(Fragment=2)         19.94     19.12     13.31 
 O(Fragment=2)         12.62     18.56     19.57 
 H(Fragment=2)         13.49     18.19     19.73 
 H(Fragment=2)         12.8      19.45     19.25 
 O(Fragment=2)         24.99     24.82     23.41 
 H(Fragment=2)         24.56     23.98     23.28 
 H(Fragment=2)         24.27     25.43     23.61 
 O(Fragment=2)         21.49     13.94     23.9 
 H(Fragment=2)         22.14     14.33     23.31 
 H(Fragment=2)         21.77     14.2      24.78 
 O(Fragment=2)         16.68     13.7      23.23 
 H(Fragment=2)         16.69     13.23     22.39 
 H(Fragment=2)         17.39     14.34     23.16 
 O(Fragment=2)         23.24     14.68     15.37 
 H(Fragment=2)         22.3      14.55     15.49 
 H(Fragment=2)         23.42     15.54     15.76 
 O(Fragment=2)         27.09     17.09     19.58 
 H(Fragment=2)         26.78     17.97     19.81 
 H(Fragment=2)         27.86     17.24     19.04 
 O(Fragment=2)         25.56     14.97     20.22 
 H(Fragment=2)         24.82     14.78     19.64 
 H(Fragment=2)         25.83     15.85     19.98 
 O(Fragment=2)         16.33     21.32     26.9 
 H(Fragment=2)         17.12     21.04     26.44 
 H(Fragment=2)         15.64     20.74     26.56 
 O(Fragment=2)         26.99     22.64     18.56 
 H(Fragment=2)         26.64     22.92     19.41 
 H(Fragment=2)         26.26     22.75     17.95 
 O(Fragment=2)         23.17     20.32     12.78 
 H(Fragment=2)         23.13     19.76     13.55 
 H(Fragment=2)         23.01     21.2      13.1 
 O(Fragment=2)         14.64     19.55     25.44 
 H(Fragment=2)         14.03     18.86     25.22 
 H(Fragment=2)         14.57     20.18     24.72 
 O(Fragment=2)         21.69     27.2      19.37 
 H(Fragment=2)         21.79     28.07     18.99 
 H(Fragment=2)         22.5      26.74     19.15 
 O(Fragment=2)         14.32     16.8      15.44 
 H(Fragment=2)         13.75     16.8      14.67 
 H(Fragment=2)         14.67     17.69     15.48 
 O(Fragment=2)         14.58     26.       18.05 
 H(Fragment=2)         13.7      25.63     18.05 
 H(Fragment=2)         15.15     25.25     18.24 
 O(Fragment=2)         21.51     27.06     21.99 
 H(Fragment=2)         21.83     27.91     22.31 
 H(Fragment=2)         21.64     27.11     21.05 
 O(Fragment=2)         17.13     25.56     15.37 
 H(Fragment=2)         17.51     26.24     14.81 
 H(Fragment=2)         17.33     25.85     16.26 
 O(Fragment=2)         17.22     24.02     26.57 
 H(Fragment=2)         18.15     24.21     26.48 
 H(Fragment=2)         17.09     23.21     26.06 
 O(Fragment=2)         19.82     12.55     20.54 
 H(Fragment=2)         20.41     12.59     21.29 
 H(Fragment=2)         19.83     11.63     20.27 
 O(Fragment=2)         22.82     12.66     21.19 
 H(Fragment=2)         23.7      12.27     21.11 
 H(Fragment=2)         22.64     13.01     20.32 
 O(Fragment=2)         21.31     15.65     26.81 
 H(Fragment=2)         21.05     16.23     27.53 
 H(Fragment=2)         21.81     16.22     26.23 
 O(Fragment=2)         20.8      24.82     13.46 
 H(Fragment=2)         19.86     24.75     13.66 
 H(Fragment=2)         21.23     24.81     14.32 
 O(Fragment=2)         13.72     24.28     21.41 
 H(Fragment=2)         13.15     25.04     21.55 
 H(Fragment=2)         13.95     23.98     22.28 
 O(Fragment=2)         24.14     21.46     27.26 
 H(Fragment=2)         23.41     21.49     26.64 
 H(Fragment=2)         24.49     22.35     27.27 
 O(Fragment=2)         25.73     15.41     16.94 
 H(Fragment=2)         24.96     14.92     17.24 
 H(Fragment=2)         26.03     15.9      17.7 
 O(Fragment=2)         18.25     18.2      27.21 
 H(Fragment=2)         17.4      18.44     27.56 
 H(Fragment=2)         18.53     17.47     27.76 
 O(Fragment=2)         18.39     22.94     12.64 
 H(Fragment=2)         18.8      22.85     11.78 
 H(Fragment=2)         18.07     22.06     12.85 
 O(Fragment=2)         14.97     24.18     24.04 
 H(Fragment=2)         15.28     25.07     23.88 
 H(Fragment=2)         14.68     24.18     24.95 
 O(Fragment=2)         12.18     18.74     22.85 
 H(Fragment=2)         12.56     18.05     23.39 
 H(Fragment=2)         12.7      18.73     22.05 
 O(Fragment=2)         27.01     16.35     22.39 
 H(Fragment=2)         27.38     15.51     22.65 
 H(Fragment=2)         26.45     16.14     21.64 
 O(Fragment=2)         15.09     13.02     19.91 
 H(Fragment=2)         14.62     13.49     19.21 
 H(Fragment=2)         15.93     13.47     19.97 
 O(Fragment=2)         27.96     20.08     17.66 
 H(Fragment=2)         27.8      20.11     16.71 
 H(Fragment=2)         27.55     20.88     17.99 
 O(Fragment=2)         12.69     15.33     21.18 
 H(Fragment=2)         12.47     14.79     21.94 
 H(Fragment=2)         13.55     15.69     21.39 
 O(Fragment=2)         13.25     15.08     18.57 
 H(Fragment=2)         13.26     15.82     19.19 
 H(Fragment=2)         12.56     14.51     18.89 
 O(Fragment=2)         12.46     19.47     15.52 
 H(Fragment=2)         12.22     18.62     15.89 
 H(Fragment=2)         12.98     19.89     16.2 
 O(Fragment=2)         22.92     26.67     24.23 
 H(Fragment=2)         22.41     27.       23.49 
 H(Fragment=2)         22.27     26.49     24.91 
 O(Fragment=2)         14.71     19.4      13.31 
 H(Fragment=2)         15.62     19.61     13.09 
 H(Fragment=2)         14.43     18.8      12.62 
 O(Fragment=2)         17.58     27.87     20.34 
 H(Fragment=2)         18.45     28.02     20.71 
 H(Fragment=2)         17.04     28.58     20.7 
 O(Fragment=2)         18.47     27.97     16.07 
 H(Fragment=2)         17.95     28.24     16.83 
 H(Fragment=2)         19.12     27.36     16.43 
 O(Fragment=2)         24.71     24.       26.53 
 H(Fragment=2)         24.71     23.78     25.6 
 H(Fragment=2)         25.33     24.72     26.6 
 O(Fragment=2)         11.86     21.35     19.81 
 H(Fragment=2)         10.93     21.13     19.93 
 H(Fragment=2)         11.85     22.21     19.4 
 O(Fragment=2)         16.9      14.85     14.07 
 H(Fragment=2)         16.83     14.32     14.86 
 H(Fragment=2)         16.13     14.62     13.56 
 O(Fragment=2)         21.47     20.13     28.25 
 H(Fragment=2)         22.28     20.62     28.37 
 H(Fragment=2)         20.89     20.46     28.94 
 O(Fragment=2)         11.87     23.18     17.38 
 H(Fragment=2)         12.43     22.4      17.29 
 H(Fragment=2)         11.39     23.24     16.56 
 O(Fragment=2)         17.28     19.75     12.04 
 H(Fragment=2)         16.93     18.86     12.12 
 H(Fragment=2)         17.48     19.85     11.11 
 O(Fragment=2)         11.87     20.96     24.45 
 H(Fragment=2)         12.72     21.18     24.07 
 H(Fragment=2)         11.49     20.33     23.83 
 O(Fragment=2)         21.88     23.44     27.66 
 H(Fragment=2)         22.72     23.48     27.2 
 H(Fragment=2)         22.1      23.23     28.57 
 O(Fragment=2)         19.09     14.29     26.82 
 H(Fragment=2)         18.67     14.62     27.62 
 H(Fragment=2)         19.86     14.85     26.71 
 O(Fragment=2)         19.95     14.02     13.45 
 H(Fragment=2)         19.02     14.02     13.67 
 H(Fragment=2)         20.38     13.72     14.26 
 O(Fragment=2)         11.84     17.43     17.26 
 H(Fragment=2)         12.26     16.58     17.14 
 H(Fragment=2)         12.       17.65     18.18 
 O(Fragment=2)         24.24     23.49     12.76 
 H(Fragment=2)         25.       22.96     12.99 
 H(Fragment=2)         24.04     23.99     13.55 
 O(Fragment=2)         16.37     12.76     15.74 
 H(Fragment=2)         15.48     12.45     15.9 
 H(Fragment=2)         16.77     12.79     16.6 
 O(Fragment=2)         19.65     24.98     27.53 
 H(Fragment=2)         20.24     24.23     27.49 
 H(Fragment=2)         19.34     25.       28.44 
 O(Fragment=2)         25.87     18.35     26.09 
 H(Fragment=2)         25.99     19.29     26.2 
 H(Fragment=2)         26.74     18.03     25.82 
 O(Fragment=2)         16.76     16.77     11.7 
 H(Fragment=2)         16.98     16.58     12.61 
 H(Fragment=2)         17.6      16.9      11.27 
 O(Fragment=2)         26.39     25.93     18.04 
 H(Fragment=2)         27.28     26.18     17.78 
 H(Fragment=2)         26.47     25.7      18.96 
 O(Fragment=2)         25.41     12.46     20.64 
 H(Fragment=2)         25.68     13.35     20.42 
 H(Fragment=2)         26.16     11.91     20.41 
 O(Fragment=2)         19.24     28.85     23.4 
 H(Fragment=2)         20.19     28.81     23.28 
 H(Fragment=2)         18.99     27.94     23.56 
 O(Fragment=2)         13.35     16.98     24.86 
 H(Fragment=2)         12.4      16.86     24.97 
 H(Fragment=2)         13.72     16.12     25.05 
 O(Fragment=2)         16.58     28.19     17.89 
 H(Fragment=2)         15.91     27.5      17.9 
 H(Fragment=2)         16.96     28.17     18.77 
 O(Fragment=2)         21.62     11.19     23.37 
 H(Fragment=2)         21.33     12.03     23.71 
 H(Fragment=2)         22.29     11.41     22.71 
 O(Fragment=2)         16.57     19.31     28.88 
 H(Fragment=2)         16.42     19.92     28.15 
 H(Fragment=2)         15.73     19.29     29.35 
 O(Fragment=2)         14.4      13.75     24.61 
 H(Fragment=2)         14.5      13.4      25.5 
 H(Fragment=2)         15.28     13.73     24.24 
 O(Fragment=2)         27.42     16.51     14.61 
 H(Fragment=2)         26.91     16.56     15.42 
 H(Fragment=2)         27.9      15.68     14.69 
 O(Fragment=2)         27.7      20.67     15.18 
 H(Fragment=2)         27.05     20.75     14.47 
 H(Fragment=2)         28.45     21.18     14.88 
 O(Fragment=2)         22.62     11.73     17.55 
 H(Fragment=2)         22.09     10.99     17.84 
 H(Fragment=2)         22.38     11.85     16.64 
 O(Fragment=2)         13.38     13.79     16.28 
 H(Fragment=2)         13.26     13.47     17.18 
 H(Fragment=2)         13.66     14.7      16.39 
 O(Fragment=2)         26.08     20.97     12.6 
 H(Fragment=2)         26.93     20.58     12.39 
 H(Fragment=2)         25.52     20.23     12.81 
 O(Fragment=2)         22.05     28.07     15.3 
 H(Fragment=2)         22.43     28.39     16.12 
 H(Fragment=2)         22.5      27.25     15.12 
 O(Fragment=2)         25.62     25.79     15.22 
 H(Fragment=2)         26.01     25.93     16.08 
 H(Fragment=2)         25.86     24.89     15. 
 O(Fragment=2)         26.8      21.44     25.96 
 H(Fragment=2)         27.37     21.52     25.19 
 H(Fragment=2)         27.       22.21     26.49 
 O(Fragment=2)         20.91     17.22     28.94 
 H(Fragment=2)         21.07     16.9      29.82 
 H(Fragment=2)         21.35     18.07     28.91 
 O(Fragment=2)         29.45     18.42     18.95 
 H(Fragment=2)         29.01     18.96     18.29 
 H(Fragment=2)         30.38     18.5      18.75 
 O(Fragment=2)         27.01     14.52     24.76 
 H(Fragment=2)         26.32     14.16     25.32 
 H(Fragment=2)         26.66     15.37     24.49 
 O(Fragment=2)         18.37     27.5      26.23 
 H(Fragment=2)         18.34     26.55     26.36 
 H(Fragment=2)         17.45     27.75     26.11 
 O(Fragment=2)         17.64     22.5      29.24 
 H(Fragment=2)         17.07     22.53     28.47 
 H(Fragment=2)         17.27     23.15     29.84 
 
 NAtoms=    385 NQM=      385 NQMF=       0 NMMI=      0 NMMIF=      0
                NMic=       0 NMicF=      0.
                    Isotopes and Nuclear Properties:
 (Nuclear quadrupole moments (NQMom) in fm**2, nuclear magnetic moments (NMagM)
  in nuclear magnetons)

  Atom         1           2           3           4           5           6           7           8           9          10
 IAtWgt=          79          16           1           1          16           1           1          16           1           1
 AtmWgt=  78.9183361  15.9949146   1.0078250   1.0078250  15.9949146   1.0078250   1.0078250  15.9949146   1.0078250   1.0078250
 NucSpn=           3           0           1           1           0           1           1           0           1           1
 AtZEff=   0.0000000   0.0000000   0.0000000   0.0000000   0.0000000   0.0000000   0.0000000   0.0000000   0.0000000   0.0000000
 NQMom=   31.3000000   0.0000000   0.0000000   0.0000000   0.0000000   0.0000000   0.0000000   0.0000000   0.0000000   0.0000000
 NMagM=    2.1063990   0.0000000   2.7928460   2.7928460   0.0000000   2.7928460   2.7928460   0.0000000   2.7928460   2.7928460
 AtZNuc=  35.0000000   8.0000000   1.0000000   1.0000000   8.0000000   1.0000000   1.0000000   8.0000000   1.0000000   1.0000000

  Atom        11          12          13          14          15          16          17          18          19          20
 IAtWgt=          16           1           1          16           1           1          16           1           1          16
 AtmWgt=  15.9949146   1.0078250   1.0078250  15.9949146   1.0078250   1.0078250  15.9949146   1.0078250   1.0078250  15.9949146
 NucSpn=           0           1           1           0           1           1           0           1           1           0
 AtZEff=   0.0000000   0.0000000   0.0000000   0.0000000   0.0000000   0.0000000   0.0000000   0.0000000   0.0000000   0.0000000
 NQMom=    0.0000000   0.0000000   0.0000000   0.0000000   0.0000000   0.0000000   0.0000000   0.0000000   0.0000000   0.0000000
 NMagM=    0.0000000   2.7928460   2.7928460   0.0000000   2.7928460   2.7928460   0.0000000   2.7928460   2.7928460   0.0000000
 AtZNuc=   8.0000000   1.0000000   1.0000000   8.0000000   1.0000000   1.0000000   8.0000000   1.0000000   1.0000000   8.0000000

  Atom        21          22          23          24          25          26          27          28          29          30
 IAtWgt=           1           1          16           1           1          16           1           1          16           1
 AtmWgt=   1.0078250   1.0078250  15.9949146   1.0078250   1.0078250  15.9949146   1.0078250   1.0078250  15.9949146   1.0078250
 NucSpn=           1           1           0           1           1           0           1           1           0           1
 AtZEff=   0.0000000   0.0000000   0.0000000   0.0000000   0.0000000   0.0000000   0.0000000   0.0000000   0.0000000   0.0000000
 NQMom=    0.0000000   0.0000000   0.0000000   0.0000000   0.0000000   0.0000000   0.0000000   0.0000000   0.0000000   0.0000000
 NMagM=    2.7928460   2.7928460   0.0000000   2.7928460   2.7928460   0.0000000   2.7928460   2.7928460   0.0000000   2.7928460
 AtZNuc=   1.0000000   1.0000000   8.0000000   1.0000000   1.0000000   8.0000000   1.0000000   1.0000000   8.0000000   1.0000000

  Atom        31          32          33          34          35          36          37          38          39          40
 IAtWgt=           1          16           1           1          16           1           1          16           1           1
 AtmWgt=   1.0078250  15.9949146   1.0078250   1.0078250  15.9949146   1.0078250   1.0078250  15.9949146   1.0078250   1.0078250
 NucSpn=           1           0           1           1           0           1           1           0           1           1
 AtZEff=   0.0000000   0.0000000   0.0000000   0.0000000   0.0000000   0.0000000   0.0000000   0.0000000   0.0000000   0.0000000
 NQMom=    0.0000000   0.0000000   0.0000000   0.0000000   0.0000000   0.0000000   0.0000000   0.0000000   0.0000000   0.0000000
 NMagM=    2.7928460   0.0000000   2.7928460   2.7928460   0.0000000   2.7928460   2.7928460   0.0000000   2.7928460   2.7928460
 AtZNuc=   1.0000000   8.0000000   1.0000000   1.0000000   8.0000000   1.0000000   1.0000000   8.0000000   1.0000000   1.0000000

  Atom        41          42          43          44          45          46          47          48          49          50
 IAtWgt=          16           1           1          16           1           1          16           1           1          16
 AtmWgt=  15.9949146   1.0078250   1.0078250  15.9949146   1.0078250   1.0078250  15.9949146   1.0078250   1.0078250  15.9949146
 NucSpn=           0           1           1           0           1           1           0           1           1           0
 AtZEff=   0.0000000   0.0000000   0.0000000   0.0000000   0.0000000   0.0000000   0.0000000   0.0000000   0.0000000   0.0000000
 NQMom=    0.0000000   0.0000000   0.0000000   0.0000000   0.0000000   0.0000000   0.0000000   0.0000000   0.0000000   0.0000000
 NMagM=    0.0000000   2.7928460   2.7928460   0.0000000   2.7928460   2.7928460   0.0000000   2.7928460   2.7928460   0.0000000
 AtZNuc=   8.0000000   1.0000000   1.0000000   8.0000000   1.0000000   1.0000000   8.0000000   1.0000000   1.0000000   8.0000000

  Atom        51          52          53          54          55          56          57          58          59          60
 IAtWgt=           1           1          16           1           1          16           1           1          16           1
 AtmWgt=   1.0078250   1.0078250  15.9949146   1.0078250   1.0078250  15.9949146   1.0078250   1.0078250  15.9949146   1.0078250
 NucSpn=           1           1           0           1           1           0           1           1           0           1
 AtZEff=   0.0000000   0.0000000   0.0000000   0.0000000   0.0000000   0.0000000   0.0000000   0.0000000   0.0000000   0.0000000
 NQMom=    0.0000000   0.0000000   0.0000000   0.0000000   0.0000000   0.0000000   0.0000000   0.0000000   0.0000000   0.0000000
 NMagM=    2.7928460   2.7928460   0.0000000   2.7928460   2.7928460   0.0000000   2.7928460   2.7928460   0.0000000   2.7928460
 AtZNuc=   1.0000000   1.0000000   8.0000000   1.0000000   1.0000000   8.0000000   1.0000000   1.0000000   8.0000000   1.0000000

  Atom        61          62          63          64          65          66          67          68          69          70
 IAtWgt=           1          16           1           1          16           1           1          16           1           1
 AtmWgt=   1.0078250  15.9949146   1.0078250   1.0078250  15.9949146   1.0078250   1.0078250  15.9949146   1.0078250   1.0078250
 NucSpn=           1           0           1           1           0           1           1           0           1           1
 AtZEff=   0.0000000   0.0000000   0.0000000   0.0000000   0.0000000   0.0000000   0.0000000   0.0000000   0.0000000   0.0000000
 NQMom=    0.0000000   0.0000000   0.0000000   0.0000000   0.0000000   0.0000000   0.0000000   0.0000000   0.0000000   0.0000000
 NMagM=    2.7928460   0.0000000   2.7928460   2.7928460   0.0000000   2.7928460   2.7928460   0.0000000   2.7928460   2.7928460
 AtZNuc=   1.0000000   8.0000000   1.0000000   1.0000000   8.0000000   1.0000000   1.0000000   8.0000000   1.0000000   1.0000000

  Atom        71          72          73          74          75          76          77          78          79          80
 IAtWgt=          16           1           1          16           1           1          16           1           1          16
 AtmWgt=  15.9949146   1.0078250   1.0078250  15.9949146   1.0078250   1.0078250  15.9949146   1.0078250   1.0078250  15.9949146
 NucSpn=           0           1           1           0           1           1           0           1           1           0
 AtZEff=   0.0000000   0.0000000   0.0000000   0.0000000   0.0000000   0.0000000   0.0000000   0.0000000   0.0000000   0.0000000
 NQMom=    0.0000000   0.0000000   0.0000000   0.0000000   0.0000000   0.0000000   0.0000000   0.0000000   0.0000000   0.0000000
 NMagM=    0.0000000   2.7928460   2.7928460   0.0000000   2.7928460   2.7928460   0.0000000   2.7928460   2.7928460   0.0000000
 AtZNuc=   8.0000000   1.0000000   1.0000000   8.0000000   1.0000000   1.0000000   8.0000000   1.0000000   1.0000000   8.0000000

  Atom        81          82          83          84          85          86          87          88          89          90
 IAtWgt=           1           1          16           1           1          16           1           1          16           1
 AtmWgt=   1.0078250   1.0078250  15.9949146   1.0078250   1.0078250  15.9949146   1.0078250   1.0078250  15.9949146   1.0078250
 NucSpn=           1           1           0           1           1           0           1           1           0           1
 AtZEff=   0.0000000   0.0000000   0.0000000   0.0000000   0.0000000   0.0000000   0.0000000   0.0000000   0.0000000   0.0000000
 NQMom=    0.0000000   0.0000000   0.0000000   0.0000000   0.0000000   0.0000000   0.0000000   0.0000000   0.0000000   0.0000000
 NMagM=    2.7928460   2.7928460   0.0000000   2.7928460   2.7928460   0.0000000   2.7928460   2.7928460   0.0000000   2.7928460
 AtZNuc=   1.0000000   1.0000000   8.0000000   1.0000000   1.0000000   8.0000000   1.0000000   1.0000000   8.0000000   1.0000000

  Atom        91          92          93          94          95          96          97          98          99         100
 IAtWgt=           1          16           1           1          16           1           1          16           1           1
 AtmWgt=   1.0078250  15.9949146   1.0078250   1.0078250  15.9949146   1.0078250   1.0078250  15.9949146   1.0078250   1.0078250
 NucSpn=           1           0           1           1           0           1           1           0           1           1
 AtZEff=   0.0000000   0.0000000   0.0000000   0.0000000   0.0000000   0.0000000   0.0000000   0.0000000   0.0000000   0.0000000
 NQMom=    0.0000000   0.0000000   0.0000000   0.0000000   0.0000000   0.0000000   0.0000000   0.0000000   0.0000000   0.0000000
 NMagM=    2.7928460   0.0000000   2.7928460   2.7928460   0.0000000   2.7928460   2.7928460   0.0000000   2.7928460   2.7928460
 AtZNuc=   1.0000000   8.0000000   1.0000000   1.0000000   8.0000000   1.0000000   1.0000000   8.0000000   1.0000000   1.0000000

  Atom       101         102         103         104         105         106         107         108         109         110
 IAtWgt=          16           1           1          16           1           1          16           1           1          16
 AtmWgt=  15.9949146   1.0078250   1.0078250  15.9949146   1.0078250   1.0078250  15.9949146   1.0078250   1.0078250  15.9949146
 NucSpn=           0           1           1           0           1           1           0           1           1           0
 AtZEff=   0.0000000   0.0000000   0.0000000   0.0000000   0.0000000   0.0000000   0.0000000   0.0000000   0.0000000   0.0000000
 NQMom=    0.0000000   0.0000000   0.0000000   0.0000000   0.0000000   0.0000000   0.0000000   0.0000000   0.0000000   0.0000000
 NMagM=    0.0000000   2.7928460   2.7928460   0.0000000   2.7928460   2.7928460   0.0000000   2.7928460   2.7928460   0.0000000
 AtZNuc=   8.0000000   1.0000000   1.0000000   8.0000000   1.0000000   1.0000000   8.0000000   1.0000000   1.0000000   8.0000000

  Atom       111         112         113         114         115         116         117         118         119         120
 IAtWgt=           1           1          16           1           1          16           1           1          16           1
 AtmWgt=   1.0078250   1.0078250  15.9949146   1.0078250   1.0078250  15.9949146   1.0078250   1.0078250  15.9949146   1.0078250
 NucSpn=           1           1           0           1           1           0           1           1           0           1
 AtZEff=   0.0000000   0.0000000   0.0000000   0.0000000   0.0000000   0.0000000   0.0000000   0.0000000   0.0000000   0.0000000
 NQMom=    0.0000000   0.0000000   0.0000000   0.0000000   0.0000000   0.0000000   0.0000000   0.0000000   0.0000000   0.0000000
 NMagM=    2.7928460   2.7928460   0.0000000   2.7928460   2.7928460   0.0000000   2.7928460   2.7928460   0.0000000   2.7928460
 AtZNuc=   1.0000000   1.0000000   8.0000000   1.0000000   1.0000000   8.0000000   1.0000000   1.0000000   8.0000000   1.0000000

  Atom       121         122         123         124         125         126         127         128         129         130
 IAtWgt=           1          16           1           1          16           1           1          16           1           1
 AtmWgt=   1.0078250  15.9949146   1.0078250   1.0078250  15.9949146   1.0078250   1.0078250  15.9949146   1.0078250   1.0078250
 NucSpn=           1           0           1           1           0           1           1           0           1           1
 AtZEff=   0.0000000   0.0000000   0.0000000   0.0000000   0.0000000   0.0000000   0.0000000   0.0000000   0.0000000   0.0000000
 NQMom=    0.0000000   0.0000000   0.0000000   0.0000000   0.0000000   0.0000000   0.0000000   0.0000000   0.0000000   0.0000000
 NMagM=    2.7928460   0.0000000   2.7928460   2.7928460   0.0000000   2.7928460   2.7928460   0.0000000   2.7928460   2.7928460
 AtZNuc=   1.0000000   8.0000000   1.0000000   1.0000000   8.0000000   1.0000000   1.0000000   8.0000000   1.0000000   1.0000000

  Atom       131         132         133         134         135         136         137         138         139         140
 IAtWgt=          16           1           1          16           1           1          16           1           1          16
 AtmWgt=  15.9949146   1.0078250   1.0078250  15.9949146   1.0078250   1.0078250  15.9949146   1.0078250   1.0078250  15.9949146
 NucSpn=           0           1           1           0           1           1           0           1           1           0
 AtZEff=   0.0000000   0.0000000   0.0000000   0.0000000   0.0000000   0.0000000   0.0000000   0.0000000   0.0000000   0.0000000
 NQMom=    0.0000000   0.0000000   0.0000000   0.0000000   0.0000000   0.0000000   0.0000000   0.0000000   0.0000000   0.0000000
 NMagM=    0.0000000   2.7928460   2.7928460   0.0000000   2.7928460   2.7928460   0.0000000   2.7928460   2.7928460   0.0000000
 AtZNuc=   8.0000000   1.0000000   1.0000000   8.0000000   1.0000000   1.0000000   8.0000000   1.0000000   1.0000000   8.0000000

  Atom       141         142         143         144         145         146         147         148         149         150
 IAtWgt=           1           1          16           1           1          16           1           1          16           1
 AtmWgt=   1.0078250   1.0078250  15.9949146   1.0078250   1.0078250  15.9949146   1.0078250   1.0078250  15.9949146   1.0078250
 NucSpn=           1           1           0           1           1           0           1           1           0           1
 AtZEff=   0.0000000   0.0000000   0.0000000   0.0000000   0.0000000   0.0000000   0.0000000   0.0000000   0.0000000   0.0000000
 NQMom=    0.0000000   0.0000000   0.0000000   0.0000000   0.0000000   0.0000000   0.0000000   0.0000000   0.0000000   0.0000000
 NMagM=    2.7928460   2.7928460   0.0000000   2.7928460   2.7928460   0.0000000   2.7928460   2.7928460   0.0000000   2.7928460
 AtZNuc=   1.0000000   1.0000000   8.0000000   1.0000000   1.0000000   8.0000000   1.0000000   1.0000000   8.0000000   1.0000000

  Atom       151         152         153         154         155         156         157         158         159         160
 IAtWgt=           1          16           1           1          16           1           1          16           1           1
 AtmWgt=   1.0078250  15.9949146   1.0078250   1.0078250  15.9949146   1.0078250   1.0078250  15.9949146   1.0078250   1.0078250
 NucSpn=           1           0           1           1           0           1           1           0           1           1
 AtZEff=   0.0000000   0.0000000   0.0000000   0.0000000   0.0000000   0.0000000   0.0000000   0.0000000   0.0000000   0.0000000
 NQMom=    0.0000000   0.0000000   0.0000000   0.0000000   0.0000000   0.0000000   0.0000000   0.0000000   0.0000000   0.0000000
 NMagM=    2.7928460   0.0000000   2.7928460   2.7928460   0.0000000   2.7928460   2.7928460   0.0000000   2.7928460   2.7928460
 AtZNuc=   1.0000000   8.0000000   1.0000000   1.0000000   8.0000000   1.0000000   1.0000000   8.0000000   1.0000000   1.0000000

  Atom       161         162         163         164         165         166         167         168         169         170
 IAtWgt=          16           1           1          16           1           1          16           1           1          16
 AtmWgt=  15.9949146   1.0078250   1.0078250  15.9949146   1.0078250   1.0078250  15.9949146   1.0078250   1.0078250  15.9949146
 NucSpn=           0           1           1           0           1           1           0           1           1           0
 AtZEff=   0.0000000   0.0000000   0.0000000   0.0000000   0.0000000   0.0000000   0.0000000   0.0000000   0.0000000   0.0000000
 NQMom=    0.0000000   0.0000000   0.0000000   0.0000000   0.0000000   0.0000000   0.0000000   0.0000000   0.0000000   0.0000000
 NMagM=    0.0000000   2.7928460   2.7928460   0.0000000   2.7928460   2.7928460   0.0000000   2.7928460   2.7928460   0.0000000
 AtZNuc=   8.0000000   1.0000000   1.0000000   8.0000000   1.0000000   1.0000000   8.0000000   1.0000000   1.0000000   8.0000000

  Atom       171         172         173         174         175         176         177         178         179         180
 IAtWgt=           1           1          16           1           1          16           1           1          16           1
 AtmWgt=   1.0078250   1.0078250  15.9949146   1.0078250   1.0078250  15.9949146   1.0078250   1.0078250  15.9949146   1.0078250
 NucSpn=           1           1           0           1           1           0           1           1           0           1
 AtZEff=   0.0000000   0.0000000   0.0000000   0.0000000   0.0000000   0.0000000   0.0000000   0.0000000   0.0000000   0.0000000
 NQMom=    0.0000000   0.0000000   0.0000000   0.0000000   0.0000000   0.0000000   0.0000000   0.0000000   0.0000000   0.0000000
 NMagM=    2.7928460   2.7928460   0.0000000   2.7928460   2.7928460   0.0000000   2.7928460   2.7928460   0.0000000   2.7928460
 AtZNuc=   1.0000000   1.0000000   8.0000000   1.0000000   1.0000000   8.0000000   1.0000000   1.0000000   8.0000000   1.0000000

  Atom       181         182         183         184         185         186         187         188         189         190
 IAtWgt=           1          16           1           1          16           1           1          16           1           1
 AtmWgt=   1.0078250  15.9949146   1.0078250   1.0078250  15.9949146   1.0078250   1.0078250  15.9949146   1.0078250   1.0078250
 NucSpn=           1           0           1           1           0           1           1           0           1           1
 AtZEff=   0.0000000   0.0000000   0.0000000   0.0000000   0.0000000   0.0000000   0.0000000   0.0000000   0.0000000   0.0000000
 NQMom=    0.0000000   0.0000000   0.0000000   0.0000000   0.0000000   0.0000000   0.0000000   0.0000000   0.0000000   0.0000000
 NMagM=    2.7928460   0.0000000   2.7928460   2.7928460   0.0000000   2.7928460   2.7928460   0.0000000   2.7928460   2.7928460
 AtZNuc=   1.0000000   8.0000000   1.0000000   1.0000000   8.0000000   1.0000000   1.0000000   8.0000000   1.0000000   1.0000000

  Atom       191         192         193         194         195         196         197         198         199         200
 IAtWgt=          16           1           1          16           1           1          16           1           1          16
 AtmWgt=  15.9949146   1.0078250   1.0078250  15.9949146   1.0078250   1.0078250  15.9949146   1.0078250   1.0078250  15.9949146
 NucSpn=           0           1           1           0           1           1           0           1           1           0
 AtZEff=   0.0000000   0.0000000   0.0000000   0.0000000   0.0000000   0.0000000   0.0000000   0.0000000   0.0000000   0.0000000
 NQMom=    0.0000000   0.0000000   0.0000000   0.0000000   0.0000000   0.0000000   0.0000000   0.0000000   0.0000000   0.0000000
 NMagM=    0.0000000   2.7928460   2.7928460   0.0000000   2.7928460   2.7928460   0.0000000   2.7928460   2.7928460   0.0000000
 AtZNuc=   8.0000000   1.0000000   1.0000000   8.0000000   1.0000000   1.0000000   8.0000000   1.0000000   1.0000000   8.0000000

  Atom       201         202         203         204         205         206         207         208         209         210
 IAtWgt=           1           1          16           1           1          16           1           1          16           1
 AtmWgt=   1.0078250   1.0078250  15.9949146   1.0078250   1.0078250  15.9949146   1.0078250   1.0078250  15.9949146   1.0078250
 NucSpn=           1           1           0           1           1           0           1           1           0           1
 AtZEff=   0.0000000   0.0000000   0.0000000   0.0000000   0.0000000   0.0000000   0.0000000   0.0000000   0.0000000   0.0000000
 NQMom=    0.0000000   0.0000000   0.0000000   0.0000000   0.0000000   0.0000000   0.0000000   0.0000000   0.0000000   0.0000000
 NMagM=    2.7928460   2.7928460   0.0000000   2.7928460   2.7928460   0.0000000   2.7928460   2.7928460   0.0000000   2.7928460
 AtZNuc=   1.0000000   1.0000000   8.0000000   1.0000000   1.0000000   8.0000000   1.0000000   1.0000000   8.0000000   1.0000000

  Atom       211         212         213         214         215         216         217         218         219         220
 IAtWgt=           1          16           1           1          16           1           1          16           1           1
 AtmWgt=   1.0078250  15.9949146   1.0078250   1.0078250  15.9949146   1.0078250   1.0078250  15.9949146   1.0078250   1.0078250
 NucSpn=           1           0           1           1           0           1           1           0           1           1
 AtZEff=   0.0000000   0.0000000   0.0000000   0.0000000   0.0000000   0.0000000   0.0000000   0.0000000   0.0000000   0.0000000
 NQMom=    0.0000000   0.0000000   0.0000000   0.0000000   0.0000000   0.0000000   0.0000000   0.0000000   0.0000000   0.0000000
 NMagM=    2.7928460   0.0000000   2.7928460   2.7928460   0.0000000   2.7928460   2.7928460   0.0000000   2.7928460   2.7928460
 AtZNuc=   1.0000000   8.0000000   1.0000000   1.0000000   8.0000000   1.0000000   1.0000000   8.0000000   1.0000000   1.0000000

  Atom       221         222         223         224         225         226         227         228         229         230
 IAtWgt=          16           1           1          16           1           1          16           1           1          16
 AtmWgt=  15.9949146   1.0078250   1.0078250  15.9949146   1.0078250   1.0078250  15.9949146   1.0078250   1.0078250  15.9949146
 NucSpn=           0           1           1           0           1           1           0           1           1           0
 AtZEff=   0.0000000   0.0000000   0.0000000   0.0000000   0.0000000   0.0000000   0.0000000   0.0000000   0.0000000   0.0000000
 NQMom=    0.0000000   0.0000000   0.0000000   0.0000000   0.0000000   0.0000000   0.0000000   0.0000000   0.0000000   0.0000000
 NMagM=    0.0000000   2.7928460   2.7928460   0.0000000   2.7928460   2.7928460   0.0000000   2.7928460   2.7928460   0.0000000
 AtZNuc=   8.0000000   1.0000000   1.0000000   8.0000000   1.0000000   1.0000000   8.0000000   1.0000000   1.0000000   8.0000000

  Atom       231         232         233         234         235         236         237         238         239         240
 IAtWgt=           1           1          16           1           1          16           1           1          16           1
 AtmWgt=   1.0078250   1.0078250  15.9949146   1.0078250   1.0078250  15.9949146   1.0078250   1.0078250  15.9949146   1.0078250
 NucSpn=           1           1           0           1           1           0           1           1           0           1
 AtZEff=   0.0000000   0.0000000   0.0000000   0.0000000   0.0000000   0.0000000   0.0000000   0.0000000   0.0000000   0.0000000
 NQMom=    0.0000000   0.0000000   0.0000000   0.0000000   0.0000000   0.0000000   0.0000000   0.0000000   0.0000000   0.0000000
 NMagM=    2.7928460   2.7928460   0.0000000   2.7928460   2.7928460   0.0000000   2.7928460   2.7928460   0.0000000   2.7928460
 AtZNuc=   1.0000000   1.0000000   8.0000000   1.0000000   1.0000000   8.0000000   1.0000000   1.0000000   8.0000000   1.0000000

  Atom       241         242         243         244         245         246         247         248         249         250
 IAtWgt=           1          16           1           1          16           1           1          16           1           1
 AtmWgt=   1.0078250  15.9949146   1.0078250   1.0078250  15.9949146   1.0078250   1.0078250  15.9949146   1.0078250   1.0078250
 NucSpn=           1           0           1           1           0           1           1           0           1           1
 AtZEff=   0.0000000   0.0000000   0.0000000   0.0000000   0.0000000   0.0000000   0.0000000   0.0000000   0.0000000   0.0000000
 NQMom=    0.0000000   0.0000000   0.0000000   0.0000000   0.0000000   0.0000000   0.0000000   0.0000000   0.0000000   0.0000000
 NMagM=    2.7928460   0.0000000   2.7928460   2.7928460   0.0000000   2.7928460   2.7928460   0.0000000   2.7928460   2.7928460
 AtZNuc=   1.0000000   8.0000000   1.0000000   1.0000000   8.0000000   1.0000000   1.0000000   8.0000000   1.0000000   1.0000000

  Atom       251         252         253         254         255         256         257         258         259         260
 IAtWgt=          16           1           1          16           1           1          16           1           1          16
 AtmWgt=  15.9949146   1.0078250   1.0078250  15.9949146   1.0078250   1.0078250  15.9949146   1.0078250   1.0078250  15.9949146
 NucSpn=           0           1           1           0           1           1           0           1           1           0
 AtZEff=   0.0000000   0.0000000   0.0000000   0.0000000   0.0000000   0.0000000   0.0000000   0.0000000   0.0000000   0.0000000
 NQMom=    0.0000000   0.0000000   0.0000000   0.0000000   0.0000000   0.0000000   0.0000000   0.0000000   0.0000000   0.0000000
 NMagM=    0.0000000   2.7928460   2.7928460   0.0000000   2.7928460   2.7928460   0.0000000   2.7928460   2.7928460   0.0000000
 AtZNuc=   8.0000000   1.0000000   1.0000000   8.0000000   1.0000000   1.0000000   8.0000000   1.0000000   1.0000000   8.0000000

  Atom       261         262         263         264         265         266         267         268         269         270
 IAtWgt=           1           1          16           1           1          16           1           1          16           1
 AtmWgt=   1.0078250   1.0078250  15.9949146   1.0078250   1.0078250  15.9949146   1.0078250   1.0078250  15.9949146   1.0078250
 NucSpn=           1           1           0           1           1           0           1           1           0           1
 AtZEff=   0.0000000   0.0000000   0.0000000   0.0000000   0.0000000   0.0000000   0.0000000   0.0000000   0.0000000   0.0000000
 NQMom=    0.0000000   0.0000000   0.0000000   0.0000000   0.0000000   0.0000000   0.0000000   0.0000000   0.0000000   0.0000000
 NMagM=    2.7928460   2.7928460   0.0000000   2.7928460   2.7928460   0.0000000   2.7928460   2.7928460   0.0000000   2.7928460
 AtZNuc=   1.0000000   1.0000000   8.0000000   1.0000000   1.0000000   8.0000000   1.0000000   1.0000000   8.0000000   1.0000000

  Atom       271         272         273         274         275         276         277         278         279         280
 IAtWgt=           1          16           1           1          16           1           1          16           1           1
 AtmWgt=   1.0078250  15.9949146   1.0078250   1.0078250  15.9949146   1.0078250   1.0078250  15.9949146   1.0078250   1.0078250
 NucSpn=           1           0           1           1           0           1           1           0           1           1
 AtZEff=   0.0000000   0.0000000   0.0000000   0.0000000   0.0000000   0.0000000   0.0000000   0.0000000   0.0000000   0.0000000
 NQMom=    0.0000000   0.0000000   0.0000000   0.0000000   0.0000000   0.0000000   0.0000000   0.0000000   0.0000000   0.0000000
 NMagM=    2.7928460   0.0000000   2.7928460   2.7928460   0.0000000   2.7928460   2.7928460   0.0000000   2.7928460   2.7928460
 AtZNuc=   1.0000000   8.0000000   1.0000000   1.0000000   8.0000000   1.0000000   1.0000000   8.0000000   1.0000000   1.0000000

  Atom       281         282         283         284         285         286         287         288         289         290
 IAtWgt=          16           1           1          16           1           1          16           1           1          16
 AtmWgt=  15.9949146   1.0078250   1.0078250  15.9949146   1.0078250   1.0078250  15.9949146   1.0078250   1.0078250  15.9949146
 NucSpn=           0           1           1           0           1           1           0           1           1           0
 AtZEff=   0.0000000   0.0000000   0.0000000   0.0000000   0.0000000   0.0000000   0.0000000   0.0000000   0.0000000   0.0000000
 NQMom=    0.0000000   0.0000000   0.0000000   0.0000000   0.0000000   0.0000000   0.0000000   0.0000000   0.0000000   0.0000000
 NMagM=    0.0000000   2.7928460   2.7928460   0.0000000   2.7928460   2.7928460   0.0000000   2.7928460   2.7928460   0.0000000
 AtZNuc=   8.0000000   1.0000000   1.0000000   8.0000000   1.0000000   1.0000000   8.0000000   1.0000000   1.0000000   8.0000000

  Atom       291         292         293         294         295         296         297         298         299         300
 IAtWgt=           1           1          16           1           1          16           1           1          16           1
 AtmWgt=   1.0078250   1.0078250  15.9949146   1.0078250   1.0078250  15.9949146   1.0078250   1.0078250  15.9949146   1.0078250
 NucSpn=           1           1           0           1           1           0           1           1           0           1
 AtZEff=   0.0000000   0.0000000   0.0000000   0.0000000   0.0000000   0.0000000   0.0000000   0.0000000   0.0000000   0.0000000
 NQMom=    0.0000000   0.0000000   0.0000000   0.0000000   0.0000000   0.0000000   0.0000000   0.0000000   0.0000000   0.0000000
 NMagM=    2.7928460   2.7928460   0.0000000   2.7928460   2.7928460   0.0000000   2.7928460   2.7928460   0.0000000   2.7928460
 AtZNuc=   1.0000000   1.0000000   8.0000000   1.0000000   1.0000000   8.0000000   1.0000000   1.0000000   8.0000000   1.0000000

  Atom       301         302         303         304         305         306         307         308         309         310
 IAtWgt=           1          16           1           1          16           1           1          16           1           1
 AtmWgt=   1.0078250  15.9949146   1.0078250   1.0078250  15.9949146   1.0078250   1.0078250  15.9949146   1.0078250   1.0078250
 NucSpn=           1           0           1           1           0           1           1           0           1           1
 AtZEff=   0.0000000   0.0000000   0.0000000   0.0000000   0.0000000   0.0000000   0.0000000   0.0000000   0.0000000   0.0000000
 NQMom=    0.0000000   0.0000000   0.0000000   0.0000000   0.0000000   0.0000000   0.0000000   0.0000000   0.0000000   0.0000000
 NMagM=    2.7928460   0.0000000   2.7928460   2.7928460   0.0000000   2.7928460   2.7928460   0.0000000   2.7928460   2.7928460
 AtZNuc=   1.0000000   8.0000000   1.0000000   1.0000000   8.0000000   1.0000000   1.0000000   8.0000000   1.0000000   1.0000000

  Atom       311         312         313         314         315         316         317         318         319         320
 IAtWgt=          16           1           1          16           1           1          16           1           1          16
 AtmWgt=  15.9949146   1.0078250   1.0078250  15.9949146   1.0078250   1.0078250  15.9949146   1.0078250   1.0078250  15.9949146
 NucSpn=           0           1           1           0           1           1           0           1           1           0
 AtZEff=   0.0000000   0.0000000   0.0000000   0.0000000   0.0000000   0.0000000   0.0000000   0.0000000   0.0000000   0.0000000
 NQMom=    0.0000000   0.0000000   0.0000000   0.0000000   0.0000000   0.0000000   0.0000000   0.0000000   0.0000000   0.0000000
 NMagM=    0.0000000   2.7928460   2.7928460   0.0000000   2.7928460   2.7928460   0.0000000   2.7928460   2.7928460   0.0000000
 AtZNuc=   8.0000000   1.0000000   1.0000000   8.0000000   1.0000000   1.0000000   8.0000000   1.0000000   1.0000000   8.0000000

  Atom       321         322         323         324         325         326         327         328         329         330
 IAtWgt=           1           1          16           1           1          16           1           1          16           1
 AtmWgt=   1.0078250   1.0078250  15.9949146   1.0078250   1.0078250  15.9949146   1.0078250   1.0078250  15.9949146   1.0078250
 NucSpn=           1           1           0           1           1           0           1           1           0           1
 AtZEff=   0.0000000   0.0000000   0.0000000   0.0000000   0.0000000   0.0000000   0.0000000   0.0000000   0.0000000   0.0000000
 NQMom=    0.0000000   0.0000000   0.0000000   0.0000000   0.0000000   0.0000000   0.0000000   0.0000000   0.0000000   0.0000000
 NMagM=    2.7928460   2.7928460   0.0000000   2.7928460   2.7928460   0.0000000   2.7928460   2.7928460   0.0000000   2.7928460
 AtZNuc=   1.0000000   1.0000000   8.0000000   1.0000000   1.0000000   8.0000000   1.0000000   1.0000000   8.0000000   1.0000000

  Atom       331         332         333         334         335         336         337         338         339         340
 IAtWgt=           1          16           1           1          16           1           1          16           1           1
 AtmWgt=   1.0078250  15.9949146   1.0078250   1.0078250  15.9949146   1.0078250   1.0078250  15.9949146   1.0078250   1.0078250
 NucSpn=           1           0           1           1           0           1           1           0           1           1
 AtZEff=   0.0000000   0.0000000   0.0000000   0.0000000   0.0000000   0.0000000   0.0000000   0.0000000   0.0000000   0.0000000
 NQMom=    0.0000000   0.0000000   0.0000000   0.0000000   0.0000000   0.0000000   0.0000000   0.0000000   0.0000000   0.0000000
 NMagM=    2.7928460   0.0000000   2.7928460   2.7928460   0.0000000   2.7928460   2.7928460   0.0000000   2.7928460   2.7928460
 AtZNuc=   1.0000000   8.0000000   1.0000000   1.0000000   8.0000000   1.0000000   1.0000000   8.0000000   1.0000000   1.0000000

  Atom       341         342         343         344         345         346         347         348         349         350
 IAtWgt=          16           1           1          16           1           1          16           1           1          16
 AtmWgt=  15.9949146   1.0078250   1.0078250  15.9949146   1.0078250   1.0078250  15.9949146   1.0078250   1.0078250  15.9949146
 NucSpn=           0           1           1           0           1           1           0           1           1           0
 AtZEff=   0.0000000   0.0000000   0.0000000   0.0000000   0.0000000   0.0000000   0.0000000   0.0000000   0.0000000   0.0000000
 NQMom=    0.0000000   0.0000000   0.0000000   0.0000000   0.0000000   0.0000000   0.0000000   0.0000000   0.0000000   0.0000000
 NMagM=    0.0000000   2.7928460   2.7928460   0.0000000   2.7928460   2.7928460   0.0000000   2.7928460   2.7928460   0.0000000
 AtZNuc=   8.0000000   1.0000000   1.0000000   8.0000000   1.0000000   1.0000000   8.0000000   1.0000000   1.0000000   8.0000000

  Atom       351         352         353         354         355         356         357         358         359         360
 IAtWgt=           1           1          16           1           1          16           1           1          16           1
 AtmWgt=   1.0078250   1.0078250  15.9949146   1.0078250   1.0078250  15.9949146   1.0078250   1.0078250  15.9949146   1.0078250
 NucSpn=           1           1           0           1           1           0           1           1           0           1
 AtZEff=   0.0000000   0.0000000   0.0000000   0.0000000   0.0000000   0.0000000   0.0000000   0.0000000   0.0000000   0.0000000
 NQMom=    0.0000000   0.0000000   0.0000000   0.0000000   0.0000000   0.0000000   0.0000000   0.0000000   0.0000000   0.0000000
 NMagM=    2.7928460   2.7928460   0.0000000   2.7928460   2.7928460   0.0000000   2.7928460   2.7928460   0.0000000   2.7928460
 AtZNuc=   1.0000000   1.0000000   8.0000000   1.0000000   1.0000000   8.0000000   1.0000000   1.0000000   8.0000000   1.0000000

  Atom       361         362         363         364         365         366         367         368         369         370
 IAtWgt=           1          16           1           1          16           1           1          16           1           1
 AtmWgt=   1.0078250  15.9949146   1.0078250   1.0078250  15.9949146   1.0078250   1.0078250  15.9949146   1.0078250   1.0078250
 NucSpn=           1           0           1           1           0           1           1           0           1           1
 AtZEff=   0.0000000   0.0000000   0.0000000   0.0000000   0.0000000   0.0000000   0.0000000   0.0000000   0.0000000   0.0000000
 NQMom=    0.0000000   0.0000000   0.0000000   0.0000000   0.0000000   0.0000000   0.0000000   0.0000000   0.0000000   0.0000000
 NMagM=    2.7928460   0.0000000   2.7928460   2.7928460   0.0000000   2.7928460   2.7928460   0.0000000   2.7928460   2.7928460
 AtZNuc=   1.0000000   8.0000000   1.0000000   1.0000000   8.0000000   1.0000000   1.0000000   8.0000000   1.0000000   1.0000000

  Atom       371         372         373         374         375         376         377         378         379         380
 IAtWgt=          16           1           1          16           1           1          16           1           1          16
 AtmWgt=  15.9949146   1.0078250   1.0078250  15.9949146   1.0078250   1.0078250  15.9949146   1.0078250   1.0078250  15.9949146
 NucSpn=           0           1           1           0           1           1           0           1           1           0
 AtZEff=   0.0000000   0.0000000   0.0000000   0.0000000   0.0000000   0.0000000   0.0000000   0.0000000   0.0000000   0.0000000
 NQMom=    0.0000000   0.0000000   0.0000000   0.0000000   0.0000000   0.0000000   0.0000000   0.0000000   0.0000000   0.0000000
 NMagM=    0.0000000   2.7928460   2.7928460   0.0000000   2.7928460   2.7928460   0.0000000   2.7928460   2.7928460   0.0000000
 AtZNuc=   8.0000000   1.0000000   1.0000000   8.0000000   1.0000000   1.0000000   8.0000000   1.0000000   1.0000000   8.0000000

  Atom       381         382         383         384         385
 IAtWgt=           1           1          16           1           1
 AtmWgt=   1.0078250   1.0078250  15.9949146   1.0078250   1.0078250
 NucSpn=           1           1           0           1           1
 AtZEff=   0.0000000   0.0000000   0.0000000   0.0000000   0.0000000
 NQMom=    0.0000000   0.0000000   0.0000000   0.0000000   0.0000000
 NMagM=    2.7928460   2.7928460   0.0000000   2.7928460   2.7928460
 AtZNuc=   1.0000000   1.0000000   8.0000000   1.0000000   1.0000000
 Leave Link  101 at Fri May  4 22:51:39 2018, MaxMem= 14763950080 cpu:        33.6
 (Enter /cm/shared/gaussian/g09.e01/intel64-sandybridge/g09/l103.exe)

 GradGradGradGradGradGradGradGradGradGradGradGradGradGradGradGradGradGrad
 Berny optimization.
 Initialization pass.
 Trust Radius=3.00D-01 FncErr=1.00D-07 GrdErr=1.00D-07
 Number of steps in this run=      2 maximum allowed number of steps=      2.
 GradGradGradGradGradGradGradGradGradGradGradGradGradGradGradGradGradGrad

 Leave Link  103 at Fri May  4 22:51:39 2018, MaxMem= 14763950080 cpu:         3.6
 (Enter /cm/shared/gaussian/g09.e01/intel64-sandybridge/g09/l202.exe)
 Symmetry turned off by external request.
 Stoichiometry    BrH256O128(1-)
 Framework group  C1[X(BrH256O128)]
 Deg. of freedom  1149
 Full point group                 C1      NOp   1
                          Input orientation:                          
 ---------------------------------------------------------------------
 Center     Atomic      Atomic             Coordinates (Angstroms)
 Number     Number       Type             X           Y           Z
 ---------------------------------------------------------------------
      1         35           0       20.000000   20.000000   20.000000
      2          8           0       18.940000   16.970000   20.530000
      3          1           0       19.140000   17.900000   20.370000
      4          1           0       18.780000   16.920000   21.470000
      5          8           0       22.830000   19.650000   21.560000
      6          1           0       23.490000   19.930000   20.920000
      7          1           0       22.010000   19.640000   21.060000
      8          8           0       21.240000   22.510000   18.330000
      9          1           0       20.570000   22.440000   17.650000
     10          1           0       21.030000   21.810000   18.950000
     11          8           0       19.760000   18.400000   23.340000
     12          1           0       20.180000   18.800000   24.100000
     13          1           0       19.920000   19.010000   22.620000
     14          8           0       17.780000   21.150000   23.150000
     15          1           0       18.550000   21.160000   23.710000
     16          1           0       18.110000   20.980000   22.270000
     17          8           0       16.410000   19.720000   18.430000
     18          1           0       16.770000   19.660000   17.540000
     19          1           0       17.070000   20.220000   18.910000
     20          8           0       22.930000   17.160000   20.630000
     21          1           0       23.170000   18.010000   21.000000
     22          1           0       21.980000   17.200000   20.550000
     23          8           0       22.870000   17.940000   17.690000
     24          1           0       22.760000   18.860000   17.920000
     25          1           0       23.600000   17.640000   18.240000
     26          8           0       19.950000   24.110000   20.370000
     27          1           0       19.070000   23.850000   20.090000
     28          1           0       20.530000   23.660000   19.760000
     29          8           0       17.360000   23.060000   20.780000
     30          1           0       16.930000   22.230000   20.990000
     31          1           0       17.810000   23.310000   21.580000
     32          8           0       20.540000   21.670000   23.560000
     33          1           0       21.320000   22.010000   23.130000
     34          1           0       20.310000   22.350000   24.190000
     35          8           0       17.150000   18.510000   23.180000
     36          1           0       17.090000   19.450000   23.330000
     37          1           0       18.090000   18.320000   23.180000
     38          8           0       22.280000   23.650000   22.250000
     39          1           0       21.630000   23.440000   21.580000
     40          1           0       22.020000   24.510000   22.580000
     41          8           0       19.420000   21.690000   16.190000
     42          1           0       18.520000   22.000000   16.240000
     43          1           0       19.360000   20.840000   15.750000
     44          8           0       22.860000   19.690000   24.230000
     45          1           0       22.080000   19.300000   24.630000
     46          1           0       22.740000   19.560000   23.290000
     47          8           0       20.840000   14.840000   19.390000
     48          1           0       20.360000   15.550000   19.830000
     49          1           0       20.730000   14.090000   19.970000
     50          8           0       18.560000   15.480000   17.410000
     51          1           0       17.660000   15.150000   17.470000
     52          1           0       18.590000   16.210000   18.020000
     53          8           0       24.520000   20.340000   19.260000
     54          1           0       24.830000   20.360000   18.360000
     55          1           0       25.300000   20.150000   19.780000
     56          8           0       24.300000   23.260000   20.040000
     57          1           0       24.040000   23.370000   20.950000
     58          1           0       23.910000   22.420000   19.780000
     59          8           0       15.140000   17.190000   19.380000
     60          1           0       15.610000   17.930000   19.000000
     61          1           0       15.520000   17.080000   20.250000
     62          8           0       17.530000   14.670000   20.400000
     63          1           0       18.130000   15.420000   20.410000
     64          1           0       18.050000   13.950000   20.040000
     65          8           0       19.070000   24.520000   22.830000
     66          1           0       19.490000   24.540000   21.970000
     67          1           0       19.780000   24.310000   23.440000
     68          8           0       21.740000   22.180000   14.910000
     69          1           0       21.380000   21.890000   14.070000
     70          1           0       20.990000   22.140000   15.510000
     71          8           0       15.760000   16.650000   21.930000
     72          1           0       16.160000   15.910000   22.400000
     73          1           0       16.140000   17.420000   22.350000
     74          8           0       14.570000   20.870000   20.760000
     75          1           0       13.620000   20.990000   20.670000
     76          1           0       14.950000   21.550000   20.210000
     77          8           0       23.150000   18.670000   14.980000
     78          1           0       23.020000   18.430000   15.900000
     79          1           0       22.350000   18.360000   14.540000
     80          8           0       15.060000   23.260000   19.200000
     81          1           0       14.480000   23.870000   19.650000
     82          1           0       15.930000   23.440000   19.560000
     83          8           0       24.550000   22.820000   16.980000
     84          1           0       23.760000   23.090000   16.500000
     85          1           0       24.300000   22.030000   17.440000
     86          8           0       16.530000   19.650000   15.710000
     87          1           0       15.730000   19.600000   15.190000
     88          1           0       16.770000   20.580000   15.700000
     89          8           0       17.820000   17.450000   14.600000
     90          1           0       17.350000   16.690000   14.950000
     91          1           0       17.710000   18.120000   15.270000
     92          8           0       24.670000   22.020000   23.740000
     93          1           0       25.360000   21.770000   24.350000
     94          1           0       24.100000   21.250000   23.700000
     95          8           0       14.570000   21.440000   23.550000
     96          1           0       14.740000   22.370000   23.660000
     97          1           0       15.250000   21.140000   22.940000
     98          8           0       18.840000   15.610000   23.470000
     99          1           0       19.770000   15.410000   23.540000
    100          1           0       18.630000   16.060000   24.290000
    101          8           0       21.880000   24.900000   16.190000
    102          1           0       21.840000   23.950000   16.230000
    103          1           0       22.620000   25.130000   16.750000
    104          8           0       19.410000   21.950000   26.160000
    105          1           0       20.070000   22.110000   26.840000
    106          1           0       19.790000   21.240000   25.640000
    107          8           0       17.560000   25.550000   18.410000
    108          1           0       17.780000   25.970000   19.240000
    109          1           0       18.400000   25.240000   18.070000
    110          8           0       14.160000   21.140000   17.320000
    111          1           0       14.590000   21.910000   17.700000
    112          1           0       14.780000   20.420000   17.470000
    113          8           0       16.830000   22.610000   15.740000
    114          1           0       16.640000   23.320000   16.350000
    115          1           0       16.830000   23.030000   14.880000
    116          8           0       20.470000   19.150000   25.840000
    117          1           0       19.700000   18.730000   26.230000
    118          1           0       20.910000   19.570000   26.580000
    119          8           0       23.680000   15.120000   22.470000
    120          1           0       24.070000   14.260000   22.280000
    121          1           0       23.490000   15.490000   21.610000
    122          8           0       25.060000   20.100000   16.620000
    123          1           0       24.490000   19.760000   15.920000
    124          1           0       25.820000   20.440000   16.160000
    125          8           0       23.800000   25.380000   18.420000
    126          1           0       23.970000   24.560000   18.890000
    127          1           0       24.660000   25.660000   18.110000
    128          8           0       23.340000   14.200000   18.700000
    129          1           0       23.340000   13.280000   18.430000
    130          1           0       22.420000   14.410000   18.870000
    131          8           0       20.780000   17.420000   14.160000
    132          1           0       21.040000   16.760000   13.520000
    133          1           0       19.900000   17.160000   14.440000
    134          8           0       15.860000   15.270000   17.480000
    135          1           0       15.570000   15.870000   18.170000
    136          1           0       15.620000   15.710000   16.670000
    137          8           0       25.450000   18.500000   22.940000
    138          1           0       25.280000   18.620000   23.880000
    139          1           0       25.790000   17.610000   22.870000
    140          8           0       20.790000   24.430000   24.660000
    141          1           0       21.610000   23.950000   24.760000
    142          1           0       20.470000   24.550000   25.560000
    143          8           0       20.040000   26.130000   17.580000
    144          1           0       20.710000   25.690000   17.040000
    145          1           0       20.520000   26.450000   18.340000
    146          8           0       20.850000   13.870000   15.990000
    147          1           0       20.460000   13.040000   16.280000
    148          1           0       20.460000   14.530000   16.570000
    149          8           0       16.960000   25.930000   23.070000
    150          1           0       17.570000   25.210000   23.230000
    151          1           0       16.670000   25.810000   22.160000
    152          8           0       23.180000   17.080000   25.000000
    153          1           0       23.400000   16.350000   24.410000
    154          1           0       23.870000   17.720000   24.850000
    155          8           0       26.800000   19.860000   20.830000
    156          1           0       26.420000   19.430000   21.600000
    157          1           0       27.740000   19.730000   20.920000
    158          8           0       19.640000   20.030000   13.280000
    159          1           0       18.750000   19.980000   12.950000
    160          1           0       19.940000   19.120000   13.310000
    161          8           0       12.620000   18.560000   19.570000
    162          1           0       13.490000   18.190000   19.730000
    163          1           0       12.800000   19.450000   19.250000
    164          8           0       24.990000   24.820000   23.410000
    165          1           0       24.560000   23.980000   23.280000
    166          1           0       24.270000   25.430000   23.610000
    167          8           0       21.490000   13.940000   23.900000
    168          1           0       22.140000   14.330000   23.310000
    169          1           0       21.770000   14.200000   24.780000
    170          8           0       16.680000   13.700000   23.230000
    171          1           0       16.690000   13.230000   22.390000
    172          1           0       17.390000   14.340000   23.160000
    173          8           0       23.240000   14.680000   15.370000
    174          1           0       22.300000   14.550000   15.490000
    175          1           0       23.420000   15.540000   15.760000
    176          8           0       27.090000   17.090000   19.580000
    177          1           0       26.780000   17.970000   19.810000
    178          1           0       27.860000   17.240000   19.040000
    179          8           0       25.560000   14.970000   20.220000
    180          1           0       24.820000   14.780000   19.640000
    181          1           0       25.830000   15.850000   19.980000
    182          8           0       16.330000   21.320000   26.900000
    183          1           0       17.120000   21.040000   26.440000
    184          1           0       15.640000   20.740000   26.560000
    185          8           0       26.990000   22.640000   18.560000
    186          1           0       26.640000   22.920000   19.410000
    187          1           0       26.260000   22.750000   17.950000
    188          8           0       23.170000   20.320000   12.780000
    189          1           0       23.130000   19.760000   13.550000
    190          1           0       23.010000   21.200000   13.100000
    191          8           0       14.640000   19.550000   25.440000
    192          1           0       14.030000   18.860000   25.220000
    193          1           0       14.570000   20.180000   24.720000
    194          8           0       21.690000   27.200000   19.370000
    195          1           0       21.790000   28.070000   18.990000
    196          1           0       22.500000   26.740000   19.150000
    197          8           0       14.320000   16.800000   15.440000
    198          1           0       13.750000   16.800000   14.670000
    199          1           0       14.670000   17.690000   15.480000
    200          8           0       14.580000   26.000000   18.050000
    201          1           0       13.700000   25.630000   18.050000
    202          1           0       15.150000   25.250000   18.240000
    203          8           0       21.510000   27.060000   21.990000
    204          1           0       21.830000   27.910000   22.310000
    205          1           0       21.640000   27.110000   21.050000
    206          8           0       17.130000   25.560000   15.370000
    207          1           0       17.510000   26.240000   14.810000
[...]
   Z335      33.80720  -0.00542   0.00000   0.00019   0.00028  33.80748
   X336      30.06554  -0.00525   0.00000  -0.00180  -0.00195  30.06360
   Y336      51.96747  -0.00835   0.00000  -0.00642  -0.00653  51.96094
   Z336      33.82610  -0.00277   0.00000  -0.00610  -0.00615  33.81995
   X337      32.04976   0.00482   0.00000   0.00584   0.00556  32.05532
   Y337      53.23359  -0.00602   0.00000  -0.00923  -0.00938  53.22420
   Z337      35.47016   0.00425   0.00000  -0.00112  -0.00098  35.46918
   X338      40.85588   0.00121   0.00000  -0.00354  -0.00398  40.85190
   Y338      21.14604  -0.02790   0.00000  -0.01925  -0.01961  21.12643
   Z338      44.16290  -0.00779   0.00000  -0.00463  -0.00509  44.15781
   X339      40.30786   0.00051   0.00000   0.00657   0.00606  40.31392
   Y339      22.73341   0.02113   0.00000   0.01206   0.01167  22.74508
   Z339      44.80541   0.00368   0.00000  -0.00016  -0.00060  44.80481
   X340      42.12200  -0.00532   0.00000  -0.00800  -0.00836  42.11364
   Y340      21.56178   0.00712   0.00000   0.00884   0.00855  21.57033
   Z340      42.91568   0.00135   0.00000   0.00133   0.00098  42.91666
   X341      31.31276   0.00057   0.00000  -0.00012  -0.00151  31.31125
   Y341      36.49061  -0.01306   0.00000  -0.00999  -0.01088  36.47973
   Z341      54.57529   0.00871   0.00000   0.00318   0.00264  54.57793
   X342      31.02930  -0.00132   0.00000   0.00220   0.00089  31.03019
   Y342      37.64334   0.01924   0.00000   0.02363   0.02279  37.66614
   Z342      53.19579  -0.00201   0.00000   0.00860   0.00808  53.20387
   X343      29.72539  -0.00194   0.00000  -0.00260  -0.00405  29.72134
   Y343      36.45282  -0.00011   0.00000  -0.00044  -0.00138  36.45143
   Z343      55.46346  -0.00226   0.00000  -0.00234  -0.00300  55.46046
   X344      27.21206  -0.03040   0.00000  -0.01886  -0.01953  27.19252
   Y344      25.98373   0.00839   0.00000   0.01442   0.01379  25.99752
   Z344      46.50616   0.01343   0.00000   0.01314   0.01191  46.51807
   X345      27.40103   0.00236   0.00000   0.00309   0.00230  27.40333
   Y345      25.32233  -0.00171   0.00000  -0.00258  -0.00327  25.31906
   Z345      48.18802   0.00095   0.00000   0.00327   0.00202  48.19004
   X346      28.87502   0.02219   0.00000   0.00764   0.00701  28.88203
   Y346      25.94594  -0.00018   0.00000   0.00137   0.00078  25.94672
   Z346      45.80696  -0.01318   0.00000  -0.01066  -0.01178  45.79518
   X347      51.81629   0.00848   0.00000   0.00850   0.00909  51.82538
   Y347      31.19938   0.00787   0.00000   0.00915   0.00958  31.20896
   Z347      27.60890  -0.00929   0.00000  -0.00450  -0.00381  27.60509
   X348      50.85253  -0.00847   0.00000  -0.00957  -0.00910  50.84343
   Y348      31.29386  -0.00691   0.00000  -0.01090  -0.01054  31.28332
   Z348      29.13958   0.00624   0.00000  -0.00020   0.00043  29.14000
   X349      52.72336  -0.00313   0.00000  -0.00606  -0.00547  52.71789
   Y349      29.63091  -0.00209   0.00000  -0.00147  -0.00103  29.62987
   Z349      27.76008   0.00321   0.00000   0.00297   0.00367  27.76375
   X350      52.34541  -0.00746   0.00000  -0.00816  -0.00776  52.33765
   Y350      39.06064  -0.00286   0.00000  -0.00144  -0.00105  39.05959
   Z350      28.68604  -0.00534   0.00000  -0.01418  -0.01315  28.67290
   X351      51.11709  -0.00468   0.00000  -0.00659  -0.00610  51.11099
   Y351      39.21182   0.00200   0.00000   0.00352   0.00395  39.21577
   Z351      27.34434  -0.01055   0.00000  -0.01790  -0.01695  27.32739
   X352      53.76271   0.00649   0.00000   0.00364   0.00406  53.76677
   Y352      40.02440   0.00629   0.00000   0.00612   0.00656  40.03096
   Z352      28.11912  -0.00111   0.00000  -0.00057   0.00060  28.11973
   X353      42.74561   0.00700   0.00000   0.00244   0.00276  42.74837
   Y353      22.16649   0.00203   0.00000   0.00055   0.00064  22.16713
   Z353      33.16469   0.01571   0.00000   0.01006   0.00978  33.17447
   X354      41.74405  -0.00390   0.00000  -0.00304  -0.00274  41.74131
   Y354      20.76809  -0.00730   0.00000  -0.00717  -0.00712  20.76097
   Z354      33.71271   0.00371   0.00000   0.00442   0.00401  33.71672
   X355      42.29207  -0.00043   0.00000   0.00418   0.00462  42.29669
   Y355      22.39325   0.00702   0.00000   0.00936   0.00951  22.40277
   Z355      31.44504  -0.01790   0.00000  -0.01086  -0.01117  31.43388
   X356      25.28454  -0.00324   0.00000  -0.00116  -0.00072  25.28381
   Y356      26.05932  -0.02003   0.00000  -0.01709  -0.01716  26.04217
   Z356      30.76474  -0.01596   0.00000  -0.01628  -0.01765  30.74709
   X357      25.05777   0.00327   0.00000   0.00441   0.00473  25.06250
   Y357      25.45461   0.00749   0.00000   0.00945   0.00931  25.46392
   Z357      32.46549  -0.00164   0.00000  -0.00472  -0.00613  32.45937
   X358      25.81366   0.00469   0.00000   0.00370   0.00410  25.81776
   Y358      27.77897   0.00498   0.00000  -0.00527  -0.00533  27.77364
   Z358      30.97261   0.00892   0.00000   0.01002   0.00875  30.98137
   X359      49.28406   0.01594   0.00000   0.01501   0.01574  49.29980
   Y359      39.62756   0.01887   0.00000   0.01038   0.01092  39.63847
   Z359      23.81055   0.01129   0.00000   0.02289   0.02373  23.83428
   X360      50.89032   0.00427   0.00000   0.00325   0.00402  50.89435
   Y360      38.89056  -0.00515   0.00000  -0.00766  -0.00709  38.88347
   Z360      23.41371  -0.00633   0.00000  -0.01065  -0.00973  23.40398
   X361      48.22581  -0.02178   0.00000  -0.02325  -0.02253  48.20328
   Y361      38.22916  -0.01280   0.00000  -0.00273  -0.00222  38.22693
   Z361      24.20739  -0.00183   0.00000  -0.00926  -0.00855  24.19884
   X362      41.66846  -0.00955   0.00000  -0.00610  -0.00591  41.66255
   Y362      53.04461   0.01198   0.00000   0.00659   0.00683  53.05144
   Z362      28.91281  -0.00152   0.00000  -0.00267  -0.00185  28.91096
   X363      42.38656   0.00349   0.00000   0.00366   0.00373  42.39028
   Y363      53.64932  -0.00192   0.00000  -0.00347  -0.00328  53.64604
   Z363      30.46239   0.00281   0.00000   0.00116   0.00205  30.46443
   X364      42.51884   0.00644   0.00000   0.00255   0.00278  42.52162
   Y364      51.49504  -0.01240   0.00000  -0.00788  -0.00762  51.48741
   Z364      28.57266  -0.00181   0.00000  -0.00184  -0.00103  28.57163
   X365      48.41478  -0.00736   0.00000  -0.00471  -0.00445  48.41033
   Y365      48.73604   0.00782   0.00000   0.00488   0.00521  48.74125
   Z365      28.76163  -0.01050   0.00000  -0.00984  -0.00872  28.75291
   X366      49.15178   0.00023   0.00000  -0.00524  -0.00510  49.14668
   Y366      49.00060  -0.00283   0.00000  -0.00523  -0.00495  48.99565
   Z366      30.38680   0.00988   0.00000   0.00562   0.00680  30.39360
   X367      48.86832   0.00154   0.00000  -0.00053  -0.00022  48.86810
   Y367      47.03528  -0.00795   0.00000  -0.00579  -0.00543  47.02985
   Z367      28.34589   0.00004   0.00000  -0.00014   0.00095  28.34684
   X368      50.64466  -0.00561   0.00000  -0.00259  -0.00365  50.64102
   Y368      40.51573  -0.01207   0.00000  -0.00791  -0.00832  40.50741
   Z368      49.05729  -0.00789   0.00000  -0.01006  -0.00909  49.04820
   X369      51.72180   0.00633   0.00000   0.00981   0.00886  51.73066
   Y369      40.66691   0.00133   0.00000   0.00147   0.00113  40.66804
   Z369      47.60220  -0.00224   0.00000  -0.00300  -0.00195  47.60025
   X370      51.02261   0.00067   0.00000  -0.00167  -0.00282  51.01979
   Y370      41.97082   0.00764   0.00000   0.00225   0.00181  41.97263
   Z370      50.05885   0.00432   0.00000  -0.00002   0.00103  50.05987
   X371      39.51417  -0.01137   0.00000  -0.00989  -0.01123  39.50294
   Y371      32.54108  -0.00040   0.00000   0.00592   0.00515  32.54623
   Z371      54.68867  -0.00692   0.00000   0.00082   0.00070  54.68937
   X372      39.81653   0.00262   0.00000   0.00328   0.00183  39.81836
   Y372      31.93637  -0.00725   0.00000  -0.00660  -0.00743  31.92894
   Z372      56.35163   0.01339   0.00000   0.00978   0.00966  56.36130
   X373      40.34565   0.00463   0.00000   0.00353   0.00217  40.34783
   Y373      34.14735   0.01316   0.00000   0.01258   0.01183  34.15918
   Z373      54.63198  -0.00531   0.00000  -0.00826  -0.00826  54.62372
   X374      55.65243   0.00369   0.00000   0.00177   0.00173  55.65416
   Y374      34.80876  -0.01936   0.00000  -0.01674  -0.01657  34.79218
   Z374      35.81031   0.01773   0.00000   0.00688   0.00799  35.81830
   X375      54.82096  -0.01249   0.00000  -0.00997  -0.00995  54.81101
   Y375      35.82921   0.01999   0.00000   0.01870   0.01891  35.84812
   Z375      34.56309  -0.00980   0.00000   0.00186   0.00295  34.56604
   X376      57.40988   0.00789   0.00000   0.00667   0.00665  57.41653
   Y376      34.95993  -0.00124   0.00000  -0.00360  -0.00339  34.95654
   Z376      35.43236  -0.00177   0.00000  -0.00141  -0.00018  35.43219
   X377      51.04150   0.00973   0.00000   0.00774   0.00703  51.04853
   Y377      27.43882  -0.00250   0.00000   0.00180   0.00148  27.44031
   Z377      46.78962  -0.00146   0.00000  -0.00086  -0.00036  46.78926
   X378      49.73759  -0.00512   0.00000  -0.00214  -0.00292  49.73467
   Y378      26.75852  -0.00254   0.00000  -0.00209  -0.00246  26.75606
   Z378      47.84787   0.00181   0.00000  -0.00155  -0.00117  47.84670
   X379      50.38010  -0.00637   0.00000  -0.00652  -0.00722  50.37288
   Y379      29.04509   0.00758   0.00000   0.00568   0.00538  29.05047
   Z379      46.27939  -0.00239   0.00000  -0.00254  -0.00202  46.27737
   X380      34.71427   0.00660   0.00000   0.00712   0.00586  34.72013
   Y380      51.96747   0.00612   0.00000   0.00373   0.00308  51.97055
   Z380      49.56752  -0.00101   0.00000  -0.00170  -0.00142  49.56610
   X381      34.65758  -0.00213   0.00000  -0.00140  -0.00265  34.65493
   Y381      50.17223  -0.00722   0.00000  -0.00405  -0.00470  50.16753
   Z381      49.81318   0.00182   0.00000   0.00205   0.00226  49.81544
   X382      32.97572  -0.00303   0.00000   0.00052  -0.00073  32.97499
   Y382      52.43990  -0.00145   0.00000  -0.00216  -0.00282  52.43708
   Z382      49.34075  -0.00244   0.00000  -0.00387  -0.00369  49.33705
   X383      33.33477   0.01612   0.00000   0.01610   0.01457  33.34934
   Y383      42.51884  -0.00210   0.00000   0.00269   0.00181  42.52064
   Z383      55.25559   0.01072   0.00000   0.00626   0.00609  55.26168
   X384      32.25763  -0.00605   0.00000   0.00223   0.00081  32.25844
   Y384      42.57553   0.00103   0.00000   0.00055  -0.00029  42.57524
   Z384      53.80050  -0.01231   0.00000  -0.00718  -0.00743  53.79308
   X385      32.63557  -0.00481   0.00000  -0.00464  -0.00626  32.62931
   Y385      43.74716   0.00322   0.00000   0.00316   0.00223  43.74939
   Z385      56.38943   0.00040   0.00000  -0.00054  -0.00072  56.38871
         Item               Value     Threshold  Converged?
 Maximum Force            0.038849     0.000450     NO 
 RMS     Force            0.010483     0.000300     NO 
 Maximum Displacement     0.032496     0.001800     NO 
 RMS     Displacement     0.008809     0.001200     NO 
 Predicted change in Energy=-7.369385D-02
 GradGradGradGradGradGradGradGradGradGradGradGradGradGradGradGradGradGrad

 Leave Link  103 at Sat May  5 01:04:34 2018, MaxMem= 14763950080 cpu:      2750.0
 (Enter /cm/shared/gaussian/g09.e01/intel64-sandybridge/g09/l9999.exe)
 1\1\GINC-POPLE01\Force\RPBE1PBE\CC-pVDZ\Br1H256O128(1-)\M.PELUSO\05-Ma
 y-2018\0\\#p PBE1PBE/cc-pvDZ force Counterpoise=2 noSymm\\forces on ch
 loride comput - NWATER: 128\\-1,1\Br,20.,20.,20.\O,18.94,16.97,20.53\H
 ,19.14,17.9,20.37\H,18.78,16.92,21.47\O,22.83,19.65,21.56\H,23.49,19.9
 3,20.92\H,22.01,19.64,21.06\O,21.24,22.51,18.33\H,20.57,22.44,17.65\H,
 21.03,21.81,18.95\O,19.76,18.4,23.34\H,20.18,18.8,24.1\H,19.92,19.01,2
 2.62\O,17.78,21.15,23.15\H,18.55,21.16,23.71\H,18.11,20.98,22.27\O,16.
 41,19.72,18.43\H,16.77,19.66,17.54\H,17.07,20.22,18.91\O,22.93,17.16,2
 0.63\H,23.17,18.01,21.\H,21.98,17.2,20.55\O,22.87,17.94,17.69\H,22.76,
 18.86,17.92\H,23.6,17.64,18.24\O,19.95,24.11,20.37\H,19.07,23.85,20.09
 \H,20.53,23.66,19.76\O,17.36,23.06,20.78\H,16.93,22.23,20.99\H,17.81,2
 3.31,21.58\O,20.54,21.67,23.56\H,21.32,22.01,23.13\H,20.31,22.35,24.19
 \O,17.15,18.51,23.18\H,17.09,19.45,23.33\H,18.09,18.32,23.18\O,22.28,2
 3.65,22.25\H,21.63,23.44,21.58\H,22.02,24.51,22.58\O,19.42,21.69,16.19
 \H,18.52,22.,16.24\H,19.36,20.84,15.75\O,22.86,19.69,24.23\H,22.08,19.
 3,24.63\H,22.74,19.56,23.29\O,20.84,14.84,19.39\H,20.36,15.55,19.83\H,
 20.73,14.09,19.97\O,18.56,15.48,17.41\H,17.66,15.15,17.47\H,18.59,16.2
 1,18.02\O,24.52,20.34,19.26\H,24.83,20.36,18.36\H,25.3,20.15,19.78\O,2
 4.3,23.26,20.04\H,24.04,23.37,20.95\H,23.91,22.42,19.78\O,15.14,17.19,
 19.38\H,15.61,17.93,19.\H,15.52,17.08,20.25\O,17.53,14.67,20.4\H,18.13
 ,15.42,20.41\H,18.05,13.95,20.04\O,19.07,24.52,22.83\H,19.49,24.54,21.
 97\H,19.78,24.31,23.44\O,21.74,22.18,14.91\H,21.38,21.89,14.07\H,20.99
 ,22.14,15.51\O,15.76,16.65,21.93\H,16.16,15.91,22.4\H,16.14,17.42,22.3
 5\O,14.57,20.87,20.76\H,13.62,20.99,20.67\H,14.95,21.55,20.21\O,23.15,
 18.67,14.98\H,23.02,18.43,15.9\H,22.35,18.36,14.54\O,15.06,23.26,19.2\
 H,14.48,23.87,19.65\H,15.93,23.44,19.56\O,24.55,22.82,16.98\H,23.76,23
 .09,16.5\H,24.3,22.03,17.44\O,16.53,19.65,15.71\H,15.73,19.6,15.19\H,1
 6.77,20.58,15.7\O,17.82,17.45,14.6\H,17.35,16.69,14.95\H,17.71,18.12,1
 5.27\O,24.67,22.02,23.74\H,25.36,21.77,24.35\H,24.1,21.25,23.7\O,14.57
 ,21.44,23.55\H,14.74,22.37,23.66\H,15.25,21.14,22.94\O,18.84,15.61,23.
 47\H,19.77,15.41,23.54\H,18.63,16.06,24.29\O,21.88,24.9,16.19\H,21.84,
 23.95,16.23\H,22.62,25.13,16.75\O,19.41,21.95,26.16\H,20.07,22.11,26.8
 4\H,19.79,21.24,25.64\O,17.56,25.55,18.41\H,17.78,25.97,19.24\H,18.4,2
 5.24,18.07\O,14.16,21.14,17.32\H,14.59,21.91,17.7\H,14.78,20.42,17.47\
 O,16.83,22.61,15.74\H,16.64,23.32,16.35\H,16.83,23.03,14.88\O,20.47,19
 .15,25.84\H,19.7,18.73,26.23\H,20.91,19.57,26.58\O,23.68,15.12,22.47\H
 ,24.07,14.26,22.28\H,23.49,15.49,21.61\O,25.06,20.1,16.62\H,24.49,19.7
 6,15.92\H,25.82,20.44,16.16\O,23.8,25.38,18.42\H,23.97,24.56,18.89\H,2
 4.66,25.66,18.11\O,23.34,14.2,18.7\H,23.34,13.28,18.43\H,22.42,14.41,1
 8.87\O,20.78,17.42,14.16\H,21.04,16.76,13.52\H,19.9,17.16,14.44\O,15.8
 6,15.27,17.48\H,15.57,15.87,18.17\H,15.62,15.71,16.67\O,25.45,18.5,22.
 94\H,25.28,18.62,23.88\H,25.79,17.61,22.87\O,20.79,24.43,24.66\H,21.61
 ,23.95,24.76\H,20.47,24.55,25.56\O,20.04,26.13,17.58\H,20.71,25.69,17.
 04\H,20.52,26.45,18.34\O,20.85,13.87,15.99\H,20.46,13.04,16.28\H,20.46
 ,14.53,16.57\O,16.96,25.93,23.07\H,17.57,25.21,23.23\H,16.67,25.81,22.
 16\O,23.18,17.08,25.\H,23.4,16.35,24.41\H,23.87,17.72,24.85\O,26.8,19.
 86,20.83\H,26.42,19.43,21.6\H,27.74,19.73,20.92\O,19.64,20.03,13.28\H,
 18.75,19.98,12.95\H,19.94,19.12,13.31\O,12.62,18.56,19.57\H,13.49,18.1
 9,19.73\H,12.8,19.45,19.25\O,24.99,24.82,23.41\H,24.56,23.98,23.28\H,2
 4.27,25.43,23.61\O,21.49,13.94,23.9\H,22.14,14.33,23.31\H,21.77,14.2,2
 4.78\O,16.68,13.7,23.23\H,16.69,13.23,22.39\H,17.39,14.34,23.16\O,23.2
 4,14.68,15.37\H,22.3,14.55,15.49\H,23.42,15.54,15.76\O,27.09,17.09,19.
 58\H,26.78,17.97,19.81\H,27.86,17.24,19.04\O,25.56,14.97,20.22\H,24.82
 ,14.78,19.64\H,25.83,15.85,19.98\O,16.33,21.32,26.9\H,17.12,21.04,26.4
 4\H,15.64,20.74,26.56\O,26.99,22.64,18.56\H,26.64,22.92,19.41\H,26.26,
 22.75,17.95\O,23.17,20.32,12.78\H,23.13,19.76,13.55\H,23.01,21.2,13.1\
 O,14.64,19.55,25.44\H,14.03,18.86,25.22\H,14.57,20.18,24.72\O,21.69,27
 .2,19.37\H,21.79,28.07,18.99\H,22.5,26.74,19.15\O,14.32,16.8,15.44\H,1
 3.75,16.8,14.67\H,14.67,17.69,15.48\O,14.58,26.,18.05\H,13.7,25.63,18.
 05\H,15.15,25.25,18.24\O,21.51,27.06,21.99\H,21.83,27.91,22.31\H,21.64
 ,27.11,21.05\O,17.13,25.56,15.37\H,17.51,26.24,14.81\H,17.33,25.85,16.
 26\O,17.22,24.02,26.57\H,18.15,24.21,26.48\H,17.09,23.21,26.06\O,19.82
 ,12.55,20.54\H,20.41,12.59,21.29\H,19.83,11.63,20.27\O,22.82,12.66,21.
 19\H,23.7,12.27,21.11\H,22.64,13.01,20.32\O,21.31,15.65,26.81\H,21.05,
 16.23,27.53\H,21.81,16.22,26.23\O,20.8,24.82,13.46\H,19.86,24.75,13.66
 \H,21.23,24.81,14.32\O,13.72,24.28,21.41\H,13.15,25.04,21.55\H,13.95,2
 3.98,22.28\O,24.14,21.46,27.26\H,23.41,21.49,26.64\H,24.49,22.35,27.27
 \O,25.73,15.41,16.94\H,24.96,14.92,17.24\H,26.03,15.9,17.7\O,18.25,18.
 2,27.21\H,17.4,18.44,27.56\H,18.53,17.47,27.76\O,18.39,22.94,12.64\H,1
 8.8,22.85,11.78\H,18.07,22.06,12.85\O,14.97,24.18,24.04\H,15.28,25.07,
 23.88\H,14.68,24.18,24.95\O,12.18,18.74,22.85\H,12.56,18.05,23.39\H,12
 .7,18.73,22.05\O,27.01,16.35,22.39\H,27.38,15.51,22.65\H,26.45,16.14,2
 1.64\O,15.09,13.02,19.91\H,14.62,13.49,19.21\H,15.93,13.47,19.97\O,27.
 96,20.08,17.66\H,27.8,20.11,16.71\H,27.55,20.88,17.99\O,12.69,15.33,21
 .18\H,12.47,14.79,21.94\H,13.55,15.69,21.39\O,13.25,15.08,18.57\H,13.2
 6,15.82,19.19\H,12.56,14.51,18.89\O,12.46,19.47,15.52\H,12.22,18.62,15
 .89\H,12.98,19.89,16.2\O,22.92,26.67,24.23\H,22.41,27.,23.49\H,22.27,2
 6.49,24.91\O,14.71,19.4,13.31\H,15.62,19.61,13.09\H,14.43,18.8,12.62\O
 ,17.58,27.87,20.34\H,18.45,28.02,20.71\H,17.04,28.58,20.7\O,18.47,27.9
 7,16.07\H,17.95,28.24,16.83\H,19.12,27.36,16.43\O,24.71,24.,26.53\H,24
 .71,23.78,25.6\H,25.33,24.72,26.6\O,11.86,21.35,19.81\H,10.93,21.13,19
 .93\H,11.85,22.21,19.4\O,16.9,14.85,14.07\H,16.83,14.32,14.86\H,16.13,
 14.62,13.56\O,21.47,20.13,28.25\H,22.28,20.62,28.37\H,20.89,20.46,28.9
 4\O,11.87,23.18,17.38\H,12.43,22.4,17.29\H,11.39,23.24,16.56\O,17.28,1
 9.75,12.04\H,16.93,18.86,12.12\H,17.48,19.85,11.11\O,11.87,20.96,24.45
 \H,12.72,21.18,24.07\H,11.49,20.33,23.83\O,21.88,23.44,27.66\H,22.72,2
 3.48,27.2\H,22.1,23.23,28.57\O,19.09,14.29,26.82\H,18.67,14.62,27.62\H
 ,19.86,14.85,26.71\O,19.95,14.02,13.45\H,19.02,14.02,13.67\H,20.38,13.
 72,14.26\O,11.84,17.43,17.26\H,12.26,16.58,17.14\H,12.,17.65,18.18\O,2
 4.24,23.49,12.76\H,25.,22.96,12.99\H,24.04,23.99,13.55\O,16.37,12.76,1
 5.74\H,15.48,12.45,15.9\H,16.77,12.79,16.6\O,19.65,24.98,27.53\H,20.24
 ,24.23,27.49\H,19.34,25.,28.44\O,25.87,18.35,26.09\H,25.99,19.29,26.2\
 H,26.74,18.03,25.82\O,16.76,16.77,11.7\H,16.98,16.58,12.61\H,17.6,16.9
 ,11.27\O,26.39,25.93,18.04\H,27.28,26.18,17.78\H,26.47,25.7,18.96\O,25
 .41,12.46,20.64\H,25.68,13.35,20.42\H,26.16,11.91,20.41\O,19.24,28.85,
 23.4\H,20.19,28.81,23.28\H,18.99,27.94,23.56\O,13.35,16.98,24.86\H,12.
 4,16.86,24.97\H,13.72,16.12,25.05\O,16.58,28.19,17.89\H,15.91,27.5,17.
 9\H,16.96,28.17,18.77\O,21.62,11.19,23.37\H,21.33,12.03,23.71\H,22.29,
 11.41,22.71\O,16.57,19.31,28.88\H,16.42,19.92,28.15\H,15.73,19.29,29.3
 5\O,14.4,13.75,24.61\H,14.5,13.4,25.5\H,15.28,13.73,24.24\O,27.42,16.5
 1,14.61\H,26.91,16.56,15.42\H,27.9,15.68,14.69\O,27.7,20.67,15.18\H,27
 .05,20.75,14.47\H,28.45,21.18,14.88\O,22.62,11.73,17.55\H,22.09,10.99,
 17.84\H,22.38,11.85,16.64\O,13.38,13.79,16.28\H,13.26,13.47,17.18\H,13
 .66,14.7,16.39\O,26.08,20.97,12.6\H,26.93,20.58,12.39\H,25.52,20.23,12
 .81\O,22.05,28.07,15.3\H,22.43,28.39,16.12\H,22.5,27.25,15.12\O,25.62,
 25.79,15.22\H,26.01,25.93,16.08\H,25.86,24.89,15.\O,26.8,21.44,25.96\H
 ,27.37,21.52,25.19\H,27.,22.21,26.49\O,20.91,17.22,28.94\H,21.07,16.9,
 29.82\H,21.35,18.07,28.91\O,29.45,18.42,18.95\H,29.01,18.96,18.29\H,30
 .38,18.5,18.75\O,27.01,14.52,24.76\H,26.32,14.16,25.32\H,26.66,15.37,2
 4.49\O,18.37,27.5,26.23\H,18.34,26.55,26.36\H,17.45,27.75,26.11\O,17.6
 4,22.5,29.24\H,17.07,22.53,28.47\H,17.27,23.15,29.84\\Version=ES64L-G0
 9RevE.01\HF=-9773.4557966\RMSD=1.743e-09\RMSF=1.048e-02\Dipole=9.79078
 14,2.6650605,9.7495548\Quadrupole=218.8755877,-408.3601747,189.484587,
 -897.2259534,-647.1136375,-860.500631\PG=C01 [X(Br1H256O128)]\\@


 A great many people think they are thinking when they
 are merely rearranging their prejudices.
                               -- William James
 Job cpu time:       5 days 19 hours  1 minutes 21.9 seconds.
 File lengths (MBytes):  RWF=   7285 Int=      0 D2E=      0 Chk=   2411 Scr=      1
 Normal termination of Gaussian 09 at Sat May  5 01:05:01 2018.
