 Entering Gaussian System, Link 0=/cm/shared/gaussian/g09.e01/intel64-sandybridge/g09/g09
 Initial command:
 /cm/shared/gaussian/g09.e01/intel64-sandybridge/g09/l1.exe "/local/scratch/m.peluso/128_wat/Gau-31211.inp" -scrdir="/local/scratch/m.peluso/128_wat/"
 Entering Link 1 = /cm/shared/gaussian/g09.e01/intel64-sandybridge/g09/l1.exe PID=     31212.
  
 Copyright (c) 1988,1990,1992,1993,1995,1998,2003,2009,2015,
            Gaussian, Inc.  All Rights Reserved.
  
 This is part of the Gaussian(R) 09 program.  It is based on
 the Gaussian(R) 03 system (copyright 2003, Gaussian, Inc.),
 the Gaussian(R) 98 system (copyright 1998, Gaussian, Inc.),
 the Gaussian(R) 94 system (copyright 1995, Gaussian, Inc.),
 the Gaussian 92(TM) system (copyright 1992, Gaussian, Inc.),
 the Gaussian 90(TM) system (copyright 1990, Gaussian, Inc.),
 the Gaussian 88(TM) system (copyright 1988, Gaussian, Inc.),
 the Gaussian 86(TM) system (copyright 1986, Carnegie Mellon
 University), and the Gaussian 82(TM) system (copyright 1983,
 Carnegie Mellon University). Gaussian is a federally registered
 trademark of Gaussian, Inc.
  
 This software contains proprietary and confidential information,
 including trade secrets, belonging to Gaussian, Inc.
  
 This software is provided under written license and may be
 used, copied, transmitted, or stored only in accord with that
 written license.
  
 The following legend is applicable only to US Government
 contracts under FAR:
  
                    RESTRICTED RIGHTS LEGEND
  
 Use, reproduction and disclosure by the US Government is
 subject to restrictions as set forth in subparagraphs (a)
 and (c) of the Commercial Computer Software - Restricted
 Rights clause in FAR 52.227-19.
  
 Gaussian, Inc.
 340 Quinnipiac St., Bldg. 40, Wallingford CT 06492
  
  
 ---------------------------------------------------------------
 Warning -- This program may not be used in any manner that
 competes with the business of Gaussian, Inc. or will provide
 assistance to any competitor of Gaussian, Inc.  The licensee
 of this program is prohibited from giving any competitor of
 Gaussian, Inc. access to this program.  By using this program,
 the user acknowledges that Gaussian, Inc. is engaged in the
 business of creating and licensing software in the field of
 computational chemistry and represents and warrants to the
 licensee that it is not a competitor of Gaussian, Inc. and that
 it will not use this program in any manner prohibited above.
 ---------------------------------------------------------------
  

 Cite this work as:
 Gaussian 09, Revision E.01,
 M. J. Frisch, G. W. Trucks, H. B. Schlegel, G. E. Scuseria, 
 M. A. Robb, J. R. Cheeseman, G. Scalmani, V. Barone, B. Mennucci, 
 G. A. Petersson, H. Nakatsuji, M. Caricato, X. Li, H. P. Hratchian, 
 A. F. Izmaylov, J. Bloino, G. Zheng, J. L. Sonnenberg, M. Hada, 
 M. Ehara, K. Toyota, R. Fukuda, J. Hasegawa, M. Ishida, T. Nakajima, 
 Y. Honda, O. Kitao, H. Nakai, T. Vreven, J. A. Montgomery, Jr., 
 J. E. Peralta, F. Ogliaro, M. Bearpark, J. J. Heyd, E. Brothers, 
 K. N. Kudin, V. N. Staroverov, T. Keith, R. Kobayashi, J. Normand, 
 K. Raghavachari, A. Rendell, J. C. Burant, S. S. Iyengar, J. Tomasi, 
 M. Cossi, N. Rega, J. M. Millam, M. Klene, J. E. Knox, J. B. Cross, 
 V. Bakken, C. Adamo, J. Jaramillo, R. Gomperts, R. E. Stratmann, 
 O. Yazyev, A. J. Austin, R. Cammi, C. Pomelli, J. W. Ochterski, 
 R. L. Martin, K. Morokuma, V. G. Zakrzewski, G. A. Voth, 
 P. Salvador, J. J. Dannenberg, S. Dapprich, A. D. Daniels, 
 O. Farkas, J. B. Foresman, J. V. Ortiz, J. Cioslowski, 
 and D. J. Fox, Gaussian, Inc., Wallingford CT, 2013.
 
 ******************************************
 Gaussian 09:  ES64L-G09RevE.01 30-Nov-2015
                14-May-2018 
 ******************************************
 %Mem=110GB
 %NProcShared=64
 Will use up to   64 processors via shared memory.
 %chk=snap101.chk
 ----------------------------------------------
 #p PBE1PBE/cc-pvDZ force Counterpoise=2 noSymm
 ----------------------------------------------
 1/10=7,30=1,38=1,62=2/1,3;
 2/12=2,15=1,17=6,18=5,40=1/2;
 1/10=7,30=1,38=1,53=2,62=2,63=101/22;
 3/5=16,11=2,16=1,25=1,30=1,71=1,74=-13/1,2,3;
 4//1;
 5/5=2,38=5/2;
 6/7=2,8=2,9=2,10=2,28=1/1;
 7/7=1,29=1,30=1,33=-1/1,2,3,16;
 1/10=7,30=1,53=2,62=2,63=101/22;
 3/5=7,6=11,11=2,16=1,25=1,30=1,71=1,74=-13,82=7/1,2,3;
 4//1;
 5/5=2,38=5/2;
 6/7=2,8=2,9=2,10=2,28=1/1;
 7/7=1,29=1,30=1,33=-1/1,2,3,16;
 1/10=7,30=1,53=2,62=2,63=101/22(-5);
 7/9=1,29=1,44=-1/16;
 1/10=7,30=1,62=2/3;
 99//99;
 Leave Link    1 at Mon May 14 17:12:32 2018, MaxMem= 14763950080 cpu:       342.7
 (Enter /cm/shared/gaussian/g09.e01/intel64-sandybridge/g09/l101.exe)
 ---------------------------------------
 forces on chloride comput - NWATER: 128
 ---------------------------------------
 Symbolic Z-matrix:
 Charge = -1 Multiplicity = 1 in supermolecule
 Charge = -1 Multiplicity = 1 in fragment      1.
 Charge =  0 Multiplicity = 1 in fragment      2.
 Br(Fragment=1)        20.       20.       20. 
 O(Fragment=2)         22.01     17.77     20.54 
 H(Fragment=2)         21.4      18.51     20.64 
 H(Fragment=2)         22.3      17.81     19.63 
 O(Fragment=2)         17.92     21.54     18.14 
 H(Fragment=2)         17.37     20.77     18.26 
 H(Fragment=2)         18.76     21.31     18.55 
 O(Fragment=2)         22.94     21.55     20.2 
 H(Fragment=2)         22.07     21.16     20.21 
 H(Fragment=2)         23.54     20.8      20.19 
 O(Fragment=2)         18.52     22.69     21.3 
 H(Fragment=2)         18.99     21.86     21.23 
 H(Fragment=2)         17.6      22.45     21.24 
 O(Fragment=2)         19.59     20.18     23.38 
 H(Fragment=2)         19.31     20.15     22.47 
 H(Fragment=2)         20.55     20.23     23.34 
 O(Fragment=2)         18.15     17.27     20.41 
 H(Fragment=2)         18.16     18.22     20.32 
 H(Fragment=2)         19.05     17.03     20.61 
 O(Fragment=2)         19.44     17.64     17.44 
 H(Fragment=2)         19.46     18.2      18.22 
 H(Fragment=2)         18.71     17.99     16.92 
 O(Fragment=2)         21.21     21.33     16.74 
 H(Fragment=2)         20.45     20.75     16.72 
 H(Fragment=2)         20.89     22.13     17.16 
 O(Fragment=2)         20.26     24.01     18.67 
 H(Fragment=2)         20.97     24.54     19.02 
 H(Fragment=2)         20.01     23.44     19.39 
 O(Fragment=2)         23.28     19.38     17.95 
 H(Fragment=2)         22.52     19.7      17.46 
 H(Fragment=2)         23.91     20.1      17.93 
 O(Fragment=2)         21.46     17.61     24.03 
 H(Fragment=2)         22.28     17.9      24.42 
 H(Fragment=2)         21.58     17.75     23.09 
 O(Fragment=2)         15.99     19.04     21.2 
 H(Fragment=2)         16.1      18.48     21.97 
 H(Fragment=2)         15.88     19.92     21.56 
 O(Fragment=2)         23.21     19.97     23.21 
 H(Fragment=2)         23.91     20.07     23.86 
 H(Fragment=2)         22.68     20.75     23.3 
 O(Fragment=2)         15.46     19.32     18.53 
 H(Fragment=2)         15.79     19.11     19.4 
 H(Fragment=2)         15.74     18.59     17.98 
 O(Fragment=2)         21.53     22.13     23.71 
 H(Fragment=2)         21.97     22.96     23.53 
 H(Fragment=2)         20.76     22.37     24.22 
 O(Fragment=2)         17.71     19.41     16.01 
 H(Fragment=2)         17.47     18.93     15.21 
 H(Fragment=2)         17.93     20.29     15.7 
 O(Fragment=2)         19.32     24.79     22.79 
 H(Fragment=2)         19.01     24.       22.35 
 H(Fragment=2)         19.9      24.46     23.48 
 O(Fragment=2)         15.92     21.87     21.58 
 H(Fragment=2)         15.72     22.8      21.66 
 H(Fragment=2)         15.13     21.49     21.2 
 O(Fragment=2)         15.92     23.53     18.34 
 H(Fragment=2)         16.65     22.92     18.25 
 H(Fragment=2)         16.19     24.13     19.03 
 O(Fragment=2)         25.04     18.21     21.7 
 H(Fragment=2)         25.22     19.13     21.51 
 H(Fragment=2)         24.09     18.17     21.79 
 O(Fragment=2)         21.78     16.71     15.78 
 H(Fragment=2)         22.28     16.51     16.57 
 H(Fragment=2)         20.98     17.13     16.1 
 O(Fragment=2)         24.63     23.17     18.41 
 H(Fragment=2)         24.11     22.61     18.99 
 H(Fragment=2)         25.42     23.36     18.92 
 O(Fragment=2)         19.35     24.12     15.96 
 H(Fragment=2)         19.67     23.87     16.82 
 H(Fragment=2)         18.7      24.79     16.13 
 O(Fragment=2)         23.35     15.41     21.58 
 H(Fragment=2)         23.02     16.3      21.64 
 H(Fragment=2)         23.64     15.32     20.67 
 O(Fragment=2)         17.95     15.1      18.22 
 H(Fragment=2)         18.87     15.34     18.28 
 H(Fragment=2)         17.83     14.41     18.87 
 O(Fragment=2)         18.61     19.82     25.93 
 H(Fragment=2)         18.83     20.09     25.03 
 H(Fragment=2)         18.99     20.5      26.48 
 O(Fragment=2)         17.04     22.2      24.31 
 H(Fragment=2)         17.34     22.68     23.54 
 H(Fragment=2)         16.71     21.37     23.96 
 O(Fragment=2)         16.25     17.01     17.51 
 H(Fragment=2)         16.12     16.69     16.62 
 H(Fragment=2)         16.92     16.42     17.88 
 O(Fragment=2)         24.07     16.82     17.39 
 H(Fragment=2)         23.93     17.77     17.39 
 H(Fragment=2)         24.88     16.7      16.89 
 O(Fragment=2)         25.04     22.66     22.36 
 H(Fragment=2)         24.22     22.21     22.15 
 H(Fragment=2)         24.75     23.49     22.75 
 O(Fragment=2)         16.05     15.39     21.53 
 H(Fragment=2)         16.61     16.05     21.12 
 H(Fragment=2)         16.62     14.96     22.17 
 O(Fragment=2)         16.19     19.73     23.91 
 H(Fragment=2)         16.84     19.22     24.4 
 H(Fragment=2)         15.49     19.91     24.53 
 O(Fragment=2)         22.32     23.1      14.84 
 H(Fragment=2)         21.95     22.52     15.5 
 H(Fragment=2)         22.91     23.67     15.33 
 O(Fragment=2)         22.54     24.39     22.84 
 H(Fragment=2)         22.58     24.55     21.9 
 H(Fragment=2)         22.62     25.26     23.24 
 O(Fragment=2)         19.6      15.61     24.64 
 H(Fragment=2)         20.07     16.33     24.22 
 H(Fragment=2)         20.21     15.26     25.29 
 O(Fragment=2)         13.94     21.69     18.68 
 H(Fragment=2)         14.64     21.04     18.57 
 H(Fragment=2)         14.39     22.53     18.56 
 O(Fragment=2)         20.15     25.97     20.57 
 H(Fragment=2)         19.94     25.48     21.37 
 H(Fragment=2)         21.1      26.03     20.56 
 O(Fragment=2)         18.16     21.88     14.71 
 H(Fragment=2)         18.59     22.73     14.76 
 H(Fragment=2)         17.61     21.94     13.93 
 O(Fragment=2)         25.89     20.69     19.76 
 H(Fragment=2)         26.41     21.37     20.18 
 H(Fragment=2)         26.01     20.84     18.82 
 O(Fragment=2)         17.3      25.66     19.45 
 H(Fragment=2)         17.84     25.43     18.7 
 H(Fragment=2)         17.94     25.88     20.14 
 O(Fragment=2)         23.73     14.87     19.11 
 H(Fragment=2)         23.26     14.32     18.48 
 H(Fragment=2)         24.02     15.63     18.59 
 O(Fragment=2)         15.44     22.98     15.73 
 H(Fragment=2)         16.14     22.82     15.09 
 H(Fragment=2)         15.88     22.95     16.58 
 O(Fragment=2)         22.56     20.17     13.94 
 H(Fragment=2)         23.19     20.39     14.63 
 H(Fragment=2)         22.02     20.96     13.85 
 O(Fragment=2)         21.72     13.02     20.58 
 H(Fragment=2)         22.55     12.7      20.94 
 H(Fragment=2)         21.81     13.98     20.59 
 O(Fragment=2)         19.26     14.97     15.61 
 H(Fragment=2)         18.69     14.98     16.38 
 H(Fragment=2)         19.05     15.77     15.14 
 O(Fragment=2)         18.51     13.58     20.54 
 H(Fragment=2)         19.43     13.37     20.66 
 H(Fragment=2)         18.26     14.06     21.33 
 O(Fragment=2)         17.43     17.44     25.22 
 H(Fragment=2)         17.92     18.12     25.68 
 H(Fragment=2)         18.01     16.68     25.22 
 O(Fragment=2)         22.63     25.78     19.92 
 H(Fragment=2)         22.55     26.48     19.27 
 H(Fragment=2)         23.57     25.62     19.98 
 O(Fragment=2)         19.6      19.1      12.66 
 H(Fragment=2)         19.57     18.9      13.6 
 H(Fragment=2)         18.88     18.58     12.29 
 O(Fragment=2)         24.52     24.38     16.06 
 H(Fragment=2)         25.37     24.81     16.15 
 H(Fragment=2)         24.37     23.97     16.92 
 O(Fragment=2)         24.14     17.02     24.69 
 H(Fragment=2)         23.56     16.34     24.32 
 H(Fragment=2)         24.94     16.95     24.17 
 O(Fragment=2)         17.72     17.2      14.36 
 H(Fragment=2)         17.68     17.07     13.42 
 H(Fragment=2)         16.98     16.69     14.7 
 O(Fragment=2)         13.71     16.46     18.38 
 H(Fragment=2)         13.31     17.02     17.72 
 H(Fragment=2)         14.63     16.41     18.13 
 O(Fragment=2)         15.12     24.47     21.23 
 H(Fragment=2)         15.62     25.2      20.86 
 H(Fragment=2)         14.65     24.85     21.97 
 O(Fragment=2)         13.65     16.85     21.75 
 H(Fragment=2)         13.83     16.54     22.64 
 H(Fragment=2)         14.32     16.43     21.21 
 O(Fragment=2)         14.75     20.4      14.77 
 H(Fragment=2)         14.18     20.97     14.26 
 H(Fragment=2)         15.6      20.84     14.78 
 O(Fragment=2)         13.23     18.92     16.91 
 H(Fragment=2)         14.01     19.2      16.42 
 H(Fragment=2)         13.53     18.88     17.82 
 O(Fragment=2)         20.46     24.33     25.39 
 H(Fragment=2)         21.33     24.67     25.14 
 H(Fragment=2)         20.54     24.17     26.33 
 O(Fragment=2)         17.77     13.89     23.37 
 H(Fragment=2)         17.91     13.05     23.82 
 H(Fragment=2)         18.25     14.52     23.89 
 O(Fragment=2)         24.56     18.22     14.17 
 H(Fragment=2)         24.44     19.04     14.66 
 H(Fragment=2)         23.83     18.2      13.55 
 O(Fragment=2)         22.93     14.54     24.33 
 H(Fragment=2)         22.72     14.41     23.41 
 H(Fragment=2)         23.14     13.66     24.65 
 O(Fragment=2)         25.04     21.09     15.12 
 H(Fragment=2)         25.83     20.98     14.58 
 H(Fragment=2)         24.98     22.03     15.25 
 O(Fragment=2)         13.22     21.93     22.35 
 H(Fragment=2)         13.69     22.66     21.94 
 H(Fragment=2)         12.58     22.35     22.92 
 O(Fragment=2)         17.59     26.94     23.02 
 H(Fragment=2)         17.22     26.72     23.88 
 H(Fragment=2)         18.28     26.29     22.88 
 O(Fragment=2)         19.71     17.21     27.57 
 H(Fragment=2)         19.63     17.62     26.71 
 H(Fragment=2)         20.58     17.47     27.89 
 O(Fragment=2)         26.62     20.78     17.15 
 H(Fragment=2)         27.5      20.64     16.79 
 H(Fragment=2)         26.1      21.04     16.39 
 O(Fragment=2)         12.24     19.4      21.66 
 H(Fragment=2)         12.9      20.       21.31 
 H(Fragment=2)         12.64     18.54     21.59 
 O(Fragment=2)         25.42     20.43     24.86 
 H(Fragment=2)         26.28     20.09     25.1 
 H(Fragment=2)         25.6      21.24     24.39 
 O(Fragment=2)         14.83     23.96     24.87 
 H(Fragment=2)         14.47     23.62     25.69 
 H(Fragment=2)         15.53     23.36     24.64 
 O(Fragment=2)         17.27     22.8      27.06 
 H(Fragment=2)         18.1      23.27     27.07 
 H(Fragment=2)         17.09     22.65     26.13 
 O(Fragment=2)         20.6      21.64     12.48 
 H(Fragment=2)         20.39     20.74     12.73 
 H(Fragment=2)         19.87     22.16     12.82 
 O(Fragment=2)         20.8      24.91     13.74 
 H(Fragment=2)         20.3      24.91     14.56 
 H(Fragment=2)         21.4      24.17     13.82 
 O(Fragment=2)         14.52     25.4      16.94 
 H(Fragment=2)         14.83     26.14     17.47 
 H(Fragment=2)         14.99     24.64     17.28 
 O(Fragment=2)         26.06     14.91     22.37 
 H(Fragment=2)         25.21     15.11     21.99 
 H(Fragment=2)         26.61     14.67     21.62 
 O(Fragment=2)         27.74     17.22     21.14 
 H(Fragment=2)         27.51     16.35     20.83 
 H(Fragment=2)         26.9      17.61     21.41 
 O(Fragment=2)         21.52     14.89     13.55 
 H(Fragment=2)         20.79     14.31     13.76 
 H(Fragment=2)         21.46     15.59     14.19 
 O(Fragment=2)         17.17     25.74     16.06 
 H(Fragment=2)         17.02     26.67     16.23 
 H(Fragment=2)         16.33     25.33     16.23 
 O(Fragment=2)         20.76     21.47     27.31 
 H(Fragment=2)         20.25     21.5      28.12 
 H(Fragment=2)         21.66     21.31     27.61 
 O(Fragment=2)         27.46     21.32     22.52 
 H(Fragment=2)         26.78     21.99     22.5 
 H(Fragment=2)         27.09     20.62     23.05 
 O(Fragment=2)         15.21     13.13     20.42 
 H(Fragment=2)         16.02     12.7      20.17 
 H(Fragment=2)         15.46     14.04     20.61 
 O(Fragment=2)         25.27     25.62     20.92 
 H(Fragment=2)         25.8      26.26     21.38 
 H(Fragment=2)         25.82     24.84     20.88 
 O(Fragment=2)         21.36     12.8      15.88 
 H(Fragment=2)         21.22     12.41     15.02 
 H(Fragment=2)         20.77     13.55     15.9 
 O(Fragment=2)         19.6      28.16     18.76 
 H(Fragment=2)         20.2      27.67     18.19 
 H(Fragment=2)         19.66     27.72     19.61 
 O(Fragment=2)         13.83     20.6      25.15 
 H(Fragment=2)         13.55     20.76     24.25 
 H(Fragment=2)         13.15     21.02     25.68 
 O(Fragment=2)         28.49     18.99     18.64 
 H(Fragment=2)         28.62     18.97     19.58 
 H(Fragment=2)         27.63     19.38     18.52 
 O(Fragment=2)         15.5      15.72     15.28 
 H(Fragment=2)         15.65     14.87     15.67 
 H(Fragment=2)         14.58     15.7      14.99 
 O(Fragment=2)         22.99     18.26     12.07 
 H(Fragment=2)         22.24     18.3      12.66 
 H(Fragment=2)         22.86     18.98     11.46 
 O(Fragment=2)         14.25     15.68     24.14 
 H(Fragment=2)         14.59     14.82     23.89 
 H(Fragment=2)         14.96     16.07     24.65 
 O(Fragment=2)         11.32     21.14     18.46 
 H(Fragment=2)         12.26     21.35     18.49 
 H(Fragment=2)         11.27     20.31     17.98 
 O(Fragment=2)         27.42     23.12     20.22 
 H(Fragment=2)         27.53     22.72     21.08 
 H(Fragment=2)         28.3      23.18     19.87 
 O(Fragment=2)         15.06     27.31     18.93 
 H(Fragment=2)         15.48     27.83     18.24 
 H(Fragment=2)         15.79     26.9      19.39 
 O(Fragment=2)         21.8      27.48     17.44 
 H(Fragment=2)         21.66     27.3      16.51 
 H(Fragment=2)         22.75     27.42     17.55 
 O(Fragment=2)         20.       11.12     19.56 
 H(Fragment=2)         20.58     11.87     19.71 
 H(Fragment=2)         20.59     10.38     19.41 
 O(Fragment=2)         16.78     20.74     12.29 
 H(Fragment=2)         16.42     19.93     12.65 
 H(Fragment=2)         17.4      20.44     11.63 
 O(Fragment=2)         24.42     15.23     13.81 
 H(Fragment=2)         23.75     15.89     13.97 
 H(Fragment=2)         25.19     15.74     13.54 
 O(Fragment=2)         26.26     16.81     15.56 
 H(Fragment=2)         27.12     17.23     15.6 
 H(Fragment=2)         25.8      17.28     14.85 
 O(Fragment=2)         22.03     28.3      21.31 
 H(Fragment=2)         21.4      28.43     22.03 
 H(Fragment=2)         22.63     27.63     21.62 
 O(Fragment=2)         24.1      13.39     16.48 
 H(Fragment=2)         24.06     13.97     15.71 
 H(Fragment=2)         23.21     13.05     16.57 
 O(Fragment=2)         25.34     24.87     24.74 
 H(Fragment=2)         24.46     25.24     24.8 
 H(Fragment=2)         25.87     25.58     24.38 
 O(Fragment=2)         17.12     11.78     18.43 
 H(Fragment=2)         18.03     11.75     18.73 
 H(Fragment=2)         17.11     12.45     17.75 
 O(Fragment=2)         24.37     26.97     18.01 
 H(Fragment=2)         24.89     26.44     17.41 
 H(Fragment=2)         24.96     27.67     18.3 
 O(Fragment=2)         16.74     23.76     13.15 
 H(Fragment=2)         16.77     23.69     12.19 
 H(Fragment=2)         16.48     24.67     13.31 
 O(Fragment=2)         23.73     26.98     23.05 
 H(Fragment=2)         23.64     27.76     23.58 
 H(Fragment=2)         24.59     27.05     22.64 
 O(Fragment=2)         15.57     16.54     27.42 
 H(Fragment=2)         14.93     17.25     27.34 
 H(Fragment=2)         15.91     16.42     26.54 
 O(Fragment=2)         26.56     14.42     17.13 
 H(Fragment=2)         26.57     15.22     16.6 
 H(Fragment=2)         25.63     14.18     17.18 
 O(Fragment=2)         24.31     25.6      13.76 
 H(Fragment=2)         24.06     24.83     13.26 
 H(Fragment=2)         24.14     25.37     14.67 
 O(Fragment=2)         12.39     22.9      16. 
 H(Fragment=2)         12.05     23.34     16.78 
 H(Fragment=2)         13.21     23.35     15.81 
 O(Fragment=2)         22.73     25.82     25.84 
 H(Fragment=2)         22.5      26.75     25.92 
 H(Fragment=2)         23.05     25.58     26.71 
 O(Fragment=2)         13.65     18.49     26.67 
 H(Fragment=2)         13.8      19.18     26.04 
 H(Fragment=2)         12.85     18.06     26.37 
 O(Fragment=2)         19.25     26.66     26.88 
 H(Fragment=2)         19.73     26.62     27.7 
 H(Fragment=2)         19.43     25.82     26.45 
 O(Fragment=2)         25.07     16.92     27.51 
 H(Fragment=2)         24.93     17.15     26.59 
 H(Fragment=2)         24.94     15.97     27.54 
 O(Fragment=2)         23.14     21.91     11.43 
 H(Fragment=2)         22.26     21.85     11.79 
 H(Fragment=2)         23.58     22.57     11.97 
 O(Fragment=2)         13.72     25.78     23.39 
 H(Fragment=2)         14.12     25.1      23.94 
 H(Fragment=2)         13.5      26.48     24. 
 O(Fragment=2)         19.7      28.95     22.82 
 H(Fragment=2)         18.98     28.38     22.57 
 H(Fragment=2)         19.67     29.67     22.19 
 O(Fragment=2)         16.88     18.98     28.46 
 H(Fragment=2)         17.81     18.74     28.48 
 H(Fragment=2)         16.47     18.28     27.95 
 O(Fragment=2)         19.17     11.24     22.18 
 H(Fragment=2)         19.39     11.25     21.25 
 H(Fragment=2)         18.28     11.58     22.23 
 O(Fragment=2)         20.8      27.39     14.88 
 H(Fragment=2)         20.16     27.93     14.42 
 H(Fragment=2)         21.01     26.69     14.27 
 O(Fragment=2)         27.38     14.85     20.02 
 H(Fragment=2)         27.87     14.05     20.24 
 H(Fragment=2)         27.1      14.71     19.11 
 O(Fragment=2)         22.38     13.94     27.21 
 H(Fragment=2)         23.18     13.66     27.65 
 H(Fragment=2)         22.68     14.65     26.63 
 O(Fragment=2)         11.48     20.47     15.03 
 H(Fragment=2)         11.33     21.33     15.42 
 H(Fragment=2)         12.34     20.2      15.37 
 O(Fragment=2)         11.31     19.06     24.44 
 H(Fragment=2)         10.41     19.       24.12 
 H(Fragment=2)         11.84     19.15     23.64 
 O(Fragment=2)         15.41     21.17     28.43 
 H(Fragment=2)         15.94     20.38     28.45 
 H(Fragment=2)         15.9      21.76     27.85 
 O(Fragment=2)         15.6      13.24     15.91 
 H(Fragment=2)         14.94     12.65     16.29 
 H(Fragment=2)         15.69     12.95     15. 
 O(Fragment=2)         10.86     16.17     21.15 
 H(Fragment=2)         11.76     16.48     21.23 
 H(Fragment=2)         10.8      15.81     20.26 
 O(Fragment=2)         18.64     14.95     28.26 
 H(Fragment=2)         19.1      15.72     27.94 
 H(Fragment=2)         17.83     14.93     27.76 
 O(Fragment=2)         17.38     17.4      11.72 
 H(Fragment=2)         17.66     16.62     11.24 
 H(Fragment=2)         16.97     17.95     11.04 
 O(Fragment=2)         29.35     19.58     21.54 
 H(Fragment=2)         28.94     18.83     21.97 
 H(Fragment=2)         28.87     20.34     21.88 
 O(Fragment=2)         11.9      24.7      18.48 
 H(Fragment=2)         12.11     24.45     19.38 
 H(Fragment=2)         12.44     25.47     18.31 
 
 NAtoms=    385 NQM=      385 NQMF=       0 NMMI=      0 NMMIF=      0
                NMic=       0 NMicF=      0.
                    Isotopes and Nuclear Properties:
 (Nuclear quadrupole moments (NQMom) in fm**2, nuclear magnetic moments (NMagM)
  in nuclear magnetons)

  Atom         1           2           3           4           5           6           7           8           9          10
 IAtWgt=          79          16           1           1          16           1           1          16           1           1
 AtmWgt=  78.9183361  15.9949146   1.0078250   1.0078250  15.9949146   1.0078250   1.0078250  15.9949146   1.0078250   1.0078250
 NucSpn=           3           0           1           1           0           1           1           0           1           1
 AtZEff=   0.0000000   0.0000000   0.0000000   0.0000000   0.0000000   0.0000000   0.0000000   0.0000000   0.0000000   0.0000000
 NQMom=   31.3000000   0.0000000   0.0000000   0.0000000   0.0000000   0.0000000   0.0000000   0.0000000   0.0000000   0.0000000
 NMagM=    2.1063990   0.0000000   2.7928460   2.7928460   0.0000000   2.7928460   2.7928460   0.0000000   2.7928460   2.7928460
 AtZNuc=  35.0000000   8.0000000   1.0000000   1.0000000   8.0000000   1.0000000   1.0000000   8.0000000   1.0000000   1.0000000

  Atom        11          12          13          14          15          16          17          18          19          20
 IAtWgt=          16           1           1          16           1           1          16           1           1          16
 AtmWgt=  15.9949146   1.0078250   1.0078250  15.9949146   1.0078250   1.0078250  15.9949146   1.0078250   1.0078250  15.9949146
 NucSpn=           0           1           1           0           1           1           0           1           1           0
 AtZEff=   0.0000000   0.0000000   0.0000000   0.0000000   0.0000000   0.0000000   0.0000000   0.0000000   0.0000000   0.0000000
 NQMom=    0.0000000   0.0000000   0.0000000   0.0000000   0.0000000   0.0000000   0.0000000   0.0000000   0.0000000   0.0000000
 NMagM=    0.0000000   2.7928460   2.7928460   0.0000000   2.7928460   2.7928460   0.0000000   2.7928460   2.7928460   0.0000000
 AtZNuc=   8.0000000   1.0000000   1.0000000   8.0000000   1.0000000   1.0000000   8.0000000   1.0000000   1.0000000   8.0000000

  Atom        21          22          23          24          25          26          27          28          29          30
 IAtWgt=           1           1          16           1           1          16           1           1          16           1
 AtmWgt=   1.0078250   1.0078250  15.9949146   1.0078250   1.0078250  15.9949146   1.0078250   1.0078250  15.9949146   1.0078250
 NucSpn=           1           1           0           1           1           0           1           1           0           1
 AtZEff=   0.0000000   0.0000000   0.0000000   0.0000000   0.0000000   0.0000000   0.0000000   0.0000000   0.0000000   0.0000000
 NQMom=    0.0000000   0.0000000   0.0000000   0.0000000   0.0000000   0.0000000   0.0000000   0.0000000   0.0000000   0.0000000
 NMagM=    2.7928460   2.7928460   0.0000000   2.7928460   2.7928460   0.0000000   2.7928460   2.7928460   0.0000000   2.7928460
 AtZNuc=   1.0000000   1.0000000   8.0000000   1.0000000   1.0000000   8.0000000   1.0000000   1.0000000   8.0000000   1.0000000

  Atom        31          32          33          34          35          36          37          38          39          40
 IAtWgt=           1          16           1           1          16           1           1          16           1           1
 AtmWgt=   1.0078250  15.9949146   1.0078250   1.0078250  15.9949146   1.0078250   1.0078250  15.9949146   1.0078250   1.0078250
 NucSpn=           1           0           1           1           0           1           1           0           1           1
 AtZEff=   0.0000000   0.0000000   0.0000000   0.0000000   0.0000000   0.0000000   0.0000000   0.0000000   0.0000000   0.0000000
 NQMom=    0.0000000   0.0000000   0.0000000   0.0000000   0.0000000   0.0000000   0.0000000   0.0000000   0.0000000   0.0000000
 NMagM=    2.7928460   0.0000000   2.7928460   2.7928460   0.0000000   2.7928460   2.7928460   0.0000000   2.7928460   2.7928460
 AtZNuc=   1.0000000   8.0000000   1.0000000   1.0000000   8.0000000   1.0000000   1.0000000   8.0000000   1.0000000   1.0000000

  Atom        41          42          43          44          45          46          47          48          49          50
 IAtWgt=          16           1           1          16           1           1          16           1           1          16
 AtmWgt=  15.9949146   1.0078250   1.0078250  15.9949146   1.0078250   1.0078250  15.9949146   1.0078250   1.0078250  15.9949146
 NucSpn=           0           1           1           0           1           1           0           1           1           0
 AtZEff=   0.0000000   0.0000000   0.0000000   0.0000000   0.0000000   0.0000000   0.0000000   0.0000000   0.0000000   0.0000000
 NQMom=    0.0000000   0.0000000   0.0000000   0.0000000   0.0000000   0.0000000   0.0000000   0.0000000   0.0000000   0.0000000
 NMagM=    0.0000000   2.7928460   2.7928460   0.0000000   2.7928460   2.7928460   0.0000000   2.7928460   2.7928460   0.0000000
 AtZNuc=   8.0000000   1.0000000   1.0000000   8.0000000   1.0000000   1.0000000   8.0000000   1.0000000   1.0000000   8.0000000

  Atom        51          52          53          54          55          56          57          58          59          60
 IAtWgt=           1           1          16           1           1          16           1           1          16           1
 AtmWgt=   1.0078250   1.0078250  15.9949146   1.0078250   1.0078250  15.9949146   1.0078250   1.0078250  15.9949146   1.0078250
 NucSpn=           1           1           0           1           1           0           1           1           0           1
 AtZEff=   0.0000000   0.0000000   0.0000000   0.0000000   0.0000000   0.0000000   0.0000000   0.0000000   0.0000000   0.0000000
 NQMom=    0.0000000   0.0000000   0.0000000   0.0000000   0.0000000   0.0000000   0.0000000   0.0000000   0.0000000   0.0000000
 NMagM=    2.7928460   2.7928460   0.0000000   2.7928460   2.7928460   0.0000000   2.7928460   2.7928460   0.0000000   2.7928460
 AtZNuc=   1.0000000   1.0000000   8.0000000   1.0000000   1.0000000   8.0000000   1.0000000   1.0000000   8.0000000   1.0000000

  Atom        61          62          63          64          65          66          67          68          69          70
 IAtWgt=           1          16           1           1          16           1           1          16           1           1
 AtmWgt=   1.0078250  15.9949146   1.0078250   1.0078250  15.9949146   1.0078250   1.0078250  15.9949146   1.0078250   1.0078250
 NucSpn=           1           0           1           1           0           1           1           0           1           1
 AtZEff=   0.0000000   0.0000000   0.0000000   0.0000000   0.0000000   0.0000000   0.0000000   0.0000000   0.0000000   0.0000000
 NQMom=    0.0000000   0.0000000   0.0000000   0.0000000   0.0000000   0.0000000   0.0000000   0.0000000   0.0000000   0.0000000
 NMagM=    2.7928460   0.0000000   2.7928460   2.7928460   0.0000000   2.7928460   2.7928460   0.0000000   2.7928460   2.7928460
 AtZNuc=   1.0000000   8.0000000   1.0000000   1.0000000   8.0000000   1.0000000   1.0000000   8.0000000   1.0000000   1.0000000

  Atom        71          72          73          74          75          76          77          78          79          80
 IAtWgt=          16           1           1          16           1           1          16           1           1          16
 AtmWgt=  15.9949146   1.0078250   1.0078250  15.9949146   1.0078250   1.0078250  15.9949146   1.0078250   1.0078250  15.9949146
 NucSpn=           0           1           1           0           1           1           0           1           1           0
 AtZEff=   0.0000000   0.0000000   0.0000000   0.0000000   0.0000000   0.0000000   0.0000000   0.0000000   0.0000000   0.0000000
 NQMom=    0.0000000   0.0000000   0.0000000   0.0000000   0.0000000   0.0000000   0.0000000   0.0000000   0.0000000   0.0000000
 NMagM=    0.0000000   2.7928460   2.7928460   0.0000000   2.7928460   2.7928460   0.0000000   2.7928460   2.7928460   0.0000000
 AtZNuc=   8.0000000   1.0000000   1.0000000   8.0000000   1.0000000   1.0000000   8.0000000   1.0000000   1.0000000   8.0000000

  Atom        81          82          83          84          85          86          87          88          89          90
 IAtWgt=           1           1          16           1           1          16           1           1          16           1
 AtmWgt=   1.0078250   1.0078250  15.9949146   1.0078250   1.0078250  15.9949146   1.0078250   1.0078250  15.9949146   1.0078250
 NucSpn=           1           1           0           1           1           0           1           1           0           1
 AtZEff=   0.0000000   0.0000000   0.0000000   0.0000000   0.0000000   0.0000000   0.0000000   0.0000000   0.0000000   0.0000000
 NQMom=    0.0000000   0.0000000   0.0000000   0.0000000   0.0000000   0.0000000   0.0000000   0.0000000   0.0000000   0.0000000
 NMagM=    2.7928460   2.7928460   0.0000000   2.7928460   2.7928460   0.0000000   2.7928460   2.7928460   0.0000000   2.7928460
 AtZNuc=   1.0000000   1.0000000   8.0000000   1.0000000   1.0000000   8.0000000   1.0000000   1.0000000   8.0000000   1.0000000

  Atom        91          92          93          94          95          96          97          98          99         100
 IAtWgt=           1          16           1           1          16           1           1          16           1           1
 AtmWgt=   1.0078250  15.9949146   1.0078250   1.0078250  15.9949146   1.0078250   1.0078250  15.9949146   1.0078250   1.0078250
 NucSpn=           1           0           1           1           0           1           1           0           1           1
 AtZEff=   0.0000000   0.0000000   0.0000000   0.0000000   0.0000000   0.0000000   0.0000000   0.0000000   0.0000000   0.0000000
 NQMom=    0.0000000   0.0000000   0.0000000   0.0000000   0.0000000   0.0000000   0.0000000   0.0000000   0.0000000   0.0000000
 NMagM=    2.7928460   0.0000000   2.7928460   2.7928460   0.0000000   2.7928460   2.7928460   0.0000000   2.7928460   2.7928460
 AtZNuc=   1.0000000   8.0000000   1.0000000   1.0000000   8.0000000   1.0000000   1.0000000   8.0000000   1.0000000   1.0000000

  Atom       101         102         103         104         105         106         107         108         109         110
 IAtWgt=          16           1           1          16           1           1          16           1           1          16
 AtmWgt=  15.9949146   1.0078250   1.0078250  15.9949146   1.0078250   1.0078250  15.9949146   1.0078250   1.0078250  15.9949146
 NucSpn=           0           1           1           0           1           1           0           1           1           0
 AtZEff=   0.0000000   0.0000000   0.0000000   0.0000000   0.0000000   0.0000000   0.0000000   0.0000000   0.0000000   0.0000000
 NQMom=    0.0000000   0.0000000   0.0000000   0.0000000   0.0000000   0.0000000   0.0000000   0.0000000   0.0000000   0.0000000
 NMagM=    0.0000000   2.7928460   2.7928460   0.0000000   2.7928460   2.7928460   0.0000000   2.7928460   2.7928460   0.0000000
 AtZNuc=   8.0000000   1.0000000   1.0000000   8.0000000   1.0000000   1.0000000   8.0000000   1.0000000   1.0000000   8.0000000

  Atom       111         112         113         114         115         116         117         118         119         120
 IAtWgt=           1           1          16           1           1          16           1           1          16           1
 AtmWgt=   1.0078250   1.0078250  15.9949146   1.0078250   1.0078250  15.9949146   1.0078250   1.0078250  15.9949146   1.0078250
 NucSpn=           1           1           0           1           1           0           1           1           0           1
 AtZEff=   0.0000000   0.0000000   0.0000000   0.0000000   0.0000000   0.0000000   0.0000000   0.0000000   0.0000000   0.0000000
 NQMom=    0.0000000   0.0000000   0.0000000   0.0000000   0.0000000   0.0000000   0.0000000   0.0000000   0.0000000   0.0000000
 NMagM=    2.7928460   2.7928460   0.0000000   2.7928460   2.7928460   0.0000000   2.7928460   2.7928460   0.0000000   2.7928460
 AtZNuc=   1.0000000   1.0000000   8.0000000   1.0000000   1.0000000   8.0000000   1.0000000   1.0000000   8.0000000   1.0000000

  Atom       121         122         123         124         125         126         127         128         129         130
 IAtWgt=           1          16           1           1          16           1           1          16           1           1
 AtmWgt=   1.0078250  15.9949146   1.0078250   1.0078250  15.9949146   1.0078250   1.0078250  15.9949146   1.0078250   1.0078250
 NucSpn=           1           0           1           1           0           1           1           0           1           1
 AtZEff=   0.0000000   0.0000000   0.0000000   0.0000000   0.0000000   0.0000000   0.0000000   0.0000000   0.0000000   0.0000000
 NQMom=    0.0000000   0.0000000   0.0000000   0.0000000   0.0000000   0.0000000   0.0000000   0.0000000   0.0000000   0.0000000
 NMagM=    2.7928460   0.0000000   2.7928460   2.7928460   0.0000000   2.7928460   2.7928460   0.0000000   2.7928460   2.7928460
 AtZNuc=   1.0000000   8.0000000   1.0000000   1.0000000   8.0000000   1.0000000   1.0000000   8.0000000   1.0000000   1.0000000

  Atom       131         132         133         134         135         136         137         138         139         140
 IAtWgt=          16           1           1          16           1           1          16           1           1          16
 AtmWgt=  15.9949146   1.0078250   1.0078250  15.9949146   1.0078250   1.0078250  15.9949146   1.0078250   1.0078250  15.9949146
 NucSpn=           0           1           1           0           1           1           0           1           1           0
 AtZEff=   0.0000000   0.0000000   0.0000000   0.0000000   0.0000000   0.0000000   0.0000000   0.0000000   0.0000000   0.0000000
 NQMom=    0.0000000   0.0000000   0.0000000   0.0000000   0.0000000   0.0000000   0.0000000   0.0000000   0.0000000   0.0000000
 NMagM=    0.0000000   2.7928460   2.7928460   0.0000000   2.7928460   2.7928460   0.0000000   2.7928460   2.7928460   0.0000000
 AtZNuc=   8.0000000   1.0000000   1.0000000   8.0000000   1.0000000   1.0000000   8.0000000   1.0000000   1.0000000   8.0000000

  Atom       141         142         143         144         145         146         147         148         149         150
 IAtWgt=           1           1          16           1           1          16           1           1          16           1
 AtmWgt=   1.0078250   1.0078250  15.9949146   1.0078250   1.0078250  15.9949146   1.0078250   1.0078250  15.9949146   1.0078250
 NucSpn=           1           1           0           1           1           0           1           1           0           1
 AtZEff=   0.0000000   0.0000000   0.0000000   0.0000000   0.0000000   0.0000000   0.0000000   0.0000000   0.0000000   0.0000000
 NQMom=    0.0000000   0.0000000   0.0000000   0.0000000   0.0000000   0.0000000   0.0000000   0.0000000   0.0000000   0.0000000
 NMagM=    2.7928460   2.7928460   0.0000000   2.7928460   2.7928460   0.0000000   2.7928460   2.7928460   0.0000000   2.7928460
 AtZNuc=   1.0000000   1.0000000   8.0000000   1.0000000   1.0000000   8.0000000   1.0000000   1.0000000   8.0000000   1.0000000

  Atom       151         152         153         154         155         156         157         158         159         160
 IAtWgt=           1          16           1           1          16           1           1          16           1           1
 AtmWgt=   1.0078250  15.9949146   1.0078250   1.0078250  15.9949146   1.0078250   1.0078250  15.9949146   1.0078250   1.0078250
 NucSpn=           1           0           1           1           0           1           1           0           1           1
 AtZEff=   0.0000000   0.0000000   0.0000000   0.0000000   0.0000000   0.0000000   0.0000000   0.0000000   0.0000000   0.0000000
 NQMom=    0.0000000   0.0000000   0.0000000   0.0000000   0.0000000   0.0000000   0.0000000   0.0000000   0.0000000   0.0000000
 NMagM=    2.7928460   0.0000000   2.7928460   2.7928460   0.0000000   2.7928460   2.7928460   0.0000000   2.7928460   2.7928460
 AtZNuc=   1.0000000   8.0000000   1.0000000   1.0000000   8.0000000   1.0000000   1.0000000   8.0000000   1.0000000   1.0000000

  Atom       161         162         163         164         165         166         167         168         169         170
 IAtWgt=          16           1           1          16           1           1          16           1           1          16
 AtmWgt=  15.9949146   1.0078250   1.0078250  15.9949146   1.0078250   1.0078250  15.9949146   1.0078250   1.0078250  15.9949146
 NucSpn=           0           1           1           0           1           1           0           1           1           0
 AtZEff=   0.0000000   0.0000000   0.0000000   0.0000000   0.0000000   0.0000000   0.0000000   0.0000000   0.0000000   0.0000000
 NQMom=    0.0000000   0.0000000   0.0000000   0.0000000   0.0000000   0.0000000   0.0000000   0.0000000   0.0000000   0.0000000
 NMagM=    0.0000000   2.7928460   2.7928460   0.0000000   2.7928460   2.7928460   0.0000000   2.7928460   2.7928460   0.0000000
 AtZNuc=   8.0000000   1.0000000   1.0000000   8.0000000   1.0000000   1.0000000   8.0000000   1.0000000   1.0000000   8.0000000

  Atom       171         172         173         174         175         176         177         178         179         180
 IAtWgt=           1           1          16           1           1          16           1           1          16           1
 AtmWgt=   1.0078250   1.0078250  15.9949146   1.0078250   1.0078250  15.9949146   1.0078250   1.0078250  15.9949146   1.0078250
 NucSpn=           1           1           0           1           1           0           1           1           0           1
 AtZEff=   0.0000000   0.0000000   0.0000000   0.0000000   0.0000000   0.0000000   0.0000000   0.0000000   0.0000000   0.0000000
 NQMom=    0.0000000   0.0000000   0.0000000   0.0000000   0.0000000   0.0000000   0.0000000   0.0000000   0.0000000   0.0000000
 NMagM=    2.7928460   2.7928460   0.0000000   2.7928460   2.7928460   0.0000000   2.7928460   2.7928460   0.0000000   2.7928460
 AtZNuc=   1.0000000   1.0000000   8.0000000   1.0000000   1.0000000   8.0000000   1.0000000   1.0000000   8.0000000   1.0000000

  Atom       181         182         183         184         185         186         187         188         189         190
 IAtWgt=           1          16           1           1          16           1           1          16           1           1
 AtmWgt=   1.0078250  15.9949146   1.0078250   1.0078250  15.9949146   1.0078250   1.0078250  15.9949146   1.0078250   1.0078250
 NucSpn=           1           0           1           1           0           1           1           0           1           1
 AtZEff=   0.0000000   0.0000000   0.0000000   0.0000000   0.0000000   0.0000000   0.0000000   0.0000000   0.0000000   0.0000000
 NQMom=    0.0000000   0.0000000   0.0000000   0.0000000   0.0000000   0.0000000   0.0000000   0.0000000   0.0000000   0.0000000
 NMagM=    2.7928460   0.0000000   2.7928460   2.7928460   0.0000000   2.7928460   2.7928460   0.0000000   2.7928460   2.7928460
 AtZNuc=   1.0000000   8.0000000   1.0000000   1.0000000   8.0000000   1.0000000   1.0000000   8.0000000   1.0000000   1.0000000

  Atom       191         192         193         194         195         196         197         198         199         200
 IAtWgt=          16           1           1          16           1           1          16           1           1          16
 AtmWgt=  15.9949146   1.0078250   1.0078250  15.9949146   1.0078250   1.0078250  15.9949146   1.0078250   1.0078250  15.9949146
 NucSpn=           0           1           1           0           1           1           0           1           1           0
 AtZEff=   0.0000000   0.0000000   0.0000000   0.0000000   0.0000000   0.0000000   0.0000000   0.0000000   0.0000000   0.0000000
 NQMom=    0.0000000   0.0000000   0.0000000   0.0000000   0.0000000   0.0000000   0.0000000   0.0000000   0.0000000   0.0000000
 NMagM=    0.0000000   2.7928460   2.7928460   0.0000000   2.7928460   2.7928460   0.0000000   2.7928460   2.7928460   0.0000000
 AtZNuc=   8.0000000   1.0000000   1.0000000   8.0000000   1.0000000   1.0000000   8.0000000   1.0000000   1.0000000   8.0000000

  Atom       201         202         203         204         205         206         207         208         209         210
 IAtWgt=           1           1          16           1           1          16           1           1          16           1
 AtmWgt=   1.0078250   1.0078250  15.9949146   1.0078250   1.0078250  15.9949146   1.0078250   1.0078250  15.9949146   1.0078250
 NucSpn=           1           1           0           1           1           0           1           1           0           1
 AtZEff=   0.0000000   0.0000000   0.0000000   0.0000000   0.0000000   0.0000000   0.0000000   0.0000000   0.0000000   0.0000000
 NQMom=    0.0000000   0.0000000   0.0000000   0.0000000   0.0000000   0.0000000   0.0000000   0.0000000   0.0000000   0.0000000
 NMagM=    2.7928460   2.7928460   0.0000000   2.7928460   2.7928460   0.0000000   2.7928460   2.7928460   0.0000000   2.7928460
 AtZNuc=   1.0000000   1.0000000   8.0000000   1.0000000   1.0000000   8.0000000   1.0000000   1.0000000   8.0000000   1.0000000

  Atom       211         212         213         214         215         216         217         218         219         220
 IAtWgt=           1          16           1           1          16           1           1          16           1           1
 AtmWgt=   1.0078250  15.9949146   1.0078250   1.0078250  15.9949146   1.0078250   1.0078250  15.9949146   1.0078250   1.0078250
 NucSpn=           1           0           1           1           0           1           1           0           1           1
 AtZEff=   0.0000000   0.0000000   0.0000000   0.0000000   0.0000000   0.0000000   0.0000000   0.0000000   0.0000000   0.0000000
 NQMom=    0.0000000   0.0000000   0.0000000   0.0000000   0.0000000   0.0000000   0.0000000   0.0000000   0.0000000   0.0000000
 NMagM=    2.7928460   0.0000000   2.7928460   2.7928460   0.0000000   2.7928460   2.7928460   0.0000000   2.7928460   2.7928460
 AtZNuc=   1.0000000   8.0000000   1.0000000   1.0000000   8.0000000   1.0000000   1.0000000   8.0000000   1.0000000   1.0000000

  Atom       221         222         223         224         225         226         227         228         229         230
 IAtWgt=          16           1           1          16           1           1          16           1           1          16
 AtmWgt=  15.9949146   1.0078250   1.0078250  15.9949146   1.0078250   1.0078250  15.9949146   1.0078250   1.0078250  15.9949146
 NucSpn=           0           1           1           0           1           1           0           1           1           0
 AtZEff=   0.0000000   0.0000000   0.0000000   0.0000000   0.0000000   0.0000000   0.0000000   0.0000000   0.0000000   0.0000000
 NQMom=    0.0000000   0.0000000   0.0000000   0.0000000   0.0000000   0.0000000   0.0000000   0.0000000   0.0000000   0.0000000
 NMagM=    0.0000000   2.7928460   2.7928460   0.0000000   2.7928460   2.7928460   0.0000000   2.7928460   2.7928460   0.0000000
 AtZNuc=   8.0000000   1.0000000   1.0000000   8.0000000   1.0000000   1.0000000   8.0000000   1.0000000   1.0000000   8.0000000

  Atom       231         232         233         234         235         236         237         238         239         240
 IAtWgt=           1           1          16           1           1          16           1           1          16           1
 AtmWgt=   1.0078250   1.0078250  15.9949146   1.0078250   1.0078250  15.9949146   1.0078250   1.0078250  15.9949146   1.0078250
 NucSpn=           1           1           0           1           1           0           1           1           0           1
 AtZEff=   0.0000000   0.0000000   0.0000000   0.0000000   0.0000000   0.0000000   0.0000000   0.0000000   0.0000000   0.0000000
 NQMom=    0.0000000   0.0000000   0.0000000   0.0000000   0.0000000   0.0000000   0.0000000   0.0000000   0.0000000   0.0000000
 NMagM=    2.7928460   2.7928460   0.0000000   2.7928460   2.7928460   0.0000000   2.7928460   2.7928460   0.0000000   2.7928460
 AtZNuc=   1.0000000   1.0000000   8.0000000   1.0000000   1.0000000   8.0000000   1.0000000   1.0000000   8.0000000   1.0000000

  Atom       241         242         243         244         245         246         247         248         249         250
 IAtWgt=           1          16           1           1          16           1           1          16           1           1
 AtmWgt=   1.0078250  15.9949146   1.0078250   1.0078250  15.9949146   1.0078250   1.0078250  15.9949146   1.0078250   1.0078250
 NucSpn=           1           0           1           1           0           1           1           0           1           1
 AtZEff=   0.0000000   0.0000000   0.0000000   0.0000000   0.0000000   0.0000000   0.0000000   0.0000000   0.0000000   0.0000000
 NQMom=    0.0000000   0.0000000   0.0000000   0.0000000   0.0000000   0.0000000   0.0000000   0.0000000   0.0000000   0.0000000
 NMagM=    2.7928460   0.0000000   2.7928460   2.7928460   0.0000000   2.7928460   2.7928460   0.0000000   2.7928460   2.7928460
 AtZNuc=   1.0000000   8.0000000   1.0000000   1.0000000   8.0000000   1.0000000   1.0000000   8.0000000   1.0000000   1.0000000

  Atom       251         252         253         254         255         256         257         258         259         260
 IAtWgt=          16           1           1          16           1           1          16           1           1          16
 AtmWgt=  15.9949146   1.0078250   1.0078250  15.9949146   1.0078250   1.0078250  15.9949146   1.0078250   1.0078250  15.9949146
 NucSpn=           0           1           1           0           1           1           0           1           1           0
 AtZEff=   0.0000000   0.0000000   0.0000000   0.0000000   0.0000000   0.0000000   0.0000000   0.0000000   0.0000000   0.0000000
 NQMom=    0.0000000   0.0000000   0.0000000   0.0000000   0.0000000   0.0000000   0.0000000   0.0000000   0.0000000   0.0000000
 NMagM=    0.0000000   2.7928460   2.7928460   0.0000000   2.7928460   2.7928460   0.0000000   2.7928460   2.7928460   0.0000000
 AtZNuc=   8.0000000   1.0000000   1.0000000   8.0000000   1.0000000   1.0000000   8.0000000   1.0000000   1.0000000   8.0000000

  Atom       261         262         263         264         265         266         267         268         269         270
 IAtWgt=           1           1          16           1           1          16           1           1          16           1
 AtmWgt=   1.0078250   1.0078250  15.9949146   1.0078250   1.0078250  15.9949146   1.0078250   1.0078250  15.9949146   1.0078250
 NucSpn=           1           1           0           1           1           0           1           1           0           1
 AtZEff=   0.0000000   0.0000000   0.0000000   0.0000000   0.0000000   0.0000000   0.0000000   0.0000000   0.0000000   0.0000000
 NQMom=    0.0000000   0.0000000   0.0000000   0.0000000   0.0000000   0.0000000   0.0000000   0.0000000   0.0000000   0.0000000
 NMagM=    2.7928460   2.7928460   0.0000000   2.7928460   2.7928460   0.0000000   2.7928460   2.7928460   0.0000000   2.7928460
 AtZNuc=   1.0000000   1.0000000   8.0000000   1.0000000   1.0000000   8.0000000   1.0000000   1.0000000   8.0000000   1.0000000

  Atom       271         272         273         274         275         276         277         278         279         280
 IAtWgt=           1          16           1           1          16           1           1          16           1           1
 AtmWgt=   1.0078250  15.9949146   1.0078250   1.0078250  15.9949146   1.0078250   1.0078250  15.9949146   1.0078250   1.0078250
 NucSpn=           1           0           1           1           0           1           1           0           1           1
 AtZEff=   0.0000000   0.0000000   0.0000000   0.0000000   0.0000000   0.0000000   0.0000000   0.0000000   0.0000000   0.0000000
 NQMom=    0.0000000   0.0000000   0.0000000   0.0000000   0.0000000   0.0000000   0.0000000   0.0000000   0.0000000   0.0000000
 NMagM=    2.7928460   0.0000000   2.7928460   2.7928460   0.0000000   2.7928460   2.7928460   0.0000000   2.7928460   2.7928460
 AtZNuc=   1.0000000   8.0000000   1.0000000   1.0000000   8.0000000   1.0000000   1.0000000   8.0000000   1.0000000   1.0000000

  Atom       281         282         283         284         285         286         287         288         289         290
 IAtWgt=          16           1           1          16           1           1          16           1           1          16
 AtmWgt=  15.9949146   1.0078250   1.0078250  15.9949146   1.0078250   1.0078250  15.9949146   1.0078250   1.0078250  15.9949146
 NucSpn=           0           1           1           0           1           1           0           1           1           0
 AtZEff=   0.0000000   0.0000000   0.0000000   0.0000000   0.0000000   0.0000000   0.0000000   0.0000000   0.0000000   0.0000000
 NQMom=    0.0000000   0.0000000   0.0000000   0.0000000   0.0000000   0.0000000   0.0000000   0.0000000   0.0000000   0.0000000
 NMagM=    0.0000000   2.7928460   2.7928460   0.0000000   2.7928460   2.7928460   0.0000000   2.7928460   2.7928460   0.0000000
 AtZNuc=   8.0000000   1.0000000   1.0000000   8.0000000   1.0000000   1.0000000   8.0000000   1.0000000   1.0000000   8.0000000

  Atom       291         292         293         294         295         296         297         298         299         300
 IAtWgt=           1           1          16           1           1          16           1           1          16           1
 AtmWgt=   1.0078250   1.0078250  15.9949146   1.0078250   1.0078250  15.9949146   1.0078250   1.0078250  15.9949146   1.0078250
 NucSpn=           1           1           0           1           1           0           1           1           0           1
 AtZEff=   0.0000000   0.0000000   0.0000000   0.0000000   0.0000000   0.0000000   0.0000000   0.0000000   0.0000000   0.0000000
 NQMom=    0.0000000   0.0000000   0.0000000   0.0000000   0.0000000   0.0000000   0.0000000   0.0000000   0.0000000   0.0000000
 NMagM=    2.7928460   2.7928460   0.0000000   2.7928460   2.7928460   0.0000000   2.7928460   2.7928460   0.0000000   2.7928460
 AtZNuc=   1.0000000   1.0000000   8.0000000   1.0000000   1.0000000   8.0000000   1.0000000   1.0000000   8.0000000   1.0000000

  Atom       301         302         303         304         305         306         307         308         309         310
 IAtWgt=           1          16           1           1          16           1           1          16           1           1
 AtmWgt=   1.0078250  15.9949146   1.0078250   1.0078250  15.9949146   1.0078250   1.0078250  15.9949146   1.0078250   1.0078250
 NucSpn=           1           0           1           1           0           1           1           0           1           1
 AtZEff=   0.0000000   0.0000000   0.0000000   0.0000000   0.0000000   0.0000000   0.0000000   0.0000000   0.0000000   0.0000000
 NQMom=    0.0000000   0.0000000   0.0000000   0.0000000   0.0000000   0.0000000   0.0000000   0.0000000   0.0000000   0.0000000
 NMagM=    2.7928460   0.0000000   2.7928460   2.7928460   0.0000000   2.7928460   2.7928460   0.0000000   2.7928460   2.7928460
 AtZNuc=   1.0000000   8.0000000   1.0000000   1.0000000   8.0000000   1.0000000   1.0000000   8.0000000   1.0000000   1.0000000

  Atom       311         312         313         314         315         316         317         318         319         320
 IAtWgt=          16           1           1          16           1           1          16           1           1          16
 AtmWgt=  15.9949146   1.0078250   1.0078250  15.9949146   1.0078250   1.0078250  15.9949146   1.0078250   1.0078250  15.9949146
 NucSpn=           0           1           1           0           1           1           0           1           1           0
 AtZEff=   0.0000000   0.0000000   0.0000000   0.0000000   0.0000000   0.0000000   0.0000000   0.0000000   0.0000000   0.0000000
 NQMom=    0.0000000   0.0000000   0.0000000   0.0000000   0.0000000   0.0000000   0.0000000   0.0000000   0.0000000   0.0000000
 NMagM=    0.0000000   2.7928460   2.7928460   0.0000000   2.7928460   2.7928460   0.0000000   2.7928460   2.7928460   0.0000000
 AtZNuc=   8.0000000   1.0000000   1.0000000   8.0000000   1.0000000   1.0000000   8.0000000   1.0000000   1.0000000   8.0000000

  Atom       321         322         323         324         325         326         327         328         329         330
 IAtWgt=           1           1          16           1           1          16           1           1          16           1
 AtmWgt=   1.0078250   1.0078250  15.9949146   1.0078250   1.0078250  15.9949146   1.0078250   1.0078250  15.9949146   1.0078250
 NucSpn=           1           1           0           1           1           0           1           1           0           1
 AtZEff=   0.0000000   0.0000000   0.0000000   0.0000000   0.0000000   0.0000000   0.0000000   0.0000000   0.0000000   0.0000000
 NQMom=    0.0000000   0.0000000   0.0000000   0.0000000   0.0000000   0.0000000   0.0000000   0.0000000   0.0000000   0.0000000
 NMagM=    2.7928460   2.7928460   0.0000000   2.7928460   2.7928460   0.0000000   2.7928460   2.7928460   0.0000000   2.7928460
 AtZNuc=   1.0000000   1.0000000   8.0000000   1.0000000   1.0000000   8.0000000   1.0000000   1.0000000   8.0000000   1.0000000

  Atom       331         332         333         334         335         336         337         338         339         340
 IAtWgt=           1          16           1           1          16           1           1          16           1           1
 AtmWgt=   1.0078250  15.9949146   1.0078250   1.0078250  15.9949146   1.0078250   1.0078250  15.9949146   1.0078250   1.0078250
 NucSpn=           1           0           1           1           0           1           1           0           1           1
 AtZEff=   0.0000000   0.0000000   0.0000000   0.0000000   0.0000000   0.0000000   0.0000000   0.0000000   0.0000000   0.0000000
 NQMom=    0.0000000   0.0000000   0.0000000   0.0000000   0.0000000   0.0000000   0.0000000   0.0000000   0.0000000   0.0000000
 NMagM=    2.7928460   0.0000000   2.7928460   2.7928460   0.0000000   2.7928460   2.7928460   0.0000000   2.7928460   2.7928460
 AtZNuc=   1.0000000   8.0000000   1.0000000   1.0000000   8.0000000   1.0000000   1.0000000   8.0000000   1.0000000   1.0000000

  Atom       341         342         343         344         345         346         347         348         349         350
 IAtWgt=          16           1           1          16           1           1          16           1           1          16
 AtmWgt=  15.9949146   1.0078250   1.0078250  15.9949146   1.0078250   1.0078250  15.9949146   1.0078250   1.0078250  15.9949146
 NucSpn=           0           1           1           0           1           1           0           1           1           0
 AtZEff=   0.0000000   0.0000000   0.0000000   0.0000000   0.0000000   0.0000000   0.0000000   0.0000000   0.0000000   0.0000000
 NQMom=    0.0000000   0.0000000   0.0000000   0.0000000   0.0000000   0.0000000   0.0000000   0.0000000   0.0000000   0.0000000
 NMagM=    0.0000000   2.7928460   2.7928460   0.0000000   2.7928460   2.7928460   0.0000000   2.7928460   2.7928460   0.0000000
 AtZNuc=   8.0000000   1.0000000   1.0000000   8.0000000   1.0000000   1.0000000   8.0000000   1.0000000   1.0000000   8.0000000

  Atom       351         352         353         354         355         356         357         358         359         360
 IAtWgt=           1           1          16           1           1          16           1           1          16           1
 AtmWgt=   1.0078250   1.0078250  15.9949146   1.0078250   1.0078250  15.9949146   1.0078250   1.0078250  15.9949146   1.0078250
 NucSpn=           1           1           0           1           1           0           1           1           0           1
 AtZEff=   0.0000000   0.0000000   0.0000000   0.0000000   0.0000000   0.0000000   0.0000000   0.0000000   0.0000000   0.0000000
 NQMom=    0.0000000   0.0000000   0.0000000   0.0000000   0.0000000   0.0000000   0.0000000   0.0000000   0.0000000   0.0000000
 NMagM=    2.7928460   2.7928460   0.0000000   2.7928460   2.7928460   0.0000000   2.7928460   2.7928460   0.0000000   2.7928460
 AtZNuc=   1.0000000   1.0000000   8.0000000   1.0000000   1.0000000   8.0000000   1.0000000   1.0000000   8.0000000   1.0000000

  Atom       361         362         363         364         365         366         367         368         369         370
 IAtWgt=           1          16           1           1          16           1           1          16           1           1
 AtmWgt=   1.0078250  15.9949146   1.0078250   1.0078250  15.9949146   1.0078250   1.0078250  15.9949146   1.0078250   1.0078250
 NucSpn=           1           0           1           1           0           1           1           0           1           1
 AtZEff=   0.0000000   0.0000000   0.0000000   0.0000000   0.0000000   0.0000000   0.0000000   0.0000000   0.0000000   0.0000000
 NQMom=    0.0000000   0.0000000   0.0000000   0.0000000   0.0000000   0.0000000   0.0000000   0.0000000   0.0000000   0.0000000
 NMagM=    2.7928460   0.0000000   2.7928460   2.7928460   0.0000000   2.7928460   2.7928460   0.0000000   2.7928460   2.7928460
 AtZNuc=   1.0000000   8.0000000   1.0000000   1.0000000   8.0000000   1.0000000   1.0000000   8.0000000   1.0000000   1.0000000

  Atom       371         372         373         374         375         376         377         378         379         380
 IAtWgt=          16           1           1          16           1           1          16           1           1          16
 AtmWgt=  15.9949146   1.0078250   1.0078250  15.9949146   1.0078250   1.0078250  15.9949146   1.0078250   1.0078250  15.9949146
 NucSpn=           0           1           1           0           1           1           0           1           1           0
 AtZEff=   0.0000000   0.0000000   0.0000000   0.0000000   0.0000000   0.0000000   0.0000000   0.0000000   0.0000000   0.0000000
 NQMom=    0.0000000   0.0000000   0.0000000   0.0000000   0.0000000   0.0000000   0.0000000   0.0000000   0.0000000   0.0000000
 NMagM=    0.0000000   2.7928460   2.7928460   0.0000000   2.7928460   2.7928460   0.0000000   2.7928460   2.7928460   0.0000000
 AtZNuc=   8.0000000   1.0000000   1.0000000   8.0000000   1.0000000   1.0000000   8.0000000   1.0000000   1.0000000   8.0000000

  Atom       381         382         383         384         385
 IAtWgt=           1           1          16           1           1
 AtmWgt=   1.0078250   1.0078250  15.9949146   1.0078250   1.0078250
 NucSpn=           1           1           0           1           1
 AtZEff=   0.0000000   0.0000000   0.0000000   0.0000000   0.0000000
 NQMom=    0.0000000   0.0000000   0.0000000   0.0000000   0.0000000
 NMagM=    2.7928460   2.7928460   0.0000000   2.7928460   2.7928460
 AtZNuc=   1.0000000   1.0000000   8.0000000   1.0000000   1.0000000
 Leave Link  101 at Mon May 14 17:12:35 2018, MaxMem= 14763950080 cpu:       158.2
 (Enter /cm/shared/gaussian/g09.e01/intel64-sandybridge/g09/l103.exe)

 GradGradGradGradGradGradGradGradGradGradGradGradGradGradGradGradGradGrad
 Berny optimization.
 Initialization pass.
 Trust Radius=3.00D-01 FncErr=1.00D-07 GrdErr=1.00D-07
 Number of steps in this run=      2 maximum allowed number of steps=      2.
 GradGradGradGradGradGradGradGradGradGradGradGradGradGradGradGradGradGrad

 Leave Link  103 at Mon May 14 17:12:36 2018, MaxMem= 14763950080 cpu:         3.7
 (Enter /cm/shared/gaussian/g09.e01/intel64-sandybridge/g09/l202.exe)
 Symmetry turned off by external request.
 Stoichiometry    BrH256O128(1-)
 Framework group  C1[X(BrH256O128)]
 Deg. of freedom  1149
 Full point group                 C1      NOp   1
                          Input orientation:                          
 ---------------------------------------------------------------------
 Center     Atomic      Atomic             Coordinates (Angstroms)
 Number     Number       Type             X           Y           Z
 ---------------------------------------------------------------------
      1         35           0       20.000000   20.000000   20.000000
      2          8           0       22.010000   17.770000   20.540000
      3          1           0       21.400000   18.510000   20.640000
      4          1           0       22.300000   17.810000   19.630000
      5          8           0       17.920000   21.540000   18.140000
      6          1           0       17.370000   20.770000   18.260000
      7          1           0       18.760000   21.310000   18.550000
      8          8           0       22.940000   21.550000   20.200000
      9          1           0       22.070000   21.160000   20.210000
     10          1           0       23.540000   20.800000   20.190000
     11          8           0       18.520000   22.690000   21.300000
     12          1           0       18.990000   21.860000   21.230000
     13          1           0       17.600000   22.450000   21.240000
     14          8           0       19.590000   20.180000   23.380000
     15          1           0       19.310000   20.150000   22.470000
     16          1           0       20.550000   20.230000   23.340000
     17          8           0       18.150000   17.270000   20.410000
     18          1           0       18.160000   18.220000   20.320000
     19          1           0       19.050000   17.030000   20.610000
     20          8           0       19.440000   17.640000   17.440000
     21          1           0       19.460000   18.200000   18.220000
     22          1           0       18.710000   17.990000   16.920000
     23          8           0       21.210000   21.330000   16.740000
     24          1           0       20.450000   20.750000   16.720000
     25          1           0       20.890000   22.130000   17.160000
     26          8           0       20.260000   24.010000   18.670000
     27          1           0       20.970000   24.540000   19.020000
     28          1           0       20.010000   23.440000   19.390000
     29          8           0       23.280000   19.380000   17.950000
     30          1           0       22.520000   19.700000   17.460000
     31          1           0       23.910000   20.100000   17.930000
     32          8           0       21.460000   17.610000   24.030000
     33          1           0       22.280000   17.900000   24.420000
     34          1           0       21.580000   17.750000   23.090000
     35          8           0       15.990000   19.040000   21.200000
     36          1           0       16.100000   18.480000   21.970000
     37          1           0       15.880000   19.920000   21.560000
     38          8           0       23.210000   19.970000   23.210000
     39          1           0       23.910000   20.070000   23.860000
     40          1           0       22.680000   20.750000   23.300000
     41          8           0       15.460000   19.320000   18.530000
     42          1           0       15.790000   19.110000   19.400000
     43          1           0       15.740000   18.590000   17.980000
     44          8           0       21.530000   22.130000   23.710000
     45          1           0       21.970000   22.960000   23.530000
     46          1           0       20.760000   22.370000   24.220000
     47          8           0       17.710000   19.410000   16.010000
     48          1           0       17.470000   18.930000   15.210000
     49          1           0       17.930000   20.290000   15.700000
     50          8           0       19.320000   24.790000   22.790000
     51          1           0       19.010000   24.000000   22.350000
     52          1           0       19.900000   24.460000   23.480000
     53          8           0       15.920000   21.870000   21.580000
     54          1           0       15.720000   22.800000   21.660000
     55          1           0       15.130000   21.490000   21.200000
     56          8           0       15.920000   23.530000   18.340000
     57          1           0       16.650000   22.920000   18.250000
     58          1           0       16.190000   24.130000   19.030000
     59          8           0       25.040000   18.210000   21.700000
     60          1           0       25.220000   19.130000   21.510000
     61          1           0       24.090000   18.170000   21.790000
     62          8           0       21.780000   16.710000   15.780000
     63          1           0       22.280000   16.510000   16.570000
     64          1           0       20.980000   17.130000   16.100000
     65          8           0       24.630000   23.170000   18.410000
     66          1           0       24.110000   22.610000   18.990000
     67          1           0       25.420000   23.360000   18.920000
     68          8           0       19.350000   24.120000   15.960000
     69          1           0       19.670000   23.870000   16.820000
     70          1           0       18.700000   24.790000   16.130000
     71          8           0       23.350000   15.410000   21.580000
     72          1           0       23.020000   16.300000   21.640000
     73          1           0       23.640000   15.320000   20.670000
     74          8           0       17.950000   15.100000   18.220000
     75          1           0       18.870000   15.340000   18.280000
     76          1           0       17.830000   14.410000   18.870000
     77          8           0       18.610000   19.820000   25.930000
     78          1           0       18.830000   20.090000   25.030000
     79          1           0       18.990000   20.500000   26.480000
     80          8           0       17.040000   22.200000   24.310000
     81          1           0       17.340000   22.680000   23.540000
     82          1           0       16.710000   21.370000   23.960000
     83          8           0       16.250000   17.010000   17.510000
     84          1           0       16.120000   16.690000   16.620000
     85          1           0       16.920000   16.420000   17.880000
     86          8           0       24.070000   16.820000   17.390000
     87          1           0       23.930000   17.770000   17.390000
     88          1           0       24.880000   16.700000   16.890000
     89          8           0       25.040000   22.660000   22.360000
     90          1           0       24.220000   22.210000   22.150000
     91          1           0       24.750000   23.490000   22.750000
     92          8           0       16.050000   15.390000   21.530000
     93          1           0       16.610000   16.050000   21.120000
     94          1           0       16.620000   14.960000   22.170000
     95          8           0       16.190000   19.730000   23.910000
     96          1           0       16.840000   19.220000   24.400000
     97          1           0       15.490000   19.910000   24.530000
     98          8           0       22.320000   23.100000   14.840000
     99          1           0       21.950000   22.520000   15.500000
    100          1           0       22.910000   23.670000   15.330000
    101          8           0       22.540000   24.390000   22.840000
    102          1           0       22.580000   24.550000   21.900000
    103          1           0       22.620000   25.260000   23.240000
    104          8           0       19.600000   15.610000   24.640000
    105          1           0       20.070000   16.330000   24.220000
    106          1           0       20.210000   15.260000   25.290000
    107          8           0       13.940000   21.690000   18.680000
    108          1           0       14.640000   21.040000   18.570000
    109          1           0       14.390000   22.530000   18.560000
    110          8           0       20.150000   25.970000   20.570000
    111          1           0       19.940000   25.480000   21.370000
    112          1           0       21.100000   26.030000   20.560000
    113          8           0       18.160000   21.880000   14.710000
    114          1           0       18.590000   22.730000   14.760000
    115          1           0       17.610000   21.940000   13.930000
    116          8           0       25.890000   20.690000   19.760000
    117          1           0       26.410000   21.370000   20.180000
    118          1           0       26.010000   20.840000   18.820000
    119          8           0       17.300000   25.660000   19.450000
    120          1           0       17.840000   25.430000   18.700000
    121          1           0       17.940000   25.880000   20.140000
    122          8           0       23.730000   14.870000   19.110000
    123          1           0       23.260000   14.320000   18.480000
    124          1           0       24.020000   15.630000   18.590000
    125          8           0       15.440000   22.980000   15.730000
    126          1           0       16.140000   22.820000   15.090000
    127          1           0       15.880000   22.950000   16.580000
    128          8           0       22.560000   20.170000   13.940000
    129          1           0       23.190000   20.390000   14.630000
    130          1           0       22.020000   20.960000   13.850000
    131          8           0       21.720000   13.020000   20.580000
    132          1           0       22.550000   12.700000   20.940000
    133          1           0       21.810000   13.980000   20.590000
    134          8           0       19.260000   14.970000   15.610000
    135          1           0       18.690000   14.980000   16.380000
    136          1           0       19.050000   15.770000   15.140000
    137          8           0       18.510000   13.580000   20.540000
    138          1           0       19.430000   13.370000   20.660000
    139          1           0       18.260000   14.060000   21.330000
    140          8           0       17.430000   17.440000   25.220000
    141          1           0       17.920000   18.120000   25.680000
    142          1           0       18.010000   16.680000   25.220000
    143          8           0       22.630000   25.780000   19.920000
    144          1           0       22.550000   26.480000   19.270000
    145          1           0       23.570000   25.620000   19.980000
    146          8           0       19.600000   19.100000   12.660000
    147          1           0       19.570000   18.900000   13.600000
    148          1           0       18.880000   18.580000   12.290000
    149          8           0       24.520000   24.380000   16.060000
    150          1           0       25.370000   24.810000   16.150000
    151          1           0       24.370000   23.970000   16.920000
    152          8           0       24.140000   17.020000   24.690000
    153          1           0       23.560000   16.340000   24.320000
    154          1           0       24.940000   16.950000   24.170000
    155          8           0       17.720000   17.200000   14.360000
    156          1           0       17.680000   17.070000   13.420000
    157          1           0       16.980000   16.690000   14.700000
    158          8           0       13.710000   16.460000   18.380000
    159          1           0       13.310000   17.020000   17.720000
    160          1           0       14.630000   16.410000   18.130000
    161          8           0       15.120000   24.470000   21.230000
    162          1           0       15.620000   25.200000   20.860000
    163          1           0       14.650000   24.850000   21.970000
    164          8           0       13.650000   16.850000   21.750000
    165          1           0       13.830000   16.540000   22.640000
    166          1           0       14.320000   16.430000   21.210000
    167          8           0       14.750000   20.400000   14.770000
    168          1           0       14.180000   20.970000   14.260000
    169          1           0       15.600000   20.840000   14.780000
    170          8           0       13.230000   18.920000   16.910000
    171          1           0       14.010000   19.200000   16.420000
    172          1           0       13.530000   18.880000   17.820000
    173          8           0       20.460000   24.330000   25.390000
    174          1           0       21.330000   24.670000   25.140000
    175          1           0       20.540000   24.170000   26.330000
    176          8           0       17.770000   13.890000   23.370000
    177          1           0       17.910000   13.050000   23.820000
    178          1           0       18.250000   14.520000   23.890000
    179          8           0       24.560000   18.220000   14.170000
    180          1           0       24.440000   19.040000   14.660000
    181          1           0       23.830000   18.200000   13.550000
    182          8           0       22.930000   14.540000   24.330000
    183          1           0       22.720000   14.410000   23.410000
    184          1           0       23.140000   13.660000   24.650000
    185          8           0       25.040000   21.090000   15.120000
    186          1           0       25.830000   20.980000   14.580000
    187          1           0       24.980000   22.030000   15.250000
    188          8           0       13.220000   21.930000   22.350000
    189          1           0       13.690000   22.660000   21.940000
    190          1           0       12.580000   22.350000   22.920000
    191          8           0       17.590000   26.940000   23.020000
    192          1           0       17.220000   26.720000   23.880000
    193          1           0       18.280000   26.290000   22.880000
    194          8           0       19.710000   17.210000   27.570000
    195          1           0       19.630000   17.620000   26.710000
    196          1           0       20.580000   17.470000   27.890000
    197          8           0       26.620000   20.780000   17.150000
    198          1           0       27.500000   20.640000   16.790000
    199          1           0       26.100000   21.040000   16.390000
    200          8           0       12.240000   19.400000   21.660000
    201          1           0       12.900000   20.000000   21.310000
    202          1           0       12.640000   18.540000   21.590000
    203          8           0       25.420000   20.430000   24.860000
    204          1           0       26.280000   20.090000   25.100000
    205          1           0       25.600000   21.240000   24.390000
    206          8           0       14.830000   23.960000   24.870000
    207          1           0       14.470000   23.620000   25.690000
[...]
   Z336      22.27987   0.00854   0.00000   0.00318   0.00333  22.28320
   X337      44.55974  -0.00188   0.00000  -0.00299  -0.00187  44.55787
   Y337      42.65112  -0.00011   0.00000  -0.00167  -0.00249  42.64862
   Z337      22.62002   0.00422   0.00000   0.00453   0.00476  22.62478
   X338      25.92704  -0.00525   0.00000  -0.00263  -0.00280  25.92424
   Y338      48.71714   0.00290   0.00000  -0.00152  -0.00111  48.71603
   Z338      44.20069  -0.02201   0.00000  -0.01447  -0.01570  44.18499
   X339      26.68293   0.00519   0.00000   0.00114   0.00090  26.68383
   Y339      47.43213  -0.01061   0.00000  -0.00591  -0.00544  47.42668
   Z339      45.24004   0.01503   0.00000   0.01391   0.01279  45.25283
   X340      25.51130  -0.00062   0.00000   0.00086   0.00062  25.51192
   Y340      50.03995   0.00737   0.00000   0.00561   0.00608  50.04603
   Z340      45.35343   0.00255   0.00000  -0.00363  -0.00496  45.34846
   X341      37.22760   0.02273   0.00000   0.01677   0.01669  37.24429
   Y341      54.70757   0.00848   0.00000   0.00362   0.00392  54.71149
   Z341      43.12355   0.01037   0.00000   0.00518   0.00432  43.12787
   X342      35.86700  -0.01941   0.00000  -0.01215  -0.01221  35.85479
   Y342      53.63043  -0.01422   0.00000  -0.00895  -0.00867  53.62175
   Z342      42.65112  -0.00036   0.00000   0.00863   0.00774  42.65886
   X343      37.17091  -0.00242   0.00000  -0.00288  -0.00288  37.16803
   Y343      56.06817   0.00515   0.00000   0.00352   0.00376  56.07193
   Z343      41.93302  -0.00732   0.00000  -0.00641  -0.00735  41.92568
   X344      31.89858   0.00828   0.00000   0.00869   0.00786  31.90644
   Y344      35.86700   0.00819   0.00000  -0.00029   0.00060  35.86761
   Z344      53.78161   0.00659   0.00000   0.00239   0.00220  53.78381
   X345      33.65602   0.00267   0.00000   0.00607   0.00524  33.66126
   Y345      35.41347  -0.00451   0.00000  -0.00806  -0.00717  35.40629
   Z345      53.81940  -0.00172   0.00000  -0.00258  -0.00263  53.81677
   X346      31.12379  -0.00428   0.00000  -0.00050  -0.00128  31.12251
   Y346      34.54419  -0.01686   0.00000  -0.01758  -0.01674  34.52746
   Z346      52.81785  -0.00462   0.00000   0.00110   0.00093  52.81878
   X347      36.22605   0.00716   0.00000   0.00545   0.00528  36.23133
   Y347      21.24052  -0.00337   0.00000  -0.00076  -0.00052  21.24001
   Z347      41.91413   0.02678   0.00000   0.01998   0.02084  41.93496
   X348      36.64179  -0.00043   0.00000  -0.00272  -0.00278  36.63901
   Y348      21.25942  -0.00315   0.00000  -0.00724  -0.00710  21.25232
   Z348      40.15668  -0.01572   0.00000  -0.00546  -0.00458  40.15210
   X349      34.54419  -0.00898   0.00000  -0.00630  -0.00647  34.53772
   Y349      21.88303   0.00310   0.00000   0.00135   0.00160  21.88463
   Z349      42.00861  -0.00760   0.00000  -0.01088  -0.01016  41.99845
   X350      39.30630   0.00273   0.00000   0.00483   0.00565  39.31196
   Y350      51.75960   0.01436   0.00000   0.00737   0.00686  51.76646
   Z350      28.11912   0.01828   0.00000   0.00853   0.00795  28.12708
   X351      38.09688  -0.00447   0.00000  -0.00358  -0.00270  38.09418
   Y351      52.78005   0.00439   0.00000   0.00452   0.00398  52.78403
   Z351      27.24985  -0.00174   0.00000   0.00160   0.00090  27.25075
   X352      39.70315   0.00594   0.00000   0.00366   0.00455  39.70769
   Y352      50.43679  -0.02325   0.00000  -0.01823  -0.01880  50.41799
   Z352      26.96639  -0.01777   0.00000  -0.01058  -0.01106  26.95533
   X353      51.74070   0.00653   0.00000   0.00358   0.00370  51.74440
   Y353      28.06243  -0.00998   0.00000  -0.01391  -0.01396  28.04847
   Z353      37.83232   0.00704   0.00000  -0.00542  -0.00398  37.82834
   X354      52.66667   0.00410   0.00000   0.00932   0.00940  52.67607
   Y354      26.55065  -0.00032   0.00000  -0.00508  -0.00512  26.54553
   Z354      38.24806  -0.00336   0.00000  -0.00746  -0.00587  38.24218
   X355      51.21158  -0.00789   0.00000  -0.00846  -0.00824  51.20334
   Y355      27.79787  -0.00045   0.00000   0.00021   0.00006  27.79793
   Z355      36.11267  -0.02093   0.00000  -0.02212  -0.02070  36.09197
   X356      42.29207  -0.00687   0.00000  -0.00131  -0.00204  42.29003
   Y356      26.34278   0.00288   0.00000   0.00080   0.00151  26.34429
   Z356      51.41945  -0.00631   0.00000  -0.00782  -0.00686  51.41259
   X357      43.80385   0.00797   0.00000   0.00506   0.00428  43.80813
   Y357      25.81366  -0.00297   0.00000  -0.00231  -0.00156  25.81210
   Z357      52.25093   0.00529   0.00000   0.00340   0.00448  52.25540
   X358      42.85899   0.00070   0.00000   0.00159   0.00093  42.85992
   Y358      27.68449   0.00215   0.00000   0.00312   0.00377  27.68826
   Z358      50.32341  -0.00217   0.00000  -0.00416  -0.00324  50.32017
   X359      21.69406  -0.00473   0.00000  -0.00526  -0.00451  21.68954
   Y359      38.68269  -0.01613   0.00000  -0.00891  -0.00932  38.67338
   Z359      28.40258  -0.01769   0.00000  -0.01670  -0.01766  28.38493
   X360      21.41060   0.00911   0.00000   0.01456   0.01527  21.42586
   Y360      40.30786   0.01148   0.00000   0.00458   0.00422  40.31208
   Z360      29.13958   0.00816   0.00000   0.00562   0.00456  29.14414
   X361      23.31922  -0.00360   0.00000  -0.01012  -0.00942  23.30980
   Y361      38.17247   0.00287   0.00000   0.00242   0.00205  38.17451
   Z361      29.04509   0.00978   0.00000   0.01438   0.01355  29.05864
   X362      21.37280   0.00751   0.00000   0.00874   0.00837  21.38118
   Y362      36.01818   0.00287   0.00000   0.00491   0.00545  36.02363
   Z362      46.18491   0.01869   0.00000   0.01376   0.01292  46.19783
   X363      19.67205  -0.00411   0.00000   0.00282   0.00249  19.67454
   Y363      35.90480  -0.00154   0.00000  -0.00257  -0.00206  35.90274
   Z363      45.58019  -0.00650   0.00000  -0.00364  -0.00458  45.57562
   X364      22.37436  -0.00076   0.00000  -0.00589  -0.00616  22.36820
   Y364      36.18826   0.00040   0.00000  -0.00070  -0.00025  36.18801
   Z364      44.67313  -0.01573   0.00000  -0.01388  -0.01467  44.65846
   X365      29.12068  -0.02455   0.00000  -0.02075  -0.02156  29.09912
   Y365      40.00550   0.02244   0.00000   0.01365   0.01455  40.02005
   Z365      53.72491  -0.00046   0.00000  -0.00231  -0.00289  53.72203
   X366      30.12223   0.01262   0.00000   0.00430   0.00348  30.12572
   Y366      38.51262  -0.01581   0.00000  -0.00492  -0.00402  38.50860
   Z366      53.76271   0.00070   0.00000   0.00263   0.00220  53.76491
   X367      30.04665   0.00560   0.00000   0.00756   0.00682  30.05347
   Y367      41.12044   0.00060   0.00000   0.00152   0.00236  41.12280
   Z367      52.62887   0.00265   0.00000   0.00643   0.00585  52.63472
   X368      29.47973   0.00438   0.00000   0.00623   0.00680  29.48653
   Y368      25.01997  -0.00449   0.00000  -0.00946  -0.00982  25.01015
   Z368      30.06554   0.00353   0.00000   0.00220   0.00244  30.06798
   X369      28.23251  -0.00234   0.00000  -0.00300  -0.00248  28.23003
   Y369      23.90504  -0.00025   0.00000   0.00083   0.00052  23.90556
   Z369      30.78364   0.00544   0.00000   0.00803   0.00825  30.79189
   X370      29.64980   0.00168   0.00000   0.00159   0.00227  29.65207
   Y370      24.47195  -0.00543   0.00000  -0.00823  -0.00868  24.46327
   Z370      28.34589  -0.00522   0.00000  -0.00431  -0.00403  28.34187
   X371      20.52243  -0.02112   0.00000  -0.01352  -0.01353  20.50890
   Y371      30.55687  -0.00447   0.00000  -0.00173  -0.00152  30.55536
   Z371      39.96771   0.00298   0.00000   0.00400   0.00339  39.97110
   X372      22.22318   0.01863   0.00000   0.01150   0.01148  22.23466
   Y372      31.14269   0.00101   0.00000  -0.00479  -0.00458  31.13811
   Z372      40.11889  -0.00007   0.00000   0.00077   0.00024  40.11913
   X373      20.40904   0.00526   0.00000   0.00687   0.00697  20.41601
   Y373      29.87657   0.00181   0.00000   0.00309   0.00322  29.87979
   Z373      38.28585  -0.00176   0.00000  -0.00098  -0.00155  38.28430
   X374      35.22450   0.00060   0.00000   0.00218   0.00133  35.22583
   Y374      28.25141  -0.02610   0.00000  -0.02703  -0.02617  28.22523
   Z374      53.40366   0.01107   0.00000   0.00218   0.00260  53.40626
   X375      36.09377   0.00452   0.00000  -0.00051  -0.00131  36.09246
   Y375      29.70649   0.01216   0.00000   0.00225   0.00307  29.70957
   Z375      52.79895  -0.00385   0.00000   0.00217   0.00257  52.80152
   X376      33.69382  -0.01210   0.00000  -0.01161  -0.01240  33.68142
   Y376      28.21361   0.00320   0.00000   0.00329   0.00410  28.21772
   Z376      52.45880  -0.00351   0.00000   0.00105   0.00138  52.46018
   X377      32.84344  -0.00029   0.00000   0.00232   0.00342  32.84686
   Y377      32.88123   0.00856   0.00000   0.00680   0.00601  32.88725
   Z377      22.14759  -0.00543   0.00000  -0.00977  -0.00973  22.13786
   X378      33.37256   0.00444   0.00000   0.00401   0.00516  33.37772
   Y378      31.40725  -0.00825   0.00000  -0.00601  -0.00685  31.40040
   Z378      21.24052  -0.00600   0.00000  -0.00690  -0.00676  21.23376
   X379      32.06865  -0.00308   0.00000  -0.00784  -0.00665  32.06200
   Y379      33.92058  -0.00030   0.00000   0.00174   0.00089  33.92147
   Z379      20.86258   0.00133   0.00000  -0.00136  -0.00143  20.86114
   X380      55.46346   0.01210   0.00000   0.01189   0.01187  55.47533
   Y380      37.00084   0.00734   0.00000   0.00362   0.00370  37.00454
   Z380      40.70470  -0.00536   0.00000  -0.00239  -0.00119  40.70352
   X381      54.68867  -0.00599   0.00000  -0.00338  -0.00346  54.68522
   Y381      35.58354  -0.01546   0.00000  -0.01477  -0.01464  35.56890
   Z381      41.51728  -0.00230   0.00000  -0.01235  -0.01112  41.50616
   X382      54.55639  -0.00297   0.00000  -0.00285  -0.00290  54.55349
   Y382      38.43703   0.00232   0.00000   0.00066   0.00077  38.43780
   Z382      41.34721  -0.00066   0.00000  -0.00357  -0.00250  41.34471
   X383      22.48774  -0.01074   0.00000  -0.00975  -0.00937  22.47837
   Y383      46.67624  -0.00560   0.00000  -0.00115  -0.00122  46.67502
   Z383      34.92214  -0.00669   0.00000  -0.00278  -0.00411  34.91803
   X384      22.88458   0.00283   0.00000   0.00230   0.00257  22.88715
   Y384      46.20380  -0.00333   0.00000  -0.00456  -0.00453  46.19927
   Z384      36.62289   0.00539   0.00000   0.00242   0.00114  36.62403
   X385      23.50819   0.01027   0.00000   0.01051   0.01092  23.51912
   Y385      48.13132   0.00558   0.00000   0.00000  -0.00009  48.13124
   Z385      34.60089  -0.00288   0.00000  -0.00309  -0.00444  34.59645
         Item               Value     Threshold  Converged?
 Maximum Force            0.034774     0.000450     NO 
 RMS     Force            0.010416     0.000300     NO 
 Maximum Displacement     0.030373     0.001800     NO 
 RMS     Displacement     0.008811     0.001200     NO 
 Predicted change in Energy=-7.275482D-02
 GradGradGradGradGradGradGradGradGradGradGradGradGradGradGradGradGradGrad

 Leave Link  103 at Mon May 14 20:44:00 2018, MaxMem= 14763950080 cpu:      2710.1
 (Enter /cm/shared/gaussian/g09.e01/intel64-sandybridge/g09/l9999.exe)
 1\1\GINC-POPLE04\Force\RPBE1PBE\CC-pVDZ\Br1H256O128(1-)\M.PELUSO\14-Ma
 y-2018\0\\#p PBE1PBE/cc-pvDZ force Counterpoise=2 noSymm\\forces on ch
 loride comput - NWATER: 128\\-1,1\Br,20.,20.,20.\O,22.01,17.77,20.54\H
 ,21.4,18.51,20.64\H,22.3,17.81,19.63\O,17.92,21.54,18.14\H,17.37,20.77
 ,18.26\H,18.76,21.31,18.55\O,22.94,21.55,20.2\H,22.07,21.16,20.21\H,23
 .54,20.8,20.19\O,18.52,22.69,21.3\H,18.99,21.86,21.23\H,17.6,22.45,21.
 24\O,19.59,20.18,23.38\H,19.31,20.15,22.47\H,20.55,20.23,23.34\O,18.15
 ,17.27,20.41\H,18.16,18.22,20.32\H,19.05,17.03,20.61\O,19.44,17.64,17.
 44\H,19.46,18.2,18.22\H,18.71,17.99,16.92\O,21.21,21.33,16.74\H,20.45,
 20.75,16.72\H,20.89,22.13,17.16\O,20.26,24.01,18.67\H,20.97,24.54,19.0
 2\H,20.01,23.44,19.39\O,23.28,19.38,17.95\H,22.52,19.7,17.46\H,23.91,2
 0.1,17.93\O,21.46,17.61,24.03\H,22.28,17.9,24.42\H,21.58,17.75,23.09\O
 ,15.99,19.04,21.2\H,16.1,18.48,21.97\H,15.88,19.92,21.56\O,23.21,19.97
 ,23.21\H,23.91,20.07,23.86\H,22.68,20.75,23.3\O,15.46,19.32,18.53\H,15
 .79,19.11,19.4\H,15.74,18.59,17.98\O,21.53,22.13,23.71\H,21.97,22.96,2
 3.53\H,20.76,22.37,24.22\O,17.71,19.41,16.01\H,17.47,18.93,15.21\H,17.
 93,20.29,15.7\O,19.32,24.79,22.79\H,19.01,24.,22.35\H,19.9,24.46,23.48
 \O,15.92,21.87,21.58\H,15.72,22.8,21.66\H,15.13,21.49,21.2\O,15.92,23.
 53,18.34\H,16.65,22.92,18.25\H,16.19,24.13,19.03\O,25.04,18.21,21.7\H,
 25.22,19.13,21.51\H,24.09,18.17,21.79\O,21.78,16.71,15.78\H,22.28,16.5
 1,16.57\H,20.98,17.13,16.1\O,24.63,23.17,18.41\H,24.11,22.61,18.99\H,2
 5.42,23.36,18.92\O,19.35,24.12,15.96\H,19.67,23.87,16.82\H,18.7,24.79,
 16.13\O,23.35,15.41,21.58\H,23.02,16.3,21.64\H,23.64,15.32,20.67\O,17.
 95,15.1,18.22\H,18.87,15.34,18.28\H,17.83,14.41,18.87\O,18.61,19.82,25
 .93\H,18.83,20.09,25.03\H,18.99,20.5,26.48\O,17.04,22.2,24.31\H,17.34,
 22.68,23.54\H,16.71,21.37,23.96\O,16.25,17.01,17.51\H,16.12,16.69,16.6
 2\H,16.92,16.42,17.88\O,24.07,16.82,17.39\H,23.93,17.77,17.39\H,24.88,
 16.7,16.89\O,25.04,22.66,22.36\H,24.22,22.21,22.15\H,24.75,23.49,22.75
 \O,16.05,15.39,21.53\H,16.61,16.05,21.12\H,16.62,14.96,22.17\O,16.19,1
 9.73,23.91\H,16.84,19.22,24.4\H,15.49,19.91,24.53\O,22.32,23.1,14.84\H
 ,21.95,22.52,15.5\H,22.91,23.67,15.33\O,22.54,24.39,22.84\H,22.58,24.5
 5,21.9\H,22.62,25.26,23.24\O,19.6,15.61,24.64\H,20.07,16.33,24.22\H,20
 .21,15.26,25.29\O,13.94,21.69,18.68\H,14.64,21.04,18.57\H,14.39,22.53,
 18.56\O,20.15,25.97,20.57\H,19.94,25.48,21.37\H,21.1,26.03,20.56\O,18.
 16,21.88,14.71\H,18.59,22.73,14.76\H,17.61,21.94,13.93\O,25.89,20.69,1
 9.76\H,26.41,21.37,20.18\H,26.01,20.84,18.82\O,17.3,25.66,19.45\H,17.8
 4,25.43,18.7\H,17.94,25.88,20.14\O,23.73,14.87,19.11\H,23.26,14.32,18.
 48\H,24.02,15.63,18.59\O,15.44,22.98,15.73\H,16.14,22.82,15.09\H,15.88
 ,22.95,16.58\O,22.56,20.17,13.94\H,23.19,20.39,14.63\H,22.02,20.96,13.
 85\O,21.72,13.02,20.58\H,22.55,12.7,20.94\H,21.81,13.98,20.59\O,19.26,
 14.97,15.61\H,18.69,14.98,16.38\H,19.05,15.77,15.14\O,18.51,13.58,20.5
 4\H,19.43,13.37,20.66\H,18.26,14.06,21.33\O,17.43,17.44,25.22\H,17.92,
 18.12,25.68\H,18.01,16.68,25.22\O,22.63,25.78,19.92\H,22.55,26.48,19.2
 7\H,23.57,25.62,19.98\O,19.6,19.1,12.66\H,19.57,18.9,13.6\H,18.88,18.5
 8,12.29\O,24.52,24.38,16.06\H,25.37,24.81,16.15\H,24.37,23.97,16.92\O,
 24.14,17.02,24.69\H,23.56,16.34,24.32\H,24.94,16.95,24.17\O,17.72,17.2
 ,14.36\H,17.68,17.07,13.42\H,16.98,16.69,14.7\O,13.71,16.46,18.38\H,13
 .31,17.02,17.72\H,14.63,16.41,18.13\O,15.12,24.47,21.23\H,15.62,25.2,2
 0.86\H,14.65,24.85,21.97\O,13.65,16.85,21.75\H,13.83,16.54,22.64\H,14.
 32,16.43,21.21\O,14.75,20.4,14.77\H,14.18,20.97,14.26\H,15.6,20.84,14.
 78\O,13.23,18.92,16.91\H,14.01,19.2,16.42\H,13.53,18.88,17.82\O,20.46,
 24.33,25.39\H,21.33,24.67,25.14\H,20.54,24.17,26.33\O,17.77,13.89,23.3
 7\H,17.91,13.05,23.82\H,18.25,14.52,23.89\O,24.56,18.22,14.17\H,24.44,
 19.04,14.66\H,23.83,18.2,13.55\O,22.93,14.54,24.33\H,22.72,14.41,23.41
 \H,23.14,13.66,24.65\O,25.04,21.09,15.12\H,25.83,20.98,14.58\H,24.98,2
 2.03,15.25\O,13.22,21.93,22.35\H,13.69,22.66,21.94\H,12.58,22.35,22.92
 \O,17.59,26.94,23.02\H,17.22,26.72,23.88\H,18.28,26.29,22.88\O,19.71,1
 7.21,27.57\H,19.63,17.62,26.71\H,20.58,17.47,27.89\O,26.62,20.78,17.15
 \H,27.5,20.64,16.79\H,26.1,21.04,16.39\O,12.24,19.4,21.66\H,12.9,20.,2
 1.31\H,12.64,18.54,21.59\O,25.42,20.43,24.86\H,26.28,20.09,25.1\H,25.6
 ,21.24,24.39\O,14.83,23.96,24.87\H,14.47,23.62,25.69\H,15.53,23.36,24.
 64\O,17.27,22.8,27.06\H,18.1,23.27,27.07\H,17.09,22.65,26.13\O,20.6,21
 .64,12.48\H,20.39,20.74,12.73\H,19.87,22.16,12.82\O,20.8,24.91,13.74\H
 ,20.3,24.91,14.56\H,21.4,24.17,13.82\O,14.52,25.4,16.94\H,14.83,26.14,
 17.47\H,14.99,24.64,17.28\O,26.06,14.91,22.37\H,25.21,15.11,21.99\H,26
 .61,14.67,21.62\O,27.74,17.22,21.14\H,27.51,16.35,20.83\H,26.9,17.61,2
 1.41\O,21.52,14.89,13.55\H,20.79,14.31,13.76\H,21.46,15.59,14.19\O,17.
 17,25.74,16.06\H,17.02,26.67,16.23\H,16.33,25.33,16.23\O,20.76,21.47,2
 7.31\H,20.25,21.5,28.12\H,21.66,21.31,27.61\O,27.46,21.32,22.52\H,26.7
 8,21.99,22.5\H,27.09,20.62,23.05\O,15.21,13.13,20.42\H,16.02,12.7,20.1
 7\H,15.46,14.04,20.61\O,25.27,25.62,20.92\H,25.8,26.26,21.38\H,25.82,2
 4.84,20.88\O,21.36,12.8,15.88\H,21.22,12.41,15.02\H,20.77,13.55,15.9\O
 ,19.6,28.16,18.76\H,20.2,27.67,18.19\H,19.66,27.72,19.61\O,13.83,20.6,
 25.15\H,13.55,20.76,24.25\H,13.15,21.02,25.68\O,28.49,18.99,18.64\H,28
 .62,18.97,19.58\H,27.63,19.38,18.52\O,15.5,15.72,15.28\H,15.65,14.87,1
 5.67\H,14.58,15.7,14.99\O,22.99,18.26,12.07\H,22.24,18.3,12.66\H,22.86
 ,18.98,11.46\O,14.25,15.68,24.14\H,14.59,14.82,23.89\H,14.96,16.07,24.
 65\O,11.32,21.14,18.46\H,12.26,21.35,18.49\H,11.27,20.31,17.98\O,27.42
 ,23.12,20.22\H,27.53,22.72,21.08\H,28.3,23.18,19.87\O,15.06,27.31,18.9
 3\H,15.48,27.83,18.24\H,15.79,26.9,19.39\O,21.8,27.48,17.44\H,21.66,27
 .3,16.51\H,22.75,27.42,17.55\O,20.,11.12,19.56\H,20.58,11.87,19.71\H,2
 0.59,10.38,19.41\O,16.78,20.74,12.29\H,16.42,19.93,12.65\H,17.4,20.44,
 11.63\O,24.42,15.23,13.81\H,23.75,15.89,13.97\H,25.19,15.74,13.54\O,26
 .26,16.81,15.56\H,27.12,17.23,15.6\H,25.8,17.28,14.85\O,22.03,28.3,21.
 31\H,21.4,28.43,22.03\H,22.63,27.63,21.62\O,24.1,13.39,16.48\H,24.06,1
 3.97,15.71\H,23.21,13.05,16.57\O,25.34,24.87,24.74\H,24.46,25.24,24.8\
 H,25.87,25.58,24.38\O,17.12,11.78,18.43\H,18.03,11.75,18.73\H,17.11,12
 .45,17.75\O,24.37,26.97,18.01\H,24.89,26.44,17.41\H,24.96,27.67,18.3\O
 ,16.74,23.76,13.15\H,16.77,23.69,12.19\H,16.48,24.67,13.31\O,23.73,26.
 98,23.05\H,23.64,27.76,23.58\H,24.59,27.05,22.64\O,15.57,16.54,27.42\H
 ,14.93,17.25,27.34\H,15.91,16.42,26.54\O,26.56,14.42,17.13\H,26.57,15.
 22,16.6\H,25.63,14.18,17.18\O,24.31,25.6,13.76\H,24.06,24.83,13.26\H,2
 4.14,25.37,14.67\O,12.39,22.9,16.\H,12.05,23.34,16.78\H,13.21,23.35,15
 .81\O,22.73,25.82,25.84\H,22.5,26.75,25.92\H,23.05,25.58,26.71\O,13.65
 ,18.49,26.67\H,13.8,19.18,26.04\H,12.85,18.06,26.37\O,19.25,26.66,26.8
 8\H,19.73,26.62,27.7\H,19.43,25.82,26.45\O,25.07,16.92,27.51\H,24.93,1
 7.15,26.59\H,24.94,15.97,27.54\O,23.14,21.91,11.43\H,22.26,21.85,11.79
 \H,23.58,22.57,11.97\O,13.72,25.78,23.39\H,14.12,25.1,23.94\H,13.5,26.
 48,24.\O,19.7,28.95,22.82\H,18.98,28.38,22.57\H,19.67,29.67,22.19\O,16
 .88,18.98,28.46\H,17.81,18.74,28.48\H,16.47,18.28,27.95\O,19.17,11.24,
 22.18\H,19.39,11.25,21.25\H,18.28,11.58,22.23\O,20.8,27.39,14.88\H,20.
 16,27.93,14.42\H,21.01,26.69,14.27\O,27.38,14.85,20.02\H,27.87,14.05,2
 0.24\H,27.1,14.71,19.11\O,22.38,13.94,27.21\H,23.18,13.66,27.65\H,22.6
 8,14.65,26.63\O,11.48,20.47,15.03\H,11.33,21.33,15.42\H,12.34,20.2,15.
 37\O,11.31,19.06,24.44\H,10.41,19.,24.12\H,11.84,19.15,23.64\O,15.41,2
 1.17,28.43\H,15.94,20.38,28.45\H,15.9,21.76,27.85\O,15.6,13.24,15.91\H
 ,14.94,12.65,16.29\H,15.69,12.95,15.\O,10.86,16.17,21.15\H,11.76,16.48
 ,21.23\H,10.8,15.81,20.26\O,18.64,14.95,28.26\H,19.1,15.72,27.94\H,17.
 83,14.93,27.76\O,17.38,17.4,11.72\H,17.66,16.62,11.24\H,16.97,17.95,11
 .04\O,29.35,19.58,21.54\H,28.94,18.83,21.97\H,28.87,20.34,21.88\O,11.9
 ,24.7,18.48\H,12.11,24.45,19.38\H,12.44,25.47,18.31\\Version=ES64L-G09
 RevE.01\HF=-9773.402954\RMSD=1.641e-09\RMSF=1.042e-02\Dipole=14.851122
 8,10.1136181,-2.0985878\Quadrupole=428.2375792,244.3204817,-672.558060
 9,-369.0588877,-816.2269657,-988.117574\PG=C01 [X(Br1H256O128)]\\@


 THE TRULY SUCCESSFUL PERFORMANCE OF RESEARCHES IN
 INORGANIC CHEMISTRY IS POSSIBLE ONLY TO ONE WHO IS NOT
 ONLY A THEORETICAL CHEMIST, BUT ALSO AN ACCOMPLISHED
 ANALYST AND, MOREOVER, NOT MERELY A PRACTICALLY TRAINED,
 MECHANICAL WORKER, BUT A THINKING CREATIVE ARTIST.
   --  CLEMENS WINKLER, BER. 33, 1697(1900)
 Job cpu time:       9 days  5 hours 49 minutes 53.8 seconds.
 File lengths (MBytes):  RWF=   7285 Int=      0 D2E=      0 Chk=   2411 Scr=      1
 Normal termination of Gaussian 09 at Mon May 14 20:44:33 2018.
