 Entering Gaussian System, Link 0=/cm/shared/gaussian/g09.e01/intel64-sandybridge/g09/g09
 Initial command:
 /cm/shared/gaussian/g09.e01/intel64-sandybridge/g09/l1.exe "/local/scratch/m.peluso/128_wat/370/Gau-46319.inp" -scrdir="/local/scratch/m.peluso/128_wat/370/"
 Entering Link 1 = /cm/shared/gaussian/g09.e01/intel64-sandybridge/g09/l1.exe PID=     46320.
  
 Copyright (c) 1988,1990,1992,1993,1995,1998,2003,2009,2015,
            Gaussian, Inc.  All Rights Reserved.
  
 This is part of the Gaussian(R) 09 program.  It is based on
 the Gaussian(R) 03 system (copyright 2003, Gaussian, Inc.),
 the Gaussian(R) 98 system (copyright 1998, Gaussian, Inc.),
 the Gaussian(R) 94 system (copyright 1995, Gaussian, Inc.),
 the Gaussian 92(TM) system (copyright 1992, Gaussian, Inc.),
 the Gaussian 90(TM) system (copyright 1990, Gaussian, Inc.),
 the Gaussian 88(TM) system (copyright 1988, Gaussian, Inc.),
 the Gaussian 86(TM) system (copyright 1986, Carnegie Mellon
 University), and the Gaussian 82(TM) system (copyright 1983,
 Carnegie Mellon University). Gaussian is a federally registered
 trademark of Gaussian, Inc.
  
 This software contains proprietary and confidential information,
 including trade secrets, belonging to Gaussian, Inc.
  
 This software is provided under written license and may be
 used, copied, transmitted, or stored only in accord with that
 written license.
  
 The following legend is applicable only to US Government
 contracts under FAR:
  
                    RESTRICTED RIGHTS LEGEND
  
 Use, reproduction and disclosure by the US Government is
 subject to restrictions as set forth in subparagraphs (a)
 and (c) of the Commercial Computer Software - Restricted
 Rights clause in FAR 52.227-19.
  
 Gaussian, Inc.
 340 Quinnipiac St., Bldg. 40, Wallingford CT 06492
  
  
 ---------------------------------------------------------------
 Warning -- This program may not be used in any manner that
 competes with the business of Gaussian, Inc. or will provide
 assistance to any competitor of Gaussian, Inc.  The licensee
 of this program is prohibited from giving any competitor of
 Gaussian, Inc. access to this program.  By using this program,
 the user acknowledges that Gaussian, Inc. is engaged in the
 business of creating and licensing software in the field of
 computational chemistry and represents and warrants to the
 licensee that it is not a competitor of Gaussian, Inc. and that
 it will not use this program in any manner prohibited above.
 ---------------------------------------------------------------
  

 Cite this work as:
 Gaussian 09, Revision E.01,
 M. J. Frisch, G. W. Trucks, H. B. Schlegel, G. E. Scuseria, 
 M. A. Robb, J. R. Cheeseman, G. Scalmani, V. Barone, B. Mennucci, 
 G. A. Petersson, H. Nakatsuji, M. Caricato, X. Li, H. P. Hratchian, 
 A. F. Izmaylov, J. Bloino, G. Zheng, J. L. Sonnenberg, M. Hada, 
 M. Ehara, K. Toyota, R. Fukuda, J. Hasegawa, M. Ishida, T. Nakajima, 
 Y. Honda, O. Kitao, H. Nakai, T. Vreven, J. A. Montgomery, Jr., 
 J. E. Peralta, F. Ogliaro, M. Bearpark, J. J. Heyd, E. Brothers, 
 K. N. Kudin, V. N. Staroverov, T. Keith, R. Kobayashi, J. Normand, 
 K. Raghavachari, A. Rendell, J. C. Burant, S. S. Iyengar, J. Tomasi, 
 M. Cossi, N. Rega, J. M. Millam, M. Klene, J. E. Knox, J. B. Cross, 
 V. Bakken, C. Adamo, J. Jaramillo, R. Gomperts, R. E. Stratmann, 
 O. Yazyev, A. J. Austin, R. Cammi, C. Pomelli, J. W. Ochterski, 
 R. L. Martin, K. Morokuma, V. G. Zakrzewski, G. A. Voth, 
 P. Salvador, J. J. Dannenberg, S. Dapprich, A. D. Daniels, 
 O. Farkas, J. B. Foresman, J. V. Ortiz, J. Cioslowski, 
 and D. J. Fox, Gaussian, Inc., Wallingford CT, 2013.
 
 ******************************************
 Gaussian 09:  ES64L-G09RevE.01 30-Nov-2015
                 6-May-2018 
 ******************************************
 %Mem=110GB
 %NProcShared=64
 Will use up to   64 processors via shared memory.
 %chk=snap20.chk
 ----------------------------------------------
 #p PBE1PBE/cc-pvDZ force Counterpoise=2 noSymm
 ----------------------------------------------
 1/10=7,30=1,38=1,62=2/1,3;
 2/12=2,15=1,17=6,18=5,40=1/2;
 1/10=7,30=1,38=1,53=2,62=2,63=101/22;
 3/5=16,11=2,16=1,25=1,30=1,71=1,74=-13/1,2,3;
 4//1;
 5/5=2,38=5/2;
 6/7=2,8=2,9=2,10=2,28=1/1;
 7/7=1,29=1,30=1,33=-1/1,2,3,16;
 1/10=7,30=1,53=2,62=2,63=101/22;
 3/5=7,6=11,11=2,16=1,25=1,30=1,71=1,74=-13,82=7/1,2,3;
 4//1;
 5/5=2,38=5/2;
 6/7=2,8=2,9=2,10=2,28=1/1;
 7/7=1,29=1,30=1,33=-1/1,2,3,16;
 1/10=7,30=1,53=2,62=2,63=101/22(-5);
 7/9=1,29=1,44=-1/16;
 1/10=7,30=1,62=2/3;
 99//99;
 Leave Link    1 at Sun May  6 08:34:52 2018, MaxMem= 14763950080 cpu:        10.3
 (Enter /cm/shared/gaussian/g09.e01/intel64-sandybridge/g09/l101.exe)
 ---------------------------------------
 forces on chloride comput - NWATER: 128
 ---------------------------------------
 Symbolic Z-matrix:
 Charge = -1 Multiplicity = 1 in supermolecule
 Charge = -1 Multiplicity = 1 in fragment      1.
 Charge =  0 Multiplicity = 1 in fragment      2.
 Br(Fragment=1)        20.       20.       20. 
 O(Fragment=2)         23.1      19.21     20.32 
 H(Fragment=2)         23.27     19.21     19.37 
 H(Fragment=2)         22.17     19.42     20.4 
 O(Fragment=2)         17.04     21.15     20.8 
 H(Fragment=2)         16.93     20.97     21.73 
 H(Fragment=2)         17.89     20.76     20.59 
 O(Fragment=2)         18.89     20.23     23.2 
 H(Fragment=2)         19.74     20.03     23.6 
 H(Fragment=2)         19.07     20.27     22.26 
 O(Fragment=2)         17.71     17.68     19.08 
 H(Fragment=2)         18.16     17.13     18.44 
 H(Fragment=2)         18.27     18.44     19.18 
 O(Fragment=2)         21.1      16.86     19.3 
 H(Fragment=2)         21.78     16.86     19.97 
 H(Fragment=2)         20.8      17.77     19.27 
 O(Fragment=2)         19.29     17.54     22.28 
 H(Fragment=2)         18.8      17.92     23.01 
 H(Fragment=2)         19.57     18.28     21.76 
 O(Fragment=2)         19.82     21.73     16.88 
 H(Fragment=2)         19.01     21.82     16.38 
 H(Fragment=2)         19.55     21.89     17.79 
 O(Fragment=2)         22.08     22.44     22.27 
 H(Fragment=2)         21.92     23.35     22. 
 H(Fragment=2)         22.04     21.95     21.45 
 O(Fragment=2)         16.78     21.2      17.72 
 H(Fragment=2)         16.86     21.07     18.66 
 H(Fragment=2)         16.81     22.15     17.61 
 O(Fragment=2)         21.88     16.7      22.13 
 H(Fragment=2)         21.04     17.14     22.26 
 H(Fragment=2)         22.44     17.04     22.83 
 O(Fragment=2)         21.63     20.43     15.34 
 H(Fragment=2)         20.86     20.33     15.91 
 H(Fragment=2)         22.1      19.6      15.43 
 O(Fragment=2)         19.23     15.35     20.6 
 H(Fragment=2)         19.26     16.04     21.25 
 H(Fragment=2)         19.93     15.56     19.98 
 O(Fragment=2)         21.6      20.35     23.9 
 H(Fragment=2)         21.9      21.21     23.63 
 H(Fragment=2)         21.86     20.28     24.82 
 O(Fragment=2)         24.24     20.59     22.67 
 H(Fragment=2)         23.35     20.25     22.69 
 H(Fragment=2)         24.67     20.1      21.97 
 O(Fragment=2)         19.07     18.51     15.63 
 H(Fragment=2)         18.32     18.79     16.16 
 H(Fragment=2)         18.89     17.6      15.42 
 O(Fragment=2)         16.04     19.81     23.17 
 H(Fragment=2)         15.81     19.78     24.1 
 H(Fragment=2)         17.       19.74     23.16 
 O(Fragment=2)         15.97     16.4      21.05 
 H(Fragment=2)         16.79     16.79     20.75 
 H(Fragment=2)         16.01     15.49     20.74 
 O(Fragment=2)         16.31     18.86     16.17 
 H(Fragment=2)         15.83     18.03     16.16 
 H(Fragment=2)         16.2      19.19     17.07 
 O(Fragment=2)         14.71     22.27     20.22 
 H(Fragment=2)         15.46     21.71     20.42 
 H(Fragment=2)         14.98     23.14     20.5 
 O(Fragment=2)         23.87     22.17     16.35 
 H(Fragment=2)         24.6      21.67     15.97 
 H(Fragment=2)         23.16     21.54     16.43 
 O(Fragment=2)         17.53     23.87     23.23 
 H(Fragment=2)         17.52     24.43     24.01 
 H(Fragment=2)         18.43     23.91     22.91 
 O(Fragment=2)         22.75     24.28     17.75 
 H(Fragment=2)         23.13     23.95     18.56 
 H(Fragment=2)         22.83     23.55     17.13 
 O(Fragment=2)         24.91     23.32     21.28 
 H(Fragment=2)         24.28     22.63     21.5 
 H(Fragment=2)         25.16     23.15     20.37 
 O(Fragment=2)         21.21     25.02     21.45 
 H(Fragment=2)         20.62     25.71     21.73 
 H(Fragment=2)         21.74     25.41     20.76 
 O(Fragment=2)         22.79     14.63     20.82 
 H(Fragment=2)         22.54     15.37     21.37 
 H(Fragment=2)         22.24     13.91     21.13 
 O(Fragment=2)         24.95     18.5      17.69 
 H(Fragment=2)         24.58     17.66     17.93 
 H(Fragment=2)         24.49     18.74     16.88 
 O(Fragment=2)         16.85     23.91     17.57 
 H(Fragment=2)         17.33     24.62     17.99 
 H(Fragment=2)         15.97     23.96     17.93 
 O(Fragment=2)         14.62     17.42     18.82 
 H(Fragment=2)         15.23     17.11     19.49 
 H(Fragment=2)         14.72     16.8      18.1 
 O(Fragment=2)         20.61     14.61     17.22 
 H(Fragment=2)         20.92     14.15     18. 
 H(Fragment=2)         21.23     15.33     17.1 
 O(Fragment=2)         21.42     23.07     14.4 
 H(Fragment=2)         21.62     22.63     13.58 
 H(Fragment=2)         21.39     22.36     15.05 
 O(Fragment=2)         14.15     18.26     22.1 
 H(Fragment=2)         14.67     19.04     22.29 
 H(Fragment=2)         14.79     17.62     21.79 
 O(Fragment=2)         17.47     23.3      15.05 
 H(Fragment=2)         18.21     23.9      15.09 
 H(Fragment=2)         17.15     23.25     15.95 
 O(Fragment=2)         16.24     24.67     20.88 
 H(Fragment=2)         16.83     24.75     21.63 
 H(Fragment=2)         16.66     25.18     20.19 
 O(Fragment=2)         18.13     16.94     25.13 
 H(Fragment=2)         18.07     16.33     24.39 
 H(Fragment=2)         17.72     16.47     25.85 
 O(Fragment=2)         20.94     17.41     25.72 
 H(Fragment=2)         20.01     17.38     25.51 
 H(Fragment=2)         21.33     16.71     25.2 
 O(Fragment=2)         23.69     18.2      15.11 
 H(Fragment=2)         22.78     18.05     14.86 
 H(Fragment=2)         24.15     17.42     14.83 
 O(Fragment=2)         17.78     15.23     16.76 
 H(Fragment=2)         17.66     14.8      17.61 
 H(Fragment=2)         18.67     14.99     16.5 
 O(Fragment=2)         13.6      19.97     17.04 
 H(Fragment=2)         14.29     19.71     17.64 
 H(Fragment=2)         13.93     20.75     16.61 
 O(Fragment=2)         26.77     20.61     19.5 
 H(Fragment=2)         27.58     20.27     19.11 
 H(Fragment=2)         26.18     19.86     19.51 
 O(Fragment=2)         14.93     22.74     24.02 
 H(Fragment=2)         14.36     21.97     23.92 
 H(Fragment=2)         15.42     22.79     23.2 
 O(Fragment=2)         23.41     17.06     24.35 
 H(Fragment=2)         23.38     17.82     24.94 
 H(Fragment=2)         23.53     16.31     24.94 
 O(Fragment=2)         16.43     20.95     13.97 
 H(Fragment=2)         16.76     20.32     14.61 
 H(Fragment=2)         16.9      21.76     14.15 
 O(Fragment=2)         23.39     25.1      23.76 
 H(Fragment=2)         23.04     24.63     23. 
 H(Fragment=2)         24.17     24.61     24. 
 O(Fragment=2)         19.69     25.01     24.5 
 H(Fragment=2)         18.91     24.98     25.06 
 H(Fragment=2)         20.18     24.23     24.74 
 O(Fragment=2)         19.24     19.24     12.77 
 H(Fragment=2)         19.35     19.19     13.72 
 H(Fragment=2)         18.39     18.84     12.6 
 O(Fragment=2)         24.4      19.81     25.4 
 H(Fragment=2)         24.88     20.36     26.02 
 H(Fragment=2)         24.4      20.32     24.59 
 O(Fragment=2)         17.99     25.97     18.99 
 H(Fragment=2)         18.2      26.52     19.74 
 H(Fragment=2)         18.17     26.51     18.23 
 O(Fragment=2)         15.64     15.7      23.67 
 H(Fragment=2)         15.68     16.12     22.81 
 H(Fragment=2)         15.27     16.37     24.25 
 O(Fragment=2)         25.98     17.51     23.13 
 H(Fragment=2)         25.03     17.56     23.23 
 H(Fragment=2)         26.11     17.01     22.32 
 O(Fragment=2)         24.32     14.56     18.61 
 H(Fragment=2)         23.99     13.73     18.26 
 H(Fragment=2)         23.89     14.64     19.46 
 O(Fragment=2)         16.96     21.71     26.01 
 H(Fragment=2)         17.64     22.34     26.2 
 H(Fragment=2)         16.48     22.08     25.27 
 O(Fragment=2)         19.72     24.99     15.25 
 H(Fragment=2)         19.84     25.77     15.79 
 H(Fragment=2)         20.59     24.61     15.17 
 O(Fragment=2)         18.46     19.42     27.02 
 H(Fragment=2)         18.29     18.75     26.36 
 H(Fragment=2)         18.06     20.22     26.67 
 O(Fragment=2)         26.03     23.27     18.75 
 H(Fragment=2)         26.86     23.7      18.54 
 H(Fragment=2)         26.28     22.41     19.07 
 O(Fragment=2)         23.71     26.25     20.43 
 H(Fragment=2)         23.83     25.53     21.04 
 H(Fragment=2)         24.59     26.44     20.1 
 O(Fragment=2)         21.52     20.3      26.94 
 H(Fragment=2)         21.15     19.46     26.69 
 H(Fragment=2)         21.48     20.31     27.9 
 O(Fragment=2)         19.07     12.33     20.33 
 H(Fragment=2)         19.02     11.94     21.2 
 H(Fragment=2)         19.42     13.21     20.48 
 O(Fragment=2)         23.1      21.36     12.95 
 H(Fragment=2)         23.23     20.55     12.46 
 H(Fragment=2)         22.81     21.07     13.82 
 O(Fragment=2)         19.94     22.78     26.3 
 H(Fragment=2)         20.63     23.43     26.4 
 H(Fragment=2)         20.32     21.97     26.63 
 O(Fragment=2)         12.07     21.09     20.29 
 H(Fragment=2)         11.94     20.16     20.14 
 H(Fragment=2)         13.       21.23     20.1 
 O(Fragment=2)         15.67     18.25     25.53 
 H(Fragment=2)         16.17     17.44     25.42 
 H(Fragment=2)         15.61     18.36     26.48 
 O(Fragment=2)         25.51     23.31     24.62 
 H(Fragment=2)         25.3      22.64     23.97 
 H(Fragment=2)         25.3      22.9      25.46 
 O(Fragment=2)         22.26     15.98     14.55 
 H(Fragment=2)         21.79     16.57     13.97 
 H(Fragment=2)         21.66     15.25     14.69 
 O(Fragment=2)         20.87     14.58     24.75 
 H(Fragment=2)         21.44     13.89     24.4 
 H(Fragment=2)         20.02     14.16     24.84 
 O(Fragment=2)         12.36     18.23     20.27 
 H(Fragment=2)         12.99     18.16     19.54 
 H(Fragment=2)         12.91     18.26     21.05 
 O(Fragment=2)         24.3      23.94     14.3 
 H(Fragment=2)         23.61     23.65     13.71 
 H(Fragment=2)         24.3      23.28     15. 
 O(Fragment=2)         26.45     22.83     15.97 
 H(Fragment=2)         25.7      23.13     16.49 
 H(Fragment=2)         27.2      23.25     16.38 
 O(Fragment=2)         13.9      24.58     18.34 
 H(Fragment=2)         13.8      24.21     17.46 
 H(Fragment=2)         13.77     23.83     18.93 
 O(Fragment=2)         23.01     22.58     26.76 
 H(Fragment=2)         23.07     22.6      27.71 
 H(Fragment=2)         23.07     21.65     26.53 
 O(Fragment=2)         21.48     27.55     18.56 
 H(Fragment=2)         21.53     27.7      17.62 
 H(Fragment=2)         22.21     26.96     18.75 
 O(Fragment=2)         20.4      14.26     14.43 
 H(Fragment=2)         20.13     14.2      15.34 
 H(Fragment=2)         20.06     13.46     14.03 
 O(Fragment=2)         14.73     15.74     16.82 
 H(Fragment=2)         15.12     15.31     16.06 
 H(Fragment=2)         14.41     15.03     17.37 
 O(Fragment=2)         21.52     17.95     12.76 
 H(Fragment=2)         22.17     18.52     12.36 
 H(Fragment=2)         20.69     18.42     12.65 
 O(Fragment=2)         19.95     27.73     23.02 
 H(Fragment=2)         19.21     27.61     22.43 
 H(Fragment=2)         20.17     26.85     23.32 
 O(Fragment=2)         21.37     12.57     18.74 
 H(Fragment=2)         22.14     12.12     19.1 
 H(Fragment=2)         20.63     12.03     19.01 
 O(Fragment=2)         18.02     14.09     24.52 
 H(Fragment=2)         17.15     14.49     24.52 
 H(Fragment=2)         18.31     14.13     25.43 
 O(Fragment=2)         15.2      13.97     19.87 
 H(Fragment=2)         15.61     13.43     19.19 
 H(Fragment=2)         15.6      13.68     20.69 
 O(Fragment=2)         16.07     14.64     14.67 
 H(Fragment=2)         16.74     14.77     15.35 
 H(Fragment=2)         16.51     14.88     13.85 
 O(Fragment=2)         24.25     26.63     16.54 
 H(Fragment=2)         24.39     26.72     15.6 
 H(Fragment=2)         23.98     25.71     16.65 
 O(Fragment=2)         27.65     18.06     16.36 
 H(Fragment=2)         26.83     18.26     16.81 
 H(Fragment=2)         28.02     18.92     16.15 
 O(Fragment=2)         15.46     13.26     22.43 
 H(Fragment=2)         14.79     12.88     23. 
 H(Fragment=2)         15.63     14.12     22.81 
 O(Fragment=2)         26.13     15.06     21.7 
 H(Fragment=2)         26.48     14.54     20.98 
 H(Fragment=2)         25.34     14.59     21.97 
 O(Fragment=2)         13.86     22.28     15.64 
 H(Fragment=2)         13.17     22.93     15.51 
 H(Fragment=2)         14.23     22.15     14.77 
 O(Fragment=2)         17.23     12.5      18.49 
 H(Fragment=2)         16.73     11.72     18.74 
 H(Fragment=2)         18.05     12.42     18.97 
 O(Fragment=2)         27.42     19.55     23.99 
 H(Fragment=2)         26.98     18.82     23.55 
 H(Fragment=2)         26.78     19.87     24.62 
 O(Fragment=2)         12.78     15.41     20.8 
 H(Fragment=2)         13.67     15.26     20.48 
 H(Fragment=2)         12.44     16.12     20.26 
 O(Fragment=2)         13.12     20.83     23.88 
 H(Fragment=2)         12.29     21.18     23.56 
 H(Fragment=2)         13.02     19.88     23.83 
 O(Fragment=2)         19.56     23.79     12.07 
 H(Fragment=2)         20.04     23.29     12.73 
 H(Fragment=2)         19.76     24.7      12.26 
 O(Fragment=2)         13.6      25.92     21.84 
 H(Fragment=2)         14.43     25.48     21.65 
 H(Fragment=2)         12.96     25.2      21.89 
 O(Fragment=2)         21.4      17.26     28.39 
 H(Fragment=2)         21.43     17.18     27.43 
 H(Fragment=2)         20.48     17.1      28.61 
 O(Fragment=2)         17.64     27.57     21.57 
 H(Fragment=2)         16.89     27.56     22.16 
 H(Fragment=2)         17.41     28.23     20.91 
 O(Fragment=2)         15.11     25.58     15.6 
 H(Fragment=2)         15.81     25.8      16.2 
 H(Fragment=2)         14.31     25.7      16.11 
 O(Fragment=2)         25.95     20.92     14.19 
 H(Fragment=2)         26.16     21.67     14.76 
 H(Fragment=2)         26.75     20.41     14.16 
 O(Fragment=2)         12.73     17.24     15.64 
 H(Fragment=2)         13.       18.09     16. 
 H(Fragment=2)         13.41     16.63     15.92 
 O(Fragment=2)         18.16     16.29     12.81 
 H(Fragment=2)         18.26     15.52     12.25 
 H(Fragment=2)         17.48     16.81     12.39 
 O(Fragment=2)         12.14     23.39     22.08 
 H(Fragment=2)         11.42     23.1      22.64 
 H(Fragment=2)         12.27     22.68     21.46 
 O(Fragment=2)         18.39     11.76     23.17 
 H(Fragment=2)         18.23     12.65     23.47 
 H(Fragment=2)         17.65     11.26     23.49 
 O(Fragment=2)         28.59     18.8      21.43 
 H(Fragment=2)         28.24     19.67     21.25 
 H(Fragment=2)         28.83     18.82     22.35 
 O(Fragment=2)         25.       17.72     27.54 
 H(Fragment=2)         25.63     18.4      27.74 
 H(Fragment=2)         24.62     17.98     26.7 
 O(Fragment=2)         18.56     27.74     16.97 
 H(Fragment=2)         18.29     27.28     16.17 
 H(Fragment=2)         18.72     28.64     16.69 
 O(Fragment=2)         25.79     15.24     24.85 
 H(Fragment=2)         25.96     15.44     23.93 
 H(Fragment=2)         26.35     15.84     25.34 
 O(Fragment=2)         14.47     25.14     25.35 
 H(Fragment=2)         13.53     25.15     25.55 
 H(Fragment=2)         14.62     24.28     24.96 
 O(Fragment=2)         19.14     29.38     19.31 
 H(Fragment=2)         19.93     29.76     18.93 
 H(Fragment=2)         19.28     28.44     19.28 
 O(Fragment=2)         17.17     25.77     25.74 
 H(Fragment=2)         17.5      26.03     26.61 
 H(Fragment=2)         16.25     25.56     25.89 
 O(Fragment=2)         16.19     18.24     12.14 
 H(Fragment=2)         15.52     18.53     12.75 
 H(Fragment=2)         16.18     18.89     11.44 
 O(Fragment=2)         14.41     27.33     18.32 
 H(Fragment=2)         13.63     27.79     18.61 
 H(Fragment=2)         14.43     26.53     18.84 
 O(Fragment=2)         25.37     15.91     14.25 
 H(Fragment=2)         24.68     15.26     14.42 
 H(Fragment=2)         25.46     15.92     13.3 
 O(Fragment=2)         14.68     20.98     12.02 
 H(Fragment=2)         14.11     20.22     11.93 
 H(Fragment=2)         15.24     20.78     12.76 
 O(Fragment=2)         19.69     26.45     12.8 
 H(Fragment=2)         19.04     27.09     13.1 
 H(Fragment=2)         19.85     25.91     13.57 
 O(Fragment=2)         10.78     20.19     17.23 
 H(Fragment=2)         10.5      20.14     16.31 
 H(Fragment=2)         11.73     20.12     17.19 
 O(Fragment=2)         22.43     12.44     23.79 
 H(Fragment=2)         23.24     12.05     24.11 
 H(Fragment=2)         21.78     11.75     23.88 
 O(Fragment=2)         17.52     11.95     15.84 
 H(Fragment=2)         17.35     12.25     16.74 
 H(Fragment=2)         16.65     11.88     15.45 
 O(Fragment=2)         22.4      26.22     26.89 
 H(Fragment=2)         22.49     26.       25.96 
 H(Fragment=2)         22.82     27.08     26.98 
 O(Fragment=2)         27.62     25.71     21.09 
 H(Fragment=2)         26.85     25.93     21.61 
 H(Fragment=2)         27.37     24.92     20.61 
 O(Fragment=2)         23.61     29.05     20.58 
 H(Fragment=2)         23.66     28.1      20.64 
 H(Fragment=2)         23.04     29.3      21.31 
 O(Fragment=2)         28.2      24.01     23.47 
 H(Fragment=2)         28.33     24.62     24.19 
 H(Fragment=2)         27.28     23.75     23.53 
 O(Fragment=2)         16.56     15.34     26.86 
 H(Fragment=2)         17.04     14.78     27.47 
 H(Fragment=2)         15.64     15.13     27.02 
 O(Fragment=2)         19.24     14.03     27.14 
 H(Fragment=2)         20.1      13.6      27.07 
 H(Fragment=2)         19.44     14.93     27.39 
 O(Fragment=2)         17.71     27.25     14.54 
 H(Fragment=2)         17.4      27.96     13.98 
 H(Fragment=2)         16.99     26.61     14.53 
 O(Fragment=2)         18.63     20.21     29.83 
 H(Fragment=2)         18.76     21.13     29.61 
 H(Fragment=2)         18.49     19.78     28.98 
 O(Fragment=2)         11.33     17.02     23.61 
 H(Fragment=2)         11.75     17.37     22.83 
 H(Fragment=2)         10.4      17.19     23.48 
 O(Fragment=2)         16.92     23.62     11.88 
 H(Fragment=2)         16.87     22.66     11.82 
 H(Fragment=2)         17.84     23.81     12.01 
 O(Fragment=2)         20.43     10.97     16.62 
 H(Fragment=2)         21.21     11.51     16.5 
 H(Fragment=2)         19.7      11.58     16.51 
 O(Fragment=2)         13.27     21.39     26.81 
 H(Fragment=2)         13.99     20.77     26.86 
 H(Fragment=2)         13.12     21.51     25.87 
 O(Fragment=2)         22.35     28.87     23.04 
 H(Fragment=2)         22.24     29.76     23.38 
 H(Fragment=2)         21.48     28.48     23.12 
 O(Fragment=2)         23.91     13.97     26.37 
 H(Fragment=2)         24.14     14.59     27.06 
 H(Fragment=2)         24.41     14.25     25.61 
 O(Fragment=2)         14.83     19.04     27.91 
 H(Fragment=2)         15.26     19.9      27.9 
 H(Fragment=2)         14.34     19.03     28.73 
 O(Fragment=2)         29.06     20.19     18.31 
 H(Fragment=2)         29.94     19.88     18.52 
 H(Fragment=2)         29.21     20.99     17.8 
 
 NAtoms=    385 NQM=      385 NQMF=       0 NMMI=      0 NMMIF=      0
                NMic=       0 NMicF=      0.
                    Isotopes and Nuclear Properties:
 (Nuclear quadrupole moments (NQMom) in fm**2, nuclear magnetic moments (NMagM)
  in nuclear magnetons)

  Atom         1           2           3           4           5           6           7           8           9          10
 IAtWgt=          79          16           1           1          16           1           1          16           1           1
 AtmWgt=  78.9183361  15.9949146   1.0078250   1.0078250  15.9949146   1.0078250   1.0078250  15.9949146   1.0078250   1.0078250
 NucSpn=           3           0           1           1           0           1           1           0           1           1
 AtZEff=   0.0000000   0.0000000   0.0000000   0.0000000   0.0000000   0.0000000   0.0000000   0.0000000   0.0000000   0.0000000
 NQMom=   31.3000000   0.0000000   0.0000000   0.0000000   0.0000000   0.0000000   0.0000000   0.0000000   0.0000000   0.0000000
 NMagM=    2.1063990   0.0000000   2.7928460   2.7928460   0.0000000   2.7928460   2.7928460   0.0000000   2.7928460   2.7928460
 AtZNuc=  35.0000000   8.0000000   1.0000000   1.0000000   8.0000000   1.0000000   1.0000000   8.0000000   1.0000000   1.0000000

  Atom        11          12          13          14          15          16          17          18          19          20
 IAtWgt=          16           1           1          16           1           1          16           1           1          16
 AtmWgt=  15.9949146   1.0078250   1.0078250  15.9949146   1.0078250   1.0078250  15.9949146   1.0078250   1.0078250  15.9949146
 NucSpn=           0           1           1           0           1           1           0           1           1           0
 AtZEff=   0.0000000   0.0000000   0.0000000   0.0000000   0.0000000   0.0000000   0.0000000   0.0000000   0.0000000   0.0000000
 NQMom=    0.0000000   0.0000000   0.0000000   0.0000000   0.0000000   0.0000000   0.0000000   0.0000000   0.0000000   0.0000000
 NMagM=    0.0000000   2.7928460   2.7928460   0.0000000   2.7928460   2.7928460   0.0000000   2.7928460   2.7928460   0.0000000
 AtZNuc=   8.0000000   1.0000000   1.0000000   8.0000000   1.0000000   1.0000000   8.0000000   1.0000000   1.0000000   8.0000000

  Atom        21          22          23          24          25          26          27          28          29          30
 IAtWgt=           1           1          16           1           1          16           1           1          16           1
 AtmWgt=   1.0078250   1.0078250  15.9949146   1.0078250   1.0078250  15.9949146   1.0078250   1.0078250  15.9949146   1.0078250
 NucSpn=           1           1           0           1           1           0           1           1           0           1
 AtZEff=   0.0000000   0.0000000   0.0000000   0.0000000   0.0000000   0.0000000   0.0000000   0.0000000   0.0000000   0.0000000
 NQMom=    0.0000000   0.0000000   0.0000000   0.0000000   0.0000000   0.0000000   0.0000000   0.0000000   0.0000000   0.0000000
 NMagM=    2.7928460   2.7928460   0.0000000   2.7928460   2.7928460   0.0000000   2.7928460   2.7928460   0.0000000   2.7928460
 AtZNuc=   1.0000000   1.0000000   8.0000000   1.0000000   1.0000000   8.0000000   1.0000000   1.0000000   8.0000000   1.0000000

  Atom        31          32          33          34          35          36          37          38          39          40
 IAtWgt=           1          16           1           1          16           1           1          16           1           1
 AtmWgt=   1.0078250  15.9949146   1.0078250   1.0078250  15.9949146   1.0078250   1.0078250  15.9949146   1.0078250   1.0078250
 NucSpn=           1           0           1           1           0           1           1           0           1           1
 AtZEff=   0.0000000   0.0000000   0.0000000   0.0000000   0.0000000   0.0000000   0.0000000   0.0000000   0.0000000   0.0000000
 NQMom=    0.0000000   0.0000000   0.0000000   0.0000000   0.0000000   0.0000000   0.0000000   0.0000000   0.0000000   0.0000000
 NMagM=    2.7928460   0.0000000   2.7928460   2.7928460   0.0000000   2.7928460   2.7928460   0.0000000   2.7928460   2.7928460
 AtZNuc=   1.0000000   8.0000000   1.0000000   1.0000000   8.0000000   1.0000000   1.0000000   8.0000000   1.0000000   1.0000000

  Atom        41          42          43          44          45          46          47          48          49          50
 IAtWgt=          16           1           1          16           1           1          16           1           1          16
 AtmWgt=  15.9949146   1.0078250   1.0078250  15.9949146   1.0078250   1.0078250  15.9949146   1.0078250   1.0078250  15.9949146
 NucSpn=           0           1           1           0           1           1           0           1           1           0
 AtZEff=   0.0000000   0.0000000   0.0000000   0.0000000   0.0000000   0.0000000   0.0000000   0.0000000   0.0000000   0.0000000
 NQMom=    0.0000000   0.0000000   0.0000000   0.0000000   0.0000000   0.0000000   0.0000000   0.0000000   0.0000000   0.0000000
 NMagM=    0.0000000   2.7928460   2.7928460   0.0000000   2.7928460   2.7928460   0.0000000   2.7928460   2.7928460   0.0000000
 AtZNuc=   8.0000000   1.0000000   1.0000000   8.0000000   1.0000000   1.0000000   8.0000000   1.0000000   1.0000000   8.0000000

  Atom        51          52          53          54          55          56          57          58          59          60
 IAtWgt=           1           1          16           1           1          16           1           1          16           1
 AtmWgt=   1.0078250   1.0078250  15.9949146   1.0078250   1.0078250  15.9949146   1.0078250   1.0078250  15.9949146   1.0078250
 NucSpn=           1           1           0           1           1           0           1           1           0           1
 AtZEff=   0.0000000   0.0000000   0.0000000   0.0000000   0.0000000   0.0000000   0.0000000   0.0000000   0.0000000   0.0000000
 NQMom=    0.0000000   0.0000000   0.0000000   0.0000000   0.0000000   0.0000000   0.0000000   0.0000000   0.0000000   0.0000000
 NMagM=    2.7928460   2.7928460   0.0000000   2.7928460   2.7928460   0.0000000   2.7928460   2.7928460   0.0000000   2.7928460
 AtZNuc=   1.0000000   1.0000000   8.0000000   1.0000000   1.0000000   8.0000000   1.0000000   1.0000000   8.0000000   1.0000000

  Atom        61          62          63          64          65          66          67          68          69          70
 IAtWgt=           1          16           1           1          16           1           1          16           1           1
 AtmWgt=   1.0078250  15.9949146   1.0078250   1.0078250  15.9949146   1.0078250   1.0078250  15.9949146   1.0078250   1.0078250
 NucSpn=           1           0           1           1           0           1           1           0           1           1
 AtZEff=   0.0000000   0.0000000   0.0000000   0.0000000   0.0000000   0.0000000   0.0000000   0.0000000   0.0000000   0.0000000
 NQMom=    0.0000000   0.0000000   0.0000000   0.0000000   0.0000000   0.0000000   0.0000000   0.0000000   0.0000000   0.0000000
 NMagM=    2.7928460   0.0000000   2.7928460   2.7928460   0.0000000   2.7928460   2.7928460   0.0000000   2.7928460   2.7928460
 AtZNuc=   1.0000000   8.0000000   1.0000000   1.0000000   8.0000000   1.0000000   1.0000000   8.0000000   1.0000000   1.0000000

  Atom        71          72          73          74          75          76          77          78          79          80
 IAtWgt=          16           1           1          16           1           1          16           1           1          16
 AtmWgt=  15.9949146   1.0078250   1.0078250  15.9949146   1.0078250   1.0078250  15.9949146   1.0078250   1.0078250  15.9949146
 NucSpn=           0           1           1           0           1           1           0           1           1           0
 AtZEff=   0.0000000   0.0000000   0.0000000   0.0000000   0.0000000   0.0000000   0.0000000   0.0000000   0.0000000   0.0000000
 NQMom=    0.0000000   0.0000000   0.0000000   0.0000000   0.0000000   0.0000000   0.0000000   0.0000000   0.0000000   0.0000000
 NMagM=    0.0000000   2.7928460   2.7928460   0.0000000   2.7928460   2.7928460   0.0000000   2.7928460   2.7928460   0.0000000
 AtZNuc=   8.0000000   1.0000000   1.0000000   8.0000000   1.0000000   1.0000000   8.0000000   1.0000000   1.0000000   8.0000000

  Atom        81          82          83          84          85          86          87          88          89          90
 IAtWgt=           1           1          16           1           1          16           1           1          16           1
 AtmWgt=   1.0078250   1.0078250  15.9949146   1.0078250   1.0078250  15.9949146   1.0078250   1.0078250  15.9949146   1.0078250
 NucSpn=           1           1           0           1           1           0           1           1           0           1
 AtZEff=   0.0000000   0.0000000   0.0000000   0.0000000   0.0000000   0.0000000   0.0000000   0.0000000   0.0000000   0.0000000
 NQMom=    0.0000000   0.0000000   0.0000000   0.0000000   0.0000000   0.0000000   0.0000000   0.0000000   0.0000000   0.0000000
 NMagM=    2.7928460   2.7928460   0.0000000   2.7928460   2.7928460   0.0000000   2.7928460   2.7928460   0.0000000   2.7928460
 AtZNuc=   1.0000000   1.0000000   8.0000000   1.0000000   1.0000000   8.0000000   1.0000000   1.0000000   8.0000000   1.0000000

  Atom        91          92          93          94          95          96          97          98          99         100
 IAtWgt=           1          16           1           1          16           1           1          16           1           1
 AtmWgt=   1.0078250  15.9949146   1.0078250   1.0078250  15.9949146   1.0078250   1.0078250  15.9949146   1.0078250   1.0078250
 NucSpn=           1           0           1           1           0           1           1           0           1           1
 AtZEff=   0.0000000   0.0000000   0.0000000   0.0000000   0.0000000   0.0000000   0.0000000   0.0000000   0.0000000   0.0000000
 NQMom=    0.0000000   0.0000000   0.0000000   0.0000000   0.0000000   0.0000000   0.0000000   0.0000000   0.0000000   0.0000000
 NMagM=    2.7928460   0.0000000   2.7928460   2.7928460   0.0000000   2.7928460   2.7928460   0.0000000   2.7928460   2.7928460
 AtZNuc=   1.0000000   8.0000000   1.0000000   1.0000000   8.0000000   1.0000000   1.0000000   8.0000000   1.0000000   1.0000000

  Atom       101         102         103         104         105         106         107         108         109         110
 IAtWgt=          16           1           1          16           1           1          16           1           1          16
 AtmWgt=  15.9949146   1.0078250   1.0078250  15.9949146   1.0078250   1.0078250  15.9949146   1.0078250   1.0078250  15.9949146
 NucSpn=           0           1           1           0           1           1           0           1           1           0
 AtZEff=   0.0000000   0.0000000   0.0000000   0.0000000   0.0000000   0.0000000   0.0000000   0.0000000   0.0000000   0.0000000
 NQMom=    0.0000000   0.0000000   0.0000000   0.0000000   0.0000000   0.0000000   0.0000000   0.0000000   0.0000000   0.0000000
 NMagM=    0.0000000   2.7928460   2.7928460   0.0000000   2.7928460   2.7928460   0.0000000   2.7928460   2.7928460   0.0000000
 AtZNuc=   8.0000000   1.0000000   1.0000000   8.0000000   1.0000000   1.0000000   8.0000000   1.0000000   1.0000000   8.0000000

  Atom       111         112         113         114         115         116         117         118         119         120
 IAtWgt=           1           1          16           1           1          16           1           1          16           1
 AtmWgt=   1.0078250   1.0078250  15.9949146   1.0078250   1.0078250  15.9949146   1.0078250   1.0078250  15.9949146   1.0078250
 NucSpn=           1           1           0           1           1           0           1           1           0           1
 AtZEff=   0.0000000   0.0000000   0.0000000   0.0000000   0.0000000   0.0000000   0.0000000   0.0000000   0.0000000   0.0000000
 NQMom=    0.0000000   0.0000000   0.0000000   0.0000000   0.0000000   0.0000000   0.0000000   0.0000000   0.0000000   0.0000000
 NMagM=    2.7928460   2.7928460   0.0000000   2.7928460   2.7928460   0.0000000   2.7928460   2.7928460   0.0000000   2.7928460
 AtZNuc=   1.0000000   1.0000000   8.0000000   1.0000000   1.0000000   8.0000000   1.0000000   1.0000000   8.0000000   1.0000000

  Atom       121         122         123         124         125         126         127         128         129         130
 IAtWgt=           1          16           1           1          16           1           1          16           1           1
 AtmWgt=   1.0078250  15.9949146   1.0078250   1.0078250  15.9949146   1.0078250   1.0078250  15.9949146   1.0078250   1.0078250
 NucSpn=           1           0           1           1           0           1           1           0           1           1
 AtZEff=   0.0000000   0.0000000   0.0000000   0.0000000   0.0000000   0.0000000   0.0000000   0.0000000   0.0000000   0.0000000
 NQMom=    0.0000000   0.0000000   0.0000000   0.0000000   0.0000000   0.0000000   0.0000000   0.0000000   0.0000000   0.0000000
 NMagM=    2.7928460   0.0000000   2.7928460   2.7928460   0.0000000   2.7928460   2.7928460   0.0000000   2.7928460   2.7928460
 AtZNuc=   1.0000000   8.0000000   1.0000000   1.0000000   8.0000000   1.0000000   1.0000000   8.0000000   1.0000000   1.0000000

  Atom       131         132         133         134         135         136         137         138         139         140
 IAtWgt=          16           1           1          16           1           1          16           1           1          16
 AtmWgt=  15.9949146   1.0078250   1.0078250  15.9949146   1.0078250   1.0078250  15.9949146   1.0078250   1.0078250  15.9949146
 NucSpn=           0           1           1           0           1           1           0           1           1           0
 AtZEff=   0.0000000   0.0000000   0.0000000   0.0000000   0.0000000   0.0000000   0.0000000   0.0000000   0.0000000   0.0000000
 NQMom=    0.0000000   0.0000000   0.0000000   0.0000000   0.0000000   0.0000000   0.0000000   0.0000000   0.0000000   0.0000000
 NMagM=    0.0000000   2.7928460   2.7928460   0.0000000   2.7928460   2.7928460   0.0000000   2.7928460   2.7928460   0.0000000
 AtZNuc=   8.0000000   1.0000000   1.0000000   8.0000000   1.0000000   1.0000000   8.0000000   1.0000000   1.0000000   8.0000000

  Atom       141         142         143         144         145         146         147         148         149         150
 IAtWgt=           1           1          16           1           1          16           1           1          16           1
 AtmWgt=   1.0078250   1.0078250  15.9949146   1.0078250   1.0078250  15.9949146   1.0078250   1.0078250  15.9949146   1.0078250
 NucSpn=           1           1           0           1           1           0           1           1           0           1
 AtZEff=   0.0000000   0.0000000   0.0000000   0.0000000   0.0000000   0.0000000   0.0000000   0.0000000   0.0000000   0.0000000
 NQMom=    0.0000000   0.0000000   0.0000000   0.0000000   0.0000000   0.0000000   0.0000000   0.0000000   0.0000000   0.0000000
 NMagM=    2.7928460   2.7928460   0.0000000   2.7928460   2.7928460   0.0000000   2.7928460   2.7928460   0.0000000   2.7928460
 AtZNuc=   1.0000000   1.0000000   8.0000000   1.0000000   1.0000000   8.0000000   1.0000000   1.0000000   8.0000000   1.0000000

  Atom       151         152         153         154         155         156         157         158         159         160
 IAtWgt=           1          16           1           1          16           1           1          16           1           1
 AtmWgt=   1.0078250  15.9949146   1.0078250   1.0078250  15.9949146   1.0078250   1.0078250  15.9949146   1.0078250   1.0078250
 NucSpn=           1           0           1           1           0           1           1           0           1           1
 AtZEff=   0.0000000   0.0000000   0.0000000   0.0000000   0.0000000   0.0000000   0.0000000   0.0000000   0.0000000   0.0000000
 NQMom=    0.0000000   0.0000000   0.0000000   0.0000000   0.0000000   0.0000000   0.0000000   0.0000000   0.0000000   0.0000000
 NMagM=    2.7928460   0.0000000   2.7928460   2.7928460   0.0000000   2.7928460   2.7928460   0.0000000   2.7928460   2.7928460
 AtZNuc=   1.0000000   8.0000000   1.0000000   1.0000000   8.0000000   1.0000000   1.0000000   8.0000000   1.0000000   1.0000000

  Atom       161         162         163         164         165         166         167         168         169         170
 IAtWgt=          16           1           1          16           1           1          16           1           1          16
 AtmWgt=  15.9949146   1.0078250   1.0078250  15.9949146   1.0078250   1.0078250  15.9949146   1.0078250   1.0078250  15.9949146
 NucSpn=           0           1           1           0           1           1           0           1           1           0
 AtZEff=   0.0000000   0.0000000   0.0000000   0.0000000   0.0000000   0.0000000   0.0000000   0.0000000   0.0000000   0.0000000
 NQMom=    0.0000000   0.0000000   0.0000000   0.0000000   0.0000000   0.0000000   0.0000000   0.0000000   0.0000000   0.0000000
 NMagM=    0.0000000   2.7928460   2.7928460   0.0000000   2.7928460   2.7928460   0.0000000   2.7928460   2.7928460   0.0000000
 AtZNuc=   8.0000000   1.0000000   1.0000000   8.0000000   1.0000000   1.0000000   8.0000000   1.0000000   1.0000000   8.0000000

  Atom       171         172         173         174         175         176         177         178         179         180
 IAtWgt=           1           1          16           1           1          16           1           1          16           1
 AtmWgt=   1.0078250   1.0078250  15.9949146   1.0078250   1.0078250  15.9949146   1.0078250   1.0078250  15.9949146   1.0078250
 NucSpn=           1           1           0           1           1           0           1           1           0           1
 AtZEff=   0.0000000   0.0000000   0.0000000   0.0000000   0.0000000   0.0000000   0.0000000   0.0000000   0.0000000   0.0000000
 NQMom=    0.0000000   0.0000000   0.0000000   0.0000000   0.0000000   0.0000000   0.0000000   0.0000000   0.0000000   0.0000000
 NMagM=    2.7928460   2.7928460   0.0000000   2.7928460   2.7928460   0.0000000   2.7928460   2.7928460   0.0000000   2.7928460
 AtZNuc=   1.0000000   1.0000000   8.0000000   1.0000000   1.0000000   8.0000000   1.0000000   1.0000000   8.0000000   1.0000000

  Atom       181         182         183         184         185         186         187         188         189         190
 IAtWgt=           1          16           1           1          16           1           1          16           1           1
 AtmWgt=   1.0078250  15.9949146   1.0078250   1.0078250  15.9949146   1.0078250   1.0078250  15.9949146   1.0078250   1.0078250
 NucSpn=           1           0           1           1           0           1           1           0           1           1
 AtZEff=   0.0000000   0.0000000   0.0000000   0.0000000   0.0000000   0.0000000   0.0000000   0.0000000   0.0000000   0.0000000
 NQMom=    0.0000000   0.0000000   0.0000000   0.0000000   0.0000000   0.0000000   0.0000000   0.0000000   0.0000000   0.0000000
 NMagM=    2.7928460   0.0000000   2.7928460   2.7928460   0.0000000   2.7928460   2.7928460   0.0000000   2.7928460   2.7928460
 AtZNuc=   1.0000000   8.0000000   1.0000000   1.0000000   8.0000000   1.0000000   1.0000000   8.0000000   1.0000000   1.0000000

  Atom       191         192         193         194         195         196         197         198         199         200
 IAtWgt=          16           1           1          16           1           1          16           1           1          16
 AtmWgt=  15.9949146   1.0078250   1.0078250  15.9949146   1.0078250   1.0078250  15.9949146   1.0078250   1.0078250  15.9949146
 NucSpn=           0           1           1           0           1           1           0           1           1           0
 AtZEff=   0.0000000   0.0000000   0.0000000   0.0000000   0.0000000   0.0000000   0.0000000   0.0000000   0.0000000   0.0000000
 NQMom=    0.0000000   0.0000000   0.0000000   0.0000000   0.0000000   0.0000000   0.0000000   0.0000000   0.0000000   0.0000000
 NMagM=    0.0000000   2.7928460   2.7928460   0.0000000   2.7928460   2.7928460   0.0000000   2.7928460   2.7928460   0.0000000
 AtZNuc=   8.0000000   1.0000000   1.0000000   8.0000000   1.0000000   1.0000000   8.0000000   1.0000000   1.0000000   8.0000000

  Atom       201         202         203         204         205         206         207         208         209         210
 IAtWgt=           1           1          16           1           1          16           1           1          16           1
 AtmWgt=   1.0078250   1.0078250  15.9949146   1.0078250   1.0078250  15.9949146   1.0078250   1.0078250  15.9949146   1.0078250
 NucSpn=           1           1           0           1           1           0           1           1           0           1
 AtZEff=   0.0000000   0.0000000   0.0000000   0.0000000   0.0000000   0.0000000   0.0000000   0.0000000   0.0000000   0.0000000
 NQMom=    0.0000000   0.0000000   0.0000000   0.0000000   0.0000000   0.0000000   0.0000000   0.0000000   0.0000000   0.0000000
 NMagM=    2.7928460   2.7928460   0.0000000   2.7928460   2.7928460   0.0000000   2.7928460   2.7928460   0.0000000   2.7928460
 AtZNuc=   1.0000000   1.0000000   8.0000000   1.0000000   1.0000000   8.0000000   1.0000000   1.0000000   8.0000000   1.0000000

  Atom       211         212         213         214         215         216         217         218         219         220
 IAtWgt=           1          16           1           1          16           1           1          16           1           1
 AtmWgt=   1.0078250  15.9949146   1.0078250   1.0078250  15.9949146   1.0078250   1.0078250  15.9949146   1.0078250   1.0078250
 NucSpn=           1           0           1           1           0           1           1           0           1           1
 AtZEff=   0.0000000   0.0000000   0.0000000   0.0000000   0.0000000   0.0000000   0.0000000   0.0000000   0.0000000   0.0000000
 NQMom=    0.0000000   0.0000000   0.0000000   0.0000000   0.0000000   0.0000000   0.0000000   0.0000000   0.0000000   0.0000000
 NMagM=    2.7928460   0.0000000   2.7928460   2.7928460   0.0000000   2.7928460   2.7928460   0.0000000   2.7928460   2.7928460
 AtZNuc=   1.0000000   8.0000000   1.0000000   1.0000000   8.0000000   1.0000000   1.0000000   8.0000000   1.0000000   1.0000000

  Atom       221         222         223         224         225         226         227         228         229         230
 IAtWgt=          16           1           1          16           1           1          16           1           1          16
 AtmWgt=  15.9949146   1.0078250   1.0078250  15.9949146   1.0078250   1.0078250  15.9949146   1.0078250   1.0078250  15.9949146
 NucSpn=           0           1           1           0           1           1           0           1           1           0
 AtZEff=   0.0000000   0.0000000   0.0000000   0.0000000   0.0000000   0.0000000   0.0000000   0.0000000   0.0000000   0.0000000
 NQMom=    0.0000000   0.0000000   0.0000000   0.0000000   0.0000000   0.0000000   0.0000000   0.0000000   0.0000000   0.0000000
 NMagM=    0.0000000   2.7928460   2.7928460   0.0000000   2.7928460   2.7928460   0.0000000   2.7928460   2.7928460   0.0000000
 AtZNuc=   8.0000000   1.0000000   1.0000000   8.0000000   1.0000000   1.0000000   8.0000000   1.0000000   1.0000000   8.0000000

  Atom       231         232         233         234         235         236         237         238         239         240
 IAtWgt=           1           1          16           1           1          16           1           1          16           1
 AtmWgt=   1.0078250   1.0078250  15.9949146   1.0078250   1.0078250  15.9949146   1.0078250   1.0078250  15.9949146   1.0078250
 NucSpn=           1           1           0           1           1           0           1           1           0           1
 AtZEff=   0.0000000   0.0000000   0.0000000   0.0000000   0.0000000   0.0000000   0.0000000   0.0000000   0.0000000   0.0000000
 NQMom=    0.0000000   0.0000000   0.0000000   0.0000000   0.0000000   0.0000000   0.0000000   0.0000000   0.0000000   0.0000000
 NMagM=    2.7928460   2.7928460   0.0000000   2.7928460   2.7928460   0.0000000   2.7928460   2.7928460   0.0000000   2.7928460
 AtZNuc=   1.0000000   1.0000000   8.0000000   1.0000000   1.0000000   8.0000000   1.0000000   1.0000000   8.0000000   1.0000000

  Atom       241         242         243         244         245         246         247         248         249         250
 IAtWgt=           1          16           1           1          16           1           1          16           1           1
 AtmWgt=   1.0078250  15.9949146   1.0078250   1.0078250  15.9949146   1.0078250   1.0078250  15.9949146   1.0078250   1.0078250
 NucSpn=           1           0           1           1           0           1           1           0           1           1
 AtZEff=   0.0000000   0.0000000   0.0000000   0.0000000   0.0000000   0.0000000   0.0000000   0.0000000   0.0000000   0.0000000
 NQMom=    0.0000000   0.0000000   0.0000000   0.0000000   0.0000000   0.0000000   0.0000000   0.0000000   0.0000000   0.0000000
 NMagM=    2.7928460   0.0000000   2.7928460   2.7928460   0.0000000   2.7928460   2.7928460   0.0000000   2.7928460   2.7928460
 AtZNuc=   1.0000000   8.0000000   1.0000000   1.0000000   8.0000000   1.0000000   1.0000000   8.0000000   1.0000000   1.0000000

  Atom       251         252         253         254         255         256         257         258         259         260
 IAtWgt=          16           1           1          16           1           1          16           1           1          16
 AtmWgt=  15.9949146   1.0078250   1.0078250  15.9949146   1.0078250   1.0078250  15.9949146   1.0078250   1.0078250  15.9949146
 NucSpn=           0           1           1           0           1           1           0           1           1           0
 AtZEff=   0.0000000   0.0000000   0.0000000   0.0000000   0.0000000   0.0000000   0.0000000   0.0000000   0.0000000   0.0000000
 NQMom=    0.0000000   0.0000000   0.0000000   0.0000000   0.0000000   0.0000000   0.0000000   0.0000000   0.0000000   0.0000000
 NMagM=    0.0000000   2.7928460   2.7928460   0.0000000   2.7928460   2.7928460   0.0000000   2.7928460   2.7928460   0.0000000
 AtZNuc=   8.0000000   1.0000000   1.0000000   8.0000000   1.0000000   1.0000000   8.0000000   1.0000000   1.0000000   8.0000000

  Atom       261         262         263         264         265         266         267         268         269         270
 IAtWgt=           1           1          16           1           1          16           1           1          16           1
 AtmWgt=   1.0078250   1.0078250  15.9949146   1.0078250   1.0078250  15.9949146   1.0078250   1.0078250  15.9949146   1.0078250
 NucSpn=           1           1           0           1           1           0           1           1           0           1
 AtZEff=   0.0000000   0.0000000   0.0000000   0.0000000   0.0000000   0.0000000   0.0000000   0.0000000   0.0000000   0.0000000
 NQMom=    0.0000000   0.0000000   0.0000000   0.0000000   0.0000000   0.0000000   0.0000000   0.0000000   0.0000000   0.0000000
 NMagM=    2.7928460   2.7928460   0.0000000   2.7928460   2.7928460   0.0000000   2.7928460   2.7928460   0.0000000   2.7928460
 AtZNuc=   1.0000000   1.0000000   8.0000000   1.0000000   1.0000000   8.0000000   1.0000000   1.0000000   8.0000000   1.0000000

  Atom       271         272         273         274         275         276         277         278         279         280
 IAtWgt=           1          16           1           1          16           1           1          16           1           1
 AtmWgt=   1.0078250  15.9949146   1.0078250   1.0078250  15.9949146   1.0078250   1.0078250  15.9949146   1.0078250   1.0078250
 NucSpn=           1           0           1           1           0           1           1           0           1           1
 AtZEff=   0.0000000   0.0000000   0.0000000   0.0000000   0.0000000   0.0000000   0.0000000   0.0000000   0.0000000   0.0000000
 NQMom=    0.0000000   0.0000000   0.0000000   0.0000000   0.0000000   0.0000000   0.0000000   0.0000000   0.0000000   0.0000000
 NMagM=    2.7928460   0.0000000   2.7928460   2.7928460   0.0000000   2.7928460   2.7928460   0.0000000   2.7928460   2.7928460
 AtZNuc=   1.0000000   8.0000000   1.0000000   1.0000000   8.0000000   1.0000000   1.0000000   8.0000000   1.0000000   1.0000000

  Atom       281         282         283         284         285         286         287         288         289         290
 IAtWgt=          16           1           1          16           1           1          16           1           1          16
 AtmWgt=  15.9949146   1.0078250   1.0078250  15.9949146   1.0078250   1.0078250  15.9949146   1.0078250   1.0078250  15.9949146
 NucSpn=           0           1           1           0           1           1           0           1           1           0
 AtZEff=   0.0000000   0.0000000   0.0000000   0.0000000   0.0000000   0.0000000   0.0000000   0.0000000   0.0000000   0.0000000
 NQMom=    0.0000000   0.0000000   0.0000000   0.0000000   0.0000000   0.0000000   0.0000000   0.0000000   0.0000000   0.0000000
 NMagM=    0.0000000   2.7928460   2.7928460   0.0000000   2.7928460   2.7928460   0.0000000   2.7928460   2.7928460   0.0000000
 AtZNuc=   8.0000000   1.0000000   1.0000000   8.0000000   1.0000000   1.0000000   8.0000000   1.0000000   1.0000000   8.0000000

  Atom       291         292         293         294         295         296         297         298         299         300
 IAtWgt=           1           1          16           1           1          16           1           1          16           1
 AtmWgt=   1.0078250   1.0078250  15.9949146   1.0078250   1.0078250  15.9949146   1.0078250   1.0078250  15.9949146   1.0078250
 NucSpn=           1           1           0           1           1           0           1           1           0           1
 AtZEff=   0.0000000   0.0000000   0.0000000   0.0000000   0.0000000   0.0000000   0.0000000   0.0000000   0.0000000   0.0000000
 NQMom=    0.0000000   0.0000000   0.0000000   0.0000000   0.0000000   0.0000000   0.0000000   0.0000000   0.0000000   0.0000000
 NMagM=    2.7928460   2.7928460   0.0000000   2.7928460   2.7928460   0.0000000   2.7928460   2.7928460   0.0000000   2.7928460
 AtZNuc=   1.0000000   1.0000000   8.0000000   1.0000000   1.0000000   8.0000000   1.0000000   1.0000000   8.0000000   1.0000000

  Atom       301         302         303         304         305         306         307         308         309         310
 IAtWgt=           1          16           1           1          16           1           1          16           1           1
 AtmWgt=   1.0078250  15.9949146   1.0078250   1.0078250  15.9949146   1.0078250   1.0078250  15.9949146   1.0078250   1.0078250
 NucSpn=           1           0           1           1           0           1           1           0           1           1
 AtZEff=   0.0000000   0.0000000   0.0000000   0.0000000   0.0000000   0.0000000   0.0000000   0.0000000   0.0000000   0.0000000
 NQMom=    0.0000000   0.0000000   0.0000000   0.0000000   0.0000000   0.0000000   0.0000000   0.0000000   0.0000000   0.0000000
 NMagM=    2.7928460   0.0000000   2.7928460   2.7928460   0.0000000   2.7928460   2.7928460   0.0000000   2.7928460   2.7928460
 AtZNuc=   1.0000000   8.0000000   1.0000000   1.0000000   8.0000000   1.0000000   1.0000000   8.0000000   1.0000000   1.0000000

  Atom       311         312         313         314         315         316         317         318         319         320
 IAtWgt=          16           1           1          16           1           1          16           1           1          16
 AtmWgt=  15.9949146   1.0078250   1.0078250  15.9949146   1.0078250   1.0078250  15.9949146   1.0078250   1.0078250  15.9949146
 NucSpn=           0           1           1           0           1           1           0           1           1           0
 AtZEff=   0.0000000   0.0000000   0.0000000   0.0000000   0.0000000   0.0000000   0.0000000   0.0000000   0.0000000   0.0000000
 NQMom=    0.0000000   0.0000000   0.0000000   0.0000000   0.0000000   0.0000000   0.0000000   0.0000000   0.0000000   0.0000000
 NMagM=    0.0000000   2.7928460   2.7928460   0.0000000   2.7928460   2.7928460   0.0000000   2.7928460   2.7928460   0.0000000
 AtZNuc=   8.0000000   1.0000000   1.0000000   8.0000000   1.0000000   1.0000000   8.0000000   1.0000000   1.0000000   8.0000000

  Atom       321         322         323         324         325         326         327         328         329         330
 IAtWgt=           1           1          16           1           1          16           1           1          16           1
 AtmWgt=   1.0078250   1.0078250  15.9949146   1.0078250   1.0078250  15.9949146   1.0078250   1.0078250  15.9949146   1.0078250
 NucSpn=           1           1           0           1           1           0           1           1           0           1
 AtZEff=   0.0000000   0.0000000   0.0000000   0.0000000   0.0000000   0.0000000   0.0000000   0.0000000   0.0000000   0.0000000
 NQMom=    0.0000000   0.0000000   0.0000000   0.0000000   0.0000000   0.0000000   0.0000000   0.0000000   0.0000000   0.0000000
 NMagM=    2.7928460   2.7928460   0.0000000   2.7928460   2.7928460   0.0000000   2.7928460   2.7928460   0.0000000   2.7928460
 AtZNuc=   1.0000000   1.0000000   8.0000000   1.0000000   1.0000000   8.0000000   1.0000000   1.0000000   8.0000000   1.0000000

  Atom       331         332         333         334         335         336         337         338         339         340
 IAtWgt=           1          16           1           1          16           1           1          16           1           1
 AtmWgt=   1.0078250  15.9949146   1.0078250   1.0078250  15.9949146   1.0078250   1.0078250  15.9949146   1.0078250   1.0078250
 NucSpn=           1           0           1           1           0           1           1           0           1           1
 AtZEff=   0.0000000   0.0000000   0.0000000   0.0000000   0.0000000   0.0000000   0.0000000   0.0000000   0.0000000   0.0000000
 NQMom=    0.0000000   0.0000000   0.0000000   0.0000000   0.0000000   0.0000000   0.0000000   0.0000000   0.0000000   0.0000000
 NMagM=    2.7928460   0.0000000   2.7928460   2.7928460   0.0000000   2.7928460   2.7928460   0.0000000   2.7928460   2.7928460
 AtZNuc=   1.0000000   8.0000000   1.0000000   1.0000000   8.0000000   1.0000000   1.0000000   8.0000000   1.0000000   1.0000000

  Atom       341         342         343         344         345         346         347         348         349         350
 IAtWgt=          16           1           1          16           1           1          16           1           1          16
 AtmWgt=  15.9949146   1.0078250   1.0078250  15.9949146   1.0078250   1.0078250  15.9949146   1.0078250   1.0078250  15.9949146
 NucSpn=           0           1           1           0           1           1           0           1           1           0
 AtZEff=   0.0000000   0.0000000   0.0000000   0.0000000   0.0000000   0.0000000   0.0000000   0.0000000   0.0000000   0.0000000
 NQMom=    0.0000000   0.0000000   0.0000000   0.0000000   0.0000000   0.0000000   0.0000000   0.0000000   0.0000000   0.0000000
 NMagM=    0.0000000   2.7928460   2.7928460   0.0000000   2.7928460   2.7928460   0.0000000   2.7928460   2.7928460   0.0000000
 AtZNuc=   8.0000000   1.0000000   1.0000000   8.0000000   1.0000000   1.0000000   8.0000000   1.0000000   1.0000000   8.0000000

  Atom       351         352         353         354         355         356         357         358         359         360
 IAtWgt=           1           1          16           1           1          16           1           1          16           1
 AtmWgt=   1.0078250   1.0078250  15.9949146   1.0078250   1.0078250  15.9949146   1.0078250   1.0078250  15.9949146   1.0078250
 NucSpn=           1           1           0           1           1           0           1           1           0           1
 AtZEff=   0.0000000   0.0000000   0.0000000   0.0000000   0.0000000   0.0000000   0.0000000   0.0000000   0.0000000   0.0000000
 NQMom=    0.0000000   0.0000000   0.0000000   0.0000000   0.0000000   0.0000000   0.0000000   0.0000000   0.0000000   0.0000000
 NMagM=    2.7928460   2.7928460   0.0000000   2.7928460   2.7928460   0.0000000   2.7928460   2.7928460   0.0000000   2.7928460
 AtZNuc=   1.0000000   1.0000000   8.0000000   1.0000000   1.0000000   8.0000000   1.0000000   1.0000000   8.0000000   1.0000000

  Atom       361         362         363         364         365         366         367         368         369         370
 IAtWgt=           1          16           1           1          16           1           1          16           1           1
 AtmWgt=   1.0078250  15.9949146   1.0078250   1.0078250  15.9949146   1.0078250   1.0078250  15.9949146   1.0078250   1.0078250
 NucSpn=           1           0           1           1           0           1           1           0           1           1
 AtZEff=   0.0000000   0.0000000   0.0000000   0.0000000   0.0000000   0.0000000   0.0000000   0.0000000   0.0000000   0.0000000
 NQMom=    0.0000000   0.0000000   0.0000000   0.0000000   0.0000000   0.0000000   0.0000000   0.0000000   0.0000000   0.0000000
 NMagM=    2.7928460   0.0000000   2.7928460   2.7928460   0.0000000   2.7928460   2.7928460   0.0000000   2.7928460   2.7928460
 AtZNuc=   1.0000000   8.0000000   1.0000000   1.0000000   8.0000000   1.0000000   1.0000000   8.0000000   1.0000000   1.0000000

  Atom       371         372         373         374         375         376         377         378         379         380
 IAtWgt=          16           1           1          16           1           1          16           1           1          16
 AtmWgt=  15.9949146   1.0078250   1.0078250  15.9949146   1.0078250   1.0078250  15.9949146   1.0078250   1.0078250  15.9949146
 NucSpn=           0           1           1           0           1           1           0           1           1           0
 AtZEff=   0.0000000   0.0000000   0.0000000   0.0000000   0.0000000   0.0000000   0.0000000   0.0000000   0.0000000   0.0000000
 NQMom=    0.0000000   0.0000000   0.0000000   0.0000000   0.0000000   0.0000000   0.0000000   0.0000000   0.0000000   0.0000000
 NMagM=    0.0000000   2.7928460   2.7928460   0.0000000   2.7928460   2.7928460   0.0000000   2.7928460   2.7928460   0.0000000
 AtZNuc=   8.0000000   1.0000000   1.0000000   8.0000000   1.0000000   1.0000000   8.0000000   1.0000000   1.0000000   8.0000000

  Atom       381         382         383         384         385
 IAtWgt=           1           1          16           1           1
 AtmWgt=   1.0078250   1.0078250  15.9949146   1.0078250   1.0078250
 NucSpn=           1           1           0           1           1
 AtZEff=   0.0000000   0.0000000   0.0000000   0.0000000   0.0000000
 NQMom=    0.0000000   0.0000000   0.0000000   0.0000000   0.0000000
 NMagM=    2.7928460   2.7928460   0.0000000   2.7928460   2.7928460
 AtZNuc=   1.0000000   1.0000000   8.0000000   1.0000000   1.0000000
 Leave Link  101 at Sun May  6 08:34:52 2018, MaxMem= 14763950080 cpu:        33.5
 (Enter /cm/shared/gaussian/g09.e01/intel64-sandybridge/g09/l103.exe)

 GradGradGradGradGradGradGradGradGradGradGradGradGradGradGradGradGradGrad
 Berny optimization.
 Initialization pass.
 Trust Radius=3.00D-01 FncErr=1.00D-07 GrdErr=1.00D-07
 Number of steps in this run=      2 maximum allowed number of steps=      2.
 GradGradGradGradGradGradGradGradGradGradGradGradGradGradGradGradGradGrad

 Leave Link  103 at Sun May  6 08:34:52 2018, MaxMem= 14763950080 cpu:         3.7
 (Enter /cm/shared/gaussian/g09.e01/intel64-sandybridge/g09/l202.exe)
 Symmetry turned off by external request.
 Stoichiometry    BrH256O128(1-)
 Framework group  C1[X(BrH256O128)]
 Deg. of freedom  1149
 Full point group                 C1      NOp   1
                          Input orientation:                          
 ---------------------------------------------------------------------
 Center     Atomic      Atomic             Coordinates (Angstroms)
 Number     Number       Type             X           Y           Z
 ---------------------------------------------------------------------
      1         35           0       20.000000   20.000000   20.000000
      2          8           0       23.100000   19.210000   20.320000
      3          1           0       23.270000   19.210000   19.370000
      4          1           0       22.170000   19.420000   20.400000
      5          8           0       17.040000   21.150000   20.800000
      6          1           0       16.930000   20.970000   21.730000
      7          1           0       17.890000   20.760000   20.590000
      8          8           0       18.890000   20.230000   23.200000
      9          1           0       19.740000   20.030000   23.600000
     10          1           0       19.070000   20.270000   22.260000
     11          8           0       17.710000   17.680000   19.080000
     12          1           0       18.160000   17.130000   18.440000
     13          1           0       18.270000   18.440000   19.180000
     14          8           0       21.100000   16.860000   19.300000
     15          1           0       21.780000   16.860000   19.970000
     16          1           0       20.800000   17.770000   19.270000
     17          8           0       19.290000   17.540000   22.280000
     18          1           0       18.800000   17.920000   23.010000
     19          1           0       19.570000   18.280000   21.760000
     20          8           0       19.820000   21.730000   16.880000
     21          1           0       19.010000   21.820000   16.380000
     22          1           0       19.550000   21.890000   17.790000
     23          8           0       22.080000   22.440000   22.270000
     24          1           0       21.920000   23.350000   22.000000
     25          1           0       22.040000   21.950000   21.450000
     26          8           0       16.780000   21.200000   17.720000
     27          1           0       16.860000   21.070000   18.660000
     28          1           0       16.810000   22.150000   17.610000
     29          8           0       21.880000   16.700000   22.130000
     30          1           0       21.040000   17.140000   22.260000
     31          1           0       22.440000   17.040000   22.830000
     32          8           0       21.630000   20.430000   15.340000
     33          1           0       20.860000   20.330000   15.910000
     34          1           0       22.100000   19.600000   15.430000
     35          8           0       19.230000   15.350000   20.600000
     36          1           0       19.260000   16.040000   21.250000
     37          1           0       19.930000   15.560000   19.980000
     38          8           0       21.600000   20.350000   23.900000
     39          1           0       21.900000   21.210000   23.630000
     40          1           0       21.860000   20.280000   24.820000
     41          8           0       24.240000   20.590000   22.670000
     42          1           0       23.350000   20.250000   22.690000
     43          1           0       24.670000   20.100000   21.970000
     44          8           0       19.070000   18.510000   15.630000
     45          1           0       18.320000   18.790000   16.160000
     46          1           0       18.890000   17.600000   15.420000
     47          8           0       16.040000   19.810000   23.170000
     48          1           0       15.810000   19.780000   24.100000
     49          1           0       17.000000   19.740000   23.160000
     50          8           0       15.970000   16.400000   21.050000
     51          1           0       16.790000   16.790000   20.750000
     52          1           0       16.010000   15.490000   20.740000
     53          8           0       16.310000   18.860000   16.170000
     54          1           0       15.830000   18.030000   16.160000
     55          1           0       16.200000   19.190000   17.070000
     56          8           0       14.710000   22.270000   20.220000
     57          1           0       15.460000   21.710000   20.420000
     58          1           0       14.980000   23.140000   20.500000
     59          8           0       23.870000   22.170000   16.350000
     60          1           0       24.600000   21.670000   15.970000
     61          1           0       23.160000   21.540000   16.430000
     62          8           0       17.530000   23.870000   23.230000
     63          1           0       17.520000   24.430000   24.010000
     64          1           0       18.430000   23.910000   22.910000
     65          8           0       22.750000   24.280000   17.750000
     66          1           0       23.130000   23.950000   18.560000
     67          1           0       22.830000   23.550000   17.130000
     68          8           0       24.910000   23.320000   21.280000
     69          1           0       24.280000   22.630000   21.500000
     70          1           0       25.160000   23.150000   20.370000
     71          8           0       21.210000   25.020000   21.450000
     72          1           0       20.620000   25.710000   21.730000
     73          1           0       21.740000   25.410000   20.760000
     74          8           0       22.790000   14.630000   20.820000
     75          1           0       22.540000   15.370000   21.370000
     76          1           0       22.240000   13.910000   21.130000
     77          8           0       24.950000   18.500000   17.690000
     78          1           0       24.580000   17.660000   17.930000
     79          1           0       24.490000   18.740000   16.880000
     80          8           0       16.850000   23.910000   17.570000
     81          1           0       17.330000   24.620000   17.990000
     82          1           0       15.970000   23.960000   17.930000
     83          8           0       14.620000   17.420000   18.820000
     84          1           0       15.230000   17.110000   19.490000
     85          1           0       14.720000   16.800000   18.100000
     86          8           0       20.610000   14.610000   17.220000
     87          1           0       20.920000   14.150000   18.000000
     88          1           0       21.230000   15.330000   17.100000
     89          8           0       21.420000   23.070000   14.400000
     90          1           0       21.620000   22.630000   13.580000
     91          1           0       21.390000   22.360000   15.050000
     92          8           0       14.150000   18.260000   22.100000
     93          1           0       14.670000   19.040000   22.290000
     94          1           0       14.790000   17.620000   21.790000
     95          8           0       17.470000   23.300000   15.050000
     96          1           0       18.210000   23.900000   15.090000
     97          1           0       17.150000   23.250000   15.950000
     98          8           0       16.240000   24.670000   20.880000
     99          1           0       16.830000   24.750000   21.630000
    100          1           0       16.660000   25.180000   20.190000
    101          8           0       18.130000   16.940000   25.130000
    102          1           0       18.070000   16.330000   24.390000
    103          1           0       17.720000   16.470000   25.850000
    104          8           0       20.940000   17.410000   25.720000
    105          1           0       20.010000   17.380000   25.510000
    106          1           0       21.330000   16.710000   25.200000
    107          8           0       23.690000   18.200000   15.110000
    108          1           0       22.780000   18.050000   14.860000
    109          1           0       24.150000   17.420000   14.830000
    110          8           0       17.780000   15.230000   16.760000
    111          1           0       17.660000   14.800000   17.610000
    112          1           0       18.670000   14.990000   16.500000
    113          8           0       13.600000   19.970000   17.040000
    114          1           0       14.290000   19.710000   17.640000
    115          1           0       13.930000   20.750000   16.610000
    116          8           0       26.770000   20.610000   19.500000
    117          1           0       27.580000   20.270000   19.110000
    118          1           0       26.180000   19.860000   19.510000
    119          8           0       14.930000   22.740000   24.020000
    120          1           0       14.360000   21.970000   23.920000
    121          1           0       15.420000   22.790000   23.200000
    122          8           0       23.410000   17.060000   24.350000
    123          1           0       23.380000   17.820000   24.940000
    124          1           0       23.530000   16.310000   24.940000
    125          8           0       16.430000   20.950000   13.970000
    126          1           0       16.760000   20.320000   14.610000
    127          1           0       16.900000   21.760000   14.150000
    128          8           0       23.390000   25.100000   23.760000
    129          1           0       23.040000   24.630000   23.000000
    130          1           0       24.170000   24.610000   24.000000
    131          8           0       19.690000   25.010000   24.500000
    132          1           0       18.910000   24.980000   25.060000
    133          1           0       20.180000   24.230000   24.740000
    134          8           0       19.240000   19.240000   12.770000
    135          1           0       19.350000   19.190000   13.720000
    136          1           0       18.390000   18.840000   12.600000
    137          8           0       24.400000   19.810000   25.400000
    138          1           0       24.880000   20.360000   26.020000
    139          1           0       24.400000   20.320000   24.590000
    140          8           0       17.990000   25.970000   18.990000
    141          1           0       18.200000   26.520000   19.740000
    142          1           0       18.170000   26.510000   18.230000
    143          8           0       15.640000   15.700000   23.670000
    144          1           0       15.680000   16.120000   22.810000
    145          1           0       15.270000   16.370000   24.250000
    146          8           0       25.980000   17.510000   23.130000
    147          1           0       25.030000   17.560000   23.230000
    148          1           0       26.110000   17.010000   22.320000
    149          8           0       24.320000   14.560000   18.610000
    150          1           0       23.990000   13.730000   18.260000
    151          1           0       23.890000   14.640000   19.460000
    152          8           0       16.960000   21.710000   26.010000
    153          1           0       17.640000   22.340000   26.200000
    154          1           0       16.480000   22.080000   25.270000
    155          8           0       19.720000   24.990000   15.250000
    156          1           0       19.840000   25.770000   15.790000
    157          1           0       20.590000   24.610000   15.170000
    158          8           0       18.460000   19.420000   27.020000
    159          1           0       18.290000   18.750000   26.360000
    160          1           0       18.060000   20.220000   26.670000
    161          8           0       26.030000   23.270000   18.750000
    162          1           0       26.860000   23.700000   18.540000
    163          1           0       26.280000   22.410000   19.070000
    164          8           0       23.710000   26.250000   20.430000
    165          1           0       23.830000   25.530000   21.040000
    166          1           0       24.590000   26.440000   20.100000
    167          8           0       21.520000   20.300000   26.940000
    168          1           0       21.150000   19.460000   26.690000
    169          1           0       21.480000   20.310000   27.900000
    170          8           0       19.070000   12.330000   20.330000
    171          1           0       19.020000   11.940000   21.200000
    172          1           0       19.420000   13.210000   20.480000
    173          8           0       23.100000   21.360000   12.950000
    174          1           0       23.230000   20.550000   12.460000
    175          1           0       22.810000   21.070000   13.820000
    176          8           0       19.940000   22.780000   26.300000
    177          1           0       20.630000   23.430000   26.400000
    178          1           0       20.320000   21.970000   26.630000
    179          8           0       12.070000   21.090000   20.290000
    180          1           0       11.940000   20.160000   20.140000
    181          1           0       13.000000   21.230000   20.100000
    182          8           0       15.670000   18.250000   25.530000
    183          1           0       16.170000   17.440000   25.420000
    184          1           0       15.610000   18.360000   26.480000
    185          8           0       25.510000   23.310000   24.620000
    186          1           0       25.300000   22.640000   23.970000
    187          1           0       25.300000   22.900000   25.460000
    188          8           0       22.260000   15.980000   14.550000
    189          1           0       21.790000   16.570000   13.970000
    190          1           0       21.660000   15.250000   14.690000
    191          8           0       20.870000   14.580000   24.750000
    192          1           0       21.440000   13.890000   24.400000
    193          1           0       20.020000   14.160000   24.840000
    194          8           0       12.360000   18.230000   20.270000
    195          1           0       12.990000   18.160000   19.540000
    196          1           0       12.910000   18.260000   21.050000
    197          8           0       24.300000   23.940000   14.300000
    198          1           0       23.610000   23.650000   13.710000
    199          1           0       24.300000   23.280000   15.000000
    200          8           0       26.450000   22.830000   15.970000
    201          1           0       25.700000   23.130000   16.490000
    202          1           0       27.200000   23.250000   16.380000
    203          8           0       13.900000   24.580000   18.340000
    204          1           0       13.800000   24.210000   17.460000
    205          1           0       13.770000   23.830000   18.930000
    206          8           0       23.010000   22.580000   26.760000
    207          1           0       23.070000   22.600000   27.710000
[...]
   Y335      22.58223  -0.00276   0.00000  -0.00128  -0.00137  22.58086
   Z335      29.93326  -0.00755   0.00000  -0.00547  -0.00534  29.92792
   X336      32.78675  -0.00179   0.00000  -0.00015   0.00033  32.78708
   Y336      23.14915   0.00397   0.00000   0.00328   0.00319  23.15233
   Z336      31.63402   0.00917   0.00000   0.00485   0.00498  31.63900
   X337      31.46394  -0.00594   0.00000  -0.00101  -0.00056  31.46338
   Y337      22.44995   0.00257   0.00000   0.00515   0.00502  22.45496
   Z337      29.19627  -0.00566   0.00000  -0.00707  -0.00691  29.18936
   X338      42.32987  -0.00419   0.00000  -0.00353  -0.00325  42.32661
   Y338      49.54862  -0.00496   0.00000  -0.00627  -0.00609  49.54253
   Z338      50.81474   0.01082   0.00000   0.00603   0.00589  50.82063
   X339      42.49994   0.00330   0.00000   0.00367   0.00392  42.50386
   Y339      49.13288  -0.00022   0.00000   0.00050   0.00067  49.13355
   Z339      49.05729  -0.01090   0.00000  -0.00745  -0.00759  49.04970
   X340      43.12355   0.00105   0.00000  -0.00065  -0.00041  43.12314
   Y340      51.17378   0.00149   0.00000  -0.00141  -0.00122  51.17257
   Z340      50.98481  -0.00426   0.00000  -0.00598  -0.00614  50.97867
   X341      52.19424   0.00982   0.00000   0.00252   0.00262  52.19685
   Y341      48.58486   0.01027   0.00000   0.01314   0.01348  48.59834
   Z341      39.85432  -0.01075   0.00000  -0.01558  -0.01590  39.83842
   X342      50.73915  -0.00788   0.00000  -0.00326  -0.00315  50.73600
   Y342      49.00060  -0.00277   0.00000  -0.00611  -0.00579  48.99480
   Z342      40.83698   0.00642   0.00000   0.00602   0.00573  40.84271
   X343      51.72180  -0.00520   0.00000  -0.00547  -0.00536  51.71644
   Y343      47.09198  -0.00729   0.00000  -0.00763  -0.00730  47.08468
   Z343      38.94726   0.00342   0.00000   0.00887   0.00857  38.95583
   X344      44.61643   0.01102   0.00000   0.00946   0.00940  44.62583
   Y344      54.89654   0.02065   0.00000   0.01742   0.01760  54.91414
   Z344      38.89056  -0.01654   0.00000  -0.01276  -0.01297  38.87760
   X345      44.71092  -0.00629   0.00000  -0.00904  -0.00906  44.70186
   Y345      53.10130  -0.00967   0.00000   0.00019   0.00037  53.10168
   Z345      39.00395   0.00671   0.00000   0.00678   0.00658  39.01053
   X346      43.53929  -0.00541   0.00000  -0.00152  -0.00156  43.53773
   Y346      55.36898  -0.00802   0.00000  -0.01279  -0.01262  55.35635
   Z346      40.27006   0.00949   0.00000   0.00600   0.00582  40.27588
   X347      53.29028   0.01096   0.00000   0.00876   0.00901  53.29928
   Y347      45.37232  -0.00967   0.00000  -0.01031  -0.00993  45.36240
   Z347      44.35187  -0.01139   0.00000  -0.00555  -0.00588  44.34599
   X348      53.53594  -0.00303   0.00000  -0.00475  -0.00450  53.53144
   Y348      46.52506   0.00715   0.00000   0.00393   0.00432  46.52938
   Z348      45.71248   0.00791   0.00000   0.00300   0.00267  45.71514
   X349      51.55173  -0.00753   0.00000  -0.00405  -0.00379  51.54794
   Y349      44.88100   0.00093   0.00000   0.00239   0.00274  44.88373
   Z349      44.46526   0.00574   0.00000   0.00761   0.00732  44.47257
   X350      31.29386   0.00498   0.00000   0.00371   0.00442  31.29828
   Y350      28.98840   0.00727   0.00000   0.00405   0.00399  28.99239
   Z350      50.75804  -0.00633   0.00000  -0.00239  -0.00225  50.75579
   X351      32.20093   0.00619   0.00000   0.00517   0.00592  32.20685
   Y351      27.93015  -0.00791   0.00000  -0.00744  -0.00747  27.92268
   Z351      51.91078   0.00620   0.00000   0.00372   0.00385  51.91462
   X352      29.55532  -0.00860   0.00000  -0.00642  -0.00570  29.54962
   Y352      28.59156   0.00075   0.00000   0.00379   0.00370  28.59526
   Z352      51.06040   0.00014   0.00000  -0.00171  -0.00154  51.05886
   X353      36.35833  -0.01517   0.00000  -0.01384  -0.01307  36.34526
   Y353      26.51286  -0.00861   0.00000  -0.00343  -0.00338  26.50948
   Z353      51.28717  -0.00174   0.00000   0.00079   0.00085  51.28801
   X354      37.98350   0.00483   0.00000  -0.00047   0.00032  37.98381
   Y354      25.70028   0.00258   0.00000   0.00549   0.00558  25.70585
   Z354      51.15489  -0.00167   0.00000  -0.00325  -0.00322  51.15167
   X355      36.73628   0.01088   0.00000   0.01296   0.01370  36.74998
   Y355      28.21361   0.01083   0.00000   0.00644   0.00650  28.22011
   Z355      51.75960   0.00135   0.00000  -0.00140  -0.00136  51.75824
   X356      33.46705   0.00257   0.00000  -0.00413  -0.00432  33.46273
   Y356      51.49504  -0.00332   0.00000  -0.00439  -0.00449  51.49055
   Z356      27.47662   0.00079   0.00000  -0.00407  -0.00406  27.47256
   X357      32.88123  -0.00783   0.00000  -0.01100  -0.01124  32.87000
   Y357      52.83674   0.00886   0.00000   0.00929   0.00917  52.84592
   Z357      26.41837  -0.00205   0.00000   0.00167   0.00169  26.42006
   X358      32.10645  -0.00872   0.00000  -0.00957  -0.00973  32.09671
   Y358      50.28561  -0.00887   0.00000  -0.01056  -0.01069  50.27492
   Z358      27.45772  -0.00509   0.00000  -0.00912  -0.00907  27.44865
   X359      35.20560   0.00048   0.00000  -0.00009   0.00052  35.20612
   Y359      38.19137  -0.00782   0.00000  -0.00601  -0.00596  38.18540
   Z359      56.37053   0.01086   0.00000   0.00538   0.00542  56.37595
   X360      35.45126   0.00038   0.00000  -0.00111  -0.00054  35.45073
   Y360      39.92991   0.00844   0.00000   0.00401   0.00406  39.93397
   Z360      55.95479  -0.00488   0.00000  -0.00439  -0.00437  55.95042
   X361      34.94104  -0.00013   0.00000   0.00069   0.00129  34.94233
   Y361      37.37878  -0.00173   0.00000  -0.00012  -0.00008  37.37870
   Z361      54.76426  -0.01055   0.00000  -0.00933  -0.00929  54.75497
   X362      21.41060   0.00525   0.00000   0.00408   0.00461  21.41521
   Y362      32.16314  -0.00260   0.00000   0.00560   0.00531  32.16845
   Z362      44.61643   0.01855   0.00000   0.01473   0.01503  44.63147
   X363      22.20428   0.00644   0.00000   0.00506   0.00555  22.20983
   Y363      32.82454  -0.00001   0.00000  -0.00686  -0.00714  32.81741
   Z363      43.14245  -0.01458   0.00000  -0.01136  -0.01107  43.13138
   X364      19.65315  -0.00859   0.00000  -0.00512  -0.00461  19.64854
   Y364      32.48439   0.00224   0.00000   0.00149   0.00116  32.48556
   Z364      44.37077  -0.00502   0.00000  -0.00618  -0.00584  44.36493
   X365      31.97417  -0.03605   0.00000  -0.02624  -0.02638  31.94779
   Y365      44.63533  -0.00033   0.00000   0.00284   0.00269  44.63802
   Z365      22.44995  -0.00471   0.00000  -0.00342  -0.00336  22.44659
   X366      31.87968   0.00201   0.00000  -0.00017  -0.00027  31.87941
   Y366      42.82119   0.00080   0.00000   0.00153   0.00138  42.82258
   Z366      22.33656   0.00011   0.00000  -0.00035  -0.00028  22.33628
   X367      33.71271   0.02462   0.00000   0.00977   0.00962  33.72234
   Y367      44.99438  -0.00279   0.00000  -0.00813  -0.00824  44.98614
   Z367      22.69561   0.00347   0.00000   0.00157   0.00160  22.69721
   X368      38.60710  -0.00054   0.00000  -0.00194  -0.00141  38.60569
   Y368      20.73030  -0.01424   0.00000  -0.01008  -0.01005  20.72025
   Z368      31.40725   0.00162   0.00000  -0.00025  -0.00022  31.40703
   X369      40.08109   0.00385   0.00000  -0.00108  -0.00058  40.08052
   Y369      21.75075   0.00848   0.00000   0.00807   0.00813  21.75888
   Z369      31.18048   0.00145   0.00000   0.00419   0.00420  31.18468
   X370      37.22760  -0.00849   0.00000  -0.00791  -0.00741  37.22019
   Y370      21.88303   0.00419   0.00000  -0.00089  -0.00090  21.88213
   Z370      31.19938  -0.00554   0.00000  -0.00849  -0.00843  31.19095
   X371      25.07667  -0.01075   0.00000  -0.00691  -0.00644  25.07022
   Y371      40.42124   0.01334   0.00000   0.01283   0.01265  40.43389
   Z371      50.66356   0.01125   0.00000   0.00806   0.00827  50.67183
   X372      26.43727   0.00528   0.00000  -0.00291  -0.00242  26.43485
   Y372      39.24961  -0.00992   0.00000  -0.00734  -0.00750  39.24212
   Z372      50.75804  -0.00567   0.00000  -0.00772  -0.00753  50.75051
   X373      24.79321   0.00227   0.00000   0.00264   0.00306  24.79627
   Y373      40.64801  -0.00466   0.00000  -0.00717  -0.00737  40.64064
   Z373      48.88722  -0.00776   0.00000  -0.00490  -0.00469  48.88253
   X374      42.23538   0.02380   0.00000   0.01681   0.01685  42.25223
   Y374      54.55639   0.00845   0.00000   0.00632   0.00647  54.56286
   Z374      43.53929   0.00131   0.00000   0.00612   0.00597  43.54526
   X375      42.02751  -0.00182   0.00000  -0.00190  -0.00189  42.02562
   Y375      56.23825   0.00388   0.00000   0.00583   0.00597  56.24422
   Z375      44.18180   0.00334   0.00000   0.00541   0.00525  44.18705
   X376      40.59132  -0.01946   0.00000  -0.01046  -0.01041  40.58091
   Y376      53.81940  -0.00596   0.00000  -0.00103  -0.00091  53.81849
   Z376      43.69047  -0.00487   0.00000  -0.01145  -0.01157  43.67890
   X377      45.18335  -0.02384   0.00000  -0.02376  -0.02302  45.16033
   Y377      26.39947  -0.01529   0.00000  -0.00692  -0.00668  26.39279
   Z377      49.83208   0.00652   0.00000   0.00082   0.00072  49.83280
   X378      45.61799   0.00534   0.00000   0.00347   0.00421  45.62220
   Y378      27.57110   0.00746   0.00000   0.00284   0.00309  27.57419
   Z378      51.13599   0.00404   0.00000   0.00068   0.00056  51.13655
   X379      46.12821   0.01805   0.00000   0.01726   0.01797  46.14618
   Y379      26.92860   0.00947   0.00000   0.00632   0.00657  26.93517
   Z379      48.39589  -0.00874   0.00000   0.00215   0.00202  48.39791
   X380      28.02464   0.00504   0.00000   0.00516   0.00575  28.03039
   Y380      35.98039  -0.00099   0.00000   0.00302   0.00291  35.98329
   Z380      52.74226  -0.00553   0.00000  -0.00157  -0.00140  52.74086
   X381      28.83722   0.00744   0.00000   0.01093   0.01149  28.84871
   Y381      37.60555   0.00571   0.00000   0.00587   0.00577  37.61132
   Z381      52.72336   0.00431   0.00000   0.00759   0.00774  52.73110
   X382      27.09867  -0.00544   0.00000  -0.00517  -0.00455  27.09413
   Y382      35.96149   0.00060   0.00000   0.00110   0.00097  35.96246
   Z382      54.29183   0.00682   0.00000   0.00361   0.00380  54.29563
   X383      54.91544  -0.00284   0.00000   0.00104   0.00125  54.91670
   Y383      38.15357   0.00192   0.00000   0.00041   0.00079  38.15436
   Z383      34.60089  -0.00642   0.00000  -0.00939  -0.00972  34.59116
   X384      56.57840   0.00605   0.00000   0.00337   0.00361  56.58201
   Y384      37.56776  -0.00630   0.00000  -0.00804  -0.00763  37.56013
   Z384      34.99773   0.00480   0.00000   0.00650   0.00615  35.00388
   X385      55.19890   0.00096   0.00000   0.00249   0.00265  55.20155
   Y385      39.66535   0.00387   0.00000   0.00557   0.00596  39.67131
   Z385      33.63713  -0.00234   0.00000  -0.00324  -0.00358  33.63355
         Item               Value     Threshold  Converged?
 Maximum Force            0.041514     0.000450     NO 
 RMS     Force            0.010680     0.000300     NO 
 Maximum Displacement     0.037452     0.001800     NO 
 RMS     Displacement     0.008847     0.001200     NO 
 Predicted change in Energy=-7.408916D-02
 GradGradGradGradGradGradGradGradGradGradGradGradGradGradGradGradGradGrad

 Leave Link  103 at Sun May  6 10:56:21 2018, MaxMem= 14763950080 cpu:      2788.3
 (Enter /cm/shared/gaussian/g09.e01/intel64-sandybridge/g09/l9999.exe)
 1\1\GINC-POPLE01\Force\RPBE1PBE\CC-pVDZ\Br1H256O128(1-)\M.PELUSO\06-Ma
 y-2018\0\\#p PBE1PBE/cc-pvDZ force Counterpoise=2 noSymm\\forces on ch
 loride comput - NWATER: 128\\-1,1\Br,20.,20.,20.\O,23.1,19.21,20.32\H,
 23.27,19.21,19.37\H,22.17,19.42,20.4\O,17.04,21.15,20.8\H,16.93,20.97,
 21.73\H,17.89,20.76,20.59\O,18.89,20.23,23.2\H,19.74,20.03,23.6\H,19.0
 7,20.27,22.26\O,17.71,17.68,19.08\H,18.16,17.13,18.44\H,18.27,18.44,19
 .18\O,21.1,16.86,19.3\H,21.78,16.86,19.97\H,20.8,17.77,19.27\O,19.29,1
 7.54,22.28\H,18.8,17.92,23.01\H,19.57,18.28,21.76\O,19.82,21.73,16.88\
 H,19.01,21.82,16.38\H,19.55,21.89,17.79\O,22.08,22.44,22.27\H,21.92,23
 .35,22.\H,22.04,21.95,21.45\O,16.78,21.2,17.72\H,16.86,21.07,18.66\H,1
 6.81,22.15,17.61\O,21.88,16.7,22.13\H,21.04,17.14,22.26\H,22.44,17.04,
 22.83\O,21.63,20.43,15.34\H,20.86,20.33,15.91\H,22.1,19.6,15.43\O,19.2
 3,15.35,20.6\H,19.26,16.04,21.25\H,19.93,15.56,19.98\O,21.6,20.35,23.9
 \H,21.9,21.21,23.63\H,21.86,20.28,24.82\O,24.24,20.59,22.67\H,23.35,20
 .25,22.69\H,24.67,20.1,21.97\O,19.07,18.51,15.63\H,18.32,18.79,16.16\H
 ,18.89,17.6,15.42\O,16.04,19.81,23.17\H,15.81,19.78,24.1\H,17.,19.74,2
 3.16\O,15.97,16.4,21.05\H,16.79,16.79,20.75\H,16.01,15.49,20.74\O,16.3
 1,18.86,16.17\H,15.83,18.03,16.16\H,16.2,19.19,17.07\O,14.71,22.27,20.
 22\H,15.46,21.71,20.42\H,14.98,23.14,20.5\O,23.87,22.17,16.35\H,24.6,2
 1.67,15.97\H,23.16,21.54,16.43\O,17.53,23.87,23.23\H,17.52,24.43,24.01
 \H,18.43,23.91,22.91\O,22.75,24.28,17.75\H,23.13,23.95,18.56\H,22.83,2
 3.55,17.13\O,24.91,23.32,21.28\H,24.28,22.63,21.5\H,25.16,23.15,20.37\
 O,21.21,25.02,21.45\H,20.62,25.71,21.73\H,21.74,25.41,20.76\O,22.79,14
 .63,20.82\H,22.54,15.37,21.37\H,22.24,13.91,21.13\O,24.95,18.5,17.69\H
 ,24.58,17.66,17.93\H,24.49,18.74,16.88\O,16.85,23.91,17.57\H,17.33,24.
 62,17.99\H,15.97,23.96,17.93\O,14.62,17.42,18.82\H,15.23,17.11,19.49\H
 ,14.72,16.8,18.1\O,20.61,14.61,17.22\H,20.92,14.15,18.\H,21.23,15.33,1
 7.1\O,21.42,23.07,14.4\H,21.62,22.63,13.58\H,21.39,22.36,15.05\O,14.15
 ,18.26,22.1\H,14.67,19.04,22.29\H,14.79,17.62,21.79\O,17.47,23.3,15.05
 \H,18.21,23.9,15.09\H,17.15,23.25,15.95\O,16.24,24.67,20.88\H,16.83,24
 .75,21.63\H,16.66,25.18,20.19\O,18.13,16.94,25.13\H,18.07,16.33,24.39\
 H,17.72,16.47,25.85\O,20.94,17.41,25.72\H,20.01,17.38,25.51\H,21.33,16
 .71,25.2\O,23.69,18.2,15.11\H,22.78,18.05,14.86\H,24.15,17.42,14.83\O,
 17.78,15.23,16.76\H,17.66,14.8,17.61\H,18.67,14.99,16.5\O,13.6,19.97,1
 7.04\H,14.29,19.71,17.64\H,13.93,20.75,16.61\O,26.77,20.61,19.5\H,27.5
 8,20.27,19.11\H,26.18,19.86,19.51\O,14.93,22.74,24.02\H,14.36,21.97,23
 .92\H,15.42,22.79,23.2\O,23.41,17.06,24.35\H,23.38,17.82,24.94\H,23.53
 ,16.31,24.94\O,16.43,20.95,13.97\H,16.76,20.32,14.61\H,16.9,21.76,14.1
 5\O,23.39,25.1,23.76\H,23.04,24.63,23.\H,24.17,24.61,24.\O,19.69,25.01
 ,24.5\H,18.91,24.98,25.06\H,20.18,24.23,24.74\O,19.24,19.24,12.77\H,19
 .35,19.19,13.72\H,18.39,18.84,12.6\O,24.4,19.81,25.4\H,24.88,20.36,26.
 02\H,24.4,20.32,24.59\O,17.99,25.97,18.99\H,18.2,26.52,19.74\H,18.17,2
 6.51,18.23\O,15.64,15.7,23.67\H,15.68,16.12,22.81\H,15.27,16.37,24.25\
 O,25.98,17.51,23.13\H,25.03,17.56,23.23\H,26.11,17.01,22.32\O,24.32,14
 .56,18.61\H,23.99,13.73,18.26\H,23.89,14.64,19.46\O,16.96,21.71,26.01\
 H,17.64,22.34,26.2\H,16.48,22.08,25.27\O,19.72,24.99,15.25\H,19.84,25.
 77,15.79\H,20.59,24.61,15.17\O,18.46,19.42,27.02\H,18.29,18.75,26.36\H
 ,18.06,20.22,26.67\O,26.03,23.27,18.75\H,26.86,23.7,18.54\H,26.28,22.4
 1,19.07\O,23.71,26.25,20.43\H,23.83,25.53,21.04\H,24.59,26.44,20.1\O,2
 1.52,20.3,26.94\H,21.15,19.46,26.69\H,21.48,20.31,27.9\O,19.07,12.33,2
 0.33\H,19.02,11.94,21.2\H,19.42,13.21,20.48\O,23.1,21.36,12.95\H,23.23
 ,20.55,12.46\H,22.81,21.07,13.82\O,19.94,22.78,26.3\H,20.63,23.43,26.4
 \H,20.32,21.97,26.63\O,12.07,21.09,20.29\H,11.94,20.16,20.14\H,13.,21.
 23,20.1\O,15.67,18.25,25.53\H,16.17,17.44,25.42\H,15.61,18.36,26.48\O,
 25.51,23.31,24.62\H,25.3,22.64,23.97\H,25.3,22.9,25.46\O,22.26,15.98,1
 4.55\H,21.79,16.57,13.97\H,21.66,15.25,14.69\O,20.87,14.58,24.75\H,21.
 44,13.89,24.4\H,20.02,14.16,24.84\O,12.36,18.23,20.27\H,12.99,18.16,19
 .54\H,12.91,18.26,21.05\O,24.3,23.94,14.3\H,23.61,23.65,13.71\H,24.3,2
 3.28,15.\O,26.45,22.83,15.97\H,25.7,23.13,16.49\H,27.2,23.25,16.38\O,1
 3.9,24.58,18.34\H,13.8,24.21,17.46\H,13.77,23.83,18.93\O,23.01,22.58,2
 6.76\H,23.07,22.6,27.71\H,23.07,21.65,26.53\O,21.48,27.55,18.56\H,21.5
 3,27.7,17.62\H,22.21,26.96,18.75\O,20.4,14.26,14.43\H,20.13,14.2,15.34
 \H,20.06,13.46,14.03\O,14.73,15.74,16.82\H,15.12,15.31,16.06\H,14.41,1
 5.03,17.37\O,21.52,17.95,12.76\H,22.17,18.52,12.36\H,20.69,18.42,12.65
 \O,19.95,27.73,23.02\H,19.21,27.61,22.43\H,20.17,26.85,23.32\O,21.37,1
 2.57,18.74\H,22.14,12.12,19.1\H,20.63,12.03,19.01\O,18.02,14.09,24.52\
 H,17.15,14.49,24.52\H,18.31,14.13,25.43\O,15.2,13.97,19.87\H,15.61,13.
 43,19.19\H,15.6,13.68,20.69\O,16.07,14.64,14.67\H,16.74,14.77,15.35\H,
 16.51,14.88,13.85\O,24.25,26.63,16.54\H,24.39,26.72,15.6\H,23.98,25.71
 ,16.65\O,27.65,18.06,16.36\H,26.83,18.26,16.81\H,28.02,18.92,16.15\O,1
 5.46,13.26,22.43\H,14.79,12.88,23.\H,15.63,14.12,22.81\O,26.13,15.06,2
 1.7\H,26.48,14.54,20.98\H,25.34,14.59,21.97\O,13.86,22.28,15.64\H,13.1
 7,22.93,15.51\H,14.23,22.15,14.77\O,17.23,12.5,18.49\H,16.73,11.72,18.
 74\H,18.05,12.42,18.97\O,27.42,19.55,23.99\H,26.98,18.82,23.55\H,26.78
 ,19.87,24.62\O,12.78,15.41,20.8\H,13.67,15.26,20.48\H,12.44,16.12,20.2
 6\O,13.12,20.83,23.88\H,12.29,21.18,23.56\H,13.02,19.88,23.83\O,19.56,
 23.79,12.07\H,20.04,23.29,12.73\H,19.76,24.7,12.26\O,13.6,25.92,21.84\
 H,14.43,25.48,21.65\H,12.96,25.2,21.89\O,21.4,17.26,28.39\H,21.43,17.1
 8,27.43\H,20.48,17.1,28.61\O,17.64,27.57,21.57\H,16.89,27.56,22.16\H,1
 7.41,28.23,20.91\O,15.11,25.58,15.6\H,15.81,25.8,16.2\H,14.31,25.7,16.
 11\O,25.95,20.92,14.19\H,26.16,21.67,14.76\H,26.75,20.41,14.16\O,12.73
 ,17.24,15.64\H,13.,18.09,16.\H,13.41,16.63,15.92\O,18.16,16.29,12.81\H
 ,18.26,15.52,12.25\H,17.48,16.81,12.39\O,12.14,23.39,22.08\H,11.42,23.
 1,22.64\H,12.27,22.68,21.46\O,18.39,11.76,23.17\H,18.23,12.65,23.47\H,
 17.65,11.26,23.49\O,28.59,18.8,21.43\H,28.24,19.67,21.25\H,28.83,18.82
 ,22.35\O,25.,17.72,27.54\H,25.63,18.4,27.74\H,24.62,17.98,26.7\O,18.56
 ,27.74,16.97\H,18.29,27.28,16.17\H,18.72,28.64,16.69\O,25.79,15.24,24.
 85\H,25.96,15.44,23.93\H,26.35,15.84,25.34\O,14.47,25.14,25.35\H,13.53
 ,25.15,25.55\H,14.62,24.28,24.96\O,19.14,29.38,19.31\H,19.93,29.76,18.
 93\H,19.28,28.44,19.28\O,17.17,25.77,25.74\H,17.5,26.03,26.61\H,16.25,
 25.56,25.89\O,16.19,18.24,12.14\H,15.52,18.53,12.75\H,16.18,18.89,11.4
 4\O,14.41,27.33,18.32\H,13.63,27.79,18.61\H,14.43,26.53,18.84\O,25.37,
 15.91,14.25\H,24.68,15.26,14.42\H,25.46,15.92,13.3\O,14.68,20.98,12.02
 \H,14.11,20.22,11.93\H,15.24,20.78,12.76\O,19.69,26.45,12.8\H,19.04,27
 .09,13.1\H,19.85,25.91,13.57\O,10.78,20.19,17.23\H,10.5,20.14,16.31\H,
 11.73,20.12,17.19\O,22.43,12.44,23.79\H,23.24,12.05,24.11\H,21.78,11.7
 5,23.88\O,17.52,11.95,15.84\H,17.35,12.25,16.74\H,16.65,11.88,15.45\O,
 22.4,26.22,26.89\H,22.49,26.,25.96\H,22.82,27.08,26.98\O,27.62,25.71,2
 1.09\H,26.85,25.93,21.61\H,27.37,24.92,20.61\O,23.61,29.05,20.58\H,23.
 66,28.1,20.64\H,23.04,29.3,21.31\O,28.2,24.01,23.47\H,28.33,24.62,24.1
 9\H,27.28,23.75,23.53\O,16.56,15.34,26.86\H,17.04,14.78,27.47\H,15.64,
 15.13,27.02\O,19.24,14.03,27.14\H,20.1,13.6,27.07\H,19.44,14.93,27.39\
 O,17.71,27.25,14.54\H,17.4,27.96,13.98\H,16.99,26.61,14.53\O,18.63,20.
 21,29.83\H,18.76,21.13,29.61\H,18.49,19.78,28.98\O,11.33,17.02,23.61\H
 ,11.75,17.37,22.83\H,10.4,17.19,23.48\O,16.92,23.62,11.88\H,16.87,22.6
 6,11.82\H,17.84,23.81,12.01\O,20.43,10.97,16.62\H,21.21,11.51,16.5\H,1
 9.7,11.58,16.51\O,13.27,21.39,26.81\H,13.99,20.77,26.86\H,13.12,21.51,
 25.87\O,22.35,28.87,23.04\H,22.24,29.76,23.38\H,21.48,28.48,23.12\O,23
 .91,13.97,26.37\H,24.14,14.59,27.06\H,24.41,14.25,25.61\O,14.83,19.04,
 27.91\H,15.26,19.9,27.9\H,14.34,19.03,28.73\O,29.06,20.19,18.31\H,29.9
 4,19.88,18.52\H,29.21,20.99,17.8\\Version=ES64L-G09RevE.01\HF=-9773.34
 77643\RMSD=2.783e-09\RMSF=1.068e-02\Dipole=2.0633899,-9.8494287,7.8138
 717\Quadrupole=128.8636196,-713.4752614,584.6116418,-1736.019603,-1080
 .9658677,-1546.7409677\PG=C01 [X(Br1H256O128)]\\@


 Experience is what you get when you don't get what you want.
 -- Dan Stanford
 Job cpu time:       6 days  4 hours 23 minutes 53.8 seconds.
 File lengths (MBytes):  RWF=   7285 Int=      0 D2E=      0 Chk=   2411 Scr=      1
 Normal termination of Gaussian 09 at Sun May  6 10:56:42 2018.
