 Entering Gaussian System, Link 0=/cm/shared/gaussian/g09.e01/intel64-sandybridge/g09/g09
 Initial command:
 /cm/shared/gaussian/g09.e01/intel64-sandybridge/g09/l1.exe "/local/scratch/m.peluso/128_wat/370/Gau-18035.inp" -scrdir="/local/scratch/m.peluso/128_wat/370/"
 Entering Link 1 = /cm/shared/gaussian/g09.e01/intel64-sandybridge/g09/l1.exe PID=     18036.
  
 Copyright (c) 1988,1990,1992,1993,1995,1998,2003,2009,2015,
            Gaussian, Inc.  All Rights Reserved.
  
 This is part of the Gaussian(R) 09 program.  It is based on
 the Gaussian(R) 03 system (copyright 2003, Gaussian, Inc.),
 the Gaussian(R) 98 system (copyright 1998, Gaussian, Inc.),
 the Gaussian(R) 94 system (copyright 1995, Gaussian, Inc.),
 the Gaussian 92(TM) system (copyright 1992, Gaussian, Inc.),
 the Gaussian 90(TM) system (copyright 1990, Gaussian, Inc.),
 the Gaussian 88(TM) system (copyright 1988, Gaussian, Inc.),
 the Gaussian 86(TM) system (copyright 1986, Carnegie Mellon
 University), and the Gaussian 82(TM) system (copyright 1983,
 Carnegie Mellon University). Gaussian is a federally registered
 trademark of Gaussian, Inc.
  
 This software contains proprietary and confidential information,
 including trade secrets, belonging to Gaussian, Inc.
  
 This software is provided under written license and may be
 used, copied, transmitted, or stored only in accord with that
 written license.
  
 The following legend is applicable only to US Government
 contracts under FAR:
  
                    RESTRICTED RIGHTS LEGEND
  
 Use, reproduction and disclosure by the US Government is
 subject to restrictions as set forth in subparagraphs (a)
 and (c) of the Commercial Computer Software - Restricted
 Rights clause in FAR 52.227-19.
  
 Gaussian, Inc.
 340 Quinnipiac St., Bldg. 40, Wallingford CT 06492
  
  
 ---------------------------------------------------------------
 Warning -- This program may not be used in any manner that
 competes with the business of Gaussian, Inc. or will provide
 assistance to any competitor of Gaussian, Inc.  The licensee
 of this program is prohibited from giving any competitor of
 Gaussian, Inc. access to this program.  By using this program,
 the user acknowledges that Gaussian, Inc. is engaged in the
 business of creating and licensing software in the field of
 computational chemistry and represents and warrants to the
 licensee that it is not a competitor of Gaussian, Inc. and that
 it will not use this program in any manner prohibited above.
 ---------------------------------------------------------------
  

 Cite this work as:
 Gaussian 09, Revision E.01,
 M. J. Frisch, G. W. Trucks, H. B. Schlegel, G. E. Scuseria, 
 M. A. Robb, J. R. Cheeseman, G. Scalmani, V. Barone, B. Mennucci, 
 G. A. Petersson, H. Nakatsuji, M. Caricato, X. Li, H. P. Hratchian, 
 A. F. Izmaylov, J. Bloino, G. Zheng, J. L. Sonnenberg, M. Hada, 
 M. Ehara, K. Toyota, R. Fukuda, J. Hasegawa, M. Ishida, T. Nakajima, 
 Y. Honda, O. Kitao, H. Nakai, T. Vreven, J. A. Montgomery, Jr., 
 J. E. Peralta, F. Ogliaro, M. Bearpark, J. J. Heyd, E. Brothers, 
 K. N. Kudin, V. N. Staroverov, T. Keith, R. Kobayashi, J. Normand, 
 K. Raghavachari, A. Rendell, J. C. Burant, S. S. Iyengar, J. Tomasi, 
 M. Cossi, N. Rega, J. M. Millam, M. Klene, J. E. Knox, J. B. Cross, 
 V. Bakken, C. Adamo, J. Jaramillo, R. Gomperts, R. E. Stratmann, 
 O. Yazyev, A. J. Austin, R. Cammi, C. Pomelli, J. W. Ochterski, 
 R. L. Martin, K. Morokuma, V. G. Zakrzewski, G. A. Voth, 
 P. Salvador, J. J. Dannenberg, S. Dapprich, A. D. Daniels, 
 O. Farkas, J. B. Foresman, J. V. Ortiz, J. Cioslowski, 
 and D. J. Fox, Gaussian, Inc., Wallingford CT, 2013.
 
 ******************************************
 Gaussian 09:  ES64L-G09RevE.01 30-Nov-2015
                 9-May-2018 
 ******************************************
 %Mem=110GB
 %NProcShared=64
 Will use up to   64 processors via shared memory.
 %chk=snap25.chk
 ----------------------------------------------
 #p PBE1PBE/cc-pvDZ force Counterpoise=2 noSymm
 ----------------------------------------------
 1/10=7,30=1,38=1,62=2/1,3;
 2/12=2,15=1,17=6,18=5,40=1/2;
 1/10=7,30=1,38=1,53=2,62=2,63=101/22;
 3/5=16,11=2,16=1,25=1,30=1,71=1,74=-13/1,2,3;
 4//1;
 5/5=2,38=5/2;
 6/7=2,8=2,9=2,10=2,28=1/1;
 7/7=1,29=1,30=1,33=-1/1,2,3,16;
 1/10=7,30=1,53=2,62=2,63=101/22;
 3/5=7,6=11,11=2,16=1,25=1,30=1,71=1,74=-13,82=7/1,2,3;
 4//1;
 5/5=2,38=5/2;
 6/7=2,8=2,9=2,10=2,28=1/1;
 7/7=1,29=1,30=1,33=-1/1,2,3,16;
 1/10=7,30=1,53=2,62=2,63=101/22(-5);
 7/9=1,29=1,44=-1/16;
 1/10=7,30=1,62=2/3;
 99//99;
 Leave Link    1 at Wed May  9 00:16:09 2018, MaxMem= 14763950080 cpu:         4.3
 (Enter /cm/shared/gaussian/g09.e01/intel64-sandybridge/g09/l101.exe)
 ---------------------------------------
 forces on chloride comput - NWATER: 128
 ---------------------------------------
 Symbolic Z-matrix:
 Charge = -1 Multiplicity = 1 in supermolecule
 Charge = -1 Multiplicity = 1 in fragment      1.
 Charge =  0 Multiplicity = 1 in fragment      2.
 Br(Fragment=1)        20.       20.       20. 
 O(Fragment=2)         20.61     16.96     20.91 
 H(Fragment=2)         20.78     16.99     21.86 
 H(Fragment=2)         20.3      17.84     20.7 
 O(Fragment=2)         17.5      21.2      18.26 
 H(Fragment=2)         18.23     20.86     18.78 
 H(Fragment=2)         16.73     21.06     18.81 
 O(Fragment=2)         23.15     19.28     19.68 
 H(Fragment=2)         23.18     19.7      20.54 
 H(Fragment=2)         22.23     19.34     19.42 
 O(Fragment=2)         17.41     18.91     21.85 
 H(Fragment=2)         16.87     18.54     21.15 
 H(Fragment=2)         18.09     19.41     21.38 
 O(Fragment=2)         20.16     18.36     17.06 
 H(Fragment=2)         19.96     19.07     17.67 
 H(Fragment=2)         21.09     18.45     16.88 
 O(Fragment=2)         22.       21.3      17.47 
 H(Fragment=2)         22.62     20.57     17.4 
 H(Fragment=2)         21.5      21.11     18.26 
 O(Fragment=2)         19.8      22.75     22.17 
 H(Fragment=2)         19.04     23.26     21.88 
 H(Fragment=2)         19.68     21.89     21.78 
 O(Fragment=2)         18.38     23.61     19.13 
 H(Fragment=2)         17.47     23.88     19.28 
 H(Fragment=2)         18.31     22.71     18.8 
 O(Fragment=2)         23.12     19.95     23.19 
 H(Fragment=2)         23.48     20.65     22.65 
 H(Fragment=2)         22.2      20.2      23.32 
 O(Fragment=2)         20.88     21.37     24.22 
 H(Fragment=2)         20.6      21.95     23.51 
 H(Fragment=2)         20.08     20.89     24.46 
 O(Fragment=2)         18.68     15.61     18.94 
 H(Fragment=2)         18.02     15.2      19.49 
 H(Fragment=2)         19.29     16.02     19.56 
 O(Fragment=2)         19.06     21.37     15.99 
 H(Fragment=2)         18.25     21.33     16.49 
 H(Fragment=2)         18.77     21.43     15.08 
 O(Fragment=2)         17.23     17.47     17.51 
 H(Fragment=2)         17.98     16.97     17.85 
 H(Fragment=2)         17.63     18.17     16.99 
 O(Fragment=2)         21.2      24.86     20.86 
 H(Fragment=2)         20.64     24.13     21.12 
 H(Fragment=2)         21.16     24.88     19.91 
 O(Fragment=2)         18.98     16.6      23.21 
 H(Fragment=2)         18.5      16.71     22.39 
 H(Fragment=2)         19.11     17.5      23.53 
 O(Fragment=2)         15.8      18.32     19.71 
 H(Fragment=2)         16.24     18.11     18.89 
 H(Fragment=2)         14.94     18.64     19.46 
 O(Fragment=2)         16.05     21.38     22.41 
 H(Fragment=2)         16.34     20.48     22.31 
 H(Fragment=2)         16.85     21.88     22.58 
 O(Fragment=2)         17.49     19.36     24.65 
 H(Fragment=2)         17.37     18.43     24.82 
 H(Fragment=2)         17.54     19.43     23.7 
 O(Fragment=2)         24.98     21.29     19.15 
 H(Fragment=2)         24.39     22.03     19.32 
 H(Fragment=2)         24.39     20.55     19.03 
 O(Fragment=2)         23.23     23.34     20.24 
 H(Fragment=2)         23.69     23.87     19.58 
 H(Fragment=2)         22.52     23.9      20.54 
 O(Fragment=2)         24.41     16.72     19.46 
 H(Fragment=2)         25.09     16.59     20.11 
 H(Fragment=2)         24.05     17.59     19.66 
 O(Fragment=2)         20.3      25.01     18.11 
 H(Fragment=2)         20.4      24.61     17.25 
 H(Fragment=2)         19.6      24.51     18.53 
 O(Fragment=2)         22.61     15.14     20.38 
 H(Fragment=2)         21.75     15.55     20.44 
 H(Fragment=2)         23.18     15.83     20.04 
 O(Fragment=2)         22.43     16.61     17.37 
 H(Fragment=2)         23.29     16.79     17.76 
 H(Fragment=2)         22.11     15.85     17.85 
 O(Fragment=2)         21.59     20.56     14.63 
 H(Fragment=2)         22.3      20.56     15.27 
 H(Fragment=2)         20.8      20.67     15.16 
 O(Fragment=2)         23.4      19.13     16.41 
 H(Fragment=2)         24.34     19.24     16.51 
 H(Fragment=2)         23.29     18.49     15.72 
 O(Fragment=2)         20.91     23.58     15.97 
 H(Fragment=2)         21.64     23.22     16.47 
 H(Fragment=2)         20.32     22.84     15.83 
 O(Fragment=2)         15.05     21.29     19.36 
 H(Fragment=2)         14.52     21.79     18.73 
 H(Fragment=2)         14.55     20.5      19.52 
 O(Fragment=2)         17.85     18.48     14.87 
 H(Fragment=2)         17.56     18.88     14.05 
 H(Fragment=2)         18.65     18.96     15.1 
 O(Fragment=2)         24.69     22.22     22.36 
 H(Fragment=2)         24.29     22.93     22.87 
 H(Fragment=2)         24.41     22.38     21.46 
 O(Fragment=2)         16.43     15.57     20.5 
 H(Fragment=2)         16.07     15.04     19.79 
 H(Fragment=2)         16.13     16.46     20.31 
 O(Fragment=2)         20.91     16.66     14.86 
 H(Fragment=2)         21.49     17.29     14.44 
 H(Fragment=2)         20.88     16.94     15.78 
 O(Fragment=2)         18.32     22.78     24.91 
 H(Fragment=2)         17.45     23.15     25.1 
 H(Fragment=2)         18.53     23.11     24.04 
 O(Fragment=2)         23.42     24.03     17.46 
 H(Fragment=2)         23.43     23.11     17.22 
 H(Fragment=2)         23.48     24.5      16.63 
 O(Fragment=2)         16.55     23.57     16.3 
 H(Fragment=2)         15.84     24.11     16.66 
 H(Fragment=2)         16.6      22.82     16.89 
 O(Fragment=2)         15.       23.66     20.79 
 H(Fragment=2)         14.08     23.73     20.55 
 H(Fragment=2)         15.21     22.73     20.68 
 O(Fragment=2)         17.4      24.38     22.23 
 H(Fragment=2)         17.76     25.17     22.63 
 H(Fragment=2)         16.66     24.69     21.7 
 O(Fragment=2)         20.8      17.97     25.16 
 H(Fragment=2)         21.15     18.61     25.79 
 H(Fragment=2)         20.27     17.39     25.69 
 O(Fragment=2)         19.09     14.94     16.23 
 H(Fragment=2)         19.57     15.63     15.77 
 H(Fragment=2)         18.77     15.36     17.03 
 O(Fragment=2)         24.27     18.03     24.59 
 H(Fragment=2)         23.56     18.18     25.23 
 H(Fragment=2)         24.06     18.62     23.87 
 O(Fragment=2)         25.97     19.29     21.56 
 H(Fragment=2)         26.56     19.84     22.08 
 H(Fragment=2)         25.73     19.84     20.81 
 O(Fragment=2)         19.91     14.28     23.86 
 H(Fragment=2)         20.64     14.52     24.43 
 H(Fragment=2)         19.53     15.12     23.6 
 O(Fragment=2)         23.       20.59     26.26 
 H(Fragment=2)         23.04     20.85     25.34 
 H(Fragment=2)         22.83     21.4      26.74 
 O(Fragment=2)         14.9      16.71     16.15 
 H(Fragment=2)         14.84     17.27     15.38 
 H(Fragment=2)         15.64     17.07     16.65 
 O(Fragment=2)         23.32     24.09     24.26 
 H(Fragment=2)         23.09     24.88     24.76 
 H(Fragment=2)         22.63     23.46     24.48 
 O(Fragment=2)         19.34     26.45     23.04 
 H(Fragment=2)         19.74     27.19     22.59 
 H(Fragment=2)         19.73     25.68     22.61 
 O(Fragment=2)         20.92     13.68     18.47 
 H(Fragment=2)         21.44     13.96     19.23 
 H(Fragment=2)         20.02     13.64     18.8 
 O(Fragment=2)         14.1      22.46     23.72 
 H(Fragment=2)         14.72     22.02     23.13 
 H(Fragment=2)         13.98     23.32     23.33 
 O(Fragment=2)         19.65     13.63     21.07 
 H(Fragment=2)         19.84     13.63     22.01 
 H(Fragment=2)         18.72     13.42     21.01 
 O(Fragment=2)         18.03     20.55     27.22 
 H(Fragment=2)         18.3      20.27     26.34 
 H(Fragment=2)         18.25     21.49     27.24 
 O(Fragment=2)         25.98     19.54     16.88 
 H(Fragment=2)         26.42     19.98     17.61 
 H(Fragment=2)         26.45     18.72     16.77 
 O(Fragment=2)         25.66     16.7      16.58 
 H(Fragment=2)         24.71     16.59     16.46 
 H(Fragment=2)         25.77     16.82     17.52 
 O(Fragment=2)         18.16     12.94     18.02 
 H(Fragment=2)         18.66     13.71     17.76 
 H(Fragment=2)         18.52     12.23     17.49 
 O(Fragment=2)         13.33     18.67     19.04 
 H(Fragment=2)         13.09     18.04     18.37 
 H(Fragment=2)         12.77     18.46     19.78 
 O(Fragment=2)         27.46     21.74     20.99 
 H(Fragment=2)         26.58     22.06     20.8 
 H(Fragment=2)         27.96     21.93     20.2 
 O(Fragment=2)         27.06     18.31     19.23 
 H(Fragment=2)         26.84     18.77     20.04 
 H(Fragment=2)         26.98     17.38     19.45 
 O(Fragment=2)         13.71     19.72     23.93 
 H(Fragment=2)         14.14     20.54     23.71 
 H(Fragment=2)         14.16     19.42     24.73 
 O(Fragment=2)         18.57     26.97     17.14 
 H(Fragment=2)         18.88     26.55     17.94 
 H(Fragment=2)         17.97     27.65     17.45 
 O(Fragment=2)         18.21     22.05     13.59 
 H(Fragment=2)         17.87     21.26     13.18 
 H(Fragment=2)         17.8      22.77     13.1 
 O(Fragment=2)         20.24     24.34     13.27 
 H(Fragment=2)         20.45     23.83     14.05 
 H(Fragment=2)         19.34     24.64     13.42 
 O(Fragment=2)         24.41     26.31     18.53 
 H(Fragment=2)         24.       25.55     18.12 
 H(Fragment=2)         25.29     26.34     18.16 
 O(Fragment=2)         18.38     25.25     15.06 
 H(Fragment=2)         17.59     24.75     15.27 
 H(Fragment=2)         18.51     25.82     15.82 
 O(Fragment=2)         23.46     23.27     13.93 
 H(Fragment=2)         23.24     22.84     13.1 
 H(Fragment=2)         23.75     22.55     14.49 
 O(Fragment=2)         25.33     21.04     14.6 
 H(Fragment=2)         25.3      20.12     14.36 
 H(Fragment=2)         25.57     21.04     15.53 
 O(Fragment=2)         22.97     12.58     21.67 
 H(Fragment=2)         22.08     12.24     21.82 
 H(Fragment=2)         22.83     13.46     21.34 
 O(Fragment=2)         16.78     17.15     25.87 
 H(Fragment=2)         15.93     16.79     26.12 
 H(Fragment=2)         17.41     16.61     26.34 
 O(Fragment=2)         21.31     26.45     15.32 
 H(Fragment=2)         21.17     26.9      16.16 
 H(Fragment=2)         20.88     25.61     15.43 
 O(Fragment=2)         18.28     16.79     12.69 
 H(Fragment=2)         18.13     17.03     13.61 
 H(Fragment=2)         17.83     15.95     12.58 
 O(Fragment=2)         15.25     19.52     26.41 
 H(Fragment=2)         15.97     20.06     26.08 
 H(Fragment=2)         15.43     18.65     26.04 
 O(Fragment=2)         19.56     22.76     27.57 
 H(Fragment=2)         19.81     22.99     26.68 
 H(Fragment=2)         19.2      23.57     27.93 
 O(Fragment=2)         14.87     21.44     14.52 
 H(Fragment=2)         14.71     22.04     15.25 
 H(Fragment=2)         14.92     22.       13.75 
 O(Fragment=2)         23.95     17.7      14.09 
 H(Fragment=2)         24.89     17.85     14.01 
 H(Fragment=2)         23.89     16.85     14.53 
 O(Fragment=2)         23.73     15.1      15.03 
 H(Fragment=2)         24.3      14.34     15.15 
 H(Fragment=2)         22.89     14.83     15.4 
 O(Fragment=2)         22.68     14.31     24.21 
 H(Fragment=2)         23.05     14.96     24.81 
 H(Fragment=2)         23.4      14.11     23.61 
 O(Fragment=2)         14.98     25.32     17.86 
 H(Fragment=2)         14.17     25.74     17.57 
 H(Fragment=2)         15.33     25.91     18.53 
 O(Fragment=2)         13.48     22.41     16.84 
 H(Fragment=2)         12.72     21.93     16.52 
 H(Fragment=2)         13.1      23.13     17.35 
 O(Fragment=2)         19.73     25.95     25.56 
 H(Fragment=2)         19.04     26.46     25.98 
 H(Fragment=2)         19.62     26.12     24.63 
 O(Fragment=2)         17.14     14.19     24.48 
 H(Fragment=2)         16.7      14.94     24.89 
 H(Fragment=2)         18.05     14.26     24.76 
 O(Fragment=2)         26.88     18.92     24.94 
 H(Fragment=2)         26.47     19.64     25.41 
 H(Fragment=2)         26.15     18.45     24.52 
 O(Fragment=2)         12.08     18.85     21.7 
 H(Fragment=2)         12.64     18.83     22.47 
 H(Fragment=2)         12.1      17.96     21.35 
 O(Fragment=2)         15.47     13.66     18.92 
 H(Fragment=2)         14.7      13.66     18.36 
 H(Fragment=2)         16.14     13.2      18.41 
 O(Fragment=2)         21.85     18.68     11.95 
 H(Fragment=2)         22.48     18.5      12.64 
 H(Fragment=2)         21.21     17.97     12.02 
 O(Fragment=2)         24.85     15.68     25.77 
 H(Fragment=2)         24.81     16.46     25.2 
 H(Fragment=2)         25.55     15.15     25.39 
 O(Fragment=2)         24.92     26.61     22.88 
 H(Fragment=2)         25.55     25.97     22.54 
 H(Fragment=2)         24.08     26.15     22.88 
 O(Fragment=2)         12.14     22.02     20.97 
 H(Fragment=2)         11.64     22.42     21.68 
 H(Fragment=2)         12.23     21.1      21.22 
 O(Fragment=2)         16.65     20.12     12.54 
 H(Fragment=2)         16.03     20.56     13.12 
 H(Fragment=2)         16.29     20.25     11.66 
 O(Fragment=2)         25.65     24.15     25.28 
 H(Fragment=2)         25.55     24.15     26.23 
 H(Fragment=2)         24.76     24.11     24.94 
 O(Fragment=2)         22.97     21.38     12.08 
 H(Fragment=2)         23.8      20.97     11.83 
 H(Fragment=2)         22.44     20.65     12.41 
 O(Fragment=2)         14.8      18.58     14. 
 H(Fragment=2)         15.27     18.67     13.17 
 H(Fragment=2)         14.38     19.44     14.13 
 O(Fragment=2)         14.23     13.85     21.79 
 H(Fragment=2)         14.74     13.95     20.98 
 H(Fragment=2)         14.18     14.73     22.16 
 O(Fragment=2)         27.48     23.31     23.52 
 H(Fragment=2)         26.86     23.55     24.21 
 H(Fragment=2)         27.02     22.65     23. 
 O(Fragment=2)         21.45     12.85     14.84 
 H(Fragment=2)         20.9      12.39     14.2 
 H(Fragment=2)         20.85     13.43     15.3 
 O(Fragment=2)         26.6      24.61     21.08 
 H(Fragment=2)         27.53     24.4      21.04 
 H(Fragment=2)         26.44     25.11     20.28 
 O(Fragment=2)         24.02     27.87     20.7 
 H(Fragment=2)         24.57     27.46     21.37 
 H(Fragment=2)         23.89     27.18     20.04 
 O(Fragment=2)         27.07     15.76     20.18 
 H(Fragment=2)         26.92     15.28     19.36 
 H(Fragment=2)         27.49     15.12     20.76 
 O(Fragment=2)         19.31     15.94     27.16 
 H(Fragment=2)         18.75     15.23     27.48 
 H(Fragment=2)         20.2      15.63     27.32 
 O(Fragment=2)         15.37     26.31     22.72 
 H(Fragment=2)         14.53     26.76     22.82 
 H(Fragment=2)         15.62     26.07     23.62 
 O(Fragment=2)         15.42     27.12     20.11 
 H(Fragment=2)         15.03     26.6      20.82 
 H(Fragment=2)         15.03     27.99     20.2 
 O(Fragment=2)         21.99     11.34     17.42 
 H(Fragment=2)         22.9      11.33     17.71 
 H(Fragment=2)         21.7      12.24     17.58 
 O(Fragment=2)         17.98     12.63     14.77 
 H(Fragment=2)         18.27     13.32     15.37 
 H(Fragment=2)         18.23     11.82     15.2 
 O(Fragment=2)         23.95     18.85     28.29 
 H(Fragment=2)         23.74     19.34     27.5 
 H(Fragment=2)         23.19     18.97     28.85 
 O(Fragment=2)         20.18     22.06     11.25 
 H(Fragment=2)         19.23     22.05     11.41 
 H(Fragment=2)         20.55     22.53     11.99 
 O(Fragment=2)         15.94     23.68     26.48 
 H(Fragment=2)         15.21     24.23     26.2 
 H(Fragment=2)         15.53     22.89     26.83 
 O(Fragment=2)         28.84     18.99     17.29 
 H(Fragment=2)         28.14     18.69     17.87 
 H(Fragment=2)         29.65     18.77     17.76 
 O(Fragment=2)         25.07     25.53     15.5 
 H(Fragment=2)         24.43     25.18     14.88 
 H(Fragment=2)         25.22     26.43     15.21 
 O(Fragment=2)         17.53     11.93     23.25 
 H(Fragment=2)         17.45     12.76     23.72 
 H(Fragment=2)         16.63     11.63     23.14 
 O(Fragment=2)         12.47     16.01     17.41 
 H(Fragment=2)         13.13     16.1      16.72 
 H(Fragment=2)         11.84     16.7      17.24 
 O(Fragment=2)         13.1      21.82     26.06 
 H(Fragment=2)         12.89     20.89     25.98 
 H(Fragment=2)         13.33     22.08     25.17 
 O(Fragment=2)         21.45     19.25     29.06 
 H(Fragment=2)         20.57     19.23     28.68 
 H(Fragment=2)         21.79     20.12     28.84 
 O(Fragment=2)         21.85     21.85     28.85 
 H(Fragment=2)         20.99     22.09     28.49 
 H(Fragment=2)         21.98     22.46     29.58 
 O(Fragment=2)         18.01     10.82     20.2 
 H(Fragment=2)         18.08     11.41     19.45 
 H(Fragment=2)         17.08     10.58     20.23 
 O(Fragment=2)         14.41     14.41     14.84 
 H(Fragment=2)         14.11     15.23     15.24 
 H(Fragment=2)         15.34     14.37     15.04 
 O(Fragment=2)         25.35     12.44     19.5 
 H(Fragment=2)         25.22     12.86     20.35 
 H(Fragment=2)         24.62     11.83     19.43 
 O(Fragment=2)         13.66     24.4      14.68 
 H(Fragment=2)         14.17     25.11     15.07 
 H(Fragment=2)         13.45     23.82     15.42 
 O(Fragment=2)         18.64     17.99     29.14 
 H(Fragment=2)         18.82     17.4      28.41 
 H(Fragment=2)         18.66     17.42     29.91 
 O(Fragment=2)         21.8      28.46     22.88 
 H(Fragment=2)         22.45     28.69     22.22 
 H(Fragment=2)         22.27     27.9      23.49 
 O(Fragment=2)         20.59     16.25     11.04 
 H(Fragment=2)         20.08     16.37     11.84 
 H(Fragment=2)         20.18     15.5      10.6 
 O(Fragment=2)         21.84     11.85     25.14 
 H(Fragment=2)         22.05     12.71     24.78 
 H(Fragment=2)         20.91     11.73     24.95 
 O(Fragment=2)         10.52     19.72     18.68 
 H(Fragment=2)         11.24     19.79     18.04 
 H(Fragment=2)         10.13     18.86     18.5 
 O(Fragment=2)         19.02     20.91     29.76 
 H(Fragment=2)         18.76     20.97     28.84 
 H(Fragment=2)         19.66     20.21     29.79 
 O(Fragment=2)         14.3      16.05     25.75 
 H(Fragment=2)         14.05     15.13     25.8 
 H(Fragment=2)         13.48     16.51     25.59 
 O(Fragment=2)         26.15     14.13     23.02 
 H(Fragment=2)         26.72     14.17     22.25 
 H(Fragment=2)         26.68     13.71     23.7 
 O(Fragment=2)         11.63     16.59     20.38 
 H(Fragment=2)         11.32     15.95     21.02 
 H(Fragment=2)         10.99     16.54     19.67 
 O(Fragment=2)         23.27     26.73     13.56 
 H(Fragment=2)         22.78     26.71     12.74 
 H(Fragment=2)         22.64     26.44     14.22 
 O(Fragment=2)         22.76     26.95     25.13 
 H(Fragment=2)         23.56     27.48     25.17 
 H(Fragment=2)         22.19     27.34     25.79 
 O(Fragment=2)         28.99     20.01     23.46 
 H(Fragment=2)         28.23     19.62     23.9 
 H(Fragment=2)         29.15     20.83     23.92 
 O(Fragment=2)         20.87     10.6      21.86 
 H(Fragment=2)         20.18     10.02     22.19 
 H(Fragment=2)         20.55     10.9      21.01 
 O(Fragment=2)         10.67     22.39     18.7 
 H(Fragment=2)         11.1      22.25     19.55 
 H(Fragment=2)         10.46     21.51     18.39 
 
 NAtoms=    385 NQM=      385 NQMF=       0 NMMI=      0 NMMIF=      0
                NMic=       0 NMicF=      0.
                    Isotopes and Nuclear Properties:
 (Nuclear quadrupole moments (NQMom) in fm**2, nuclear magnetic moments (NMagM)
  in nuclear magnetons)

  Atom         1           2           3           4           5           6           7           8           9          10
 IAtWgt=          79          16           1           1          16           1           1          16           1           1
 AtmWgt=  78.9183361  15.9949146   1.0078250   1.0078250  15.9949146   1.0078250   1.0078250  15.9949146   1.0078250   1.0078250
 NucSpn=           3           0           1           1           0           1           1           0           1           1
 AtZEff=   0.0000000   0.0000000   0.0000000   0.0000000   0.0000000   0.0000000   0.0000000   0.0000000   0.0000000   0.0000000
 NQMom=   31.3000000   0.0000000   0.0000000   0.0000000   0.0000000   0.0000000   0.0000000   0.0000000   0.0000000   0.0000000
 NMagM=    2.1063990   0.0000000   2.7928460   2.7928460   0.0000000   2.7928460   2.7928460   0.0000000   2.7928460   2.7928460
 AtZNuc=  35.0000000   8.0000000   1.0000000   1.0000000   8.0000000   1.0000000   1.0000000   8.0000000   1.0000000   1.0000000

  Atom        11          12          13          14          15          16          17          18          19          20
 IAtWgt=          16           1           1          16           1           1          16           1           1          16
 AtmWgt=  15.9949146   1.0078250   1.0078250  15.9949146   1.0078250   1.0078250  15.9949146   1.0078250   1.0078250  15.9949146
 NucSpn=           0           1           1           0           1           1           0           1           1           0
 AtZEff=   0.0000000   0.0000000   0.0000000   0.0000000   0.0000000   0.0000000   0.0000000   0.0000000   0.0000000   0.0000000
 NQMom=    0.0000000   0.0000000   0.0000000   0.0000000   0.0000000   0.0000000   0.0000000   0.0000000   0.0000000   0.0000000
 NMagM=    0.0000000   2.7928460   2.7928460   0.0000000   2.7928460   2.7928460   0.0000000   2.7928460   2.7928460   0.0000000
 AtZNuc=   8.0000000   1.0000000   1.0000000   8.0000000   1.0000000   1.0000000   8.0000000   1.0000000   1.0000000   8.0000000

  Atom        21          22          23          24          25          26          27          28          29          30
 IAtWgt=           1           1          16           1           1          16           1           1          16           1
 AtmWgt=   1.0078250   1.0078250  15.9949146   1.0078250   1.0078250  15.9949146   1.0078250   1.0078250  15.9949146   1.0078250
 NucSpn=           1           1           0           1           1           0           1           1           0           1
 AtZEff=   0.0000000   0.0000000   0.0000000   0.0000000   0.0000000   0.0000000   0.0000000   0.0000000   0.0000000   0.0000000
 NQMom=    0.0000000   0.0000000   0.0000000   0.0000000   0.0000000   0.0000000   0.0000000   0.0000000   0.0000000   0.0000000
 NMagM=    2.7928460   2.7928460   0.0000000   2.7928460   2.7928460   0.0000000   2.7928460   2.7928460   0.0000000   2.7928460
 AtZNuc=   1.0000000   1.0000000   8.0000000   1.0000000   1.0000000   8.0000000   1.0000000   1.0000000   8.0000000   1.0000000

  Atom        31          32          33          34          35          36          37          38          39          40
 IAtWgt=           1          16           1           1          16           1           1          16           1           1
 AtmWgt=   1.0078250  15.9949146   1.0078250   1.0078250  15.9949146   1.0078250   1.0078250  15.9949146   1.0078250   1.0078250
 NucSpn=           1           0           1           1           0           1           1           0           1           1
 AtZEff=   0.0000000   0.0000000   0.0000000   0.0000000   0.0000000   0.0000000   0.0000000   0.0000000   0.0000000   0.0000000
 NQMom=    0.0000000   0.0000000   0.0000000   0.0000000   0.0000000   0.0000000   0.0000000   0.0000000   0.0000000   0.0000000
 NMagM=    2.7928460   0.0000000   2.7928460   2.7928460   0.0000000   2.7928460   2.7928460   0.0000000   2.7928460   2.7928460
 AtZNuc=   1.0000000   8.0000000   1.0000000   1.0000000   8.0000000   1.0000000   1.0000000   8.0000000   1.0000000   1.0000000

  Atom        41          42          43          44          45          46          47          48          49          50
 IAtWgt=          16           1           1          16           1           1          16           1           1          16
 AtmWgt=  15.9949146   1.0078250   1.0078250  15.9949146   1.0078250   1.0078250  15.9949146   1.0078250   1.0078250  15.9949146
 NucSpn=           0           1           1           0           1           1           0           1           1           0
 AtZEff=   0.0000000   0.0000000   0.0000000   0.0000000   0.0000000   0.0000000   0.0000000   0.0000000   0.0000000   0.0000000
 NQMom=    0.0000000   0.0000000   0.0000000   0.0000000   0.0000000   0.0000000   0.0000000   0.0000000   0.0000000   0.0000000
 NMagM=    0.0000000   2.7928460   2.7928460   0.0000000   2.7928460   2.7928460   0.0000000   2.7928460   2.7928460   0.0000000
 AtZNuc=   8.0000000   1.0000000   1.0000000   8.0000000   1.0000000   1.0000000   8.0000000   1.0000000   1.0000000   8.0000000

  Atom        51          52          53          54          55          56          57          58          59          60
 IAtWgt=           1           1          16           1           1          16           1           1          16           1
 AtmWgt=   1.0078250   1.0078250  15.9949146   1.0078250   1.0078250  15.9949146   1.0078250   1.0078250  15.9949146   1.0078250
 NucSpn=           1           1           0           1           1           0           1           1           0           1
 AtZEff=   0.0000000   0.0000000   0.0000000   0.0000000   0.0000000   0.0000000   0.0000000   0.0000000   0.0000000   0.0000000
 NQMom=    0.0000000   0.0000000   0.0000000   0.0000000   0.0000000   0.0000000   0.0000000   0.0000000   0.0000000   0.0000000
 NMagM=    2.7928460   2.7928460   0.0000000   2.7928460   2.7928460   0.0000000   2.7928460   2.7928460   0.0000000   2.7928460
 AtZNuc=   1.0000000   1.0000000   8.0000000   1.0000000   1.0000000   8.0000000   1.0000000   1.0000000   8.0000000   1.0000000

  Atom        61          62          63          64          65          66          67          68          69          70
 IAtWgt=           1          16           1           1          16           1           1          16           1           1
 AtmWgt=   1.0078250  15.9949146   1.0078250   1.0078250  15.9949146   1.0078250   1.0078250  15.9949146   1.0078250   1.0078250
 NucSpn=           1           0           1           1           0           1           1           0           1           1
 AtZEff=   0.0000000   0.0000000   0.0000000   0.0000000   0.0000000   0.0000000   0.0000000   0.0000000   0.0000000   0.0000000
 NQMom=    0.0000000   0.0000000   0.0000000   0.0000000   0.0000000   0.0000000   0.0000000   0.0000000   0.0000000   0.0000000
 NMagM=    2.7928460   0.0000000   2.7928460   2.7928460   0.0000000   2.7928460   2.7928460   0.0000000   2.7928460   2.7928460
 AtZNuc=   1.0000000   8.0000000   1.0000000   1.0000000   8.0000000   1.0000000   1.0000000   8.0000000   1.0000000   1.0000000

  Atom        71          72          73          74          75          76          77          78          79          80
 IAtWgt=          16           1           1          16           1           1          16           1           1          16
 AtmWgt=  15.9949146   1.0078250   1.0078250  15.9949146   1.0078250   1.0078250  15.9949146   1.0078250   1.0078250  15.9949146
 NucSpn=           0           1           1           0           1           1           0           1           1           0
 AtZEff=   0.0000000   0.0000000   0.0000000   0.0000000   0.0000000   0.0000000   0.0000000   0.0000000   0.0000000   0.0000000
 NQMom=    0.0000000   0.0000000   0.0000000   0.0000000   0.0000000   0.0000000   0.0000000   0.0000000   0.0000000   0.0000000
 NMagM=    0.0000000   2.7928460   2.7928460   0.0000000   2.7928460   2.7928460   0.0000000   2.7928460   2.7928460   0.0000000
 AtZNuc=   8.0000000   1.0000000   1.0000000   8.0000000   1.0000000   1.0000000   8.0000000   1.0000000   1.0000000   8.0000000

  Atom        81          82          83          84          85          86          87          88          89          90
 IAtWgt=           1           1          16           1           1          16           1           1          16           1
 AtmWgt=   1.0078250   1.0078250  15.9949146   1.0078250   1.0078250  15.9949146   1.0078250   1.0078250  15.9949146   1.0078250
 NucSpn=           1           1           0           1           1           0           1           1           0           1
 AtZEff=   0.0000000   0.0000000   0.0000000   0.0000000   0.0000000   0.0000000   0.0000000   0.0000000   0.0000000   0.0000000
 NQMom=    0.0000000   0.0000000   0.0000000   0.0000000   0.0000000   0.0000000   0.0000000   0.0000000   0.0000000   0.0000000
 NMagM=    2.7928460   2.7928460   0.0000000   2.7928460   2.7928460   0.0000000   2.7928460   2.7928460   0.0000000   2.7928460
 AtZNuc=   1.0000000   1.0000000   8.0000000   1.0000000   1.0000000   8.0000000   1.0000000   1.0000000   8.0000000   1.0000000

  Atom        91          92          93          94          95          96          97          98          99         100
 IAtWgt=           1          16           1           1          16           1           1          16           1           1
 AtmWgt=   1.0078250  15.9949146   1.0078250   1.0078250  15.9949146   1.0078250   1.0078250  15.9949146   1.0078250   1.0078250
 NucSpn=           1           0           1           1           0           1           1           0           1           1
 AtZEff=   0.0000000   0.0000000   0.0000000   0.0000000   0.0000000   0.0000000   0.0000000   0.0000000   0.0000000   0.0000000
 NQMom=    0.0000000   0.0000000   0.0000000   0.0000000   0.0000000   0.0000000   0.0000000   0.0000000   0.0000000   0.0000000
 NMagM=    2.7928460   0.0000000   2.7928460   2.7928460   0.0000000   2.7928460   2.7928460   0.0000000   2.7928460   2.7928460
 AtZNuc=   1.0000000   8.0000000   1.0000000   1.0000000   8.0000000   1.0000000   1.0000000   8.0000000   1.0000000   1.0000000

  Atom       101         102         103         104         105         106         107         108         109         110
 IAtWgt=          16           1           1          16           1           1          16           1           1          16
 AtmWgt=  15.9949146   1.0078250   1.0078250  15.9949146   1.0078250   1.0078250  15.9949146   1.0078250   1.0078250  15.9949146
 NucSpn=           0           1           1           0           1           1           0           1           1           0
 AtZEff=   0.0000000   0.0000000   0.0000000   0.0000000   0.0000000   0.0000000   0.0000000   0.0000000   0.0000000   0.0000000
 NQMom=    0.0000000   0.0000000   0.0000000   0.0000000   0.0000000   0.0000000   0.0000000   0.0000000   0.0000000   0.0000000
 NMagM=    0.0000000   2.7928460   2.7928460   0.0000000   2.7928460   2.7928460   0.0000000   2.7928460   2.7928460   0.0000000
 AtZNuc=   8.0000000   1.0000000   1.0000000   8.0000000   1.0000000   1.0000000   8.0000000   1.0000000   1.0000000   8.0000000

  Atom       111         112         113         114         115         116         117         118         119         120
 IAtWgt=           1           1          16           1           1          16           1           1          16           1
 AtmWgt=   1.0078250   1.0078250  15.9949146   1.0078250   1.0078250  15.9949146   1.0078250   1.0078250  15.9949146   1.0078250
 NucSpn=           1           1           0           1           1           0           1           1           0           1
 AtZEff=   0.0000000   0.0000000   0.0000000   0.0000000   0.0000000   0.0000000   0.0000000   0.0000000   0.0000000   0.0000000
 NQMom=    0.0000000   0.0000000   0.0000000   0.0000000   0.0000000   0.0000000   0.0000000   0.0000000   0.0000000   0.0000000
 NMagM=    2.7928460   2.7928460   0.0000000   2.7928460   2.7928460   0.0000000   2.7928460   2.7928460   0.0000000   2.7928460
 AtZNuc=   1.0000000   1.0000000   8.0000000   1.0000000   1.0000000   8.0000000   1.0000000   1.0000000   8.0000000   1.0000000

  Atom       121         122         123         124         125         126         127         128         129         130
 IAtWgt=           1          16           1           1          16           1           1          16           1           1
 AtmWgt=   1.0078250  15.9949146   1.0078250   1.0078250  15.9949146   1.0078250   1.0078250  15.9949146   1.0078250   1.0078250
 NucSpn=           1           0           1           1           0           1           1           0           1           1
 AtZEff=   0.0000000   0.0000000   0.0000000   0.0000000   0.0000000   0.0000000   0.0000000   0.0000000   0.0000000   0.0000000
 NQMom=    0.0000000   0.0000000   0.0000000   0.0000000   0.0000000   0.0000000   0.0000000   0.0000000   0.0000000   0.0000000
 NMagM=    2.7928460   0.0000000   2.7928460   2.7928460   0.0000000   2.7928460   2.7928460   0.0000000   2.7928460   2.7928460
 AtZNuc=   1.0000000   8.0000000   1.0000000   1.0000000   8.0000000   1.0000000   1.0000000   8.0000000   1.0000000   1.0000000

  Atom       131         132         133         134         135         136         137         138         139         140
 IAtWgt=          16           1           1          16           1           1          16           1           1          16
 AtmWgt=  15.9949146   1.0078250   1.0078250  15.9949146   1.0078250   1.0078250  15.9949146   1.0078250   1.0078250  15.9949146
 NucSpn=           0           1           1           0           1           1           0           1           1           0
 AtZEff=   0.0000000   0.0000000   0.0000000   0.0000000   0.0000000   0.0000000   0.0000000   0.0000000   0.0000000   0.0000000
 NQMom=    0.0000000   0.0000000   0.0000000   0.0000000   0.0000000   0.0000000   0.0000000   0.0000000   0.0000000   0.0000000
 NMagM=    0.0000000   2.7928460   2.7928460   0.0000000   2.7928460   2.7928460   0.0000000   2.7928460   2.7928460   0.0000000
 AtZNuc=   8.0000000   1.0000000   1.0000000   8.0000000   1.0000000   1.0000000   8.0000000   1.0000000   1.0000000   8.0000000

  Atom       141         142         143         144         145         146         147         148         149         150
 IAtWgt=           1           1          16           1           1          16           1           1          16           1
 AtmWgt=   1.0078250   1.0078250  15.9949146   1.0078250   1.0078250  15.9949146   1.0078250   1.0078250  15.9949146   1.0078250
 NucSpn=           1           1           0           1           1           0           1           1           0           1
 AtZEff=   0.0000000   0.0000000   0.0000000   0.0000000   0.0000000   0.0000000   0.0000000   0.0000000   0.0000000   0.0000000
 NQMom=    0.0000000   0.0000000   0.0000000   0.0000000   0.0000000   0.0000000   0.0000000   0.0000000   0.0000000   0.0000000
 NMagM=    2.7928460   2.7928460   0.0000000   2.7928460   2.7928460   0.0000000   2.7928460   2.7928460   0.0000000   2.7928460
 AtZNuc=   1.0000000   1.0000000   8.0000000   1.0000000   1.0000000   8.0000000   1.0000000   1.0000000   8.0000000   1.0000000

  Atom       151         152         153         154         155         156         157         158         159         160
 IAtWgt=           1          16           1           1          16           1           1          16           1           1
 AtmWgt=   1.0078250  15.9949146   1.0078250   1.0078250  15.9949146   1.0078250   1.0078250  15.9949146   1.0078250   1.0078250
 NucSpn=           1           0           1           1           0           1           1           0           1           1
 AtZEff=   0.0000000   0.0000000   0.0000000   0.0000000   0.0000000   0.0000000   0.0000000   0.0000000   0.0000000   0.0000000
 NQMom=    0.0000000   0.0000000   0.0000000   0.0000000   0.0000000   0.0000000   0.0000000   0.0000000   0.0000000   0.0000000
 NMagM=    2.7928460   0.0000000   2.7928460   2.7928460   0.0000000   2.7928460   2.7928460   0.0000000   2.7928460   2.7928460
 AtZNuc=   1.0000000   8.0000000   1.0000000   1.0000000   8.0000000   1.0000000   1.0000000   8.0000000   1.0000000   1.0000000

  Atom       161         162         163         164         165         166         167         168         169         170
 IAtWgt=          16           1           1          16           1           1          16           1           1          16
 AtmWgt=  15.9949146   1.0078250   1.0078250  15.9949146   1.0078250   1.0078250  15.9949146   1.0078250   1.0078250  15.9949146
 NucSpn=           0           1           1           0           1           1           0           1           1           0
 AtZEff=   0.0000000   0.0000000   0.0000000   0.0000000   0.0000000   0.0000000   0.0000000   0.0000000   0.0000000   0.0000000
 NQMom=    0.0000000   0.0000000   0.0000000   0.0000000   0.0000000   0.0000000   0.0000000   0.0000000   0.0000000   0.0000000
 NMagM=    0.0000000   2.7928460   2.7928460   0.0000000   2.7928460   2.7928460   0.0000000   2.7928460   2.7928460   0.0000000
 AtZNuc=   8.0000000   1.0000000   1.0000000   8.0000000   1.0000000   1.0000000   8.0000000   1.0000000   1.0000000   8.0000000

  Atom       171         172         173         174         175         176         177         178         179         180
 IAtWgt=           1           1          16           1           1          16           1           1          16           1
 AtmWgt=   1.0078250   1.0078250  15.9949146   1.0078250   1.0078250  15.9949146   1.0078250   1.0078250  15.9949146   1.0078250
 NucSpn=           1           1           0           1           1           0           1           1           0           1
 AtZEff=   0.0000000   0.0000000   0.0000000   0.0000000   0.0000000   0.0000000   0.0000000   0.0000000   0.0000000   0.0000000
 NQMom=    0.0000000   0.0000000   0.0000000   0.0000000   0.0000000   0.0000000   0.0000000   0.0000000   0.0000000   0.0000000
 NMagM=    2.7928460   2.7928460   0.0000000   2.7928460   2.7928460   0.0000000   2.7928460   2.7928460   0.0000000   2.7928460
 AtZNuc=   1.0000000   1.0000000   8.0000000   1.0000000   1.0000000   8.0000000   1.0000000   1.0000000   8.0000000   1.0000000

  Atom       181         182         183         184         185         186         187         188         189         190
 IAtWgt=           1          16           1           1          16           1           1          16           1           1
 AtmWgt=   1.0078250  15.9949146   1.0078250   1.0078250  15.9949146   1.0078250   1.0078250  15.9949146   1.0078250   1.0078250
 NucSpn=           1           0           1           1           0           1           1           0           1           1
 AtZEff=   0.0000000   0.0000000   0.0000000   0.0000000   0.0000000   0.0000000   0.0000000   0.0000000   0.0000000   0.0000000
 NQMom=    0.0000000   0.0000000   0.0000000   0.0000000   0.0000000   0.0000000   0.0000000   0.0000000   0.0000000   0.0000000
 NMagM=    2.7928460   0.0000000   2.7928460   2.7928460   0.0000000   2.7928460   2.7928460   0.0000000   2.7928460   2.7928460
 AtZNuc=   1.0000000   8.0000000   1.0000000   1.0000000   8.0000000   1.0000000   1.0000000   8.0000000   1.0000000   1.0000000

  Atom       191         192         193         194         195         196         197         198         199         200
 IAtWgt=          16           1           1          16           1           1          16           1           1          16
 AtmWgt=  15.9949146   1.0078250   1.0078250  15.9949146   1.0078250   1.0078250  15.9949146   1.0078250   1.0078250  15.9949146
 NucSpn=           0           1           1           0           1           1           0           1           1           0
 AtZEff=   0.0000000   0.0000000   0.0000000   0.0000000   0.0000000   0.0000000   0.0000000   0.0000000   0.0000000   0.0000000
 NQMom=    0.0000000   0.0000000   0.0000000   0.0000000   0.0000000   0.0000000   0.0000000   0.0000000   0.0000000   0.0000000
 NMagM=    0.0000000   2.7928460   2.7928460   0.0000000   2.7928460   2.7928460   0.0000000   2.7928460   2.7928460   0.0000000
 AtZNuc=   8.0000000   1.0000000   1.0000000   8.0000000   1.0000000   1.0000000   8.0000000   1.0000000   1.0000000   8.0000000

  Atom       201         202         203         204         205         206         207         208         209         210
 IAtWgt=           1           1          16           1           1          16           1           1          16           1
 AtmWgt=   1.0078250   1.0078250  15.9949146   1.0078250   1.0078250  15.9949146   1.0078250   1.0078250  15.9949146   1.0078250
 NucSpn=           1           1           0           1           1           0           1           1           0           1
 AtZEff=   0.0000000   0.0000000   0.0000000   0.0000000   0.0000000   0.0000000   0.0000000   0.0000000   0.0000000   0.0000000
 NQMom=    0.0000000   0.0000000   0.0000000   0.0000000   0.0000000   0.0000000   0.0000000   0.0000000   0.0000000   0.0000000
 NMagM=    2.7928460   2.7928460   0.0000000   2.7928460   2.7928460   0.0000000   2.7928460   2.7928460   0.0000000   2.7928460
 AtZNuc=   1.0000000   1.0000000   8.0000000   1.0000000   1.0000000   8.0000000   1.0000000   1.0000000   8.0000000   1.0000000

  Atom       211         212         213         214         215         216         217         218         219         220
 IAtWgt=           1          16           1           1          16           1           1          16           1           1
 AtmWgt=   1.0078250  15.9949146   1.0078250   1.0078250  15.9949146   1.0078250   1.0078250  15.9949146   1.0078250   1.0078250
 NucSpn=           1           0           1           1           0           1           1           0           1           1
 AtZEff=   0.0000000   0.0000000   0.0000000   0.0000000   0.0000000   0.0000000   0.0000000   0.0000000   0.0000000   0.0000000
 NQMom=    0.0000000   0.0000000   0.0000000   0.0000000   0.0000000   0.0000000   0.0000000   0.0000000   0.0000000   0.0000000
 NMagM=    2.7928460   0.0000000   2.7928460   2.7928460   0.0000000   2.7928460   2.7928460   0.0000000   2.7928460   2.7928460
 AtZNuc=   1.0000000   8.0000000   1.0000000   1.0000000   8.0000000   1.0000000   1.0000000   8.0000000   1.0000000   1.0000000

  Atom       221         222         223         224         225         226         227         228         229         230
 IAtWgt=          16           1           1          16           1           1          16           1           1          16
 AtmWgt=  15.9949146   1.0078250   1.0078250  15.9949146   1.0078250   1.0078250  15.9949146   1.0078250   1.0078250  15.9949146
 NucSpn=           0           1           1           0           1           1           0           1           1           0
 AtZEff=   0.0000000   0.0000000   0.0000000   0.0000000   0.0000000   0.0000000   0.0000000   0.0000000   0.0000000   0.0000000
 NQMom=    0.0000000   0.0000000   0.0000000   0.0000000   0.0000000   0.0000000   0.0000000   0.0000000   0.0000000   0.0000000
 NMagM=    0.0000000   2.7928460   2.7928460   0.0000000   2.7928460   2.7928460   0.0000000   2.7928460   2.7928460   0.0000000
 AtZNuc=   8.0000000   1.0000000   1.0000000   8.0000000   1.0000000   1.0000000   8.0000000   1.0000000   1.0000000   8.0000000

  Atom       231         232         233         234         235         236         237         238         239         240
 IAtWgt=           1           1          16           1           1          16           1           1          16           1
 AtmWgt=   1.0078250   1.0078250  15.9949146   1.0078250   1.0078250  15.9949146   1.0078250   1.0078250  15.9949146   1.0078250
 NucSpn=           1           1           0           1           1           0           1           1           0           1
 AtZEff=   0.0000000   0.0000000   0.0000000   0.0000000   0.0000000   0.0000000   0.0000000   0.0000000   0.0000000   0.0000000
 NQMom=    0.0000000   0.0000000   0.0000000   0.0000000   0.0000000   0.0000000   0.0000000   0.0000000   0.0000000   0.0000000
 NMagM=    2.7928460   2.7928460   0.0000000   2.7928460   2.7928460   0.0000000   2.7928460   2.7928460   0.0000000   2.7928460
 AtZNuc=   1.0000000   1.0000000   8.0000000   1.0000000   1.0000000   8.0000000   1.0000000   1.0000000   8.0000000   1.0000000

  Atom       241         242         243         244         245         246         247         248         249         250
 IAtWgt=           1          16           1           1          16           1           1          16           1           1
 AtmWgt=   1.0078250  15.9949146   1.0078250   1.0078250  15.9949146   1.0078250   1.0078250  15.9949146   1.0078250   1.0078250
 NucSpn=           1           0           1           1           0           1           1           0           1           1
 AtZEff=   0.0000000   0.0000000   0.0000000   0.0000000   0.0000000   0.0000000   0.0000000   0.0000000   0.0000000   0.0000000
 NQMom=    0.0000000   0.0000000   0.0000000   0.0000000   0.0000000   0.0000000   0.0000000   0.0000000   0.0000000   0.0000000
 NMagM=    2.7928460   0.0000000   2.7928460   2.7928460   0.0000000   2.7928460   2.7928460   0.0000000   2.7928460   2.7928460
 AtZNuc=   1.0000000   8.0000000   1.0000000   1.0000000   8.0000000   1.0000000   1.0000000   8.0000000   1.0000000   1.0000000

  Atom       251         252         253         254         255         256         257         258         259         260
 IAtWgt=          16           1           1          16           1           1          16           1           1          16
 AtmWgt=  15.9949146   1.0078250   1.0078250  15.9949146   1.0078250   1.0078250  15.9949146   1.0078250   1.0078250  15.9949146
 NucSpn=           0           1           1           0           1           1           0           1           1           0
 AtZEff=   0.0000000   0.0000000   0.0000000   0.0000000   0.0000000   0.0000000   0.0000000   0.0000000   0.0000000   0.0000000
 NQMom=    0.0000000   0.0000000   0.0000000   0.0000000   0.0000000   0.0000000   0.0000000   0.0000000   0.0000000   0.0000000
 NMagM=    0.0000000   2.7928460   2.7928460   0.0000000   2.7928460   2.7928460   0.0000000   2.7928460   2.7928460   0.0000000
 AtZNuc=   8.0000000   1.0000000   1.0000000   8.0000000   1.0000000   1.0000000   8.0000000   1.0000000   1.0000000   8.0000000

  Atom       261         262         263         264         265         266         267         268         269         270
 IAtWgt=           1           1          16           1           1          16           1           1          16           1
 AtmWgt=   1.0078250   1.0078250  15.9949146   1.0078250   1.0078250  15.9949146   1.0078250   1.0078250  15.9949146   1.0078250
 NucSpn=           1           1           0           1           1           0           1           1           0           1
 AtZEff=   0.0000000   0.0000000   0.0000000   0.0000000   0.0000000   0.0000000   0.0000000   0.0000000   0.0000000   0.0000000
 NQMom=    0.0000000   0.0000000   0.0000000   0.0000000   0.0000000   0.0000000   0.0000000   0.0000000   0.0000000   0.0000000
 NMagM=    2.7928460   2.7928460   0.0000000   2.7928460   2.7928460   0.0000000   2.7928460   2.7928460   0.0000000   2.7928460
 AtZNuc=   1.0000000   1.0000000   8.0000000   1.0000000   1.0000000   8.0000000   1.0000000   1.0000000   8.0000000   1.0000000

  Atom       271         272         273         274         275         276         277         278         279         280
 IAtWgt=           1          16           1           1          16           1           1          16           1           1
 AtmWgt=   1.0078250  15.9949146   1.0078250   1.0078250  15.9949146   1.0078250   1.0078250  15.9949146   1.0078250   1.0078250
 NucSpn=           1           0           1           1           0           1           1           0           1           1
 AtZEff=   0.0000000   0.0000000   0.0000000   0.0000000   0.0000000   0.0000000   0.0000000   0.0000000   0.0000000   0.0000000
 NQMom=    0.0000000   0.0000000   0.0000000   0.0000000   0.0000000   0.0000000   0.0000000   0.0000000   0.0000000   0.0000000
 NMagM=    2.7928460   0.0000000   2.7928460   2.7928460   0.0000000   2.7928460   2.7928460   0.0000000   2.7928460   2.7928460
 AtZNuc=   1.0000000   8.0000000   1.0000000   1.0000000   8.0000000   1.0000000   1.0000000   8.0000000   1.0000000   1.0000000

  Atom       281         282         283         284         285         286         287         288         289         290
 IAtWgt=          16           1           1          16           1           1          16           1           1          16
 AtmWgt=  15.9949146   1.0078250   1.0078250  15.9949146   1.0078250   1.0078250  15.9949146   1.0078250   1.0078250  15.9949146
 NucSpn=           0           1           1           0           1           1           0           1           1           0
 AtZEff=   0.0000000   0.0000000   0.0000000   0.0000000   0.0000000   0.0000000   0.0000000   0.0000000   0.0000000   0.0000000
 NQMom=    0.0000000   0.0000000   0.0000000   0.0000000   0.0000000   0.0000000   0.0000000   0.0000000   0.0000000   0.0000000
 NMagM=    0.0000000   2.7928460   2.7928460   0.0000000   2.7928460   2.7928460   0.0000000   2.7928460   2.7928460   0.0000000
 AtZNuc=   8.0000000   1.0000000   1.0000000   8.0000000   1.0000000   1.0000000   8.0000000   1.0000000   1.0000000   8.0000000

  Atom       291         292         293         294         295         296         297         298         299         300
 IAtWgt=           1           1          16           1           1          16           1           1          16           1
 AtmWgt=   1.0078250   1.0078250  15.9949146   1.0078250   1.0078250  15.9949146   1.0078250   1.0078250  15.9949146   1.0078250
 NucSpn=           1           1           0           1           1           0           1           1           0           1
 AtZEff=   0.0000000   0.0000000   0.0000000   0.0000000   0.0000000   0.0000000   0.0000000   0.0000000   0.0000000   0.0000000
 NQMom=    0.0000000   0.0000000   0.0000000   0.0000000   0.0000000   0.0000000   0.0000000   0.0000000   0.0000000   0.0000000
 NMagM=    2.7928460   2.7928460   0.0000000   2.7928460   2.7928460   0.0000000   2.7928460   2.7928460   0.0000000   2.7928460
 AtZNuc=   1.0000000   1.0000000   8.0000000   1.0000000   1.0000000   8.0000000   1.0000000   1.0000000   8.0000000   1.0000000

  Atom       301         302         303         304         305         306         307         308         309         310
 IAtWgt=           1          16           1           1          16           1           1          16           1           1
 AtmWgt=   1.0078250  15.9949146   1.0078250   1.0078250  15.9949146   1.0078250   1.0078250  15.9949146   1.0078250   1.0078250
 NucSpn=           1           0           1           1           0           1           1           0           1           1
 AtZEff=   0.0000000   0.0000000   0.0000000   0.0000000   0.0000000   0.0000000   0.0000000   0.0000000   0.0000000   0.0000000
 NQMom=    0.0000000   0.0000000   0.0000000   0.0000000   0.0000000   0.0000000   0.0000000   0.0000000   0.0000000   0.0000000
 NMagM=    2.7928460   0.0000000   2.7928460   2.7928460   0.0000000   2.7928460   2.7928460   0.0000000   2.7928460   2.7928460
 AtZNuc=   1.0000000   8.0000000   1.0000000   1.0000000   8.0000000   1.0000000   1.0000000   8.0000000   1.0000000   1.0000000

  Atom       311         312         313         314         315         316         317         318         319         320
 IAtWgt=          16           1           1          16           1           1          16           1           1          16
 AtmWgt=  15.9949146   1.0078250   1.0078250  15.9949146   1.0078250   1.0078250  15.9949146   1.0078250   1.0078250  15.9949146
 NucSpn=           0           1           1           0           1           1           0           1           1           0
 AtZEff=   0.0000000   0.0000000   0.0000000   0.0000000   0.0000000   0.0000000   0.0000000   0.0000000   0.0000000   0.0000000
 NQMom=    0.0000000   0.0000000   0.0000000   0.0000000   0.0000000   0.0000000   0.0000000   0.0000000   0.0000000   0.0000000
 NMagM=    0.0000000   2.7928460   2.7928460   0.0000000   2.7928460   2.7928460   0.0000000   2.7928460   2.7928460   0.0000000
 AtZNuc=   8.0000000   1.0000000   1.0000000   8.0000000   1.0000000   1.0000000   8.0000000   1.0000000   1.0000000   8.0000000

  Atom       321         322         323         324         325         326         327         328         329         330
 IAtWgt=           1           1          16           1           1          16           1           1          16           1
 AtmWgt=   1.0078250   1.0078250  15.9949146   1.0078250   1.0078250  15.9949146   1.0078250   1.0078250  15.9949146   1.0078250
 NucSpn=           1           1           0           1           1           0           1           1           0           1
 AtZEff=   0.0000000   0.0000000   0.0000000   0.0000000   0.0000000   0.0000000   0.0000000   0.0000000   0.0000000   0.0000000
 NQMom=    0.0000000   0.0000000   0.0000000   0.0000000   0.0000000   0.0000000   0.0000000   0.0000000   0.0000000   0.0000000
 NMagM=    2.7928460   2.7928460   0.0000000   2.7928460   2.7928460   0.0000000   2.7928460   2.7928460   0.0000000   2.7928460
 AtZNuc=   1.0000000   1.0000000   8.0000000   1.0000000   1.0000000   8.0000000   1.0000000   1.0000000   8.0000000   1.0000000

  Atom       331         332         333         334         335         336         337         338         339         340
 IAtWgt=           1          16           1           1          16           1           1          16           1           1
 AtmWgt=   1.0078250  15.9949146   1.0078250   1.0078250  15.9949146   1.0078250   1.0078250  15.9949146   1.0078250   1.0078250
 NucSpn=           1           0           1           1           0           1           1           0           1           1
 AtZEff=   0.0000000   0.0000000   0.0000000   0.0000000   0.0000000   0.0000000   0.0000000   0.0000000   0.0000000   0.0000000
 NQMom=    0.0000000   0.0000000   0.0000000   0.0000000   0.0000000   0.0000000   0.0000000   0.0000000   0.0000000   0.0000000
 NMagM=    2.7928460   0.0000000   2.7928460   2.7928460   0.0000000   2.7928460   2.7928460   0.0000000   2.7928460   2.7928460
 AtZNuc=   1.0000000   8.0000000   1.0000000   1.0000000   8.0000000   1.0000000   1.0000000   8.0000000   1.0000000   1.0000000

  Atom       341         342         343         344         345         346         347         348         349         350
 IAtWgt=          16           1           1          16           1           1          16           1           1          16
 AtmWgt=  15.9949146   1.0078250   1.0078250  15.9949146   1.0078250   1.0078250  15.9949146   1.0078250   1.0078250  15.9949146
 NucSpn=           0           1           1           0           1           1           0           1           1           0
 AtZEff=   0.0000000   0.0000000   0.0000000   0.0000000   0.0000000   0.0000000   0.0000000   0.0000000   0.0000000   0.0000000
 NQMom=    0.0000000   0.0000000   0.0000000   0.0000000   0.0000000   0.0000000   0.0000000   0.0000000   0.0000000   0.0000000
 NMagM=    0.0000000   2.7928460   2.7928460   0.0000000   2.7928460   2.7928460   0.0000000   2.7928460   2.7928460   0.0000000
 AtZNuc=   8.0000000   1.0000000   1.0000000   8.0000000   1.0000000   1.0000000   8.0000000   1.0000000   1.0000000   8.0000000

  Atom       351         352         353         354         355         356         357         358         359         360
 IAtWgt=           1           1          16           1           1          16           1           1          16           1
 AtmWgt=   1.0078250   1.0078250  15.9949146   1.0078250   1.0078250  15.9949146   1.0078250   1.0078250  15.9949146   1.0078250
 NucSpn=           1           1           0           1           1           0           1           1           0           1
 AtZEff=   0.0000000   0.0000000   0.0000000   0.0000000   0.0000000   0.0000000   0.0000000   0.0000000   0.0000000   0.0000000
 NQMom=    0.0000000   0.0000000   0.0000000   0.0000000   0.0000000   0.0000000   0.0000000   0.0000000   0.0000000   0.0000000
 NMagM=    2.7928460   2.7928460   0.0000000   2.7928460   2.7928460   0.0000000   2.7928460   2.7928460   0.0000000   2.7928460
 AtZNuc=   1.0000000   1.0000000   8.0000000   1.0000000   1.0000000   8.0000000   1.0000000   1.0000000   8.0000000   1.0000000

  Atom       361         362         363         364         365         366         367         368         369         370
 IAtWgt=           1          16           1           1          16           1           1          16           1           1
 AtmWgt=   1.0078250  15.9949146   1.0078250   1.0078250  15.9949146   1.0078250   1.0078250  15.9949146   1.0078250   1.0078250
 NucSpn=           1           0           1           1           0           1           1           0           1           1
 AtZEff=   0.0000000   0.0000000   0.0000000   0.0000000   0.0000000   0.0000000   0.0000000   0.0000000   0.0000000   0.0000000
 NQMom=    0.0000000   0.0000000   0.0000000   0.0000000   0.0000000   0.0000000   0.0000000   0.0000000   0.0000000   0.0000000
 NMagM=    2.7928460   0.0000000   2.7928460   2.7928460   0.0000000   2.7928460   2.7928460   0.0000000   2.7928460   2.7928460
 AtZNuc=   1.0000000   8.0000000   1.0000000   1.0000000   8.0000000   1.0000000   1.0000000   8.0000000   1.0000000   1.0000000

  Atom       371         372         373         374         375         376         377         378         379         380
 IAtWgt=          16           1           1          16           1           1          16           1           1          16
 AtmWgt=  15.9949146   1.0078250   1.0078250  15.9949146   1.0078250   1.0078250  15.9949146   1.0078250   1.0078250  15.9949146
 NucSpn=           0           1           1           0           1           1           0           1           1           0
 AtZEff=   0.0000000   0.0000000   0.0000000   0.0000000   0.0000000   0.0000000   0.0000000   0.0000000   0.0000000   0.0000000
 NQMom=    0.0000000   0.0000000   0.0000000   0.0000000   0.0000000   0.0000000   0.0000000   0.0000000   0.0000000   0.0000000
 NMagM=    0.0000000   2.7928460   2.7928460   0.0000000   2.7928460   2.7928460   0.0000000   2.7928460   2.7928460   0.0000000
 AtZNuc=   8.0000000   1.0000000   1.0000000   8.0000000   1.0000000   1.0000000   8.0000000   1.0000000   1.0000000   8.0000000

  Atom       381         382         383         384         385
 IAtWgt=           1           1          16           1           1
 AtmWgt=   1.0078250   1.0078250  15.9949146   1.0078250   1.0078250
 NucSpn=           1           1           0           1           1
 AtZEff=   0.0000000   0.0000000   0.0000000   0.0000000   0.0000000
 NQMom=    0.0000000   0.0000000   0.0000000   0.0000000   0.0000000
 NMagM=    2.7928460   2.7928460   0.0000000   2.7928460   2.7928460
 AtZNuc=   1.0000000   1.0000000   8.0000000   1.0000000   1.0000000
 Leave Link  101 at Wed May  9 00:16:09 2018, MaxMem= 14763950080 cpu:        33.3
 (Enter /cm/shared/gaussian/g09.e01/intel64-sandybridge/g09/l103.exe)

 GradGradGradGradGradGradGradGradGradGradGradGradGradGradGradGradGradGrad
 Berny optimization.
 Initialization pass.
 Trust Radius=3.00D-01 FncErr=1.00D-07 GrdErr=1.00D-07
 Number of steps in this run=      2 maximum allowed number of steps=      2.
 GradGradGradGradGradGradGradGradGradGradGradGradGradGradGradGradGradGrad

 Leave Link  103 at Wed May  9 00:16:10 2018, MaxMem= 14763950080 cpu:         3.7
 (Enter /cm/shared/gaussian/g09.e01/intel64-sandybridge/g09/l202.exe)
 Symmetry turned off by external request.
 Stoichiometry    BrH256O128(1-)
 Framework group  C1[X(BrH256O128)]
 Deg. of freedom  1149
 Full point group                 C1      NOp   1
                          Input orientation:                          
 ---------------------------------------------------------------------
 Center     Atomic      Atomic             Coordinates (Angstroms)
 Number     Number       Type             X           Y           Z
 ---------------------------------------------------------------------
      1         35           0       20.000000   20.000000   20.000000
      2          8           0       20.610000   16.960000   20.910000
      3          1           0       20.780000   16.990000   21.860000
      4          1           0       20.300000   17.840000   20.700000
      5          8           0       17.500000   21.200000   18.260000
      6          1           0       18.230000   20.860000   18.780000
      7          1           0       16.730000   21.060000   18.810000
      8          8           0       23.150000   19.280000   19.680000
      9          1           0       23.180000   19.700000   20.540000
     10          1           0       22.230000   19.340000   19.420000
     11          8           0       17.410000   18.910000   21.850000
     12          1           0       16.870000   18.540000   21.150000
     13          1           0       18.090000   19.410000   21.380000
     14          8           0       20.160000   18.360000   17.060000
     15          1           0       19.960000   19.070000   17.670000
     16          1           0       21.090000   18.450000   16.880000
     17          8           0       22.000000   21.300000   17.470000
     18          1           0       22.620000   20.570000   17.400000
     19          1           0       21.500000   21.110000   18.260000
     20          8           0       19.800000   22.750000   22.170000
     21          1           0       19.040000   23.260000   21.880000
     22          1           0       19.680000   21.890000   21.780000
     23          8           0       18.380000   23.610000   19.130000
     24          1           0       17.470000   23.880000   19.280000
     25          1           0       18.310000   22.710000   18.800000
     26          8           0       23.120000   19.950000   23.190000
     27          1           0       23.480000   20.650000   22.650000
     28          1           0       22.200000   20.200000   23.320000
     29          8           0       20.880000   21.370000   24.220000
     30          1           0       20.600000   21.950000   23.510000
     31          1           0       20.080000   20.890000   24.460000
     32          8           0       18.680000   15.610000   18.940000
     33          1           0       18.020000   15.200000   19.490000
     34          1           0       19.290000   16.020000   19.560000
     35          8           0       19.060000   21.370000   15.990000
     36          1           0       18.250000   21.330000   16.490000
     37          1           0       18.770000   21.430000   15.080000
     38          8           0       17.230000   17.470000   17.510000
     39          1           0       17.980000   16.970000   17.850000
     40          1           0       17.630000   18.170000   16.990000
     41          8           0       21.200000   24.860000   20.860000
     42          1           0       20.640000   24.130000   21.120000
     43          1           0       21.160000   24.880000   19.910000
     44          8           0       18.980000   16.600000   23.210000
     45          1           0       18.500000   16.710000   22.390000
     46          1           0       19.110000   17.500000   23.530000
     47          8           0       15.800000   18.320000   19.710000
     48          1           0       16.240000   18.110000   18.890000
     49          1           0       14.940000   18.640000   19.460000
     50          8           0       16.050000   21.380000   22.410000
     51          1           0       16.340000   20.480000   22.310000
     52          1           0       16.850000   21.880000   22.580000
     53          8           0       17.490000   19.360000   24.650000
     54          1           0       17.370000   18.430000   24.820000
     55          1           0       17.540000   19.430000   23.700000
     56          8           0       24.980000   21.290000   19.150000
     57          1           0       24.390000   22.030000   19.320000
     58          1           0       24.390000   20.550000   19.030000
     59          8           0       23.230000   23.340000   20.240000
     60          1           0       23.690000   23.870000   19.580000
     61          1           0       22.520000   23.900000   20.540000
     62          8           0       24.410000   16.720000   19.460000
     63          1           0       25.090000   16.590000   20.110000
     64          1           0       24.050000   17.590000   19.660000
     65          8           0       20.300000   25.010000   18.110000
     66          1           0       20.400000   24.610000   17.250000
     67          1           0       19.600000   24.510000   18.530000
     68          8           0       22.610000   15.140000   20.380000
     69          1           0       21.750000   15.550000   20.440000
     70          1           0       23.180000   15.830000   20.040000
     71          8           0       22.430000   16.610000   17.370000
     72          1           0       23.290000   16.790000   17.760000
     73          1           0       22.110000   15.850000   17.850000
     74          8           0       21.590000   20.560000   14.630000
     75          1           0       22.300000   20.560000   15.270000
     76          1           0       20.800000   20.670000   15.160000
     77          8           0       23.400000   19.130000   16.410000
     78          1           0       24.340000   19.240000   16.510000
     79          1           0       23.290000   18.490000   15.720000
     80          8           0       20.910000   23.580000   15.970000
     81          1           0       21.640000   23.220000   16.470000
     82          1           0       20.320000   22.840000   15.830000
     83          8           0       15.050000   21.290000   19.360000
     84          1           0       14.520000   21.790000   18.730000
     85          1           0       14.550000   20.500000   19.520000
     86          8           0       17.850000   18.480000   14.870000
     87          1           0       17.560000   18.880000   14.050000
     88          1           0       18.650000   18.960000   15.100000
     89          8           0       24.690000   22.220000   22.360000
     90          1           0       24.290000   22.930000   22.870000
     91          1           0       24.410000   22.380000   21.460000
     92          8           0       16.430000   15.570000   20.500000
     93          1           0       16.070000   15.040000   19.790000
     94          1           0       16.130000   16.460000   20.310000
     95          8           0       20.910000   16.660000   14.860000
     96          1           0       21.490000   17.290000   14.440000
     97          1           0       20.880000   16.940000   15.780000
     98          8           0       18.320000   22.780000   24.910000
     99          1           0       17.450000   23.150000   25.100000
    100          1           0       18.530000   23.110000   24.040000
    101          8           0       23.420000   24.030000   17.460000
    102          1           0       23.430000   23.110000   17.220000
    103          1           0       23.480000   24.500000   16.630000
    104          8           0       16.550000   23.570000   16.300000
    105          1           0       15.840000   24.110000   16.660000
    106          1           0       16.600000   22.820000   16.890000
    107          8           0       15.000000   23.660000   20.790000
    108          1           0       14.080000   23.730000   20.550000
    109          1           0       15.210000   22.730000   20.680000
    110          8           0       17.400000   24.380000   22.230000
    111          1           0       17.760000   25.170000   22.630000
    112          1           0       16.660000   24.690000   21.700000
    113          8           0       20.800000   17.970000   25.160000
    114          1           0       21.150000   18.610000   25.790000
    115          1           0       20.270000   17.390000   25.690000
    116          8           0       19.090000   14.940000   16.230000
    117          1           0       19.570000   15.630000   15.770000
    118          1           0       18.770000   15.360000   17.030000
    119          8           0       24.270000   18.030000   24.590000
    120          1           0       23.560000   18.180000   25.230000
    121          1           0       24.060000   18.620000   23.870000
    122          8           0       25.970000   19.290000   21.560000
    123          1           0       26.560000   19.840000   22.080000
    124          1           0       25.730000   19.840000   20.810000
    125          8           0       19.910000   14.280000   23.860000
    126          1           0       20.640000   14.520000   24.430000
    127          1           0       19.530000   15.120000   23.600000
    128          8           0       23.000000   20.590000   26.260000
    129          1           0       23.040000   20.850000   25.340000
    130          1           0       22.830000   21.400000   26.740000
    131          8           0       14.900000   16.710000   16.150000
    132          1           0       14.840000   17.270000   15.380000
    133          1           0       15.640000   17.070000   16.650000
    134          8           0       23.320000   24.090000   24.260000
    135          1           0       23.090000   24.880000   24.760000
    136          1           0       22.630000   23.460000   24.480000
    137          8           0       19.340000   26.450000   23.040000
    138          1           0       19.740000   27.190000   22.590000
    139          1           0       19.730000   25.680000   22.610000
    140          8           0       20.920000   13.680000   18.470000
    141          1           0       21.440000   13.960000   19.230000
    142          1           0       20.020000   13.640000   18.800000
    143          8           0       14.100000   22.460000   23.720000
    144          1           0       14.720000   22.020000   23.130000
    145          1           0       13.980000   23.320000   23.330000
    146          8           0       19.650000   13.630000   21.070000
    147          1           0       19.840000   13.630000   22.010000
    148          1           0       18.720000   13.420000   21.010000
    149          8           0       18.030000   20.550000   27.220000
    150          1           0       18.300000   20.270000   26.340000
    151          1           0       18.250000   21.490000   27.240000
    152          8           0       25.980000   19.540000   16.880000
    153          1           0       26.420000   19.980000   17.610000
    154          1           0       26.450000   18.720000   16.770000
    155          8           0       25.660000   16.700000   16.580000
    156          1           0       24.710000   16.590000   16.460000
    157          1           0       25.770000   16.820000   17.520000
    158          8           0       18.160000   12.940000   18.020000
    159          1           0       18.660000   13.710000   17.760000
    160          1           0       18.520000   12.230000   17.490000
    161          8           0       13.330000   18.670000   19.040000
    162          1           0       13.090000   18.040000   18.370000
    163          1           0       12.770000   18.460000   19.780000
    164          8           0       27.460000   21.740000   20.990000
    165          1           0       26.580000   22.060000   20.800000
    166          1           0       27.960000   21.930000   20.200000
    167          8           0       27.060000   18.310000   19.230000
    168          1           0       26.840000   18.770000   20.040000
    169          1           0       26.980000   17.380000   19.450000
    170          8           0       13.710000   19.720000   23.930000
    171          1           0       14.140000   20.540000   23.710000
    172          1           0       14.160000   19.420000   24.730000
    173          8           0       18.570000   26.970000   17.140000
    174          1           0       18.880000   26.550000   17.940000
    175          1           0       17.970000   27.650000   17.450000
    176          8           0       18.210000   22.050000   13.590000
    177          1           0       17.870000   21.260000   13.180000
    178          1           0       17.800000   22.770000   13.100000
    179          8           0       20.240000   24.340000   13.270000
    180          1           0       20.450000   23.830000   14.050000
    181          1           0       19.340000   24.640000   13.420000
    182          8           0       24.410000   26.310000   18.530000
    183          1           0       24.000000   25.550000   18.120000
    184          1           0       25.290000   26.340000   18.160000
    185          8           0       18.380000   25.250000   15.060000
    186          1           0       17.590000   24.750000   15.270000
    187          1           0       18.510000   25.820000   15.820000
    188          8           0       23.460000   23.270000   13.930000
    189          1           0       23.240000   22.840000   13.100000
    190          1           0       23.750000   22.550000   14.490000
    191          8           0       25.330000   21.040000   14.600000
    192          1           0       25.300000   20.120000   14.360000
    193          1           0       25.570000   21.040000   15.530000
    194          8           0       22.970000   12.580000   21.670000
    195          1           0       22.080000   12.240000   21.820000
    196          1           0       22.830000   13.460000   21.340000
    197          8           0       16.780000   17.150000   25.870000
    198          1           0       15.930000   16.790000   26.120000
    199          1           0       17.410000   16.610000   26.340000
    200          8           0       21.310000   26.450000   15.320000
    201          1           0       21.170000   26.900000   16.160000
    202          1           0       20.880000   25.610000   15.430000
    203          8           0       18.280000   16.790000   12.690000
    204          1           0       18.130000   17.030000   13.610000
    205          1           0       17.830000   15.950000   12.580000
    206          8           0       15.250000   19.520000   26.410000
    207          1           0       15.970000   20.060000   26.080000
[...]
   X336      26.66404   0.01177   0.00000   0.01772   0.01725  26.68128
   Y336      28.78053   0.00064   0.00000  -0.00340  -0.00288  28.77765
   Z336      28.79943   0.00101   0.00000  -0.00136  -0.00145  28.79798
   X337      28.98840   0.01185   0.00000   0.00334   0.00284  28.99123
   Y337      27.15536   0.00413   0.00000   0.00355   0.00403  27.15940
   Z337      28.42148   0.00487   0.00000   0.00243   0.00228  28.42376
   X338      47.90456   0.01785   0.00000   0.01327   0.01285  47.91741
   Y338      23.50819   0.00782   0.00000   0.00682   0.00684  23.51504
   Z338      36.84966  -0.01120   0.00000  -0.00615  -0.00669  36.84297
   X339      47.65889  -0.01016   0.00000  -0.01273  -0.01310  47.64579
   Y339      24.30188  -0.00141   0.00000  -0.00483  -0.00482  24.29705
   Z339      38.45593   0.00992   0.00000   0.00772   0.00720  38.46313
   X340      46.52506  -0.01100   0.00000  -0.00515  -0.00559  46.51946
   Y340      22.35546  -0.00442   0.00000   0.00145   0.00150  22.35696
   Z340      36.71738   0.00656   0.00000   0.00930   0.00877  36.72615
   X341      25.81366  -0.00549   0.00000  -0.00463  -0.00482  25.80884
   Y341      46.10932  -0.00343   0.00000  -0.00183  -0.00127  46.10804
   Z341      27.74118  -0.00762   0.00000  -0.00563  -0.00542  27.73576
   X342      26.77742   0.00641   0.00000   0.00636   0.00621  26.78363
   Y342      47.45102   0.00407   0.00000   0.00023   0.00076  47.45178
   Z342      28.47817   0.00273   0.00000  -0.00010   0.00012  28.47829
   X343      25.41682   0.00235   0.00000   0.00448   0.00430  25.42111
   Y343      45.01328  -0.00182   0.00000  -0.00204  -0.00150  45.01177
   Z343      29.13958   0.00279   0.00000   0.00148   0.00168  29.14126
   X344      35.22450  -0.00248   0.00000  -0.00145  -0.00137  35.22312
   Y344      33.99617   0.01275   0.00000   0.00776   0.00772  34.00389
   Z344      55.06662   0.00254   0.00000   0.00004  -0.00011  55.06651
   X345      35.56465   0.00353   0.00000   0.00344   0.00348  35.56813
   Y345      32.88123  -0.00927   0.00000  -0.00676  -0.00679  32.87444
   Z345      53.68712  -0.00891   0.00000  -0.00551  -0.00568  53.68143
   X346      35.26229   0.00251   0.00000   0.00396   0.00405  35.26634
   Y346      32.91903  -0.00276   0.00000   0.00044   0.00037  32.91940
   Z346      56.52171   0.00515   0.00000   0.00384   0.00368  56.52539
   X347      41.19603  -0.02394   0.00000  -0.01546  -0.01524  41.18079
   Y347      53.78161   0.00876   0.00000   0.00741   0.00745  53.78905
   Z347      43.23693   0.00011   0.00000  -0.00113  -0.00106  43.23588
   X348      42.42435   0.01228   0.00000   0.00614   0.00634  42.43070
   Y348      54.21624  -0.00336   0.00000  -0.00972  -0.00968  54.20656
   Z348      41.98971  -0.01634   0.00000  -0.01550  -0.01545  41.97426
   X349      42.08420   0.00566   0.00000  -0.00188  -0.00166  42.08254
   Y349      52.72336  -0.01111   0.00000  -0.00772  -0.00772  52.71564
   Z349      44.38967   0.01026   0.00000   0.00608   0.00612  44.39578
   X350      38.90946   0.01286   0.00000   0.01035   0.00978  38.91924
   Y350      30.70805  -0.00040   0.00000  -0.00190  -0.00147  30.70658
   Z350      20.86258  -0.00985   0.00000  -0.00075  -0.00101  20.86157
   X351      37.94570  -0.01630   0.00000  -0.01705  -0.01759  37.92811
   Y351      30.93482  -0.00249   0.00000  -0.00518  -0.00475  30.93007
   Z351      22.37436   0.01106   0.00000   0.00466   0.00442  22.37877
   X352      38.13467  -0.00185   0.00000  -0.00089  -0.00150  38.13317
   Y352      29.29076   0.00015   0.00000   0.00105   0.00152  29.29227
   Z352      20.03110   0.00177   0.00000   0.00212   0.00184  20.03294
   X353      41.27162  -0.00018   0.00000  -0.00262  -0.00287  41.26875
   Y353      22.39325  -0.01669   0.00000  -0.00872  -0.00875  22.38450
   Z353      47.50771   0.01501   0.00000   0.01646   0.01602  47.52374
   X354      41.66846   0.00639   0.00000   0.00796   0.00773  41.67619
   Y354      24.01842   0.01375   0.00000   0.00427   0.00424  24.02266
   Z354      46.82741  -0.00803   0.00000  -0.00510  -0.00552  46.82190
   X355      39.51417  -0.00637   0.00000  -0.00494  -0.00521  39.50897
   Y355      22.16649   0.00067   0.00000   0.00058   0.00059  22.16708
   Z355      47.14867  -0.00681   0.00000  -0.00976  -0.01017  47.13850
   X356      19.87992   0.00152   0.00000   0.00168   0.00147  19.88139
   Y356      37.26540  -0.00219   0.00000  -0.00453  -0.00400  37.26140
   Z356      35.30008  -0.00299   0.00000  -0.00415  -0.00397  35.29611
   X357      21.24052   0.00456   0.00000   0.00883   0.00860  21.24913
   Y357      37.39768  -0.00450   0.00000  -0.00866  -0.00813  37.38955
   Z357      34.09066   0.00365   0.00000   0.00531   0.00546  34.09612
   X358      19.14293  -0.00342   0.00000  -0.00526  -0.00551  19.13742
   Y358      35.64023  -0.00119   0.00000  -0.00213  -0.00158  35.63865
   Z358      34.95993  -0.00136   0.00000  -0.00285  -0.00269  34.95725
   X359      35.94259  -0.00508   0.00000   0.00351   0.00370  35.94629
   Y359      39.51417   0.02418   0.00000   0.02458   0.02450  39.53867
   Z359      56.23825   0.01811   0.00000   0.01650   0.01643  56.25468
   X360      35.45126  -0.00265   0.00000  -0.00413  -0.00396  35.44730
   Y360      39.62756  -0.01312   0.00000  -0.02067  -0.02071  39.60685
   Z360      54.49970  -0.00494   0.00000   0.00341   0.00335  54.50305
   X361      37.15202   0.00815   0.00000   0.00076   0.00093  37.15295
   Y361      38.19137  -0.01226   0.00000  -0.00575  -0.00586  38.18551
   Z361      56.29494   0.00135   0.00000   0.00580   0.00568  56.30063
   X362      27.02308   0.01058   0.00000   0.00497   0.00488  27.02796
   Y362      30.33010   0.00360   0.00000   0.00106   0.00125  30.33136
   Z362      48.66045   0.00157   0.00000   0.00138   0.00132  48.66177
   X363      26.55065  -0.00198   0.00000  -0.00022  -0.00034  26.55031
   Y363      28.59156  -0.01101   0.00000  -0.00898  -0.00877  28.58278
   Z363      48.75493   0.00060   0.00000   0.00060   0.00052  48.75545
   X364      25.47351  -0.00954   0.00000  -0.00616  -0.00625  25.46726
   Y364      31.19938   0.00640   0.00000   0.00559   0.00582  31.20520
   Z364      48.35809  -0.00141   0.00000  -0.00044  -0.00046  48.35763
   X365      49.41634  -0.01020   0.00000  -0.00800  -0.00824  49.40809
   Y365      26.70183   0.00574   0.00000   0.00634   0.00623  26.70806
   Z365      43.50150   0.00141   0.00000   0.00459   0.00408  43.50558
   X366      50.49348   0.00170   0.00000  -0.00093  -0.00120  50.49228
   Y366      26.77742  -0.00194   0.00000  -0.00267  -0.00277  26.77465
   Z366      42.04641   0.00039   0.00000   0.00362   0.00310  42.04950
   X367      50.41789   0.00501   0.00000   0.00351   0.00327  50.42116
   Y367      25.90815  -0.00536   0.00000  -0.00601  -0.00616  25.90199
   Z367      44.78651   0.00102   0.00000  -0.00170  -0.00224  44.78427
   X368      21.97751   0.00657   0.00000   0.00450   0.00425  21.98176
   Y368      31.35056   0.00209   0.00000  -0.00341  -0.00297  31.34759
   Z368      38.51262  -0.00123   0.00000  -0.00126  -0.00122  38.51140
   X369      21.39170  -0.00131   0.00000   0.00087   0.00061  21.39231
   Y369      30.14113  -0.00908   0.00000  -0.01040  -0.00997  30.13117
   Z369      39.72204   0.00477   0.00000   0.00287   0.00290  39.72495
   X370      20.76809  -0.00318   0.00000  -0.00101  -0.00129  20.76680
   Y370      31.25607  -0.00309   0.00000  -0.00512  -0.00463  31.25144
   Z370      37.17091  -0.00533   0.00000  -0.00484  -0.00478  37.16613
   X371      43.97393   0.02607   0.00000   0.02056   0.02041  43.99434
   Y371      50.51238   0.00779   0.00000   0.00451   0.00479  50.51717
   Z371      25.62469  -0.00643   0.00000  -0.00382  -0.00386  25.62083
   X372      43.04796  -0.00555   0.00000  -0.00209  -0.00226  43.04570
   Y372      50.47459  -0.00441   0.00000  -0.00667  -0.00636  50.46823
   Z372      24.07511  -0.00457   0.00000  -0.00132  -0.00134  24.07377
   X373      42.78340  -0.01501   0.00000  -0.00844  -0.00858  42.77482
   Y373      49.96436  -0.00072   0.00000   0.00605   0.00632  49.97068
   Z373      26.87191   0.01028   0.00000   0.00405   0.00403  26.87594
   X374      43.01017   0.00607   0.00000   0.00690   0.00714  43.01731
   Y374      50.92812  -0.01071   0.00000  -0.00934  -0.00940  50.91872
   Z374      47.48882  -0.00709   0.00000  -0.00224  -0.00225  47.48657
   X375      44.52195   0.00938   0.00000   0.01022   0.01048  44.53243
   Y375      51.92967   0.00124   0.00000  -0.00130  -0.00139  51.92828
   Z375      47.56441  -0.00145   0.00000  -0.00241  -0.00243  47.56198
   X376      41.93302  -0.01199   0.00000  -0.01187  -0.01159  41.92143
   Y376      51.66511   0.00088   0.00000  -0.00416  -0.00422  51.66089
   Z376      48.73604   0.00604   0.00000   0.00036   0.00038  48.73642
   X377      54.78316   0.01032   0.00000   0.00592   0.00588  54.78904
   Y377      37.81342  -0.00647   0.00000  -0.00415  -0.00436  37.80906
   Z377      44.33298  -0.01628   0.00000  -0.01090  -0.01133  44.32165
   X378      53.34697  -0.00827   0.00000  -0.00184  -0.00188  53.34509
   Y378      37.07643  -0.00510   0.00000  -0.00424  -0.00444  37.07198
   Z378      45.16445   0.01134   0.00000   0.01137   0.01096  45.17541
   X379      55.08552  -0.00406   0.00000  -0.00754  -0.00754  55.07797
   Y379      39.36300   0.01149   0.00000   0.00893   0.00869  39.37169
   Z379      45.20225   0.00391   0.00000  -0.00096  -0.00136  45.20089
   X380      39.43858   0.01255   0.00000   0.01148   0.01108  39.44967
   Y380      20.03110   0.00004   0.00000  -0.00084  -0.00074  20.03036
   Z380      41.30941   0.00543   0.00000   0.00045   0.00001  41.30942
   X381      38.13467  -0.00608   0.00000  -0.00509  -0.00550  38.12918
   Y381      18.93506   0.00348   0.00000   0.00899   0.00910  18.94416
   Z381      41.93302  -0.00038   0.00000  -0.00025  -0.00069  41.93233
   X382      38.83387  -0.00995   0.00000  -0.01135  -0.01177  38.82210
   Y382      20.59801   0.00152   0.00000   0.00040   0.00053  20.59855
   Z382      39.70315  -0.00766   0.00000  -0.00341  -0.00384  39.69931
   X383      20.16338   0.00321   0.00000   0.01182   0.01170  20.17508
   Y383      42.31097   0.02131   0.00000   0.01793   0.01846  42.32943
   Z383      35.33788  -0.01955   0.00000  -0.02088  -0.02063  35.31725
   X384      20.97596   0.00591   0.00000   0.00328   0.00318  20.97914
   Y384      42.04641  -0.00624   0.00000  -0.00508  -0.00459  42.04182
   Z384      36.94415   0.00806   0.00000  -0.00049  -0.00026  36.94389
   X385      19.76654  -0.00866   0.00000  -0.01399  -0.01414  19.75239
   Y385      40.64801  -0.00687   0.00000   0.00001   0.00055  40.64856
   Z385      34.75206   0.00560   0.00000   0.01040   0.01063  34.76269
         Item               Value     Threshold  Converged?
 Maximum Force            0.033409     0.000450     NO 
 RMS     Force            0.010145     0.000300     NO 
 Maximum Displacement     0.032851     0.001800     NO 
 RMS     Displacement     0.008824     0.001200     NO 
 Predicted change in Energy=-7.185481D-02
 GradGradGradGradGradGradGradGradGradGradGradGradGradGradGradGradGradGrad

 Leave Link  103 at Wed May  9 03:17:46 2018, MaxMem= 14763950080 cpu:      3973.9
 (Enter /cm/shared/gaussian/g09.e01/intel64-sandybridge/g09/l9999.exe)
 1\1\GINC-POPLE01\Force\RPBE1PBE\CC-pVDZ\Br1H256O128(1-)\M.PELUSO\09-Ma
 y-2018\0\\#p PBE1PBE/cc-pvDZ force Counterpoise=2 noSymm\\forces on ch
 loride comput - NWATER: 128\\-1,1\Br,20.,20.,20.\O,20.61,16.96,20.91\H
 ,20.78,16.99,21.86\H,20.3,17.84,20.7\O,17.5,21.2,18.26\H,18.23,20.86,1
 8.78\H,16.73,21.06,18.81\O,23.15,19.28,19.68\H,23.18,19.7,20.54\H,22.2
 3,19.34,19.42\O,17.41,18.91,21.85\H,16.87,18.54,21.15\H,18.09,19.41,21
 .38\O,20.16,18.36,17.06\H,19.96,19.07,17.67\H,21.09,18.45,16.88\O,22.,
 21.3,17.47\H,22.62,20.57,17.4\H,21.5,21.11,18.26\O,19.8,22.75,22.17\H,
 19.04,23.26,21.88\H,19.68,21.89,21.78\O,18.38,23.61,19.13\H,17.47,23.8
 8,19.28\H,18.31,22.71,18.8\O,23.12,19.95,23.19\H,23.48,20.65,22.65\H,2
 2.2,20.2,23.32\O,20.88,21.37,24.22\H,20.6,21.95,23.51\H,20.08,20.89,24
 .46\O,18.68,15.61,18.94\H,18.02,15.2,19.49\H,19.29,16.02,19.56\O,19.06
 ,21.37,15.99\H,18.25,21.33,16.49\H,18.77,21.43,15.08\O,17.23,17.47,17.
 51\H,17.98,16.97,17.85\H,17.63,18.17,16.99\O,21.2,24.86,20.86\H,20.64,
 24.13,21.12\H,21.16,24.88,19.91\O,18.98,16.6,23.21\H,18.5,16.71,22.39\
 H,19.11,17.5,23.53\O,15.8,18.32,19.71\H,16.24,18.11,18.89\H,14.94,18.6
 4,19.46\O,16.05,21.38,22.41\H,16.34,20.48,22.31\H,16.85,21.88,22.58\O,
 17.49,19.36,24.65\H,17.37,18.43,24.82\H,17.54,19.43,23.7\O,24.98,21.29
 ,19.15\H,24.39,22.03,19.32\H,24.39,20.55,19.03\O,23.23,23.34,20.24\H,2
 3.69,23.87,19.58\H,22.52,23.9,20.54\O,24.41,16.72,19.46\H,25.09,16.59,
 20.11\H,24.05,17.59,19.66\O,20.3,25.01,18.11\H,20.4,24.61,17.25\H,19.6
 ,24.51,18.53\O,22.61,15.14,20.38\H,21.75,15.55,20.44\H,23.18,15.83,20.
 04\O,22.43,16.61,17.37\H,23.29,16.79,17.76\H,22.11,15.85,17.85\O,21.59
 ,20.56,14.63\H,22.3,20.56,15.27\H,20.8,20.67,15.16\O,23.4,19.13,16.41\
 H,24.34,19.24,16.51\H,23.29,18.49,15.72\O,20.91,23.58,15.97\H,21.64,23
 .22,16.47\H,20.32,22.84,15.83\O,15.05,21.29,19.36\H,14.52,21.79,18.73\
 H,14.55,20.5,19.52\O,17.85,18.48,14.87\H,17.56,18.88,14.05\H,18.65,18.
 96,15.1\O,24.69,22.22,22.36\H,24.29,22.93,22.87\H,24.41,22.38,21.46\O,
 16.43,15.57,20.5\H,16.07,15.04,19.79\H,16.13,16.46,20.31\O,20.91,16.66
 ,14.86\H,21.49,17.29,14.44\H,20.88,16.94,15.78\O,18.32,22.78,24.91\H,1
 7.45,23.15,25.1\H,18.53,23.11,24.04\O,23.42,24.03,17.46\H,23.43,23.11,
 17.22\H,23.48,24.5,16.63\O,16.55,23.57,16.3\H,15.84,24.11,16.66\H,16.6
 ,22.82,16.89\O,15.,23.66,20.79\H,14.08,23.73,20.55\H,15.21,22.73,20.68
 \O,17.4,24.38,22.23\H,17.76,25.17,22.63\H,16.66,24.69,21.7\O,20.8,17.9
 7,25.16\H,21.15,18.61,25.79\H,20.27,17.39,25.69\O,19.09,14.94,16.23\H,
 19.57,15.63,15.77\H,18.77,15.36,17.03\O,24.27,18.03,24.59\H,23.56,18.1
 8,25.23\H,24.06,18.62,23.87\O,25.97,19.29,21.56\H,26.56,19.84,22.08\H,
 25.73,19.84,20.81\O,19.91,14.28,23.86\H,20.64,14.52,24.43\H,19.53,15.1
 2,23.6\O,23.,20.59,26.26\H,23.04,20.85,25.34\H,22.83,21.4,26.74\O,14.9
 ,16.71,16.15\H,14.84,17.27,15.38\H,15.64,17.07,16.65\O,23.32,24.09,24.
 26\H,23.09,24.88,24.76\H,22.63,23.46,24.48\O,19.34,26.45,23.04\H,19.74
 ,27.19,22.59\H,19.73,25.68,22.61\O,20.92,13.68,18.47\H,21.44,13.96,19.
 23\H,20.02,13.64,18.8\O,14.1,22.46,23.72\H,14.72,22.02,23.13\H,13.98,2
 3.32,23.33\O,19.65,13.63,21.07\H,19.84,13.63,22.01\H,18.72,13.42,21.01
 \O,18.03,20.55,27.22\H,18.3,20.27,26.34\H,18.25,21.49,27.24\O,25.98,19
 .54,16.88\H,26.42,19.98,17.61\H,26.45,18.72,16.77\O,25.66,16.7,16.58\H
 ,24.71,16.59,16.46\H,25.77,16.82,17.52\O,18.16,12.94,18.02\H,18.66,13.
 71,17.76\H,18.52,12.23,17.49\O,13.33,18.67,19.04\H,13.09,18.04,18.37\H
 ,12.77,18.46,19.78\O,27.46,21.74,20.99\H,26.58,22.06,20.8\H,27.96,21.9
 3,20.2\O,27.06,18.31,19.23\H,26.84,18.77,20.04\H,26.98,17.38,19.45\O,1
 3.71,19.72,23.93\H,14.14,20.54,23.71\H,14.16,19.42,24.73\O,18.57,26.97
 ,17.14\H,18.88,26.55,17.94\H,17.97,27.65,17.45\O,18.21,22.05,13.59\H,1
 7.87,21.26,13.18\H,17.8,22.77,13.1\O,20.24,24.34,13.27\H,20.45,23.83,1
 4.05\H,19.34,24.64,13.42\O,24.41,26.31,18.53\H,24.,25.55,18.12\H,25.29
 ,26.34,18.16\O,18.38,25.25,15.06\H,17.59,24.75,15.27\H,18.51,25.82,15.
 82\O,23.46,23.27,13.93\H,23.24,22.84,13.1\H,23.75,22.55,14.49\O,25.33,
 21.04,14.6\H,25.3,20.12,14.36\H,25.57,21.04,15.53\O,22.97,12.58,21.67\
 H,22.08,12.24,21.82\H,22.83,13.46,21.34\O,16.78,17.15,25.87\H,15.93,16
 .79,26.12\H,17.41,16.61,26.34\O,21.31,26.45,15.32\H,21.17,26.9,16.16\H
 ,20.88,25.61,15.43\O,18.28,16.79,12.69\H,18.13,17.03,13.61\H,17.83,15.
 95,12.58\O,15.25,19.52,26.41\H,15.97,20.06,26.08\H,15.43,18.65,26.04\O
 ,19.56,22.76,27.57\H,19.81,22.99,26.68\H,19.2,23.57,27.93\O,14.87,21.4
 4,14.52\H,14.71,22.04,15.25\H,14.92,22.,13.75\O,23.95,17.7,14.09\H,24.
 89,17.85,14.01\H,23.89,16.85,14.53\O,23.73,15.1,15.03\H,24.3,14.34,15.
 15\H,22.89,14.83,15.4\O,22.68,14.31,24.21\H,23.05,14.96,24.81\H,23.4,1
 4.11,23.61\O,14.98,25.32,17.86\H,14.17,25.74,17.57\H,15.33,25.91,18.53
 \O,13.48,22.41,16.84\H,12.72,21.93,16.52\H,13.1,23.13,17.35\O,19.73,25
 .95,25.56\H,19.04,26.46,25.98\H,19.62,26.12,24.63\O,17.14,14.19,24.48\
 H,16.7,14.94,24.89\H,18.05,14.26,24.76\O,26.88,18.92,24.94\H,26.47,19.
 64,25.41\H,26.15,18.45,24.52\O,12.08,18.85,21.7\H,12.64,18.83,22.47\H,
 12.1,17.96,21.35\O,15.47,13.66,18.92\H,14.7,13.66,18.36\H,16.14,13.2,1
 8.41\O,21.85,18.68,11.95\H,22.48,18.5,12.64\H,21.21,17.97,12.02\O,24.8
 5,15.68,25.77\H,24.81,16.46,25.2\H,25.55,15.15,25.39\O,24.92,26.61,22.
 88\H,25.55,25.97,22.54\H,24.08,26.15,22.88\O,12.14,22.02,20.97\H,11.64
 ,22.42,21.68\H,12.23,21.1,21.22\O,16.65,20.12,12.54\H,16.03,20.56,13.1
 2\H,16.29,20.25,11.66\O,25.65,24.15,25.28\H,25.55,24.15,26.23\H,24.76,
 24.11,24.94\O,22.97,21.38,12.08\H,23.8,20.97,11.83\H,22.44,20.65,12.41
 \O,14.8,18.58,14.\H,15.27,18.67,13.17\H,14.38,19.44,14.13\O,14.23,13.8
 5,21.79\H,14.74,13.95,20.98\H,14.18,14.73,22.16\O,27.48,23.31,23.52\H,
 26.86,23.55,24.21\H,27.02,22.65,23.\O,21.45,12.85,14.84\H,20.9,12.39,1
 4.2\H,20.85,13.43,15.3\O,26.6,24.61,21.08\H,27.53,24.4,21.04\H,26.44,2
 5.11,20.28\O,24.02,27.87,20.7\H,24.57,27.46,21.37\H,23.89,27.18,20.04\
 O,27.07,15.76,20.18\H,26.92,15.28,19.36\H,27.49,15.12,20.76\O,19.31,15
 .94,27.16\H,18.75,15.23,27.48\H,20.2,15.63,27.32\O,15.37,26.31,22.72\H
 ,14.53,26.76,22.82\H,15.62,26.07,23.62\O,15.42,27.12,20.11\H,15.03,26.
 6,20.82\H,15.03,27.99,20.2\O,21.99,11.34,17.42\H,22.9,11.33,17.71\H,21
 .7,12.24,17.58\O,17.98,12.63,14.77\H,18.27,13.32,15.37\H,18.23,11.82,1
 5.2\O,23.95,18.85,28.29\H,23.74,19.34,27.5\H,23.19,18.97,28.85\O,20.18
 ,22.06,11.25\H,19.23,22.05,11.41\H,20.55,22.53,11.99\O,15.94,23.68,26.
 48\H,15.21,24.23,26.2\H,15.53,22.89,26.83\O,28.84,18.99,17.29\H,28.14,
 18.69,17.87\H,29.65,18.77,17.76\O,25.07,25.53,15.5\H,24.43,25.18,14.88
 \H,25.22,26.43,15.21\O,17.53,11.93,23.25\H,17.45,12.76,23.72\H,16.63,1
 1.63,23.14\O,12.47,16.01,17.41\H,13.13,16.1,16.72\H,11.84,16.7,17.24\O
 ,13.1,21.82,26.06\H,12.89,20.89,25.98\H,13.33,22.08,25.17\O,21.45,19.2
 5,29.06\H,20.57,19.23,28.68\H,21.79,20.12,28.84\O,21.85,21.85,28.85\H,
 20.99,22.09,28.49\H,21.98,22.46,29.58\O,18.01,10.82,20.2\H,18.08,11.41
 ,19.45\H,17.08,10.58,20.23\O,14.41,14.41,14.84\H,14.11,15.23,15.24\H,1
 5.34,14.37,15.04\O,25.35,12.44,19.5\H,25.22,12.86,20.35\H,24.62,11.83,
 19.43\O,13.66,24.4,14.68\H,14.17,25.11,15.07\H,13.45,23.82,15.42\O,18.
 64,17.99,29.14\H,18.82,17.4,28.41\H,18.66,17.42,29.91\O,21.8,28.46,22.
 88\H,22.45,28.69,22.22\H,22.27,27.9,23.49\O,20.59,16.25,11.04\H,20.08,
 16.37,11.84\H,20.18,15.5,10.6\O,21.84,11.85,25.14\H,22.05,12.71,24.78\
 H,20.91,11.73,24.95\O,10.52,19.72,18.68\H,11.24,19.79,18.04\H,10.13,18
 .86,18.5\O,19.02,20.91,29.76\H,18.76,20.97,28.84\H,19.66,20.21,29.79\O
 ,14.3,16.05,25.75\H,14.05,15.13,25.8\H,13.48,16.51,25.59\O,26.15,14.13
 ,23.02\H,26.72,14.17,22.25\H,26.68,13.71,23.7\O,11.63,16.59,20.38\H,11
 .32,15.95,21.02\H,10.99,16.54,19.67\O,23.27,26.73,13.56\H,22.78,26.71,
 12.74\H,22.64,26.44,14.22\O,22.76,26.95,25.13\H,23.56,27.48,25.17\H,22
 .19,27.34,25.79\O,28.99,20.01,23.46\H,28.23,19.62,23.9\H,29.15,20.83,2
 3.92\O,20.87,10.6,21.86\H,20.18,10.02,22.19\H,20.55,10.9,21.01\O,10.67
 ,22.39,18.7\H,11.1,22.25,19.55\H,10.46,21.51,18.39\\Version=ES64L-G09R
 evE.01\HF=-9773.3024695\RMSD=1.454e-09\RMSF=1.014e-02\Dipole=-17.39108
 83,3.6028176,3.9639028\Quadrupole=-951.8719276,538.0641756,413.807752,
 -1973.9427445,-1919.5230206,-1055.4073884\PG=C01 [X(Br1H256O128)]\\@


 ORIGINALITY CONSISTS NOT IN SAYING WHAT NO ONE HAS EVER SAID BEFORE, 
 BUT IN SAYING WHAT YOU THINK YOUR SELF.

                                    -- JAMES F. STEPHEN
 Job cpu time:       7 days 22 hours 12 minutes 50.6 seconds.
 File lengths (MBytes):  RWF=   7285 Int=      0 D2E=      0 Chk=   2411 Scr=      1
 Normal termination of Gaussian 09 at Wed May  9 03:18:13 2018.
