 Entering Gaussian System, Link 0=/cm/shared/gaussian/g09.e01/intel64-sandybridge/g09/g09
 Initial command:
 /cm/shared/gaussian/g09.e01/intel64-sandybridge/g09/l1.exe "/local/scratch/m.peluso/128_wat/order/Gau-20899.inp" -scrdir="/local/scratch/m.peluso/128_wat/order/"
 Entering Link 1 = /cm/shared/gaussian/g09.e01/intel64-sandybridge/g09/l1.exe PID=     20900.
  
 Copyright (c) 1988,1990,1992,1993,1995,1998,2003,2009,2015,
            Gaussian, Inc.  All Rights Reserved.
  
 This is part of the Gaussian(R) 09 program.  It is based on
 the Gaussian(R) 03 system (copyright 2003, Gaussian, Inc.),
 the Gaussian(R) 98 system (copyright 1998, Gaussian, Inc.),
 the Gaussian(R) 94 system (copyright 1995, Gaussian, Inc.),
 the Gaussian 92(TM) system (copyright 1992, Gaussian, Inc.),
 the Gaussian 90(TM) system (copyright 1990, Gaussian, Inc.),
 the Gaussian 88(TM) system (copyright 1988, Gaussian, Inc.),
 the Gaussian 86(TM) system (copyright 1986, Carnegie Mellon
 University), and the Gaussian 82(TM) system (copyright 1983,
 Carnegie Mellon University). Gaussian is a federally registered
 trademark of Gaussian, Inc.
  
 This software contains proprietary and confidential information,
 including trade secrets, belonging to Gaussian, Inc.
  
 This software is provided under written license and may be
 used, copied, transmitted, or stored only in accord with that
 written license.
  
 The following legend is applicable only to US Government
 contracts under FAR:
  
                    RESTRICTED RIGHTS LEGEND
  
 Use, reproduction and disclosure by the US Government is
 subject to restrictions as set forth in subparagraphs (a)
 and (c) of the Commercial Computer Software - Restricted
 Rights clause in FAR 52.227-19.
  
 Gaussian, Inc.
 340 Quinnipiac St., Bldg. 40, Wallingford CT 06492
  
  
 ---------------------------------------------------------------
 Warning -- This program may not be used in any manner that
 competes with the business of Gaussian, Inc. or will provide
 assistance to any competitor of Gaussian, Inc.  The licensee
 of this program is prohibited from giving any competitor of
 Gaussian, Inc. access to this program.  By using this program,
 the user acknowledges that Gaussian, Inc. is engaged in the
 business of creating and licensing software in the field of
 computational chemistry and represents and warrants to the
 licensee that it is not a competitor of Gaussian, Inc. and that
 it will not use this program in any manner prohibited above.
 ---------------------------------------------------------------
  

 Cite this work as:
 Gaussian 09, Revision E.01,
 M. J. Frisch, G. W. Trucks, H. B. Schlegel, G. E. Scuseria, 
 M. A. Robb, J. R. Cheeseman, G. Scalmani, V. Barone, B. Mennucci, 
 G. A. Petersson, H. Nakatsuji, M. Caricato, X. Li, H. P. Hratchian, 
 A. F. Izmaylov, J. Bloino, G. Zheng, J. L. Sonnenberg, M. Hada, 
 M. Ehara, K. Toyota, R. Fukuda, J. Hasegawa, M. Ishida, T. Nakajima, 
 Y. Honda, O. Kitao, H. Nakai, T. Vreven, J. A. Montgomery, Jr., 
 J. E. Peralta, F. Ogliaro, M. Bearpark, J. J. Heyd, E. Brothers, 
 K. N. Kudin, V. N. Staroverov, T. Keith, R. Kobayashi, J. Normand, 
 K. Raghavachari, A. Rendell, J. C. Burant, S. S. Iyengar, J. Tomasi, 
 M. Cossi, N. Rega, J. M. Millam, M. Klene, J. E. Knox, J. B. Cross, 
 V. Bakken, C. Adamo, J. Jaramillo, R. Gomperts, R. E. Stratmann, 
 O. Yazyev, A. J. Austin, R. Cammi, C. Pomelli, J. W. Ochterski, 
 R. L. Martin, K. Morokuma, V. G. Zakrzewski, G. A. Voth, 
 P. Salvador, J. J. Dannenberg, S. Dapprich, A. D. Daniels, 
 O. Farkas, J. B. Foresman, J. V. Ortiz, J. Cioslowski, 
 and D. J. Fox, Gaussian, Inc., Wallingford CT, 2013.
 
 ******************************************
 Gaussian 09:  ES64L-G09RevE.01 30-Nov-2015
                15-May-2018 
 ******************************************
 %Mem=110GB
 %NProcShared=64
 Will use up to   64 processors via shared memory.
 %chk=snap90.chk
 ----------------------------------------------
 #p PBE1PBE/cc-pvDZ force Counterpoise=2 noSymm
 ----------------------------------------------
 1/10=7,30=1,38=1,62=2/1,3;
 2/12=2,15=1,17=6,18=5,40=1/2;
 1/10=7,30=1,38=1,53=2,62=2,63=101/22;
 3/5=16,11=2,16=1,25=1,30=1,71=1,74=-13/1,2,3;
 4//1;
 5/5=2,38=5/2;
 6/7=2,8=2,9=2,10=2,28=1/1;
 7/7=1,29=1,30=1,33=-1/1,2,3,16;
 1/10=7,30=1,53=2,62=2,63=101/22;
 3/5=7,6=11,11=2,16=1,25=1,30=1,71=1,74=-13,82=7/1,2,3;
 4//1;
 5/5=2,38=5/2;
 6/7=2,8=2,9=2,10=2,28=1/1;
 7/7=1,29=1,30=1,33=-1/1,2,3,16;
 1/10=7,30=1,53=2,62=2,63=101/22(-5);
 7/9=1,29=1,44=-1/16;
 1/10=7,30=1,62=2/3;
 99//99;
 Leave Link    1 at Tue May 15 05:16:11 2018, MaxMem= 14763950080 cpu:         5.1
 (Enter /cm/shared/gaussian/g09.e01/intel64-sandybridge/g09/l101.exe)
 ---------------------------------------
 forces on chloride comput - NWATER: 128
 ---------------------------------------
 Symbolic Z-matrix:
 Charge = -1 Multiplicity = 1 in supermolecule
 Charge = -1 Multiplicity = 1 in fragment      1.
 Charge =  0 Multiplicity = 1 in fragment      2.
 Br(Fragment=1)        20.       20.       20. 
 O(Fragment=2)         17.32     20.01     18.47 
 H(Fragment=2)         16.71     19.44     18.94 
 H(Fragment=2)         18.14     19.94     18.96 
 O(Fragment=2)         17.91     18.02     21.14 
 H(Fragment=2)         17.87     17.43     20.39 
 H(Fragment=2)         18.54     18.69     20.88 
 O(Fragment=2)         21.98     19.62     17.62 
 H(Fragment=2)         21.82     18.69     17.49 
 H(Fragment=2)         21.23     19.93     18.13 
 O(Fragment=2)         21.48     22.83     20.21 
 H(Fragment=2)         20.7      23.38     20.18 
 H(Fragment=2)         21.16     21.96     20.43 
 O(Fragment=2)         20.28     17.97     22.68 
 H(Fragment=2)         20.77     18.2      21.89 
 H(Fragment=2)         19.36     18.01     22.42 
 O(Fragment=2)         17.88     21.19     22.57 
 H(Fragment=2)         17.7      22.12     22.66 
 H(Fragment=2)         18.76     21.14     22.2 
 O(Fragment=2)         19.75     22.67     17.49 
 H(Fragment=2)         20.7      22.68     17.6 
 H(Fragment=2)         19.46     21.98     18.09 
 O(Fragment=2)         19.61     16.71     19.49 
 H(Fragment=2)         20.5      16.97     19.72 
 H(Fragment=2)         19.28     17.43     18.95 
 O(Fragment=2)         23.79     20.37     19.74 
 H(Fragment=2)         24.38     19.85     19.19 
 H(Fragment=2)         22.96     20.38     19.26 
 O(Fragment=2)         20.92     20.46     24.1 
 H(Fragment=2)         21.62     21.03     23.8 
 H(Fragment=2)         20.79     19.84     23.37 
 O(Fragment=2)         22.36     17.14     18.58 
 H(Fragment=2)         22.97     16.41     18.48 
 H(Fragment=2)         22.71     17.64     19.32 
 O(Fragment=2)         22.58     22.97     17.74 
 H(Fragment=2)         23.5      23.11     17.97 
 H(Fragment=2)         22.17     22.72     18.57 
 O(Fragment=2)         22.85     21.82     22.84 
 H(Fragment=2)         23.35     22.5      23.3 
 H(Fragment=2)         22.76     22.15     21.95 
 O(Fragment=2)         19.1      24.03     20.54 
 H(Fragment=2)         18.94     24.77     21.12 
 H(Fragment=2)         18.24     23.85     20.15 
 O(Fragment=2)         15.21     20.73     20.63 
 H(Fragment=2)         14.49     21.3      20.92 
 H(Fragment=2)         16.       21.21     20.89 
 O(Fragment=2)         18.05     18.67     15.74 
 H(Fragment=2)         17.61     18.86     14.91 
 H(Fragment=2)         17.84     19.42     16.3 
 O(Fragment=2)         24.21     19.52     22.49 
 H(Fragment=2)         24.16     19.9      21.61 
 H(Fragment=2)         23.6      20.04     23.01 
 O(Fragment=2)         15.99     19.41     23.48 
 H(Fragment=2)         15.24     20.       23.57 
 H(Fragment=2)         16.6      19.88     22.92 
 O(Fragment=2)         23.52     17.31     21.15 
 H(Fragment=2)         23.67     17.92     21.87 
 H(Fragment=2)         22.86     16.7      21.49 
 O(Fragment=2)         16.67     21.68     16.17 
 H(Fragment=2)         16.64     21.33     17.07 
 H(Fragment=2)         16.68     22.63     16.28 
 O(Fragment=2)         19.49     21.54     15.02 
 H(Fragment=2)         18.74     21.4      14.45 
 H(Fragment=2)         19.12     21.94     15.81 
 O(Fragment=2)         19.22     15.36     22.9 
 H(Fragment=2)         19.93     14.73     22.8 
 H(Fragment=2)         19.64     16.21     22.79 
 O(Fragment=2)         16.86     23.68     19.34 
 H(Fragment=2)         17.29     23.73     18.49 
 H(Fragment=2)         16.       23.31     19.16 
 O(Fragment=2)         23.33     24.68     20.49 
 H(Fragment=2)         22.54     24.16     20.34 
 H(Fragment=2)         23.93     24.43     19.79 
 O(Fragment=2)         17.8      14.65     20.44 
 H(Fragment=2)         17.94     14.67     21.38 
 H(Fragment=2)         18.31     15.4      20.11 
 O(Fragment=2)         19.24     18.22     25.55 
 H(Fragment=2)         19.61     18.5      24.71 
 H(Fragment=2)         18.3      18.39     25.46 
 O(Fragment=2)         23.25     21.37     15.24 
 H(Fragment=2)         22.53     22.       15.27 
 H(Fragment=2)         23.21     20.92     16.09 
 O(Fragment=2)         16.24     16.85     18.3 
 H(Fragment=2)         16.91     16.58     17.67 
 H(Fragment=2)         15.41     16.67     17.86 
 O(Fragment=2)         19.17     25.61     17.89 
 H(Fragment=2)         19.33     24.68     17.78 
 H(Fragment=2)         19.54     25.82     18.75 
 O(Fragment=2)         18.45     16.1      16.16 
 H(Fragment=2)         18.9      15.77     15.38 
 H(Fragment=2)         18.37     17.04     16.01 
 O(Fragment=2)         21.06     19.26     13.97 
 H(Fragment=2)         20.32     18.71     13.71 
 H(Fragment=2)         20.77     19.7      14.76 
 O(Fragment=2)         15.39     16.67     22.86 
 H(Fragment=2)         14.87     16.46     22.09 
 H(Fragment=2)         15.95     17.4      22.58 
 O(Fragment=2)         19.2      21.79     26.01 
 H(Fragment=2)         19.01     20.97     26.48 
 H(Fragment=2)         19.88     21.55     25.38 
 O(Fragment=2)         21.94     15.74     15.92 
 H(Fragment=2)         22.17     14.84     15.7 
 H(Fragment=2)         21.38     15.66     16.7 
 O(Fragment=2)         13.71     19.26     19.09 
 H(Fragment=2)         14.38     18.69     18.72 
 H(Fragment=2)         14.19     19.83     19.69 
 O(Fragment=2)         21.33     23.61     14.77 
 H(Fragment=2)         20.72     22.88     14.91 
 H(Fragment=2)         21.29     23.77     13.83 
 O(Fragment=2)         20.83     13.43     19.6 
 H(Fragment=2)         20.2      14.11     19.36 
 H(Fragment=2)         20.31     12.73     19.97 
 O(Fragment=2)         22.57     19.13     25.96 
 H(Fragment=2)         21.77     19.57     25.65 
 H(Fragment=2)         23.08     19.82     26.38 
 O(Fragment=2)         23.54     17.84     14.88 
 H(Fragment=2)         23.21     18.66     14.51 
 H(Fragment=2)         22.82     17.51     15.4 
 O(Fragment=2)         24.83     17.48     24.04 
 H(Fragment=2)         24.08     17.28     24.6 
 H(Fragment=2)         24.61     18.32     23.63 
 O(Fragment=2)         24.86     15.03     20.19 
 H(Fragment=2)         24.36     14.54     20.84 
 H(Fragment=2)         24.59     15.94     20.3 
 O(Fragment=2)         16.47     18.33     25.72 
 H(Fragment=2)         15.59     18.45     26.08 
 H(Fragment=2)         16.44     18.77     24.87 
 O(Fragment=2)         14.31     15.96     20.21 
 H(Fragment=2)         15.18     16.13     19.83 
 H(Fragment=2)         14.08     15.08     19.89 
 O(Fragment=2)         25.22     23.49     18.89 
 H(Fragment=2)         25.56     22.63     19.12 
 H(Fragment=2)         25.77     23.78     18.16 
 O(Fragment=2)         16.82     24.32     16.5 
 H(Fragment=2)         17.3      24.85     15.87 
 H(Fragment=2)         15.97     24.74     16.57 
 O(Fragment=2)         16.36     26.21     20.49 
 H(Fragment=2)         16.66     25.47     19.96 
 H(Fragment=2)         16.96     26.22     21.24 
 O(Fragment=2)         24.03     24.62     22.99 
 H(Fragment=2)         23.93     24.79     22.05 
 H(Fragment=2)         24.93     24.3      23.07 
 O(Fragment=2)         27.21     19.11     21.53 
 H(Fragment=2)         26.28     19.18     21.78 
 H(Fragment=2)         27.32     19.76     20.84 
 O(Fragment=2)         18.49     25.89     22.61 
 H(Fragment=2)         19.15     26.33     23.14 
 H(Fragment=2)         17.9      25.48     23.24 
 O(Fragment=2)         22.57     14.18     21.85 
 H(Fragment=2)         22.87     13.41     22.32 
 H(Fragment=2)         22.17     13.83     21.05 
 O(Fragment=2)         20.58     26.79     20.41 
 H(Fragment=2)         20.3      27.55     20.94 
 H(Fragment=2)         21.37     26.47     20.86 
 O(Fragment=2)         17.01     14.8      24.42 
 H(Fragment=2)         16.35     15.47     24.24 
 H(Fragment=2)         17.78     15.09     23.93 
 O(Fragment=2)         21.65     25.43     24.46 
 H(Fragment=2)         22.07     25.25     23.62 
 H(Fragment=2)         21.9      26.33     24.66 
 O(Fragment=2)         22.14     26.65     17.77 
 H(Fragment=2)         21.35     26.68     18.31 
 H(Fragment=2)         22.11     25.8      17.34 
 O(Fragment=2)         25.88     22.       15.77 
 H(Fragment=2)         26.31     21.25     15.36 
 H(Fragment=2)         24.95     21.78     15.76 
 O(Fragment=2)         25.19     16.84     16.82 
 H(Fragment=2)         24.88     15.94     16.77 
 H(Fragment=2)         24.79     17.28     16.06 
 O(Fragment=2)         14.1      23.3      18.93 
 H(Fragment=2)         14.04     22.78     18.12 
 H(Fragment=2)         13.56     24.07     18.75 
 O(Fragment=2)         16.66     13.97     16.48 
 H(Fragment=2)         16.51     13.47     17.29 
 H(Fragment=2)         17.49     14.41     16.63 
 O(Fragment=2)         20.25     15.73     26.67 
 H(Fragment=2)         19.82     16.45     26.19 
 H(Fragment=2)         21.09     16.1      26.94 
 O(Fragment=2)         20.46     23.97     26.6 
 H(Fragment=2)         20.04     23.13     26.42 
 H(Fragment=2)         20.72     24.3      25.74 
 O(Fragment=2)         16.25     12.85     19.13 
 H(Fragment=2)         16.76     13.58     19.48 
 H(Fragment=2)         16.88     12.34     18.62 
 O(Fragment=2)         16.27     24.7      24.23 
 H(Fragment=2)         16.08     24.62     25.17 
 H(Fragment=2)         15.68     25.39     23.92 
 O(Fragment=2)         13.64     20.99     23.59 
 H(Fragment=2)         12.74     20.75     23.35 
 H(Fragment=2)         13.6      21.94     23.75 
 O(Fragment=2)         22.36     12.9      17.09 
 H(Fragment=2)         21.65     13.18     17.67 
 H(Fragment=2)         22.59     12.03     17.4 
 O(Fragment=2)         19.58     17.14     13.17 
 H(Fragment=2)         20.26     16.52     12.91 
 H(Fragment=2)         18.83     16.59     13.38 
 O(Fragment=2)         17.59     22.75     13. 
 H(Fragment=2)         17.15     23.57     12.78 
 H(Fragment=2)         18.43     23.02     13.36 
 O(Fragment=2)         13.77     16.91     16.87 
 H(Fragment=2)         12.89     16.62     17.09 
 H(Fragment=2)         13.66     17.79     16.53 
 O(Fragment=2)         27.48     21.27     19.68 
 H(Fragment=2)         28.24     21.45     20.24 
 H(Fragment=2)         27.82     21.32     18.79 
 O(Fragment=2)         16.76     18.55     13.28 
 H(Fragment=2)         16.64     18.82     12.36 
 H(Fragment=2)         17.18     17.69     13.23 
 O(Fragment=2)         24.79     20.96     12.94 
 H(Fragment=2)         24.19     21.19     13.65 
 H(Fragment=2)         24.41     21.37     12.16 
 O(Fragment=2)         27.77     17.72     18.35 
 H(Fragment=2)         26.98     17.54     17.84 
 H(Fragment=2)         27.89     16.95     18.9 
 O(Fragment=2)         20.44     26.3      14.35 
 H(Fragment=2)         20.71     25.39     14.45 
 H(Fragment=2)         21.12     26.69     13.8 
 O(Fragment=2)         23.93     24.93     13.92 
 H(Fragment=2)         23.4      24.75     14.7 
 H(Fragment=2)         23.36     25.47     13.37 
 O(Fragment=2)         14.25     23.72     14.53 
 H(Fragment=2)         14.15     24.38     15.22 
 H(Fragment=2)         14.78     23.03     14.92 
 O(Fragment=2)         18.95     19.25     28.35 
 H(Fragment=2)         19.74     19.67     28.71 
 H(Fragment=2)         19.29     18.58     27.76 
 O(Fragment=2)         24.91     22.67     25.82 
 H(Fragment=2)         24.21     22.29     26.34 
 H(Fragment=2)         24.74     23.61     25.85 
 O(Fragment=2)         13.1      23.54     22.26 
 H(Fragment=2)         12.91     24.01     21.45 
 H(Fragment=2)         13.73     24.1      22.72 
 O(Fragment=2)         24.59     14.03     16.61 
 H(Fragment=2)         25.16     13.49     17.15 
 H(Fragment=2)         23.71     13.7      16.79 
 O(Fragment=2)         20.08     13.26     25.11 
 H(Fragment=2)         19.35     13.16     25.72 
 H(Fragment=2)         20.48     14.09     25.35 
 O(Fragment=2)         26.66     24.35     16.7 
 H(Fragment=2)         27.32     24.59     16.04 
 H(Fragment=2)         26.26     23.56     16.35 
 O(Fragment=2)         11.68     17.18     20.92 
 H(Fragment=2)         11.68     18.13     21.02 
 H(Fragment=2)         12.5      16.98     20.47 
 O(Fragment=2)         22.39     17.56     28.29 
 H(Fragment=2)         22.51     17.94     27.42 
 H(Fragment=2)         23.14     17.89     28.8 
 O(Fragment=2)         12.77     16.89     24.38 
 H(Fragment=2)         12.75     17.67     24.93 
 H(Fragment=2)         13.67     16.85     24.06 
 O(Fragment=2)         18.48     11.97     23.2 
 H(Fragment=2)         18.57     11.27     23.85 
 H(Fragment=2)         18.87     12.73     23.62 
 O(Fragment=2)         11.13     18.86     18.2 
 H(Fragment=2)         11.96     19.08     18.63 
 H(Fragment=2)         11.27     19.09     17.28 
 O(Fragment=2)         23.08     15.69     12.56 
 H(Fragment=2)         23.7      16.17     12.01 
 H(Fragment=2)         23.02     16.21     13.36 
 O(Fragment=2)         23.14     21.44     27.46 
 H(Fragment=2)         22.32     21.23     27.91 
 H(Fragment=2)         23.73     21.75     28.16 
 O(Fragment=2)         17.44     15.71     13.4 
 H(Fragment=2)         16.53     15.68     13.69 
 H(Fragment=2)         17.85     14.95     13.82 
 O(Fragment=2)         19.35     28.18     16.08 
 H(Fragment=2)         20.04     27.72     15.6 
 H(Fragment=2)         19.13     27.58     16.8 
 O(Fragment=2)         14.95     15.5      14.62 
 H(Fragment=2)         14.5      16.18     15.12 
 H(Fragment=2)         15.38     14.96     15.28 
 O(Fragment=2)         27.59     15.25     19.94 
 H(Fragment=2)         26.68     15.07     19.71 
 H(Fragment=2)         28.1      14.65     19.41 
 O(Fragment=2)         16.46     16.09     27.57 
 H(Fragment=2)         15.53     15.86     27.55 
 H(Fragment=2)         16.56     16.75     26.88 
 O(Fragment=2)         13.58     19.08     14.73 
 H(Fragment=2)         13.17     18.36     14.26 
 H(Fragment=2)         13.79     19.72     14.04 
 O(Fragment=2)         22.7      19.18     11.1 
 H(Fragment=2)         23.65     19.22     11.11 
 H(Fragment=2)         22.46     19.1      12.03 
 O(Fragment=2)         26.65     15.86     25.15 
 H(Fragment=2)         26.22     15.28     25.79 
 H(Fragment=2)         25.95     16.41     24.81 
 O(Fragment=2)         17.53     26.19     14.77 
 H(Fragment=2)         18.45     26.37     14.57 
 H(Fragment=2)         17.23     26.97     15.23 
 O(Fragment=2)         26.24     20.21     26.86 
 H(Fragment=2)         26.24     21.11     26.53 
 H(Fragment=2)         25.88     19.69     26.14 
 O(Fragment=2)         23.02     28.83     19.26 
 H(Fragment=2)         23.25     28.39     20.08 
 H(Fragment=2)         22.52     28.17     18.78 
 O(Fragment=2)         28.67     16.79     21.93 
 H(Fragment=2)         28.17     17.56     21.69 
 H(Fragment=2)         28.45     16.14     21.27 
 O(Fragment=2)         18.99     18.49     10.51 
 H(Fragment=2)         19.11     18.41     11.46 
 H(Fragment=2)         18.74     17.61     10.23 
 O(Fragment=2)         12.21     19.55     25.65 
 H(Fragment=2)         12.74     19.33     26.41 
 H(Fragment=2)         12.83     19.93     25.02 
 O(Fragment=2)         16.12     21.21     11.41 
 H(Fragment=2)         16.63     21.66     12.08 
 H(Fragment=2)         16.45     21.55     10.58 
 O(Fragment=2)         28.17     21.39     23.6 
 H(Fragment=2)         28.56     20.62     24.02 
 H(Fragment=2)         28.29     21.24     22.66 
 O(Fragment=2)         26.25     14.07     22.9 
 H(Fragment=2)         26.49     14.82     23.44 
 H(Fragment=2)         26.45     14.35     22. 
 O(Fragment=2)         15.95     11.78     21.77 
 H(Fragment=2)         16.79     11.92     22.21 
 H(Fragment=2)         16.07     12.16     20.9 
 O(Fragment=2)         19.26     13.73     13.82 
 H(Fragment=2)         19.33     13.61     12.88 
 H(Fragment=2)         19.62     12.93     14.19 
 O(Fragment=2)         18.3      11.41     17.9 
 H(Fragment=2)         18.59     10.67     17.35 
 H(Fragment=2)         18.82     11.34     18.7 
 O(Fragment=2)         26.49     26.49     18.84 
 H(Fragment=2)         26.89     26.28     19.69 
 H(Fragment=2)         26.6      25.68     18.33 
 O(Fragment=2)         13.95     27.44     20.84 
 H(Fragment=2)         13.91     28.31     21.25 
 H(Fragment=2)         14.81     27.11     21.08 
 O(Fragment=2)         14.32     25.77     16.35 
 H(Fragment=2)         14.89     26.52     16.17 
 H(Fragment=2)         13.66     26.1      16.95 
 O(Fragment=2)         19.13     28.79     22.09 
 H(Fragment=2)         18.67     29.48     21.62 
 H(Fragment=2)         18.46     28.4      22.65 
 O(Fragment=2)         18.34     14.       27.11 
 H(Fragment=2)         17.55     14.5      27.33 
 H(Fragment=2)         19.05     14.65     27.12 
 O(Fragment=2)         21.33     24.05     12.11 
 H(Fragment=2)         20.71     24.46     11.51 
 H(Fragment=2)         21.67     23.3      11.64 
 O(Fragment=2)         19.27     29.83     18.89 
 H(Fragment=2)         19.36     28.88     18.9 
 H(Fragment=2)         19.7      30.11     18.08 
 O(Fragment=2)         24.32     27.96     21.68 
 H(Fragment=2)         25.02     27.31     21.66 
 H(Fragment=2)         24.73     28.78     21.39 
 O(Fragment=2)         11.48     20.27     15.75 
 H(Fragment=2)         10.73     19.85     15.33 
 H(Fragment=2)         12.25     19.83     15.37 
 O(Fragment=2)         23.73     14.18     25.82 
 H(Fragment=2)         23.8      14.4      26.75 
 H(Fragment=2)         23.91     13.25     25.77 
 O(Fragment=2)         19.2      23.7      29.15 
 H(Fragment=2)         19.67     23.66     28.32 
 H(Fragment=2)         19.7      24.3      29.69 
 O(Fragment=2)         28.63     24.61     21.03 
 H(Fragment=2)         27.89     25.12     21.38 
 H(Fragment=2)         28.22     23.87     20.6 
 O(Fragment=2)         19.26     10.94     20.53 
 H(Fragment=2)         18.99     10.74     21.42 
 H(Fragment=2)         19.92     10.28     20.32 
 O(Fragment=2)         21.08     11.85     14.84 
 H(Fragment=2)         21.59     12.2      15.57 
 H(Fragment=2)         20.92     10.94     15.09 
 O(Fragment=2)         13.79     20.98     12.72 
 H(Fragment=2)         13.56     21.75     12.2 
 H(Fragment=2)         14.72     20.84     12.52 
 O(Fragment=2)         10.83     22.56     19.96 
 H(Fragment=2)         10.38     23.2      20.5 
 H(Fragment=2)         11.36     23.08     19.35 
 O(Fragment=2)         17.91     25.89     26.85 
 H(Fragment=2)         17.15     25.44     27.21 
 H(Fragment=2)         18.66     25.47     27.27 
 O(Fragment=2)         22.9      27.97     24.31 
 H(Fragment=2)         23.1      28.87     24.58 
 H(Fragment=2)         23.28     27.9      23.43 
 O(Fragment=2)         24.46     13.44     13.94 
 H(Fragment=2)         24.36     13.7      14.86 
 H(Fragment=2)         24.06     14.16     13.45 
 O(Fragment=2)         15.09     13.69     26.16 
 H(Fragment=2)         14.39     13.58     25.51 
 H(Fragment=2)         15.85     13.96     25.64 
 O(Fragment=2)         16.34     20.21     29.31 
 H(Fragment=2)         17.05     19.82     28.79 
 H(Fragment=2)         15.97     19.47     29.79 
 
 NAtoms=    385 NQM=      385 NQMF=       0 NMMI=      0 NMMIF=      0
                NMic=       0 NMicF=      0.
                    Isotopes and Nuclear Properties:
 (Nuclear quadrupole moments (NQMom) in fm**2, nuclear magnetic moments (NMagM)
  in nuclear magnetons)

  Atom         1           2           3           4           5           6           7           8           9          10
 IAtWgt=          79          16           1           1          16           1           1          16           1           1
 AtmWgt=  78.9183361  15.9949146   1.0078250   1.0078250  15.9949146   1.0078250   1.0078250  15.9949146   1.0078250   1.0078250
 NucSpn=           3           0           1           1           0           1           1           0           1           1
 AtZEff=   0.0000000   0.0000000   0.0000000   0.0000000   0.0000000   0.0000000   0.0000000   0.0000000   0.0000000   0.0000000
 NQMom=   31.3000000   0.0000000   0.0000000   0.0000000   0.0000000   0.0000000   0.0000000   0.0000000   0.0000000   0.0000000
 NMagM=    2.1063990   0.0000000   2.7928460   2.7928460   0.0000000   2.7928460   2.7928460   0.0000000   2.7928460   2.7928460
 AtZNuc=  35.0000000   8.0000000   1.0000000   1.0000000   8.0000000   1.0000000   1.0000000   8.0000000   1.0000000   1.0000000

  Atom        11          12          13          14          15          16          17          18          19          20
 IAtWgt=          16           1           1          16           1           1          16           1           1          16
 AtmWgt=  15.9949146   1.0078250   1.0078250  15.9949146   1.0078250   1.0078250  15.9949146   1.0078250   1.0078250  15.9949146
 NucSpn=           0           1           1           0           1           1           0           1           1           0
 AtZEff=   0.0000000   0.0000000   0.0000000   0.0000000   0.0000000   0.0000000   0.0000000   0.0000000   0.0000000   0.0000000
 NQMom=    0.0000000   0.0000000   0.0000000   0.0000000   0.0000000   0.0000000   0.0000000   0.0000000   0.0000000   0.0000000
 NMagM=    0.0000000   2.7928460   2.7928460   0.0000000   2.7928460   2.7928460   0.0000000   2.7928460   2.7928460   0.0000000
 AtZNuc=   8.0000000   1.0000000   1.0000000   8.0000000   1.0000000   1.0000000   8.0000000   1.0000000   1.0000000   8.0000000

  Atom        21          22          23          24          25          26          27          28          29          30
 IAtWgt=           1           1          16           1           1          16           1           1          16           1
 AtmWgt=   1.0078250   1.0078250  15.9949146   1.0078250   1.0078250  15.9949146   1.0078250   1.0078250  15.9949146   1.0078250
 NucSpn=           1           1           0           1           1           0           1           1           0           1
 AtZEff=   0.0000000   0.0000000   0.0000000   0.0000000   0.0000000   0.0000000   0.0000000   0.0000000   0.0000000   0.0000000
 NQMom=    0.0000000   0.0000000   0.0000000   0.0000000   0.0000000   0.0000000   0.0000000   0.0000000   0.0000000   0.0000000
 NMagM=    2.7928460   2.7928460   0.0000000   2.7928460   2.7928460   0.0000000   2.7928460   2.7928460   0.0000000   2.7928460
 AtZNuc=   1.0000000   1.0000000   8.0000000   1.0000000   1.0000000   8.0000000   1.0000000   1.0000000   8.0000000   1.0000000

  Atom        31          32          33          34          35          36          37          38          39          40
 IAtWgt=           1          16           1           1          16           1           1          16           1           1
 AtmWgt=   1.0078250  15.9949146   1.0078250   1.0078250  15.9949146   1.0078250   1.0078250  15.9949146   1.0078250   1.0078250
 NucSpn=           1           0           1           1           0           1           1           0           1           1
 AtZEff=   0.0000000   0.0000000   0.0000000   0.0000000   0.0000000   0.0000000   0.0000000   0.0000000   0.0000000   0.0000000
 NQMom=    0.0000000   0.0000000   0.0000000   0.0000000   0.0000000   0.0000000   0.0000000   0.0000000   0.0000000   0.0000000
 NMagM=    2.7928460   0.0000000   2.7928460   2.7928460   0.0000000   2.7928460   2.7928460   0.0000000   2.7928460   2.7928460
 AtZNuc=   1.0000000   8.0000000   1.0000000   1.0000000   8.0000000   1.0000000   1.0000000   8.0000000   1.0000000   1.0000000

  Atom        41          42          43          44          45          46          47          48          49          50
 IAtWgt=          16           1           1          16           1           1          16           1           1          16
 AtmWgt=  15.9949146   1.0078250   1.0078250  15.9949146   1.0078250   1.0078250  15.9949146   1.0078250   1.0078250  15.9949146
 NucSpn=           0           1           1           0           1           1           0           1           1           0
 AtZEff=   0.0000000   0.0000000   0.0000000   0.0000000   0.0000000   0.0000000   0.0000000   0.0000000   0.0000000   0.0000000
 NQMom=    0.0000000   0.0000000   0.0000000   0.0000000   0.0000000   0.0000000   0.0000000   0.0000000   0.0000000   0.0000000
 NMagM=    0.0000000   2.7928460   2.7928460   0.0000000   2.7928460   2.7928460   0.0000000   2.7928460   2.7928460   0.0000000
 AtZNuc=   8.0000000   1.0000000   1.0000000   8.0000000   1.0000000   1.0000000   8.0000000   1.0000000   1.0000000   8.0000000

  Atom        51          52          53          54          55          56          57          58          59          60
 IAtWgt=           1           1          16           1           1          16           1           1          16           1
 AtmWgt=   1.0078250   1.0078250  15.9949146   1.0078250   1.0078250  15.9949146   1.0078250   1.0078250  15.9949146   1.0078250
 NucSpn=           1           1           0           1           1           0           1           1           0           1
 AtZEff=   0.0000000   0.0000000   0.0000000   0.0000000   0.0000000   0.0000000   0.0000000   0.0000000   0.0000000   0.0000000
 NQMom=    0.0000000   0.0000000   0.0000000   0.0000000   0.0000000   0.0000000   0.0000000   0.0000000   0.0000000   0.0000000
 NMagM=    2.7928460   2.7928460   0.0000000   2.7928460   2.7928460   0.0000000   2.7928460   2.7928460   0.0000000   2.7928460
 AtZNuc=   1.0000000   1.0000000   8.0000000   1.0000000   1.0000000   8.0000000   1.0000000   1.0000000   8.0000000   1.0000000

  Atom        61          62          63          64          65          66          67          68          69          70
 IAtWgt=           1          16           1           1          16           1           1          16           1           1
 AtmWgt=   1.0078250  15.9949146   1.0078250   1.0078250  15.9949146   1.0078250   1.0078250  15.9949146   1.0078250   1.0078250
 NucSpn=           1           0           1           1           0           1           1           0           1           1
 AtZEff=   0.0000000   0.0000000   0.0000000   0.0000000   0.0000000   0.0000000   0.0000000   0.0000000   0.0000000   0.0000000
 NQMom=    0.0000000   0.0000000   0.0000000   0.0000000   0.0000000   0.0000000   0.0000000   0.0000000   0.0000000   0.0000000
 NMagM=    2.7928460   0.0000000   2.7928460   2.7928460   0.0000000   2.7928460   2.7928460   0.0000000   2.7928460   2.7928460
 AtZNuc=   1.0000000   8.0000000   1.0000000   1.0000000   8.0000000   1.0000000   1.0000000   8.0000000   1.0000000   1.0000000

  Atom        71          72          73          74          75          76          77          78          79          80
 IAtWgt=          16           1           1          16           1           1          16           1           1          16
 AtmWgt=  15.9949146   1.0078250   1.0078250  15.9949146   1.0078250   1.0078250  15.9949146   1.0078250   1.0078250  15.9949146
 NucSpn=           0           1           1           0           1           1           0           1           1           0
 AtZEff=   0.0000000   0.0000000   0.0000000   0.0000000   0.0000000   0.0000000   0.0000000   0.0000000   0.0000000   0.0000000
 NQMom=    0.0000000   0.0000000   0.0000000   0.0000000   0.0000000   0.0000000   0.0000000   0.0000000   0.0000000   0.0000000
 NMagM=    0.0000000   2.7928460   2.7928460   0.0000000   2.7928460   2.7928460   0.0000000   2.7928460   2.7928460   0.0000000
 AtZNuc=   8.0000000   1.0000000   1.0000000   8.0000000   1.0000000   1.0000000   8.0000000   1.0000000   1.0000000   8.0000000

  Atom        81          82          83          84          85          86          87          88          89          90
 IAtWgt=           1           1          16           1           1          16           1           1          16           1
 AtmWgt=   1.0078250   1.0078250  15.9949146   1.0078250   1.0078250  15.9949146   1.0078250   1.0078250  15.9949146   1.0078250
 NucSpn=           1           1           0           1           1           0           1           1           0           1
 AtZEff=   0.0000000   0.0000000   0.0000000   0.0000000   0.0000000   0.0000000   0.0000000   0.0000000   0.0000000   0.0000000
 NQMom=    0.0000000   0.0000000   0.0000000   0.0000000   0.0000000   0.0000000   0.0000000   0.0000000   0.0000000   0.0000000
 NMagM=    2.7928460   2.7928460   0.0000000   2.7928460   2.7928460   0.0000000   2.7928460   2.7928460   0.0000000   2.7928460
 AtZNuc=   1.0000000   1.0000000   8.0000000   1.0000000   1.0000000   8.0000000   1.0000000   1.0000000   8.0000000   1.0000000

  Atom        91          92          93          94          95          96          97          98          99         100
 IAtWgt=           1          16           1           1          16           1           1          16           1           1
 AtmWgt=   1.0078250  15.9949146   1.0078250   1.0078250  15.9949146   1.0078250   1.0078250  15.9949146   1.0078250   1.0078250
 NucSpn=           1           0           1           1           0           1           1           0           1           1
 AtZEff=   0.0000000   0.0000000   0.0000000   0.0000000   0.0000000   0.0000000   0.0000000   0.0000000   0.0000000   0.0000000
 NQMom=    0.0000000   0.0000000   0.0000000   0.0000000   0.0000000   0.0000000   0.0000000   0.0000000   0.0000000   0.0000000
 NMagM=    2.7928460   0.0000000   2.7928460   2.7928460   0.0000000   2.7928460   2.7928460   0.0000000   2.7928460   2.7928460
 AtZNuc=   1.0000000   8.0000000   1.0000000   1.0000000   8.0000000   1.0000000   1.0000000   8.0000000   1.0000000   1.0000000

  Atom       101         102         103         104         105         106         107         108         109         110
 IAtWgt=          16           1           1          16           1           1          16           1           1          16
 AtmWgt=  15.9949146   1.0078250   1.0078250  15.9949146   1.0078250   1.0078250  15.9949146   1.0078250   1.0078250  15.9949146
 NucSpn=           0           1           1           0           1           1           0           1           1           0
 AtZEff=   0.0000000   0.0000000   0.0000000   0.0000000   0.0000000   0.0000000   0.0000000   0.0000000   0.0000000   0.0000000
 NQMom=    0.0000000   0.0000000   0.0000000   0.0000000   0.0000000   0.0000000   0.0000000   0.0000000   0.0000000   0.0000000
 NMagM=    0.0000000   2.7928460   2.7928460   0.0000000   2.7928460   2.7928460   0.0000000   2.7928460   2.7928460   0.0000000
 AtZNuc=   8.0000000   1.0000000   1.0000000   8.0000000   1.0000000   1.0000000   8.0000000   1.0000000   1.0000000   8.0000000

  Atom       111         112         113         114         115         116         117         118         119         120
 IAtWgt=           1           1          16           1           1          16           1           1          16           1
 AtmWgt=   1.0078250   1.0078250  15.9949146   1.0078250   1.0078250  15.9949146   1.0078250   1.0078250  15.9949146   1.0078250
 NucSpn=           1           1           0           1           1           0           1           1           0           1
 AtZEff=   0.0000000   0.0000000   0.0000000   0.0000000   0.0000000   0.0000000   0.0000000   0.0000000   0.0000000   0.0000000
 NQMom=    0.0000000   0.0000000   0.0000000   0.0000000   0.0000000   0.0000000   0.0000000   0.0000000   0.0000000   0.0000000
 NMagM=    2.7928460   2.7928460   0.0000000   2.7928460   2.7928460   0.0000000   2.7928460   2.7928460   0.0000000   2.7928460
 AtZNuc=   1.0000000   1.0000000   8.0000000   1.0000000   1.0000000   8.0000000   1.0000000   1.0000000   8.0000000   1.0000000

  Atom       121         122         123         124         125         126         127         128         129         130
 IAtWgt=           1          16           1           1          16           1           1          16           1           1
 AtmWgt=   1.0078250  15.9949146   1.0078250   1.0078250  15.9949146   1.0078250   1.0078250  15.9949146   1.0078250   1.0078250
 NucSpn=           1           0           1           1           0           1           1           0           1           1
 AtZEff=   0.0000000   0.0000000   0.0000000   0.0000000   0.0000000   0.0000000   0.0000000   0.0000000   0.0000000   0.0000000
 NQMom=    0.0000000   0.0000000   0.0000000   0.0000000   0.0000000   0.0000000   0.0000000   0.0000000   0.0000000   0.0000000
 NMagM=    2.7928460   0.0000000   2.7928460   2.7928460   0.0000000   2.7928460   2.7928460   0.0000000   2.7928460   2.7928460
 AtZNuc=   1.0000000   8.0000000   1.0000000   1.0000000   8.0000000   1.0000000   1.0000000   8.0000000   1.0000000   1.0000000

  Atom       131         132         133         134         135         136         137         138         139         140
 IAtWgt=          16           1           1          16           1           1          16           1           1          16
 AtmWgt=  15.9949146   1.0078250   1.0078250  15.9949146   1.0078250   1.0078250  15.9949146   1.0078250   1.0078250  15.9949146
 NucSpn=           0           1           1           0           1           1           0           1           1           0
 AtZEff=   0.0000000   0.0000000   0.0000000   0.0000000   0.0000000   0.0000000   0.0000000   0.0000000   0.0000000   0.0000000
 NQMom=    0.0000000   0.0000000   0.0000000   0.0000000   0.0000000   0.0000000   0.0000000   0.0000000   0.0000000   0.0000000
 NMagM=    0.0000000   2.7928460   2.7928460   0.0000000   2.7928460   2.7928460   0.0000000   2.7928460   2.7928460   0.0000000
 AtZNuc=   8.0000000   1.0000000   1.0000000   8.0000000   1.0000000   1.0000000   8.0000000   1.0000000   1.0000000   8.0000000

  Atom       141         142         143         144         145         146         147         148         149         150
 IAtWgt=           1           1          16           1           1          16           1           1          16           1
 AtmWgt=   1.0078250   1.0078250  15.9949146   1.0078250   1.0078250  15.9949146   1.0078250   1.0078250  15.9949146   1.0078250
 NucSpn=           1           1           0           1           1           0           1           1           0           1
 AtZEff=   0.0000000   0.0000000   0.0000000   0.0000000   0.0000000   0.0000000   0.0000000   0.0000000   0.0000000   0.0000000
 NQMom=    0.0000000   0.0000000   0.0000000   0.0000000   0.0000000   0.0000000   0.0000000   0.0000000   0.0000000   0.0000000
 NMagM=    2.7928460   2.7928460   0.0000000   2.7928460   2.7928460   0.0000000   2.7928460   2.7928460   0.0000000   2.7928460
 AtZNuc=   1.0000000   1.0000000   8.0000000   1.0000000   1.0000000   8.0000000   1.0000000   1.0000000   8.0000000   1.0000000

  Atom       151         152         153         154         155         156         157         158         159         160
 IAtWgt=           1          16           1           1          16           1           1          16           1           1
 AtmWgt=   1.0078250  15.9949146   1.0078250   1.0078250  15.9949146   1.0078250   1.0078250  15.9949146   1.0078250   1.0078250
 NucSpn=           1           0           1           1           0           1           1           0           1           1
 AtZEff=   0.0000000   0.0000000   0.0000000   0.0000000   0.0000000   0.0000000   0.0000000   0.0000000   0.0000000   0.0000000
 NQMom=    0.0000000   0.0000000   0.0000000   0.0000000   0.0000000   0.0000000   0.0000000   0.0000000   0.0000000   0.0000000
 NMagM=    2.7928460   0.0000000   2.7928460   2.7928460   0.0000000   2.7928460   2.7928460   0.0000000   2.7928460   2.7928460
 AtZNuc=   1.0000000   8.0000000   1.0000000   1.0000000   8.0000000   1.0000000   1.0000000   8.0000000   1.0000000   1.0000000

  Atom       161         162         163         164         165         166         167         168         169         170
 IAtWgt=          16           1           1          16           1           1          16           1           1          16
 AtmWgt=  15.9949146   1.0078250   1.0078250  15.9949146   1.0078250   1.0078250  15.9949146   1.0078250   1.0078250  15.9949146
 NucSpn=           0           1           1           0           1           1           0           1           1           0
 AtZEff=   0.0000000   0.0000000   0.0000000   0.0000000   0.0000000   0.0000000   0.0000000   0.0000000   0.0000000   0.0000000
 NQMom=    0.0000000   0.0000000   0.0000000   0.0000000   0.0000000   0.0000000   0.0000000   0.0000000   0.0000000   0.0000000
 NMagM=    0.0000000   2.7928460   2.7928460   0.0000000   2.7928460   2.7928460   0.0000000   2.7928460   2.7928460   0.0000000
 AtZNuc=   8.0000000   1.0000000   1.0000000   8.0000000   1.0000000   1.0000000   8.0000000   1.0000000   1.0000000   8.0000000

  Atom       171         172         173         174         175         176         177         178         179         180
 IAtWgt=           1           1          16           1           1          16           1           1          16           1
 AtmWgt=   1.0078250   1.0078250  15.9949146   1.0078250   1.0078250  15.9949146   1.0078250   1.0078250  15.9949146   1.0078250
 NucSpn=           1           1           0           1           1           0           1           1           0           1
 AtZEff=   0.0000000   0.0000000   0.0000000   0.0000000   0.0000000   0.0000000   0.0000000   0.0000000   0.0000000   0.0000000
 NQMom=    0.0000000   0.0000000   0.0000000   0.0000000   0.0000000   0.0000000   0.0000000   0.0000000   0.0000000   0.0000000
 NMagM=    2.7928460   2.7928460   0.0000000   2.7928460   2.7928460   0.0000000   2.7928460   2.7928460   0.0000000   2.7928460
 AtZNuc=   1.0000000   1.0000000   8.0000000   1.0000000   1.0000000   8.0000000   1.0000000   1.0000000   8.0000000   1.0000000

  Atom       181         182         183         184         185         186         187         188         189         190
 IAtWgt=           1          16           1           1          16           1           1          16           1           1
 AtmWgt=   1.0078250  15.9949146   1.0078250   1.0078250  15.9949146   1.0078250   1.0078250  15.9949146   1.0078250   1.0078250
 NucSpn=           1           0           1           1           0           1           1           0           1           1
 AtZEff=   0.0000000   0.0000000   0.0000000   0.0000000   0.0000000   0.0000000   0.0000000   0.0000000   0.0000000   0.0000000
 NQMom=    0.0000000   0.0000000   0.0000000   0.0000000   0.0000000   0.0000000   0.0000000   0.0000000   0.0000000   0.0000000
 NMagM=    2.7928460   0.0000000   2.7928460   2.7928460   0.0000000   2.7928460   2.7928460   0.0000000   2.7928460   2.7928460
 AtZNuc=   1.0000000   8.0000000   1.0000000   1.0000000   8.0000000   1.0000000   1.0000000   8.0000000   1.0000000   1.0000000

  Atom       191         192         193         194         195         196         197         198         199         200
 IAtWgt=          16           1           1          16           1           1          16           1           1          16
 AtmWgt=  15.9949146   1.0078250   1.0078250  15.9949146   1.0078250   1.0078250  15.9949146   1.0078250   1.0078250  15.9949146
 NucSpn=           0           1           1           0           1           1           0           1           1           0
 AtZEff=   0.0000000   0.0000000   0.0000000   0.0000000   0.0000000   0.0000000   0.0000000   0.0000000   0.0000000   0.0000000
 NQMom=    0.0000000   0.0000000   0.0000000   0.0000000   0.0000000   0.0000000   0.0000000   0.0000000   0.0000000   0.0000000
 NMagM=    0.0000000   2.7928460   2.7928460   0.0000000   2.7928460   2.7928460   0.0000000   2.7928460   2.7928460   0.0000000
 AtZNuc=   8.0000000   1.0000000   1.0000000   8.0000000   1.0000000   1.0000000   8.0000000   1.0000000   1.0000000   8.0000000

  Atom       201         202         203         204         205         206         207         208         209         210
 IAtWgt=           1           1          16           1           1          16           1           1          16           1
 AtmWgt=   1.0078250   1.0078250  15.9949146   1.0078250   1.0078250  15.9949146   1.0078250   1.0078250  15.9949146   1.0078250
 NucSpn=           1           1           0           1           1           0           1           1           0           1
 AtZEff=   0.0000000   0.0000000   0.0000000   0.0000000   0.0000000   0.0000000   0.0000000   0.0000000   0.0000000   0.0000000
 NQMom=    0.0000000   0.0000000   0.0000000   0.0000000   0.0000000   0.0000000   0.0000000   0.0000000   0.0000000   0.0000000
 NMagM=    2.7928460   2.7928460   0.0000000   2.7928460   2.7928460   0.0000000   2.7928460   2.7928460   0.0000000   2.7928460
 AtZNuc=   1.0000000   1.0000000   8.0000000   1.0000000   1.0000000   8.0000000   1.0000000   1.0000000   8.0000000   1.0000000

  Atom       211         212         213         214         215         216         217         218         219         220
 IAtWgt=           1          16           1           1          16           1           1          16           1           1
 AtmWgt=   1.0078250  15.9949146   1.0078250   1.0078250  15.9949146   1.0078250   1.0078250  15.9949146   1.0078250   1.0078250
 NucSpn=           1           0           1           1           0           1           1           0           1           1
 AtZEff=   0.0000000   0.0000000   0.0000000   0.0000000   0.0000000   0.0000000   0.0000000   0.0000000   0.0000000   0.0000000
 NQMom=    0.0000000   0.0000000   0.0000000   0.0000000   0.0000000   0.0000000   0.0000000   0.0000000   0.0000000   0.0000000
 NMagM=    2.7928460   0.0000000   2.7928460   2.7928460   0.0000000   2.7928460   2.7928460   0.0000000   2.7928460   2.7928460
 AtZNuc=   1.0000000   8.0000000   1.0000000   1.0000000   8.0000000   1.0000000   1.0000000   8.0000000   1.0000000   1.0000000

  Atom       221         222         223         224         225         226         227         228         229         230
 IAtWgt=          16           1           1          16           1           1          16           1           1          16
 AtmWgt=  15.9949146   1.0078250   1.0078250  15.9949146   1.0078250   1.0078250  15.9949146   1.0078250   1.0078250  15.9949146
 NucSpn=           0           1           1           0           1           1           0           1           1           0
 AtZEff=   0.0000000   0.0000000   0.0000000   0.0000000   0.0000000   0.0000000   0.0000000   0.0000000   0.0000000   0.0000000
 NQMom=    0.0000000   0.0000000   0.0000000   0.0000000   0.0000000   0.0000000   0.0000000   0.0000000   0.0000000   0.0000000
 NMagM=    0.0000000   2.7928460   2.7928460   0.0000000   2.7928460   2.7928460   0.0000000   2.7928460   2.7928460   0.0000000
 AtZNuc=   8.0000000   1.0000000   1.0000000   8.0000000   1.0000000   1.0000000   8.0000000   1.0000000   1.0000000   8.0000000

  Atom       231         232         233         234         235         236         237         238         239         240
 IAtWgt=           1           1          16           1           1          16           1           1          16           1
 AtmWgt=   1.0078250   1.0078250  15.9949146   1.0078250   1.0078250  15.9949146   1.0078250   1.0078250  15.9949146   1.0078250
 NucSpn=           1           1           0           1           1           0           1           1           0           1
 AtZEff=   0.0000000   0.0000000   0.0000000   0.0000000   0.0000000   0.0000000   0.0000000   0.0000000   0.0000000   0.0000000
 NQMom=    0.0000000   0.0000000   0.0000000   0.0000000   0.0000000   0.0000000   0.0000000   0.0000000   0.0000000   0.0000000
 NMagM=    2.7928460   2.7928460   0.0000000   2.7928460   2.7928460   0.0000000   2.7928460   2.7928460   0.0000000   2.7928460
 AtZNuc=   1.0000000   1.0000000   8.0000000   1.0000000   1.0000000   8.0000000   1.0000000   1.0000000   8.0000000   1.0000000

  Atom       241         242         243         244         245         246         247         248         249         250
 IAtWgt=           1          16           1           1          16           1           1          16           1           1
 AtmWgt=   1.0078250  15.9949146   1.0078250   1.0078250  15.9949146   1.0078250   1.0078250  15.9949146   1.0078250   1.0078250
 NucSpn=           1           0           1           1           0           1           1           0           1           1
 AtZEff=   0.0000000   0.0000000   0.0000000   0.0000000   0.0000000   0.0000000   0.0000000   0.0000000   0.0000000   0.0000000
 NQMom=    0.0000000   0.0000000   0.0000000   0.0000000   0.0000000   0.0000000   0.0000000   0.0000000   0.0000000   0.0000000
 NMagM=    2.7928460   0.0000000   2.7928460   2.7928460   0.0000000   2.7928460   2.7928460   0.0000000   2.7928460   2.7928460
 AtZNuc=   1.0000000   8.0000000   1.0000000   1.0000000   8.0000000   1.0000000   1.0000000   8.0000000   1.0000000   1.0000000

  Atom       251         252         253         254         255         256         257         258         259         260
 IAtWgt=          16           1           1          16           1           1          16           1           1          16
 AtmWgt=  15.9949146   1.0078250   1.0078250  15.9949146   1.0078250   1.0078250  15.9949146   1.0078250   1.0078250  15.9949146
 NucSpn=           0           1           1           0           1           1           0           1           1           0
 AtZEff=   0.0000000   0.0000000   0.0000000   0.0000000   0.0000000   0.0000000   0.0000000   0.0000000   0.0000000   0.0000000
 NQMom=    0.0000000   0.0000000   0.0000000   0.0000000   0.0000000   0.0000000   0.0000000   0.0000000   0.0000000   0.0000000
 NMagM=    0.0000000   2.7928460   2.7928460   0.0000000   2.7928460   2.7928460   0.0000000   2.7928460   2.7928460   0.0000000
 AtZNuc=   8.0000000   1.0000000   1.0000000   8.0000000   1.0000000   1.0000000   8.0000000   1.0000000   1.0000000   8.0000000

  Atom       261         262         263         264         265         266         267         268         269         270
 IAtWgt=           1           1          16           1           1          16           1           1          16           1
 AtmWgt=   1.0078250   1.0078250  15.9949146   1.0078250   1.0078250  15.9949146   1.0078250   1.0078250  15.9949146   1.0078250
 NucSpn=           1           1           0           1           1           0           1           1           0           1
 AtZEff=   0.0000000   0.0000000   0.0000000   0.0000000   0.0000000   0.0000000   0.0000000   0.0000000   0.0000000   0.0000000
 NQMom=    0.0000000   0.0000000   0.0000000   0.0000000   0.0000000   0.0000000   0.0000000   0.0000000   0.0000000   0.0000000
 NMagM=    2.7928460   2.7928460   0.0000000   2.7928460   2.7928460   0.0000000   2.7928460   2.7928460   0.0000000   2.7928460
 AtZNuc=   1.0000000   1.0000000   8.0000000   1.0000000   1.0000000   8.0000000   1.0000000   1.0000000   8.0000000   1.0000000

  Atom       271         272         273         274         275         276         277         278         279         280
 IAtWgt=           1          16           1           1          16           1           1          16           1           1
 AtmWgt=   1.0078250  15.9949146   1.0078250   1.0078250  15.9949146   1.0078250   1.0078250  15.9949146   1.0078250   1.0078250
 NucSpn=           1           0           1           1           0           1           1           0           1           1
 AtZEff=   0.0000000   0.0000000   0.0000000   0.0000000   0.0000000   0.0000000   0.0000000   0.0000000   0.0000000   0.0000000
 NQMom=    0.0000000   0.0000000   0.0000000   0.0000000   0.0000000   0.0000000   0.0000000   0.0000000   0.0000000   0.0000000
 NMagM=    2.7928460   0.0000000   2.7928460   2.7928460   0.0000000   2.7928460   2.7928460   0.0000000   2.7928460   2.7928460
 AtZNuc=   1.0000000   8.0000000   1.0000000   1.0000000   8.0000000   1.0000000   1.0000000   8.0000000   1.0000000   1.0000000

  Atom       281         282         283         284         285         286         287         288         289         290
 IAtWgt=          16           1           1          16           1           1          16           1           1          16
 AtmWgt=  15.9949146   1.0078250   1.0078250  15.9949146   1.0078250   1.0078250  15.9949146   1.0078250   1.0078250  15.9949146
 NucSpn=           0           1           1           0           1           1           0           1           1           0
 AtZEff=   0.0000000   0.0000000   0.0000000   0.0000000   0.0000000   0.0000000   0.0000000   0.0000000   0.0000000   0.0000000
 NQMom=    0.0000000   0.0000000   0.0000000   0.0000000   0.0000000   0.0000000   0.0000000   0.0000000   0.0000000   0.0000000
 NMagM=    0.0000000   2.7928460   2.7928460   0.0000000   2.7928460   2.7928460   0.0000000   2.7928460   2.7928460   0.0000000
 AtZNuc=   8.0000000   1.0000000   1.0000000   8.0000000   1.0000000   1.0000000   8.0000000   1.0000000   1.0000000   8.0000000

  Atom       291         292         293         294         295         296         297         298         299         300
 IAtWgt=           1           1          16           1           1          16           1           1          16           1
 AtmWgt=   1.0078250   1.0078250  15.9949146   1.0078250   1.0078250  15.9949146   1.0078250   1.0078250  15.9949146   1.0078250
 NucSpn=           1           1           0           1           1           0           1           1           0           1
 AtZEff=   0.0000000   0.0000000   0.0000000   0.0000000   0.0000000   0.0000000   0.0000000   0.0000000   0.0000000   0.0000000
 NQMom=    0.0000000   0.0000000   0.0000000   0.0000000   0.0000000   0.0000000   0.0000000   0.0000000   0.0000000   0.0000000
 NMagM=    2.7928460   2.7928460   0.0000000   2.7928460   2.7928460   0.0000000   2.7928460   2.7928460   0.0000000   2.7928460
 AtZNuc=   1.0000000   1.0000000   8.0000000   1.0000000   1.0000000   8.0000000   1.0000000   1.0000000   8.0000000   1.0000000

  Atom       301         302         303         304         305         306         307         308         309         310
 IAtWgt=           1          16           1           1          16           1           1          16           1           1
 AtmWgt=   1.0078250  15.9949146   1.0078250   1.0078250  15.9949146   1.0078250   1.0078250  15.9949146   1.0078250   1.0078250
 NucSpn=           1           0           1           1           0           1           1           0           1           1
 AtZEff=   0.0000000   0.0000000   0.0000000   0.0000000   0.0000000   0.0000000   0.0000000   0.0000000   0.0000000   0.0000000
 NQMom=    0.0000000   0.0000000   0.0000000   0.0000000   0.0000000   0.0000000   0.0000000   0.0000000   0.0000000   0.0000000
 NMagM=    2.7928460   0.0000000   2.7928460   2.7928460   0.0000000   2.7928460   2.7928460   0.0000000   2.7928460   2.7928460
 AtZNuc=   1.0000000   8.0000000   1.0000000   1.0000000   8.0000000   1.0000000   1.0000000   8.0000000   1.0000000   1.0000000

  Atom       311         312         313         314         315         316         317         318         319         320
 IAtWgt=          16           1           1          16           1           1          16           1           1          16
 AtmWgt=  15.9949146   1.0078250   1.0078250  15.9949146   1.0078250   1.0078250  15.9949146   1.0078250   1.0078250  15.9949146
 NucSpn=           0           1           1           0           1           1           0           1           1           0
 AtZEff=   0.0000000   0.0000000   0.0000000   0.0000000   0.0000000   0.0000000   0.0000000   0.0000000   0.0000000   0.0000000
 NQMom=    0.0000000   0.0000000   0.0000000   0.0000000   0.0000000   0.0000000   0.0000000   0.0000000   0.0000000   0.0000000
 NMagM=    0.0000000   2.7928460   2.7928460   0.0000000   2.7928460   2.7928460   0.0000000   2.7928460   2.7928460   0.0000000
 AtZNuc=   8.0000000   1.0000000   1.0000000   8.0000000   1.0000000   1.0000000   8.0000000   1.0000000   1.0000000   8.0000000

  Atom       321         322         323         324         325         326         327         328         329         330
 IAtWgt=           1           1          16           1           1          16           1           1          16           1
 AtmWgt=   1.0078250   1.0078250  15.9949146   1.0078250   1.0078250  15.9949146   1.0078250   1.0078250  15.9949146   1.0078250
 NucSpn=           1           1           0           1           1           0           1           1           0           1
 AtZEff=   0.0000000   0.0000000   0.0000000   0.0000000   0.0000000   0.0000000   0.0000000   0.0000000   0.0000000   0.0000000
 NQMom=    0.0000000   0.0000000   0.0000000   0.0000000   0.0000000   0.0000000   0.0000000   0.0000000   0.0000000   0.0000000
 NMagM=    2.7928460   2.7928460   0.0000000   2.7928460   2.7928460   0.0000000   2.7928460   2.7928460   0.0000000   2.7928460
 AtZNuc=   1.0000000   1.0000000   8.0000000   1.0000000   1.0000000   8.0000000   1.0000000   1.0000000   8.0000000   1.0000000

  Atom       331         332         333         334         335         336         337         338         339         340
 IAtWgt=           1          16           1           1          16           1           1          16           1           1
 AtmWgt=   1.0078250  15.9949146   1.0078250   1.0078250  15.9949146   1.0078250   1.0078250  15.9949146   1.0078250   1.0078250
 NucSpn=           1           0           1           1           0           1           1           0           1           1
 AtZEff=   0.0000000   0.0000000   0.0000000   0.0000000   0.0000000   0.0000000   0.0000000   0.0000000   0.0000000   0.0000000
 NQMom=    0.0000000   0.0000000   0.0000000   0.0000000   0.0000000   0.0000000   0.0000000   0.0000000   0.0000000   0.0000000
 NMagM=    2.7928460   0.0000000   2.7928460   2.7928460   0.0000000   2.7928460   2.7928460   0.0000000   2.7928460   2.7928460
 AtZNuc=   1.0000000   8.0000000   1.0000000   1.0000000   8.0000000   1.0000000   1.0000000   8.0000000   1.0000000   1.0000000

  Atom       341         342         343         344         345         346         347         348         349         350
 IAtWgt=          16           1           1          16           1           1          16           1           1          16
 AtmWgt=  15.9949146   1.0078250   1.0078250  15.9949146   1.0078250   1.0078250  15.9949146   1.0078250   1.0078250  15.9949146
 NucSpn=           0           1           1           0           1           1           0           1           1           0
 AtZEff=   0.0000000   0.0000000   0.0000000   0.0000000   0.0000000   0.0000000   0.0000000   0.0000000   0.0000000   0.0000000
 NQMom=    0.0000000   0.0000000   0.0000000   0.0000000   0.0000000   0.0000000   0.0000000   0.0000000   0.0000000   0.0000000
 NMagM=    0.0000000   2.7928460   2.7928460   0.0000000   2.7928460   2.7928460   0.0000000   2.7928460   2.7928460   0.0000000
 AtZNuc=   8.0000000   1.0000000   1.0000000   8.0000000   1.0000000   1.0000000   8.0000000   1.0000000   1.0000000   8.0000000

  Atom       351         352         353         354         355         356         357         358         359         360
 IAtWgt=           1           1          16           1           1          16           1           1          16           1
 AtmWgt=   1.0078250   1.0078250  15.9949146   1.0078250   1.0078250  15.9949146   1.0078250   1.0078250  15.9949146   1.0078250
 NucSpn=           1           1           0           1           1           0           1           1           0           1
 AtZEff=   0.0000000   0.0000000   0.0000000   0.0000000   0.0000000   0.0000000   0.0000000   0.0000000   0.0000000   0.0000000
 NQMom=    0.0000000   0.0000000   0.0000000   0.0000000   0.0000000   0.0000000   0.0000000   0.0000000   0.0000000   0.0000000
 NMagM=    2.7928460   2.7928460   0.0000000   2.7928460   2.7928460   0.0000000   2.7928460   2.7928460   0.0000000   2.7928460
 AtZNuc=   1.0000000   1.0000000   8.0000000   1.0000000   1.0000000   8.0000000   1.0000000   1.0000000   8.0000000   1.0000000

  Atom       361         362         363         364         365         366         367         368         369         370
 IAtWgt=           1          16           1           1          16           1           1          16           1           1
 AtmWgt=   1.0078250  15.9949146   1.0078250   1.0078250  15.9949146   1.0078250   1.0078250  15.9949146   1.0078250   1.0078250
 NucSpn=           1           0           1           1           0           1           1           0           1           1
 AtZEff=   0.0000000   0.0000000   0.0000000   0.0000000   0.0000000   0.0000000   0.0000000   0.0000000   0.0000000   0.0000000
 NQMom=    0.0000000   0.0000000   0.0000000   0.0000000   0.0000000   0.0000000   0.0000000   0.0000000   0.0000000   0.0000000
 NMagM=    2.7928460   0.0000000   2.7928460   2.7928460   0.0000000   2.7928460   2.7928460   0.0000000   2.7928460   2.7928460
 AtZNuc=   1.0000000   8.0000000   1.0000000   1.0000000   8.0000000   1.0000000   1.0000000   8.0000000   1.0000000   1.0000000

  Atom       371         372         373         374         375         376         377         378         379         380
 IAtWgt=          16           1           1          16           1           1          16           1           1          16
 AtmWgt=  15.9949146   1.0078250   1.0078250  15.9949146   1.0078250   1.0078250  15.9949146   1.0078250   1.0078250  15.9949146
 NucSpn=           0           1           1           0           1           1           0           1           1           0
 AtZEff=   0.0000000   0.0000000   0.0000000   0.0000000   0.0000000   0.0000000   0.0000000   0.0000000   0.0000000   0.0000000
 NQMom=    0.0000000   0.0000000   0.0000000   0.0000000   0.0000000   0.0000000   0.0000000   0.0000000   0.0000000   0.0000000
 NMagM=    0.0000000   2.7928460   2.7928460   0.0000000   2.7928460   2.7928460   0.0000000   2.7928460   2.7928460   0.0000000
 AtZNuc=   8.0000000   1.0000000   1.0000000   8.0000000   1.0000000   1.0000000   8.0000000   1.0000000   1.0000000   8.0000000

  Atom       381         382         383         384         385
 IAtWgt=           1           1          16           1           1
 AtmWgt=   1.0078250   1.0078250  15.9949146   1.0078250   1.0078250
 NucSpn=           1           1           0           1           1
 AtZEff=   0.0000000   0.0000000   0.0000000   0.0000000   0.0000000
 NQMom=    0.0000000   0.0000000   0.0000000   0.0000000   0.0000000
 NMagM=    2.7928460   2.7928460   0.0000000   2.7928460   2.7928460
 AtZNuc=   1.0000000   1.0000000   8.0000000   1.0000000   1.0000000
 Leave Link  101 at Tue May 15 05:16:12 2018, MaxMem= 14763950080 cpu:        37.9
 (Enter /cm/shared/gaussian/g09.e01/intel64-sandybridge/g09/l103.exe)

 GradGradGradGradGradGradGradGradGradGradGradGradGradGradGradGradGradGrad
 Berny optimization.
 Initialization pass.
 Trust Radius=3.00D-01 FncErr=1.00D-07 GrdErr=1.00D-07
 Number of steps in this run=      2 maximum allowed number of steps=      2.
 GradGradGradGradGradGradGradGradGradGradGradGradGradGradGradGradGradGrad

 Leave Link  103 at Tue May 15 05:16:12 2018, MaxMem= 14763950080 cpu:         6.2
 (Enter /cm/shared/gaussian/g09.e01/intel64-sandybridge/g09/l202.exe)
 Symmetry turned off by external request.
 Stoichiometry    BrH256O128(1-)
 Framework group  C1[X(BrH256O128)]
 Deg. of freedom  1149
 Full point group                 C1      NOp   1
                          Input orientation:                          
 ---------------------------------------------------------------------
 Center     Atomic      Atomic             Coordinates (Angstroms)
 Number     Number       Type             X           Y           Z
 ---------------------------------------------------------------------
      1         35           0       20.000000   20.000000   20.000000
      2          8           0       17.320000   20.010000   18.470000
      3          1           0       16.710000   19.440000   18.940000
      4          1           0       18.140000   19.940000   18.960000
      5          8           0       17.910000   18.020000   21.140000
      6          1           0       17.870000   17.430000   20.390000
      7          1           0       18.540000   18.690000   20.880000
      8          8           0       21.980000   19.620000   17.620000
      9          1           0       21.820000   18.690000   17.490000
     10          1           0       21.230000   19.930000   18.130000
     11          8           0       21.480000   22.830000   20.210000
     12          1           0       20.700000   23.380000   20.180000
     13          1           0       21.160000   21.960000   20.430000
     14          8           0       20.280000   17.970000   22.680000
     15          1           0       20.770000   18.200000   21.890000
     16          1           0       19.360000   18.010000   22.420000
     17          8           0       17.880000   21.190000   22.570000
     18          1           0       17.700000   22.120000   22.660000
     19          1           0       18.760000   21.140000   22.200000
     20          8           0       19.750000   22.670000   17.490000
     21          1           0       20.700000   22.680000   17.600000
     22          1           0       19.460000   21.980000   18.090000
     23          8           0       19.610000   16.710000   19.490000
     24          1           0       20.500000   16.970000   19.720000
     25          1           0       19.280000   17.430000   18.950000
     26          8           0       23.790000   20.370000   19.740000
     27          1           0       24.380000   19.850000   19.190000
     28          1           0       22.960000   20.380000   19.260000
     29          8           0       20.920000   20.460000   24.100000
     30          1           0       21.620000   21.030000   23.800000
     31          1           0       20.790000   19.840000   23.370000
     32          8           0       22.360000   17.140000   18.580000
     33          1           0       22.970000   16.410000   18.480000
     34          1           0       22.710000   17.640000   19.320000
     35          8           0       22.580000   22.970000   17.740000
     36          1           0       23.500000   23.110000   17.970000
     37          1           0       22.170000   22.720000   18.570000
     38          8           0       22.850000   21.820000   22.840000
     39          1           0       23.350000   22.500000   23.300000
     40          1           0       22.760000   22.150000   21.950000
     41          8           0       19.100000   24.030000   20.540000
     42          1           0       18.940000   24.770000   21.120000
     43          1           0       18.240000   23.850000   20.150000
     44          8           0       15.210000   20.730000   20.630000
     45          1           0       14.490000   21.300000   20.920000
     46          1           0       16.000000   21.210000   20.890000
     47          8           0       18.050000   18.670000   15.740000
     48          1           0       17.610000   18.860000   14.910000
     49          1           0       17.840000   19.420000   16.300000
     50          8           0       24.210000   19.520000   22.490000
     51          1           0       24.160000   19.900000   21.610000
     52          1           0       23.600000   20.040000   23.010000
     53          8           0       15.990000   19.410000   23.480000
     54          1           0       15.240000   20.000000   23.570000
     55          1           0       16.600000   19.880000   22.920000
     56          8           0       23.520000   17.310000   21.150000
     57          1           0       23.670000   17.920000   21.870000
     58          1           0       22.860000   16.700000   21.490000
     59          8           0       16.670000   21.680000   16.170000
     60          1           0       16.640000   21.330000   17.070000
     61          1           0       16.680000   22.630000   16.280000
     62          8           0       19.490000   21.540000   15.020000
     63          1           0       18.740000   21.400000   14.450000
     64          1           0       19.120000   21.940000   15.810000
     65          8           0       19.220000   15.360000   22.900000
     66          1           0       19.930000   14.730000   22.800000
     67          1           0       19.640000   16.210000   22.790000
     68          8           0       16.860000   23.680000   19.340000
     69          1           0       17.290000   23.730000   18.490000
     70          1           0       16.000000   23.310000   19.160000
     71          8           0       23.330000   24.680000   20.490000
     72          1           0       22.540000   24.160000   20.340000
     73          1           0       23.930000   24.430000   19.790000
     74          8           0       17.800000   14.650000   20.440000
     75          1           0       17.940000   14.670000   21.380000
     76          1           0       18.310000   15.400000   20.110000
     77          8           0       19.240000   18.220000   25.550000
     78          1           0       19.610000   18.500000   24.710000
     79          1           0       18.300000   18.390000   25.460000
     80          8           0       23.250000   21.370000   15.240000
     81          1           0       22.530000   22.000000   15.270000
     82          1           0       23.210000   20.920000   16.090000
     83          8           0       16.240000   16.850000   18.300000
     84          1           0       16.910000   16.580000   17.670000
     85          1           0       15.410000   16.670000   17.860000
     86          8           0       19.170000   25.610000   17.890000
     87          1           0       19.330000   24.680000   17.780000
     88          1           0       19.540000   25.820000   18.750000
     89          8           0       18.450000   16.100000   16.160000
     90          1           0       18.900000   15.770000   15.380000
     91          1           0       18.370000   17.040000   16.010000
     92          8           0       21.060000   19.260000   13.970000
     93          1           0       20.320000   18.710000   13.710000
     94          1           0       20.770000   19.700000   14.760000
     95          8           0       15.390000   16.670000   22.860000
     96          1           0       14.870000   16.460000   22.090000
     97          1           0       15.950000   17.400000   22.580000
     98          8           0       19.200000   21.790000   26.010000
     99          1           0       19.010000   20.970000   26.480000
    100          1           0       19.880000   21.550000   25.380000
    101          8           0       21.940000   15.740000   15.920000
    102          1           0       22.170000   14.840000   15.700000
    103          1           0       21.380000   15.660000   16.700000
    104          8           0       13.710000   19.260000   19.090000
    105          1           0       14.380000   18.690000   18.720000
    106          1           0       14.190000   19.830000   19.690000
    107          8           0       21.330000   23.610000   14.770000
    108          1           0       20.720000   22.880000   14.910000
    109          1           0       21.290000   23.770000   13.830000
    110          8           0       20.830000   13.430000   19.600000
    111          1           0       20.200000   14.110000   19.360000
    112          1           0       20.310000   12.730000   19.970000
    113          8           0       22.570000   19.130000   25.960000
    114          1           0       21.770000   19.570000   25.650000
    115          1           0       23.080000   19.820000   26.380000
    116          8           0       23.540000   17.840000   14.880000
    117          1           0       23.210000   18.660000   14.510000
    118          1           0       22.820000   17.510000   15.400000
    119          8           0       24.830000   17.480000   24.040000
    120          1           0       24.080000   17.280000   24.600000
    121          1           0       24.610000   18.320000   23.630000
    122          8           0       24.860000   15.030000   20.190000
    123          1           0       24.360000   14.540000   20.840000
    124          1           0       24.590000   15.940000   20.300000
    125          8           0       16.470000   18.330000   25.720000
    126          1           0       15.590000   18.450000   26.080000
    127          1           0       16.440000   18.770000   24.870000
    128          8           0       14.310000   15.960000   20.210000
    129          1           0       15.180000   16.130000   19.830000
    130          1           0       14.080000   15.080000   19.890000
    131          8           0       25.220000   23.490000   18.890000
    132          1           0       25.560000   22.630000   19.120000
    133          1           0       25.770000   23.780000   18.160000
    134          8           0       16.820000   24.320000   16.500000
    135          1           0       17.300000   24.850000   15.870000
    136          1           0       15.970000   24.740000   16.570000
    137          8           0       16.360000   26.210000   20.490000
    138          1           0       16.660000   25.470000   19.960000
    139          1           0       16.960000   26.220000   21.240000
    140          8           0       24.030000   24.620000   22.990000
    141          1           0       23.930000   24.790000   22.050000
    142          1           0       24.930000   24.300000   23.070000
    143          8           0       27.210000   19.110000   21.530000
    144          1           0       26.280000   19.180000   21.780000
    145          1           0       27.320000   19.760000   20.840000
    146          8           0       18.490000   25.890000   22.610000
    147          1           0       19.150000   26.330000   23.140000
    148          1           0       17.900000   25.480000   23.240000
    149          8           0       22.570000   14.180000   21.850000
    150          1           0       22.870000   13.410000   22.320000
    151          1           0       22.170000   13.830000   21.050000
    152          8           0       20.580000   26.790000   20.410000
    153          1           0       20.300000   27.550000   20.940000
    154          1           0       21.370000   26.470000   20.860000
    155          8           0       17.010000   14.800000   24.420000
    156          1           0       16.350000   15.470000   24.240000
    157          1           0       17.780000   15.090000   23.930000
    158          8           0       21.650000   25.430000   24.460000
    159          1           0       22.070000   25.250000   23.620000
    160          1           0       21.900000   26.330000   24.660000
    161          8           0       22.140000   26.650000   17.770000
    162          1           0       21.350000   26.680000   18.310000
    163          1           0       22.110000   25.800000   17.340000
    164          8           0       25.880000   22.000000   15.770000
    165          1           0       26.310000   21.250000   15.360000
    166          1           0       24.950000   21.780000   15.760000
    167          8           0       25.190000   16.840000   16.820000
    168          1           0       24.880000   15.940000   16.770000
    169          1           0       24.790000   17.280000   16.060000
    170          8           0       14.100000   23.300000   18.930000
    171          1           0       14.040000   22.780000   18.120000
    172          1           0       13.560000   24.070000   18.750000
    173          8           0       16.660000   13.970000   16.480000
    174          1           0       16.510000   13.470000   17.290000
    175          1           0       17.490000   14.410000   16.630000
    176          8           0       20.250000   15.730000   26.670000
    177          1           0       19.820000   16.450000   26.190000
    178          1           0       21.090000   16.100000   26.940000
    179          8           0       20.460000   23.970000   26.600000
    180          1           0       20.040000   23.130000   26.420000
    181          1           0       20.720000   24.300000   25.740000
    182          8           0       16.250000   12.850000   19.130000
    183          1           0       16.760000   13.580000   19.480000
    184          1           0       16.880000   12.340000   18.620000
    185          8           0       16.270000   24.700000   24.230000
    186          1           0       16.080000   24.620000   25.170000
    187          1           0       15.680000   25.390000   23.920000
    188          8           0       13.640000   20.990000   23.590000
    189          1           0       12.740000   20.750000   23.350000
    190          1           0       13.600000   21.940000   23.750000
    191          8           0       22.360000   12.900000   17.090000
    192          1           0       21.650000   13.180000   17.670000
    193          1           0       22.590000   12.030000   17.400000
    194          8           0       19.580000   17.140000   13.170000
    195          1           0       20.260000   16.520000   12.910000
    196          1           0       18.830000   16.590000   13.380000
    197          8           0       17.590000   22.750000   13.000000
    198          1           0       17.150000   23.570000   12.780000
    199          1           0       18.430000   23.020000   13.360000
    200          8           0       13.770000   16.910000   16.870000
    201          1           0       12.890000   16.620000   17.090000
    202          1           0       13.660000   17.790000   16.530000
    203          8           0       27.480000   21.270000   19.680000
    204          1           0       28.240000   21.450000   20.240000
    205          1           0       27.820000   21.320000   18.790000
    206          8           0       16.760000   18.550000   13.280000
    207          1           0       16.640000   18.820000   12.360000
[...]
   Y335      26.45617  -0.02350   0.00000  -0.02101  -0.02217  26.43400
   Z335      51.23048   0.00181   0.00000   0.00993   0.00912  51.23960
   X336      33.16469  -0.00911   0.00000  -0.00574  -0.00528  33.15941
   Y336      27.40103   0.00843   0.00000   0.00550   0.00422  27.40525
   Z336      51.64622  -0.00201   0.00000  -0.00747  -0.00822  51.63800
   X337      35.99928   0.00208   0.00000  -0.00307  -0.00263  35.99666
   Y337      27.68449   0.00574   0.00000   0.00115   0.00008  27.68457
   Z337      51.24937   0.00438   0.00000   0.00796   0.00726  51.25663
   X338      40.30786  -0.00194   0.00000   0.00018  -0.00031  40.30755
   Y338      45.44791   0.01431   0.00000   0.00845   0.00976  45.45767
   Z338      22.88458   0.01304   0.00000   0.00429   0.00494  22.88952
   X339      39.13623  -0.00675   0.00000  -0.00695  -0.00748  39.12875
   Y339      46.22270   0.00304   0.00000   0.00182   0.00313  46.22583
   Z339      21.75075  -0.00620   0.00000  -0.00607  -0.00537  21.74538
   X340      40.95037   0.00759   0.00000   0.00622   0.00583  40.95619
   Y340      44.03062  -0.01610   0.00000  -0.01179  -0.01037  44.02025
   Z340      21.99641  -0.00952   0.00000  -0.00524  -0.00469  21.99172
   X341      36.41502  -0.00902   0.00000  -0.00689  -0.00822  36.40680
   Y341      56.37053   0.01018   0.00000   0.00636   0.00647  56.37700
   Z341      35.69693   0.01138   0.00000   0.00753   0.00895  35.70588
   X342      36.58510   0.00449   0.00000   0.00655   0.00533  36.59043
   Y342      54.57529  -0.00900   0.00000  -0.00450  -0.00438  54.57091
   Z342      35.71582  -0.00358   0.00000  -0.00491  -0.00362  35.71220
   X343      37.22760   0.00400   0.00000   0.00336   0.00201  37.22962
   Y343      56.89965  -0.00418   0.00000  -0.00796  -0.00769  56.89197
   Z343      34.16625  -0.00585   0.00000  -0.00301  -0.00155  34.16470
   X344      45.95814  -0.01250   0.00000  -0.00634  -0.00748  45.95066
   Y344      52.83674   0.00387   0.00000   0.00393   0.00429  52.84103
   Z344      40.96926   0.00972   0.00000   0.01341   0.01465  40.98391
   X345      47.28095   0.00609   0.00000   0.00121   0.00015  47.28110
   Y345      51.60842  -0.00740   0.00000  -0.00611  -0.00567  51.60275
   Z345      40.93147  -0.00403   0.00000  -0.00767  -0.00651  40.92496
   X346      46.73293   0.00377   0.00000   0.00360   0.00236  46.73529
   Y346      54.38632   0.00334   0.00000   0.00071   0.00116  54.38748
   Z346      40.42124  -0.00303   0.00000  -0.00431  -0.00294  40.41830
   X347      21.69406  -0.01199   0.00000  -0.01150  -0.01158  21.68248
   Y347      38.30475   0.01025   0.00000   0.00651   0.00608  38.31083
   Z347      29.76319   0.01204   0.00000   0.01065   0.01061  29.77380
   X348      20.27676  -0.00619   0.00000  -0.00718  -0.00720  20.26956
   Y348      37.51106  -0.00191   0.00000   0.00039  -0.00008  37.51098
   Z348      28.96950  -0.00485   0.00000  -0.00556  -0.00567  28.96383
   X349      23.14915   0.01139   0.00000   0.00591   0.00589  23.15504
   Y349      37.47327  -0.00320   0.00000   0.00428   0.00400  37.47727
   Z349      29.04509  -0.00592   0.00000  -0.00239  -0.00248  29.04261
   X350      44.84320  -0.00244   0.00000   0.00049   0.00101  44.84421
   Y350      26.79632   0.02153   0.00000   0.01691   0.01662  26.81294
   Z350      48.79273  -0.00719   0.00000  -0.00434  -0.00502  48.78771
   X351      44.97548  -0.00105   0.00000  -0.00332  -0.00284  44.97264
   Y351      27.21206  -0.00179   0.00000  -0.00241  -0.00282  27.20923
   Z351      50.55017   0.00714   0.00000   0.00704   0.00638  50.55656
   X352      45.18335   0.00344   0.00000   0.00124   0.00188  45.18523
   Y352      25.03887  -0.01575   0.00000  -0.00581  -0.00607  25.03280
   Z352      48.69824   0.00079   0.00000   0.00090   0.00008  48.69833
   X353      36.28274  -0.02015   0.00000  -0.01254  -0.01327  36.26947
   Y353      44.78651  -0.01043   0.00000  -0.00387  -0.00520  44.78131
   Z353      55.08552   0.00566   0.00000   0.00128   0.00185  55.08736
   X354      37.17091   0.01134   0.00000   0.00969   0.00897  37.17989
   Y354      44.71092   0.00541   0.00000   0.00989   0.00874  44.71966
   Z354      53.51704  -0.01338   0.00000  -0.00898  -0.00841  53.50864
   X355      37.22760   0.00991   0.00000   0.00730   0.00648  37.23409
   Y355      45.92035   0.00983   0.00000   0.00721   0.00586  45.92621
   Z355      56.10597   0.00510   0.00000   0.00098   0.00163  56.10760
   X356      54.10286   0.00804   0.00000   0.00543   0.00472  54.10757
   Y356      46.50616   0.01547   0.00000   0.00879   0.00978  46.51594
   Z356      39.74094   0.00518   0.00000  -0.00265  -0.00180  39.73914
   X357      52.70446  -0.00009   0.00000   0.00017  -0.00061  52.70385
   Y357      47.46992  -0.00415   0.00000  -0.00638  -0.00554  47.46438
   Z357      40.40234   0.00164   0.00000   0.00390   0.00480  40.40715
   X358      53.32807  -0.01165   0.00000  -0.01049  -0.01110  53.31697
   Y358      45.10776  -0.01207   0.00000  -0.00664  -0.00565  45.10211
   Z358      38.92836  -0.00810   0.00000  -0.00615  -0.00541  38.92295
   X359      36.39613   0.01151   0.00000   0.01420   0.01521  36.41134
   Y359      20.67360   0.00944   0.00000   0.00774   0.00762  20.68123
   Z359      38.79608  -0.02631   0.00000  -0.01759  -0.01880  38.77728
   X360      35.88590  -0.01095   0.00000  -0.01224  -0.01121  35.87469
   Y360      20.29566   0.00780   0.00000   0.02248   0.02220  20.31785
   Z360      40.47793   0.02147   0.00000   0.01044   0.00920  40.48714
   X361      37.64334   0.00561   0.00000   0.00691   0.00801  37.65136
   Y361      19.42638  -0.00868   0.00000  -0.01331  -0.01332  19.41306
   Z361      38.39924   0.00223   0.00000   0.00588   0.00459  38.40383
   X362      39.83543  -0.01277   0.00000  -0.01585  -0.01486  39.82057
   Y362      22.39325  -0.00274   0.00000  -0.00393  -0.00303  22.39023
   Z362      28.04354  -0.01309   0.00000  -0.00587  -0.00692  28.03661
   X363      40.79919   0.00829   0.00000   0.00413   0.00507  40.80426
   Y363      23.05466   0.00949   0.00000   0.00997   0.01083  23.06549
   Z363      29.42304   0.00758   0.00000  -0.00087  -0.00186  29.42117
   X364      39.53307  -0.00129   0.00000  -0.00227  -0.00116  39.53191
   Y364      20.67360  -0.00743   0.00000  -0.00989  -0.00905  20.66456
   Z364      28.51597  -0.00004   0.00000  -0.00063  -0.00181  28.51416
   X365      26.05932  -0.00758   0.00000  -0.00393  -0.00404  26.05528
   Y365      39.64645  -0.01319   0.00000  -0.01433  -0.01405  39.63240
   Z365      24.03732   0.01306   0.00000   0.01266   0.01275  24.05007
   X366      25.62469  -0.00037   0.00000  -0.00105  -0.00125  25.62344
   Y366      41.10154   0.00493   0.00000  -0.00077  -0.00045  41.10109
   Z366      23.05466   0.00136   0.00000   0.01045   0.01065  23.06531
   X367      27.81677   0.00619   0.00000   0.00210   0.00200  27.81877
   Y367      39.38189   0.00359   0.00000   0.00526   0.00568  39.38757
   Z367      23.65937  -0.01245   0.00000  -0.01960  -0.01951  23.63986
   X368      20.46573   0.00817   0.00000   0.00878   0.00834  20.47408
   Y368      42.63222  -0.01158   0.00000  -0.00562  -0.00673  42.62550
   Z368      37.71893  -0.00355   0.00000   0.00213   0.00239  37.72133
   X369      19.61536  -0.00648   0.00000  -0.00389  -0.00442  19.61094
   Y369      43.84165   0.01118   0.00000   0.00922   0.00798  43.84963
   Z369      38.73939   0.00685   0.00000   0.00308   0.00343  38.74282
   X370      21.46729  -0.00002   0.00000  -0.00016  -0.00065  21.46664
   Y370      43.61488   0.00053   0.00000   0.00001  -0.00094  43.61394
   Z370      36.56620  -0.00170   0.00000  -0.00298  -0.00263  36.56357
   X371      33.84500  -0.00472   0.00000  -0.00257  -0.00354  33.84145
   Y371      48.92501   0.01526   0.00000   0.01218   0.01101  48.93602
   Z371      50.73915  -0.01382   0.00000  -0.01046  -0.00961  50.72953
   X372      32.40880  -0.00363   0.00000   0.00220   0.00128  32.41008
   Y372      48.07463  -0.00708   0.00000  -0.00436  -0.00568  48.06896
   Z372      51.41945   0.00994   0.00000   0.01158   0.01235  51.43180
   X373      35.26229   0.00877   0.00000   0.00413   0.00321  35.26550
   Y373      48.13132  -0.01237   0.00000  -0.01221  -0.01335  48.11798
   Z373      51.53283   0.00307   0.00000  -0.00507  -0.00427  51.52857
   X374      43.27473  -0.00583   0.00000  -0.00200  -0.00319  43.27154
   Y374      52.85564  -0.00411   0.00000  -0.00405  -0.00424  52.85140
   Z374      45.93924   0.00814   0.00000   0.00095   0.00218  45.94142
   X375      43.65267  -0.00077   0.00000  -0.00183  -0.00314  43.64953
   Y375      54.55639   0.00177   0.00000  -0.00010  -0.00030  54.55609
   Z375      46.44947   0.00061   0.00000   0.00011   0.00146  46.45092
   X376      43.99282   0.00713   0.00000   0.00860   0.00744  44.00026
   Y376      52.72336   0.00089   0.00000   0.00191   0.00189  52.72525
   Z376      44.27628  -0.01120   0.00000  -0.00942  -0.00820  44.26808
   X377      46.22270  -0.00062   0.00000  -0.00972  -0.00891  46.21380
   Y377      25.39792  -0.01255   0.00000  -0.01301  -0.01156  25.38636
   Z377      26.34278  -0.00348   0.00000  -0.00490  -0.00568  26.33710
   X378      46.03373   0.00854   0.00000   0.01691   0.01768  46.05140
   Y378      25.88925   0.00237   0.00000   0.00136   0.00267  25.89192
   Z378      28.08133   0.00480   0.00000   0.00196   0.00122  28.08255
   X379      45.46681  -0.00624   0.00000  -0.00621  -0.00548  45.46133
   Y379      26.75852   0.00880   0.00000   0.00481   0.00628  26.76481
   Z379      25.41682  -0.00849   0.00000  -0.00851  -0.00919  25.40762
   X380      28.51597  -0.01117   0.00000  -0.00816  -0.00758  28.50838
   Y380      25.87035  -0.00027   0.00000   0.00792   0.00649  25.87684
   Z380      49.43524   0.01357   0.00000   0.01128   0.01039  49.44562
   X381      27.19316  -0.00022   0.00000   0.00081   0.00141  27.19457
   Y381      25.66248   0.00106   0.00000   0.00292   0.00149  25.66397
   Z381      48.20691  -0.00351   0.00000  -0.00255  -0.00348  48.20344
   X382      29.95216   0.01371   0.00000   0.01020   0.01075  29.96291
   Y382      26.38058   0.00129   0.00000  -0.00259  -0.00385  26.37672
   Z382      48.45258  -0.00896   0.00000  -0.00388  -0.00473  48.44785
   X383      30.87813  -0.00663   0.00000  -0.00721  -0.00750  30.87062
   Y383      38.19137   0.01066   0.00000   0.00820   0.00649  38.19786
   Z383      55.38787  -0.00287   0.00000  -0.00636  -0.00633  55.38155
   X384      32.21983   0.00839   0.00000   0.00861   0.00837  32.22820
   Y384      37.45437  -0.00443   0.00000  -0.00137  -0.00292  37.45145
   Z384      54.40522  -0.00106   0.00000   0.00318   0.00317  54.40839
   X385      30.17893   0.00009   0.00000   0.00305   0.00284  30.18177
   Y385      36.79297  -0.00779   0.00000  -0.00465  -0.00647  36.78650
   Z385      56.29494   0.00268   0.00000   0.00084   0.00076  56.29570
         Item               Value     Threshold  Converged?
 Maximum Force            0.034149     0.000450     NO 
 RMS     Force            0.010251     0.000300     NO 
 Maximum Displacement     0.030061     0.001800     NO 
 RMS     Displacement     0.008816     0.001200     NO 
 Predicted change in Energy=-6.990489D-02
 GradGradGradGradGradGradGradGradGradGradGradGradGradGradGradGradGradGrad

 Leave Link  103 at Tue May 15 08:00:21 2018, MaxMem= 14763950080 cpu:      3279.8
 (Enter /cm/shared/gaussian/g09.e01/intel64-sandybridge/g09/l9999.exe)
 1\1\GINC-POPLE01\Force\RPBE1PBE\CC-pVDZ\Br1H256O128(1-)\M.PELUSO\15-Ma
 y-2018\0\\#p PBE1PBE/cc-pvDZ force Counterpoise=2 noSymm\\forces on ch
 loride comput - NWATER: 128\\-1,1\Br,20.,20.,20.\O,17.32,20.01,18.47\H
 ,16.71,19.44,18.94\H,18.14,19.94,18.96\O,17.91,18.02,21.14\H,17.87,17.
 43,20.39\H,18.54,18.69,20.88\O,21.98,19.62,17.62\H,21.82,18.69,17.49\H
 ,21.23,19.93,18.13\O,21.48,22.83,20.21\H,20.7,23.38,20.18\H,21.16,21.9
 6,20.43\O,20.28,17.97,22.68\H,20.77,18.2,21.89\H,19.36,18.01,22.42\O,1
 7.88,21.19,22.57\H,17.7,22.12,22.66\H,18.76,21.14,22.2\O,19.75,22.67,1
 7.49\H,20.7,22.68,17.6\H,19.46,21.98,18.09\O,19.61,16.71,19.49\H,20.5,
 16.97,19.72\H,19.28,17.43,18.95\O,23.79,20.37,19.74\H,24.38,19.85,19.1
 9\H,22.96,20.38,19.26\O,20.92,20.46,24.1\H,21.62,21.03,23.8\H,20.79,19
 .84,23.37\O,22.36,17.14,18.58\H,22.97,16.41,18.48\H,22.71,17.64,19.32\
 O,22.58,22.97,17.74\H,23.5,23.11,17.97\H,22.17,22.72,18.57\O,22.85,21.
 82,22.84\H,23.35,22.5,23.3\H,22.76,22.15,21.95\O,19.1,24.03,20.54\H,18
 .94,24.77,21.12\H,18.24,23.85,20.15\O,15.21,20.73,20.63\H,14.49,21.3,2
 0.92\H,16.,21.21,20.89\O,18.05,18.67,15.74\H,17.61,18.86,14.91\H,17.84
 ,19.42,16.3\O,24.21,19.52,22.49\H,24.16,19.9,21.61\H,23.6,20.04,23.01\
 O,15.99,19.41,23.48\H,15.24,20.,23.57\H,16.6,19.88,22.92\O,23.52,17.31
 ,21.15\H,23.67,17.92,21.87\H,22.86,16.7,21.49\O,16.67,21.68,16.17\H,16
 .64,21.33,17.07\H,16.68,22.63,16.28\O,19.49,21.54,15.02\H,18.74,21.4,1
 4.45\H,19.12,21.94,15.81\O,19.22,15.36,22.9\H,19.93,14.73,22.8\H,19.64
 ,16.21,22.79\O,16.86,23.68,19.34\H,17.29,23.73,18.49\H,16.,23.31,19.16
 \O,23.33,24.68,20.49\H,22.54,24.16,20.34\H,23.93,24.43,19.79\O,17.8,14
 .65,20.44\H,17.94,14.67,21.38\H,18.31,15.4,20.11\O,19.24,18.22,25.55\H
 ,19.61,18.5,24.71\H,18.3,18.39,25.46\O,23.25,21.37,15.24\H,22.53,22.,1
 5.27\H,23.21,20.92,16.09\O,16.24,16.85,18.3\H,16.91,16.58,17.67\H,15.4
 1,16.67,17.86\O,19.17,25.61,17.89\H,19.33,24.68,17.78\H,19.54,25.82,18
 .75\O,18.45,16.1,16.16\H,18.9,15.77,15.38\H,18.37,17.04,16.01\O,21.06,
 19.26,13.97\H,20.32,18.71,13.71\H,20.77,19.7,14.76\O,15.39,16.67,22.86
 \H,14.87,16.46,22.09\H,15.95,17.4,22.58\O,19.2,21.79,26.01\H,19.01,20.
 97,26.48\H,19.88,21.55,25.38\O,21.94,15.74,15.92\H,22.17,14.84,15.7\H,
 21.38,15.66,16.7\O,13.71,19.26,19.09\H,14.38,18.69,18.72\H,14.19,19.83
 ,19.69\O,21.33,23.61,14.77\H,20.72,22.88,14.91\H,21.29,23.77,13.83\O,2
 0.83,13.43,19.6\H,20.2,14.11,19.36\H,20.31,12.73,19.97\O,22.57,19.13,2
 5.96\H,21.77,19.57,25.65\H,23.08,19.82,26.38\O,23.54,17.84,14.88\H,23.
 21,18.66,14.51\H,22.82,17.51,15.4\O,24.83,17.48,24.04\H,24.08,17.28,24
 .6\H,24.61,18.32,23.63\O,24.86,15.03,20.19\H,24.36,14.54,20.84\H,24.59
 ,15.94,20.3\O,16.47,18.33,25.72\H,15.59,18.45,26.08\H,16.44,18.77,24.8
 7\O,14.31,15.96,20.21\H,15.18,16.13,19.83\H,14.08,15.08,19.89\O,25.22,
 23.49,18.89\H,25.56,22.63,19.12\H,25.77,23.78,18.16\O,16.82,24.32,16.5
 \H,17.3,24.85,15.87\H,15.97,24.74,16.57\O,16.36,26.21,20.49\H,16.66,25
 .47,19.96\H,16.96,26.22,21.24\O,24.03,24.62,22.99\H,23.93,24.79,22.05\
 H,24.93,24.3,23.07\O,27.21,19.11,21.53\H,26.28,19.18,21.78\H,27.32,19.
 76,20.84\O,18.49,25.89,22.61\H,19.15,26.33,23.14\H,17.9,25.48,23.24\O,
 22.57,14.18,21.85\H,22.87,13.41,22.32\H,22.17,13.83,21.05\O,20.58,26.7
 9,20.41\H,20.3,27.55,20.94\H,21.37,26.47,20.86\O,17.01,14.8,24.42\H,16
 .35,15.47,24.24\H,17.78,15.09,23.93\O,21.65,25.43,24.46\H,22.07,25.25,
 23.62\H,21.9,26.33,24.66\O,22.14,26.65,17.77\H,21.35,26.68,18.31\H,22.
 11,25.8,17.34\O,25.88,22.,15.77\H,26.31,21.25,15.36\H,24.95,21.78,15.7
 6\O,25.19,16.84,16.82\H,24.88,15.94,16.77\H,24.79,17.28,16.06\O,14.1,2
 3.3,18.93\H,14.04,22.78,18.12\H,13.56,24.07,18.75\O,16.66,13.97,16.48\
 H,16.51,13.47,17.29\H,17.49,14.41,16.63\O,20.25,15.73,26.67\H,19.82,16
 .45,26.19\H,21.09,16.1,26.94\O,20.46,23.97,26.6\H,20.04,23.13,26.42\H,
 20.72,24.3,25.74\O,16.25,12.85,19.13\H,16.76,13.58,19.48\H,16.88,12.34
 ,18.62\O,16.27,24.7,24.23\H,16.08,24.62,25.17\H,15.68,25.39,23.92\O,13
 .64,20.99,23.59\H,12.74,20.75,23.35\H,13.6,21.94,23.75\O,22.36,12.9,17
 .09\H,21.65,13.18,17.67\H,22.59,12.03,17.4\O,19.58,17.14,13.17\H,20.26
 ,16.52,12.91\H,18.83,16.59,13.38\O,17.59,22.75,13.\H,17.15,23.57,12.78
 \H,18.43,23.02,13.36\O,13.77,16.91,16.87\H,12.89,16.62,17.09\H,13.66,1
 7.79,16.53\O,27.48,21.27,19.68\H,28.24,21.45,20.24\H,27.82,21.32,18.79
 \O,16.76,18.55,13.28\H,16.64,18.82,12.36\H,17.18,17.69,13.23\O,24.79,2
 0.96,12.94\H,24.19,21.19,13.65\H,24.41,21.37,12.16\O,27.77,17.72,18.35
 \H,26.98,17.54,17.84\H,27.89,16.95,18.9\O,20.44,26.3,14.35\H,20.71,25.
 39,14.45\H,21.12,26.69,13.8\O,23.93,24.93,13.92\H,23.4,24.75,14.7\H,23
 .36,25.47,13.37\O,14.25,23.72,14.53\H,14.15,24.38,15.22\H,14.78,23.03,
 14.92\O,18.95,19.25,28.35\H,19.74,19.67,28.71\H,19.29,18.58,27.76\O,24
 .91,22.67,25.82\H,24.21,22.29,26.34\H,24.74,23.61,25.85\O,13.1,23.54,2
 2.26\H,12.91,24.01,21.45\H,13.73,24.1,22.72\O,24.59,14.03,16.61\H,25.1
 6,13.49,17.15\H,23.71,13.7,16.79\O,20.08,13.26,25.11\H,19.35,13.16,25.
 72\H,20.48,14.09,25.35\O,26.66,24.35,16.7\H,27.32,24.59,16.04\H,26.26,
 23.56,16.35\O,11.68,17.18,20.92\H,11.68,18.13,21.02\H,12.5,16.98,20.47
 \O,22.39,17.56,28.29\H,22.51,17.94,27.42\H,23.14,17.89,28.8\O,12.77,16
 .89,24.38\H,12.75,17.67,24.93\H,13.67,16.85,24.06\O,18.48,11.97,23.2\H
 ,18.57,11.27,23.85\H,18.87,12.73,23.62\O,11.13,18.86,18.2\H,11.96,19.0
 8,18.63\H,11.27,19.09,17.28\O,23.08,15.69,12.56\H,23.7,16.17,12.01\H,2
 3.02,16.21,13.36\O,23.14,21.44,27.46\H,22.32,21.23,27.91\H,23.73,21.75
 ,28.16\O,17.44,15.71,13.4\H,16.53,15.68,13.69\H,17.85,14.95,13.82\O,19
 .35,28.18,16.08\H,20.04,27.72,15.6\H,19.13,27.58,16.8\O,14.95,15.5,14.
 62\H,14.5,16.18,15.12\H,15.38,14.96,15.28\O,27.59,15.25,19.94\H,26.68,
 15.07,19.71\H,28.1,14.65,19.41\O,16.46,16.09,27.57\H,15.53,15.86,27.55
 \H,16.56,16.75,26.88\O,13.58,19.08,14.73\H,13.17,18.36,14.26\H,13.79,1
 9.72,14.04\O,22.7,19.18,11.1\H,23.65,19.22,11.11\H,22.46,19.1,12.03\O,
 26.65,15.86,25.15\H,26.22,15.28,25.79\H,25.95,16.41,24.81\O,17.53,26.1
 9,14.77\H,18.45,26.37,14.57\H,17.23,26.97,15.23\O,26.24,20.21,26.86\H,
 26.24,21.11,26.53\H,25.88,19.69,26.14\O,23.02,28.83,19.26\H,23.25,28.3
 9,20.08\H,22.52,28.17,18.78\O,28.67,16.79,21.93\H,28.17,17.56,21.69\H,
 28.45,16.14,21.27\O,18.99,18.49,10.51\H,19.11,18.41,11.46\H,18.74,17.6
 1,10.23\O,12.21,19.55,25.65\H,12.74,19.33,26.41\H,12.83,19.93,25.02\O,
 16.12,21.21,11.41\H,16.63,21.66,12.08\H,16.45,21.55,10.58\O,28.17,21.3
 9,23.6\H,28.56,20.62,24.02\H,28.29,21.24,22.66\O,26.25,14.07,22.9\H,26
 .49,14.82,23.44\H,26.45,14.35,22.\O,15.95,11.78,21.77\H,16.79,11.92,22
 .21\H,16.07,12.16,20.9\O,19.26,13.73,13.82\H,19.33,13.61,12.88\H,19.62
 ,12.93,14.19\O,18.3,11.41,17.9\H,18.59,10.67,17.35\H,18.82,11.34,18.7\
 O,26.49,26.49,18.84\H,26.89,26.28,19.69\H,26.6,25.68,18.33\O,13.95,27.
 44,20.84\H,13.91,28.31,21.25\H,14.81,27.11,21.08\O,14.32,25.77,16.35\H
 ,14.89,26.52,16.17\H,13.66,26.1,16.95\O,19.13,28.79,22.09\H,18.67,29.4
 8,21.62\H,18.46,28.4,22.65\O,18.34,14.,27.11\H,17.55,14.5,27.33\H,19.0
 5,14.65,27.12\O,21.33,24.05,12.11\H,20.71,24.46,11.51\H,21.67,23.3,11.
 64\O,19.27,29.83,18.89\H,19.36,28.88,18.9\H,19.7,30.11,18.08\O,24.32,2
 7.96,21.68\H,25.02,27.31,21.66\H,24.73,28.78,21.39\O,11.48,20.27,15.75
 \H,10.73,19.85,15.33\H,12.25,19.83,15.37\O,23.73,14.18,25.82\H,23.8,14
 .4,26.75\H,23.91,13.25,25.77\O,19.2,23.7,29.15\H,19.67,23.66,28.32\H,1
 9.7,24.3,29.69\O,28.63,24.61,21.03\H,27.89,25.12,21.38\H,28.22,23.87,2
 0.6\O,19.26,10.94,20.53\H,18.99,10.74,21.42\H,19.92,10.28,20.32\O,21.0
 8,11.85,14.84\H,21.59,12.2,15.57\H,20.92,10.94,15.09\O,13.79,20.98,12.
 72\H,13.56,21.75,12.2\H,14.72,20.84,12.52\O,10.83,22.56,19.96\H,10.38,
 23.2,20.5\H,11.36,23.08,19.35\O,17.91,25.89,26.85\H,17.15,25.44,27.21\
 H,18.66,25.47,27.27\O,22.9,27.97,24.31\H,23.1,28.87,24.58\H,23.28,27.9
 ,23.43\O,24.46,13.44,13.94\H,24.36,13.7,14.86\H,24.06,14.16,13.45\O,15
 .09,13.69,26.16\H,14.39,13.58,25.51\H,15.85,13.96,25.64\O,16.34,20.21,
 29.31\H,17.05,19.82,28.79\H,15.97,19.47,29.79\\Version=ES64L-G09RevE.0
 1\HF=-9773.3244281\RMSD=1.895e-09\RMSF=1.025e-02\Dipole=1.879295,7.764
 0119,-6.2205646\Quadrupole=-72.6583727,611.9588492,-539.3004766,-1151.
 1849606,-1532.5160389,-1289.4052611\PG=C01 [X(Br1H256O128)]\\@


 EXPERIENCE IS THE FRUIT OF THE TREE OF ERRORS.
 Job cpu time:       7 days  4 hours  6 minutes 38.1 seconds.
 File lengths (MBytes):  RWF=   7285 Int=      0 D2E=      0 Chk=   2411 Scr=      1
 Normal termination of Gaussian 09 at Tue May 15 08:00:47 2018.
