 Entering Gaussian System, Link 0=/cm/shared/gaussian/g09.e01/intel64-sandybridge/g09/g09
 Initial command:
 /cm/shared/gaussian/g09.e01/intel64-sandybridge/g09/l1.exe "/local/scratch/m.peluso/128_wat/300a/Gau-47645.inp" -scrdir="/local/scratch/m.peluso/128_wat/300a/"
 Entering Link 1 = /cm/shared/gaussian/g09.e01/intel64-sandybridge/g09/l1.exe PID=     47646.
  
 Copyright (c) 1988,1990,1992,1993,1995,1998,2003,2009,2015,
            Gaussian, Inc.  All Rights Reserved.
  
 This is part of the Gaussian(R) 09 program.  It is based on
 the Gaussian(R) 03 system (copyright 2003, Gaussian, Inc.),
 the Gaussian(R) 98 system (copyright 1998, Gaussian, Inc.),
 the Gaussian(R) 94 system (copyright 1995, Gaussian, Inc.),
 the Gaussian 92(TM) system (copyright 1992, Gaussian, Inc.),
 the Gaussian 90(TM) system (copyright 1990, Gaussian, Inc.),
 the Gaussian 88(TM) system (copyright 1988, Gaussian, Inc.),
 the Gaussian 86(TM) system (copyright 1986, Carnegie Mellon
 University), and the Gaussian 82(TM) system (copyright 1983,
 Carnegie Mellon University). Gaussian is a federally registered
 trademark of Gaussian, Inc.
  
 This software contains proprietary and confidential information,
 including trade secrets, belonging to Gaussian, Inc.
  
 This software is provided under written license and may be
 used, copied, transmitted, or stored only in accord with that
 written license.
  
 The following legend is applicable only to US Government
 contracts under FAR:
  
                    RESTRICTED RIGHTS LEGEND
  
 Use, reproduction and disclosure by the US Government is
 subject to restrictions as set forth in subparagraphs (a)
 and (c) of the Commercial Computer Software - Restricted
 Rights clause in FAR 52.227-19.
  
 Gaussian, Inc.
 340 Quinnipiac St., Bldg. 40, Wallingford CT 06492
  
  
 ---------------------------------------------------------------
 Warning -- This program may not be used in any manner that
 competes with the business of Gaussian, Inc. or will provide
 assistance to any competitor of Gaussian, Inc.  The licensee
 of this program is prohibited from giving any competitor of
 Gaussian, Inc. access to this program.  By using this program,
 the user acknowledges that Gaussian, Inc. is engaged in the
 business of creating and licensing software in the field of
 computational chemistry and represents and warrants to the
 licensee that it is not a competitor of Gaussian, Inc. and that
 it will not use this program in any manner prohibited above.
 ---------------------------------------------------------------
  

 Cite this work as:
 Gaussian 09, Revision E.01,
 M. J. Frisch, G. W. Trucks, H. B. Schlegel, G. E. Scuseria, 
 M. A. Robb, J. R. Cheeseman, G. Scalmani, V. Barone, B. Mennucci, 
 G. A. Petersson, H. Nakatsuji, M. Caricato, X. Li, H. P. Hratchian, 
 A. F. Izmaylov, J. Bloino, G. Zheng, J. L. Sonnenberg, M. Hada, 
 M. Ehara, K. Toyota, R. Fukuda, J. Hasegawa, M. Ishida, T. Nakajima, 
 Y. Honda, O. Kitao, H. Nakai, T. Vreven, J. A. Montgomery, Jr., 
 J. E. Peralta, F. Ogliaro, M. Bearpark, J. J. Heyd, E. Brothers, 
 K. N. Kudin, V. N. Staroverov, T. Keith, R. Kobayashi, J. Normand, 
 K. Raghavachari, A. Rendell, J. C. Burant, S. S. Iyengar, J. Tomasi, 
 M. Cossi, N. Rega, J. M. Millam, M. Klene, J. E. Knox, J. B. Cross, 
 V. Bakken, C. Adamo, J. Jaramillo, R. Gomperts, R. E. Stratmann, 
 O. Yazyev, A. J. Austin, R. Cammi, C. Pomelli, J. W. Ochterski, 
 R. L. Martin, K. Morokuma, V. G. Zakrzewski, G. A. Voth, 
 P. Salvador, J. J. Dannenberg, S. Dapprich, A. D. Daniels, 
 O. Farkas, J. B. Foresman, J. V. Ortiz, J. Cioslowski, 
 and D. J. Fox, Gaussian, Inc., Wallingford CT, 2013.
 
 ******************************************
 Gaussian 09:  ES64L-G09RevE.01 30-Nov-2015
                 6-May-2018 
 ******************************************
 %Mem=110GB
 %NProcShared=64
 Will use up to   64 processors via shared memory.
 %chk=snap2.chk
 ----------------------------------------------
 #p PBE1PBE/cc-pvDZ force Counterpoise=2 noSymm
 ----------------------------------------------
 1/10=7,30=1,38=1,62=2/1,3;
 2/12=2,15=1,17=6,18=5,40=1/2;
 1/10=7,30=1,38=1,53=2,62=2,63=101/22;
 3/5=16,11=2,16=1,25=1,30=1,71=1,74=-13/1,2,3;
 4//1;
 5/5=2,38=5/2;
 6/7=2,8=2,9=2,10=2,28=1/1;
 7/7=1,29=1,30=1,33=-1/1,2,3,16;
 1/10=7,30=1,53=2,62=2,63=101/22;
 3/5=7,6=11,11=2,16=1,25=1,30=1,71=1,74=-13,82=7/1,2,3;
 4//1;
 5/5=2,38=5/2;
 6/7=2,8=2,9=2,10=2,28=1/1;
 7/7=1,29=1,30=1,33=-1/1,2,3,16;
 1/10=7,30=1,53=2,62=2,63=101/22(-5);
 7/9=1,29=1,44=-1/16;
 1/10=7,30=1,62=2/3;
 99//99;
 Leave Link    1 at Sun May  6 06:21:45 2018, MaxMem= 14763950080 cpu:        10.6
 (Enter /cm/shared/gaussian/g09.e01/intel64-sandybridge/g09/l101.exe)
 ---------------------------------------
 forces on chloride comput - NWATER: 128
 ---------------------------------------
 Symbolic Z-matrix:
 Charge = -1 Multiplicity = 1 in supermolecule
 Charge = -1 Multiplicity = 1 in fragment      1.
 Charge =  0 Multiplicity = 1 in fragment      2.
 Br(Fragment=1)        20.       20.       20. 
 O(Fragment=2)         22.57     19.75     18.41 
 H(Fragment=2)         21.79     19.9      18.95 
 H(Fragment=2)         23.05     19.06     18.88 
 O(Fragment=2)         19.35     16.98     19.7 
 H(Fragment=2)         19.46     16.69     20.61 
 H(Fragment=2)         19.55     17.92     19.73 
 O(Fragment=2)         17.43     19.98     18.05 
 H(Fragment=2)         16.91     19.56     18.74 
 H(Fragment=2)         18.31     20.05     18.43 
 O(Fragment=2)         17.5      21.61     21.41 
 H(Fragment=2)         18.1      20.94     21.07 
 H(Fragment=2)         17.36     22.2      20.67 
 O(Fragment=2)         22.44     18.81     21.93 
 H(Fragment=2)         22.78     18.21     21.27 
 H(Fragment=2)         21.66     19.2      21.53 
 O(Fragment=2)         20.85     23.24     19.75 
 H(Fragment=2)         19.98     23.41     20.12 
 H(Fragment=2)         21.04     22.33     19.98 
 O(Fragment=2)         20.23     18.61     16.97 
 H(Fragment=2)         21.1      19.       17.09 
 H(Fragment=2)         19.7      18.98     17.67 
 O(Fragment=2)         20.55     22.44     16.28 
 H(Fragment=2)         21.03     22.53     17.1 
 H(Fragment=2)         20.12     23.28     16.15 
 O(Fragment=2)         17.2      18.09     23.23 
 H(Fragment=2)         16.8      17.55     22.55 
 H(Fragment=2)         18.13     18.14     23. 
 O(Fragment=2)         20.47     16.48     22.44 
 H(Fragment=2)         20.86     17.1      23.04 
 H(Fragment=2)         21.06     15.73     22.45 
 O(Fragment=2)         18.75     23.29     23.49 
 H(Fragment=2)         18.6      22.36     23.33 
 H(Fragment=2)         19.69     23.41     23.35 
 O(Fragment=2)         23.24     17.09     20.1 
 H(Fragment=2)         22.61     16.39     19.96 
 H(Fragment=2)         23.87     16.73     20.73 
 O(Fragment=2)         15.64     19.23     20.23 
 H(Fragment=2)         15.61     18.33     20.55 
 H(Fragment=2)         14.72     19.5      20.2 
 O(Fragment=2)         21.6      15.24     19.24 
 H(Fragment=2)         20.77     15.7      19.09 
 H(Fragment=2)         21.48     14.81     20.09 
 O(Fragment=2)         17.48     19.69     15.24 
 H(Fragment=2)         16.9      20.41     15.5 
 H(Fragment=2)         17.99     19.5      16.03 
 O(Fragment=2)         18.4      24.2      20.54 
 H(Fragment=2)         17.54     24.58     20.73 
 H(Fragment=2)         18.83     24.14     21.39 
 O(Fragment=2)         22.66     24.15     17.99 
 H(Fragment=2)         22.09     23.8      18.68 
 H(Fragment=2)         23.45     23.61     18.04 
 O(Fragment=2)         15.73     20.25     23.09 
 H(Fragment=2)         16.18     20.7      22.37 
 H(Fragment=2)         16.25     19.46     23.24 
 O(Fragment=2)         17.65     15.55     17.47 
 H(Fragment=2)         17.72     14.79     18.05 
 H(Fragment=2)         18.19     16.22     17.88 
 O(Fragment=2)         22.79     19.28     24.61 
 H(Fragment=2)         22.12     18.59     24.67 
 H(Fragment=2)         23.01     19.31     23.68 
 O(Fragment=2)         24.12     20.87     16.09 
 H(Fragment=2)         23.52     21.       15.36 
 H(Fragment=2)         23.58     20.5      16.79 
 O(Fragment=2)         21.44     23.52     23.16 
 H(Fragment=2)         21.7      23.06     23.96 
 H(Fragment=2)         22.21     23.5      22.6 
 O(Fragment=2)         21.38     20.51     14.6 
 H(Fragment=2)         21.82     21.2      14.11 
 H(Fragment=2)         20.85     20.98     15.25 
 O(Fragment=2)         16.61     22.81     16.06 
 H(Fragment=2)         17.2      23.56     16.05 
 H(Fragment=2)         17.17     22.06     16.28 
 O(Fragment=2)         23.78     23.09     22. 
 H(Fragment=2)         24.23     23.94     21.91 
 H(Fragment=2)         24.49     22.45     21.94 
 O(Fragment=2)         16.24     16.54     21.39 
 H(Fragment=2)         16.7      15.86     20.89 
 H(Fragment=2)         15.37     16.18     21.55 
 O(Fragment=2)         18.39     14.55     21.84 
 H(Fragment=2)         18.95     15.26     22.17 
 H(Fragment=2)         18.96     13.79     21.81 
 O(Fragment=2)         20.97     26.26     20.49 
 H(Fragment=2)         21.02     25.33     20.28 
 H(Fragment=2)         21.27     26.7      19.7 
 O(Fragment=2)         20.53     15.04     16.37 
 H(Fragment=2)         21.15     15.68     16.71 
 H(Fragment=2)         19.9      15.55     15.86 
 O(Fragment=2)         24.2      15.89     17.51 
 H(Fragment=2)         23.54     15.92     18.2 
 H(Fragment=2)         24.92     16.43     17.84 
 O(Fragment=2)         18.39     16.54     15.06 
 H(Fragment=2)         17.95     16.39     15.9 
 H(Fragment=2)         18.63     17.46     15.07 
 O(Fragment=2)         17.       21.       25.55 
 H(Fragment=2)         16.7      20.79     24.66 
 H(Fragment=2)         16.41     21.7      25.84 
 O(Fragment=2)         18.61     17.36     25.71 
 H(Fragment=2)         18.03     17.36     24.95 
 H(Fragment=2)         18.12     17.84     26.38 
 O(Fragment=2)         21.29     17.1      25.15 
 H(Fragment=2)         20.42     17.3      25.51 
 H(Fragment=2)         21.43     16.18     25.36 
 O(Fragment=2)         26.63     19.05     21.11 
 H(Fragment=2)         27.39     18.51     20.91 
 H(Fragment=2)         25.88     18.51     20.86 
 O(Fragment=2)         18.1      26.63     19.11 
 H(Fragment=2)         18.56     25.95     19.59 
 H(Fragment=2)         18.58     27.44     19.32 
 O(Fragment=2)         22.03     22.06     25.46 
 H(Fragment=2)         22.34     21.19     25.69 
 H(Fragment=2)         21.28     22.21     26.04 
 O(Fragment=2)         15.3      24.2      18.3 
 H(Fragment=2)         15.78     23.85     17.55 
 H(Fragment=2)         14.43     23.79     18.23 
 O(Fragment=2)         20.4      25.3      16.46 
 H(Fragment=2)         21.09     25.43     17.11 
 H(Fragment=2)         20.58     25.95     15.78 
 O(Fragment=2)         18.86     22.66     26.23 
 H(Fragment=2)         18.92     23.09     25.37 
 H(Fragment=2)         18.48     21.8      26.04 
 O(Fragment=2)         13.85     18.74     17.62 
 H(Fragment=2)         14.42     17.99     17.78 
 H(Fragment=2)         14.25     19.18     16.86 
 O(Fragment=2)         25.82     21.98     18.43 
 H(Fragment=2)         26.02     21.13     18.03 
 H(Fragment=2)         25.72     22.57     17.68 
 O(Fragment=2)         23.45     17.22     15.33 
 H(Fragment=2)         24.06     17.96     15.35 
 H(Fragment=2)         23.72     16.66     16.06 
 O(Fragment=2)         17.6      25.28     16.22 
 H(Fragment=2)         18.45     25.3      16.65 
 H(Fragment=2)         17.       25.69     16.84 
 O(Fragment=2)         16.44     25.19     23.46 
 H(Fragment=2)         16.16     25.24     22.55 
 H(Fragment=2)         17.29     24.76     23.43 
 O(Fragment=2)         21.82     18.15     13.42 
 H(Fragment=2)         21.48     18.97     13.77 
 H(Fragment=2)         22.3      17.75     14.15 
 O(Fragment=2)         24.77     15.95     21.98 
 H(Fragment=2)         24.71     16.3      22.87 
 H(Fragment=2)         25.36     15.2      22.05 
 O(Fragment=2)         26.18     21.81     21.37 
 H(Fragment=2)         26.5      20.92     21.19 
 H(Fragment=2)         26.18     22.24     20.52 
 O(Fragment=2)         23.04     24.57     15.18 
 H(Fragment=2)         22.77     24.55     16.1 
 H(Fragment=2)         23.09     25.5      14.96 
 O(Fragment=2)         15.74     25.02     20.94 
 H(Fragment=2)         15.01     24.62     21.41 
 H(Fragment=2)         15.54     24.88     20.01 
 O(Fragment=2)         20.52     26.39     23.19 
 H(Fragment=2)         20.45     26.39     22.23 
 H(Fragment=2)         21.06     25.63     23.39 
 O(Fragment=2)         17.85     13.44     19.04 
 H(Fragment=2)         18.71     13.18     18.69 
 H(Fragment=2)         18.02     13.63     19.96 
 O(Fragment=2)         13.23     20.97     22.94 
 H(Fragment=2)         12.92     20.41     22.24 
 H(Fragment=2)         14.1      20.63     23.15 
 O(Fragment=2)         22.15     13.85     21.86 
 H(Fragment=2)         22.08     13.77     22.81 
 H(Fragment=2)         22.97     13.41     21.64 
 O(Fragment=2)         26.49     19.71     16.08 
 H(Fragment=2)         25.67     20.2      16.19 
 H(Fragment=2)         27.07     20.33     15.65 
 O(Fragment=2)         12.82     19.55     20.11 
 H(Fragment=2)         13.23     19.23     19.31 
 H(Fragment=2)         11.97     19.89     19.83 
 O(Fragment=2)         15.67     18.03     13.93 
 H(Fragment=2)         16.25     18.73     14.24 
 H(Fragment=2)         16.25     17.28     13.79 
 O(Fragment=2)         20.       12.73     17.73 
 H(Fragment=2)         20.2      13.55     17.27 
 H(Fragment=2)         20.59     12.08     17.33 
 O(Fragment=2)         12.95     22.73     19.08 
 H(Fragment=2)         12.32     23.11     19.69 
 H(Fragment=2)         13.22     21.91     19.49 
 O(Fragment=2)         26.18     21.68     24.12 
 H(Fragment=2)         26.2      20.75     24.35 
 H(Fragment=2)         26.09     21.69     23.16 
 O(Fragment=2)         18.31     20.74     12.59 
 H(Fragment=2)         18.93     20.13     12.99 
 H(Fragment=2)         17.51     20.65     13.11 
 O(Fragment=2)         19.34     14.57     25.7 
 H(Fragment=2)         18.63     14.29     26.28 
 H(Fragment=2)         19.19     15.5      25.57 
 O(Fragment=2)         25.71     23.33     15.35 
 H(Fragment=2)         25.11     24.02     15.06 
 H(Fragment=2)         25.14     22.62     15.65 
 O(Fragment=2)         24.64     19.54     26.79 
 H(Fragment=2)         24.01     19.47     26.08 
 H(Fragment=2)         24.58     18.7      27.25 
 O(Fragment=2)         24.61     24.78     24.78 
 H(Fragment=2)         25.48     24.41     24.92 
 H(Fragment=2)         24.06     24.03     24.58 
 O(Fragment=2)         27.19     19.07     23.83 
 H(Fragment=2)         26.58     19.1      23.1 
 H(Fragment=2)         26.97     18.26     24.29 
 O(Fragment=2)         26.49     16.86     18.51 
 H(Fragment=2)         27.24     17.42     18.7 
 H(Fragment=2)         26.54     16.17     19.16 
 O(Fragment=2)         18.27     23.32     13.51 
 H(Fragment=2)         17.65     23.81     12.97 
 H(Fragment=2)         18.09     22.4      13.29 
 O(Fragment=2)         22.84     22.51     13.37 
 H(Fragment=2)         22.81     23.24     13.98 
 H(Fragment=2)         23.35     22.83     12.63 
 O(Fragment=2)         22.63     12.27     19.26 
 H(Fragment=2)         22.16     11.48     19.53 
 H(Fragment=2)         21.94     12.89     19.04 
 O(Fragment=2)         13.51     23.69     22.18 
 H(Fragment=2)         12.67     23.86     21.75 
 H(Fragment=2)         13.5      22.75     22.36 
 O(Fragment=2)         17.32     19.02     27.27 
 H(Fragment=2)         16.88     19.74     26.8 
 H(Fragment=2)         17.78     19.46     27.98 
 O(Fragment=2)         13.16     16.79     20.08 
 H(Fragment=2)         12.86     17.68     20.23 
 H(Fragment=2)         12.69     16.26     20.72 
 O(Fragment=2)         15.05     14.49     16.23 
 H(Fragment=2)         15.81     14.61     16.79 
 H(Fragment=2)         14.76     13.59     16.39 
 O(Fragment=2)         13.07     21.12     16.19 
 H(Fragment=2)         12.53     21.4      15.45 
 H(Fragment=2)         13.51     21.92     16.48 
 O(Fragment=2)         21.67     14.02     24.59 
 H(Fragment=2)         20.86     14.3      25.01 
 H(Fragment=2)         22.       13.32     25.14 
 O(Fragment=2)         15.67     26.69     17.86 
 H(Fragment=2)         16.5      26.6      18.33 
 H(Fragment=2)         15.19     25.89     18.06 
 O(Fragment=2)         25.73     16.91     24.57 
 H(Fragment=2)         25.97     16.07     24.94 
 H(Fragment=2)         25.       17.22     25.1 
 O(Fragment=2)         25.5      25.22     21.23 
 H(Fragment=2)         25.19     25.69     20.46 
 H(Fragment=2)         26.45     25.29     21.2 
 O(Fragment=2)         15.5      21.19     13.48 
 H(Fragment=2)         15.87     21.62     12.71 
 H(Fragment=2)         15.28     21.91     14.07 
 O(Fragment=2)         24.12     13.5      16.24 
 H(Fragment=2)         24.34     14.32     16.68 
 H(Fragment=2)         23.87     12.9      16.95 
 O(Fragment=2)         20.18     16.89     28.33 
 H(Fragment=2)         20.2      15.94     28.45 
 H(Fragment=2)         20.01     17.       27.39 
 O(Fragment=2)         20.58     26.33     26.07 
 H(Fragment=2)         20.5      26.18     25.13 
 H(Fragment=2)         20.07     27.12     26.24 
 O(Fragment=2)         17.87     14.28     13.4 
 H(Fragment=2)         18.21     13.57     13.96 
 H(Fragment=2)         18.06     15.08     13.89 
 O(Fragment=2)         21.66     27.62     17.78 
 H(Fragment=2)         21.26     28.49     17.8 
 H(Fragment=2)         21.88     27.49     16.86 
 O(Fragment=2)         24.01     18.73     12.1 
 H(Fragment=2)         24.36     17.93     11.72 
 H(Fragment=2)         23.25     18.45     12.6 
 O(Fragment=2)         20.1      24.5      27.88 
 H(Fragment=2)         19.72     23.83     27.31 
 H(Fragment=2)         20.32     25.22     27.29 
 O(Fragment=2)         18.19     12.57     15.63 
 H(Fragment=2)         17.32     12.47     16.03 
 H(Fragment=2)         18.79     12.66     16.37 
 O(Fragment=2)         24.85     22.57     26.97 
 H(Fragment=2)         24.78     21.71     26.55 
 H(Fragment=2)         25.65     22.95     26.61 
 O(Fragment=2)         28.32     18.77     18.32 
 H(Fragment=2)         27.83     18.92     17.51 
 H(Fragment=2)         29.08     19.35     18.25 
 O(Fragment=2)         21.46     15.77     11.92 
 H(Fragment=2)         21.38     16.15     12.79 
 H(Fragment=2)         22.03     16.38     11.44 
 O(Fragment=2)         14.2      14.84     23.03 
 H(Fragment=2)         13.9      15.24     23.85 
 H(Fragment=2)         13.61     14.09     22.9 
 O(Fragment=2)         18.85     11.86     21.64 
 H(Fragment=2)         18.94     11.65     22.57 
 H(Fragment=2)         17.95     11.62     21.42 
 O(Fragment=2)         26.91     17.12     15.09 
 H(Fragment=2)         27.42     16.6      15.71 
 H(Fragment=2)         26.82     17.98     15.51 
 O(Fragment=2)         16.36     11.76     17.54 
 H(Fragment=2)         16.86     12.41     18.02 
 H(Fragment=2)         16.43     10.96     18.06 
 O(Fragment=2)         22.48     28.82     21.79 
 H(Fragment=2)         23.04     28.49     22.49 
 H(Fragment=2)         21.9      28.09     21.58 
 O(Fragment=2)         26.69     14.78     20.23 
 H(Fragment=2)         26.25     13.95     20.42 
 H(Fragment=2)         27.39     14.84     20.88 
 O(Fragment=2)         20.36     24.33     11.72 
 H(Fragment=2)         19.99     23.64     11.16 
 H(Fragment=2)         19.98     24.17     12.58 
 O(Fragment=2)         15.       22.95     26.25 
 H(Fragment=2)         15.       23.68     26.87 
 H(Fragment=2)         14.38     23.21     25.57 
 O(Fragment=2)         24.73     27.49     19.68 
 H(Fragment=2)         23.8      27.68     19.6 
 H(Fragment=2)         24.98     27.82     20.54 
 O(Fragment=2)         28.76     22.09     19.82 
 H(Fragment=2)         28.18     22.74     20.2 
 H(Fragment=2)         28.98     21.5      20.54 
 O(Fragment=2)         17.5      26.81     13.78 
 H(Fragment=2)         17.7      26.33     14.58 
 H(Fragment=2)         17.09     26.16     13.21 
 O(Fragment=2)         12.58     14.89     18.15 
 H(Fragment=2)         13.16     15.07     17.42 
 H(Fragment=2)         12.61     15.69     18.68 
 O(Fragment=2)         20.98     13.44     13.06 
 H(Fragment=2)         21.38     14.12     12.52 
 H(Fragment=2)         20.47     13.92     13.71 
 O(Fragment=2)         12.98     19.38     13.33 
 H(Fragment=2)         12.69     20.17     12.88 
 H(Fragment=2)         13.78     19.64     13.79 
 O(Fragment=2)         19.       28.96     23.57 
 H(Fragment=2)         19.31     28.25     23. 
 H(Fragment=2)         18.2      28.61     23.95 
 O(Fragment=2)         24.16     27.48     23.57 
 H(Fragment=2)         23.74     27.74     24.39 
 H(Fragment=2)         24.52     26.61     23.75 
 O(Fragment=2)         13.76     23.77     14.47 
 H(Fragment=2)         13.98     24.37     15.19 
 H(Fragment=2)         13.09     24.24     13.97 
 O(Fragment=2)         15.35     14.91     25.93 
 H(Fragment=2)         15.52     14.36     25.16 
 H(Fragment=2)         16.09     14.74     26.52 
 O(Fragment=2)         25.78     13.66     23.1 
 H(Fragment=2)         25.83     12.71     23. 
 H(Fragment=2)         25.09     13.79     23.75 
 O(Fragment=2)         13.6      26.71     23.14 
 H(Fragment=2)         12.98     27.14     22.54 
 H(Fragment=2)         14.01     26.03     22.61 
 O(Fragment=2)         24.06     17.1      27.47 
 H(Fragment=2)         23.16     16.89     27.72 
 H(Fragment=2)         24.59     16.51     28.01 
 O(Fragment=2)         16.57     27.68     24.54 
 H(Fragment=2)         16.18     26.84     24.29 
 H(Fragment=2)         16.9      27.54     25.43 
 O(Fragment=2)         12.06     22.04     25.3 
 H(Fragment=2)         12.46     21.7      24.5 
 H(Fragment=2)         12.38     22.94     25.37 
 O(Fragment=2)         16.01     11.45     21.18 
 H(Fragment=2)         15.6      12.24     20.84 
 H(Fragment=2)         15.32     11.       21.66 
 O(Fragment=2)         21.58     20.9      11.03 
 H(Fragment=2)         22.31     20.29     10.97 
 H(Fragment=2)         21.96     21.69     11.42 
 O(Fragment=2)         15.11     14.85     13.62 
 H(Fragment=2)         15.99     14.59     13.34 
 H(Fragment=2)         15.13     14.77     14.57 
 O(Fragment=2)         21.16     27.28     14.79 
 H(Fragment=2)         21.41     27.07     13.89 
 H(Fragment=2)         20.49     27.96     14.69 
 O(Fragment=2)         17.59     22.86     29.25 
 H(Fragment=2)         17.72     23.09     28.33 
 H(Fragment=2)         18.39     22.39     29.49 
 O(Fragment=2)         18.91     22.35     10.45 
 H(Fragment=2)         19.71     21.96     10.11 
 H(Fragment=2)         18.58     21.72     11.08 
 O(Fragment=2)         25.48     12.32     20.57 
 H(Fragment=2)         25.17     11.71     21.23 
 H(Fragment=2)         24.91     12.17     19.81 
 O(Fragment=2)         15.6      28.67     21.79 
 H(Fragment=2)         15.       29.19     22.33 
 H(Fragment=2)         15.84     27.93     22.35 
 O(Fragment=2)         11.32     18.99     15.48 
 H(Fragment=2)         11.61     19.68     16.08 
 H(Fragment=2)         12.04     18.9      14.86 
 O(Fragment=2)         27.25     23.45     25.88 
 H(Fragment=2)         27.17     22.98     25.06 
 H(Fragment=2)         28.12     23.21     26.21 
 O(Fragment=2)         29.02     20.84     23.95 
 H(Fragment=2)         29.46     20.68     23.11 
 H(Fragment=2)         28.36     20.15     24. 
 O(Fragment=2)         17.26     29.07     17.41 
 H(Fragment=2)         17.91     28.98     18.1 
 H(Fragment=2)         16.64     28.36     17.57 
 O(Fragment=2)         17.83     29.12     20.23 
 H(Fragment=2)         16.99     28.83     20.59 
 H(Fragment=2)         18.07     29.88     20.75 
 O(Fragment=2)         20.86     22.28     29.33 
 H(Fragment=2)         21.58     22.6      29.87 
 H(Fragment=2)         20.59     23.04     28.82 
 
 NAtoms=    385 NQM=      385 NQMF=       0 NMMI=      0 NMMIF=      0
                NMic=       0 NMicF=      0.
                    Isotopes and Nuclear Properties:
 (Nuclear quadrupole moments (NQMom) in fm**2, nuclear magnetic moments (NMagM)
  in nuclear magnetons)

  Atom         1           2           3           4           5           6           7           8           9          10
 IAtWgt=          79          16           1           1          16           1           1          16           1           1
 AtmWgt=  78.9183361  15.9949146   1.0078250   1.0078250  15.9949146   1.0078250   1.0078250  15.9949146   1.0078250   1.0078250
 NucSpn=           3           0           1           1           0           1           1           0           1           1
 AtZEff=   0.0000000   0.0000000   0.0000000   0.0000000   0.0000000   0.0000000   0.0000000   0.0000000   0.0000000   0.0000000
 NQMom=   31.3000000   0.0000000   0.0000000   0.0000000   0.0000000   0.0000000   0.0000000   0.0000000   0.0000000   0.0000000
 NMagM=    2.1063990   0.0000000   2.7928460   2.7928460   0.0000000   2.7928460   2.7928460   0.0000000   2.7928460   2.7928460
 AtZNuc=  35.0000000   8.0000000   1.0000000   1.0000000   8.0000000   1.0000000   1.0000000   8.0000000   1.0000000   1.0000000

  Atom        11          12          13          14          15          16          17          18          19          20
 IAtWgt=          16           1           1          16           1           1          16           1           1          16
 AtmWgt=  15.9949146   1.0078250   1.0078250  15.9949146   1.0078250   1.0078250  15.9949146   1.0078250   1.0078250  15.9949146
 NucSpn=           0           1           1           0           1           1           0           1           1           0
 AtZEff=   0.0000000   0.0000000   0.0000000   0.0000000   0.0000000   0.0000000   0.0000000   0.0000000   0.0000000   0.0000000
 NQMom=    0.0000000   0.0000000   0.0000000   0.0000000   0.0000000   0.0000000   0.0000000   0.0000000   0.0000000   0.0000000
 NMagM=    0.0000000   2.7928460   2.7928460   0.0000000   2.7928460   2.7928460   0.0000000   2.7928460   2.7928460   0.0000000
 AtZNuc=   8.0000000   1.0000000   1.0000000   8.0000000   1.0000000   1.0000000   8.0000000   1.0000000   1.0000000   8.0000000

  Atom        21          22          23          24          25          26          27          28          29          30
 IAtWgt=           1           1          16           1           1          16           1           1          16           1
 AtmWgt=   1.0078250   1.0078250  15.9949146   1.0078250   1.0078250  15.9949146   1.0078250   1.0078250  15.9949146   1.0078250
 NucSpn=           1           1           0           1           1           0           1           1           0           1
 AtZEff=   0.0000000   0.0000000   0.0000000   0.0000000   0.0000000   0.0000000   0.0000000   0.0000000   0.0000000   0.0000000
 NQMom=    0.0000000   0.0000000   0.0000000   0.0000000   0.0000000   0.0000000   0.0000000   0.0000000   0.0000000   0.0000000
 NMagM=    2.7928460   2.7928460   0.0000000   2.7928460   2.7928460   0.0000000   2.7928460   2.7928460   0.0000000   2.7928460
 AtZNuc=   1.0000000   1.0000000   8.0000000   1.0000000   1.0000000   8.0000000   1.0000000   1.0000000   8.0000000   1.0000000

  Atom        31          32          33          34          35          36          37          38          39          40
 IAtWgt=           1          16           1           1          16           1           1          16           1           1
 AtmWgt=   1.0078250  15.9949146   1.0078250   1.0078250  15.9949146   1.0078250   1.0078250  15.9949146   1.0078250   1.0078250
 NucSpn=           1           0           1           1           0           1           1           0           1           1
 AtZEff=   0.0000000   0.0000000   0.0000000   0.0000000   0.0000000   0.0000000   0.0000000   0.0000000   0.0000000   0.0000000
 NQMom=    0.0000000   0.0000000   0.0000000   0.0000000   0.0000000   0.0000000   0.0000000   0.0000000   0.0000000   0.0000000
 NMagM=    2.7928460   0.0000000   2.7928460   2.7928460   0.0000000   2.7928460   2.7928460   0.0000000   2.7928460   2.7928460
 AtZNuc=   1.0000000   8.0000000   1.0000000   1.0000000   8.0000000   1.0000000   1.0000000   8.0000000   1.0000000   1.0000000

  Atom        41          42          43          44          45          46          47          48          49          50
 IAtWgt=          16           1           1          16           1           1          16           1           1          16
 AtmWgt=  15.9949146   1.0078250   1.0078250  15.9949146   1.0078250   1.0078250  15.9949146   1.0078250   1.0078250  15.9949146
 NucSpn=           0           1           1           0           1           1           0           1           1           0
 AtZEff=   0.0000000   0.0000000   0.0000000   0.0000000   0.0000000   0.0000000   0.0000000   0.0000000   0.0000000   0.0000000
 NQMom=    0.0000000   0.0000000   0.0000000   0.0000000   0.0000000   0.0000000   0.0000000   0.0000000   0.0000000   0.0000000
 NMagM=    0.0000000   2.7928460   2.7928460   0.0000000   2.7928460   2.7928460   0.0000000   2.7928460   2.7928460   0.0000000
 AtZNuc=   8.0000000   1.0000000   1.0000000   8.0000000   1.0000000   1.0000000   8.0000000   1.0000000   1.0000000   8.0000000

  Atom        51          52          53          54          55          56          57          58          59          60
 IAtWgt=           1           1          16           1           1          16           1           1          16           1
 AtmWgt=   1.0078250   1.0078250  15.9949146   1.0078250   1.0078250  15.9949146   1.0078250   1.0078250  15.9949146   1.0078250
 NucSpn=           1           1           0           1           1           0           1           1           0           1
 AtZEff=   0.0000000   0.0000000   0.0000000   0.0000000   0.0000000   0.0000000   0.0000000   0.0000000   0.0000000   0.0000000
 NQMom=    0.0000000   0.0000000   0.0000000   0.0000000   0.0000000   0.0000000   0.0000000   0.0000000   0.0000000   0.0000000
 NMagM=    2.7928460   2.7928460   0.0000000   2.7928460   2.7928460   0.0000000   2.7928460   2.7928460   0.0000000   2.7928460
 AtZNuc=   1.0000000   1.0000000   8.0000000   1.0000000   1.0000000   8.0000000   1.0000000   1.0000000   8.0000000   1.0000000

  Atom        61          62          63          64          65          66          67          68          69          70
 IAtWgt=           1          16           1           1          16           1           1          16           1           1
 AtmWgt=   1.0078250  15.9949146   1.0078250   1.0078250  15.9949146   1.0078250   1.0078250  15.9949146   1.0078250   1.0078250
 NucSpn=           1           0           1           1           0           1           1           0           1           1
 AtZEff=   0.0000000   0.0000000   0.0000000   0.0000000   0.0000000   0.0000000   0.0000000   0.0000000   0.0000000   0.0000000
 NQMom=    0.0000000   0.0000000   0.0000000   0.0000000   0.0000000   0.0000000   0.0000000   0.0000000   0.0000000   0.0000000
 NMagM=    2.7928460   0.0000000   2.7928460   2.7928460   0.0000000   2.7928460   2.7928460   0.0000000   2.7928460   2.7928460
 AtZNuc=   1.0000000   8.0000000   1.0000000   1.0000000   8.0000000   1.0000000   1.0000000   8.0000000   1.0000000   1.0000000

  Atom        71          72          73          74          75          76          77          78          79          80
 IAtWgt=          16           1           1          16           1           1          16           1           1          16
 AtmWgt=  15.9949146   1.0078250   1.0078250  15.9949146   1.0078250   1.0078250  15.9949146   1.0078250   1.0078250  15.9949146
 NucSpn=           0           1           1           0           1           1           0           1           1           0
 AtZEff=   0.0000000   0.0000000   0.0000000   0.0000000   0.0000000   0.0000000   0.0000000   0.0000000   0.0000000   0.0000000
 NQMom=    0.0000000   0.0000000   0.0000000   0.0000000   0.0000000   0.0000000   0.0000000   0.0000000   0.0000000   0.0000000
 NMagM=    0.0000000   2.7928460   2.7928460   0.0000000   2.7928460   2.7928460   0.0000000   2.7928460   2.7928460   0.0000000
 AtZNuc=   8.0000000   1.0000000   1.0000000   8.0000000   1.0000000   1.0000000   8.0000000   1.0000000   1.0000000   8.0000000

  Atom        81          82          83          84          85          86          87          88          89          90
 IAtWgt=           1           1          16           1           1          16           1           1          16           1
 AtmWgt=   1.0078250   1.0078250  15.9949146   1.0078250   1.0078250  15.9949146   1.0078250   1.0078250  15.9949146   1.0078250
 NucSpn=           1           1           0           1           1           0           1           1           0           1
 AtZEff=   0.0000000   0.0000000   0.0000000   0.0000000   0.0000000   0.0000000   0.0000000   0.0000000   0.0000000   0.0000000
 NQMom=    0.0000000   0.0000000   0.0000000   0.0000000   0.0000000   0.0000000   0.0000000   0.0000000   0.0000000   0.0000000
 NMagM=    2.7928460   2.7928460   0.0000000   2.7928460   2.7928460   0.0000000   2.7928460   2.7928460   0.0000000   2.7928460
 AtZNuc=   1.0000000   1.0000000   8.0000000   1.0000000   1.0000000   8.0000000   1.0000000   1.0000000   8.0000000   1.0000000

  Atom        91          92          93          94          95          96          97          98          99         100
 IAtWgt=           1          16           1           1          16           1           1          16           1           1
 AtmWgt=   1.0078250  15.9949146   1.0078250   1.0078250  15.9949146   1.0078250   1.0078250  15.9949146   1.0078250   1.0078250
 NucSpn=           1           0           1           1           0           1           1           0           1           1
 AtZEff=   0.0000000   0.0000000   0.0000000   0.0000000   0.0000000   0.0000000   0.0000000   0.0000000   0.0000000   0.0000000
 NQMom=    0.0000000   0.0000000   0.0000000   0.0000000   0.0000000   0.0000000   0.0000000   0.0000000   0.0000000   0.0000000
 NMagM=    2.7928460   0.0000000   2.7928460   2.7928460   0.0000000   2.7928460   2.7928460   0.0000000   2.7928460   2.7928460
 AtZNuc=   1.0000000   8.0000000   1.0000000   1.0000000   8.0000000   1.0000000   1.0000000   8.0000000   1.0000000   1.0000000

  Atom       101         102         103         104         105         106         107         108         109         110
 IAtWgt=          16           1           1          16           1           1          16           1           1          16
 AtmWgt=  15.9949146   1.0078250   1.0078250  15.9949146   1.0078250   1.0078250  15.9949146   1.0078250   1.0078250  15.9949146
 NucSpn=           0           1           1           0           1           1           0           1           1           0
 AtZEff=   0.0000000   0.0000000   0.0000000   0.0000000   0.0000000   0.0000000   0.0000000   0.0000000   0.0000000   0.0000000
 NQMom=    0.0000000   0.0000000   0.0000000   0.0000000   0.0000000   0.0000000   0.0000000   0.0000000   0.0000000   0.0000000
 NMagM=    0.0000000   2.7928460   2.7928460   0.0000000   2.7928460   2.7928460   0.0000000   2.7928460   2.7928460   0.0000000
 AtZNuc=   8.0000000   1.0000000   1.0000000   8.0000000   1.0000000   1.0000000   8.0000000   1.0000000   1.0000000   8.0000000

  Atom       111         112         113         114         115         116         117         118         119         120
 IAtWgt=           1           1          16           1           1          16           1           1          16           1
 AtmWgt=   1.0078250   1.0078250  15.9949146   1.0078250   1.0078250  15.9949146   1.0078250   1.0078250  15.9949146   1.0078250
 NucSpn=           1           1           0           1           1           0           1           1           0           1
 AtZEff=   0.0000000   0.0000000   0.0000000   0.0000000   0.0000000   0.0000000   0.0000000   0.0000000   0.0000000   0.0000000
 NQMom=    0.0000000   0.0000000   0.0000000   0.0000000   0.0000000   0.0000000   0.0000000   0.0000000   0.0000000   0.0000000
 NMagM=    2.7928460   2.7928460   0.0000000   2.7928460   2.7928460   0.0000000   2.7928460   2.7928460   0.0000000   2.7928460
 AtZNuc=   1.0000000   1.0000000   8.0000000   1.0000000   1.0000000   8.0000000   1.0000000   1.0000000   8.0000000   1.0000000

  Atom       121         122         123         124         125         126         127         128         129         130
 IAtWgt=           1          16           1           1          16           1           1          16           1           1
 AtmWgt=   1.0078250  15.9949146   1.0078250   1.0078250  15.9949146   1.0078250   1.0078250  15.9949146   1.0078250   1.0078250
 NucSpn=           1           0           1           1           0           1           1           0           1           1
 AtZEff=   0.0000000   0.0000000   0.0000000   0.0000000   0.0000000   0.0000000   0.0000000   0.0000000   0.0000000   0.0000000
 NQMom=    0.0000000   0.0000000   0.0000000   0.0000000   0.0000000   0.0000000   0.0000000   0.0000000   0.0000000   0.0000000
 NMagM=    2.7928460   0.0000000   2.7928460   2.7928460   0.0000000   2.7928460   2.7928460   0.0000000   2.7928460   2.7928460
 AtZNuc=   1.0000000   8.0000000   1.0000000   1.0000000   8.0000000   1.0000000   1.0000000   8.0000000   1.0000000   1.0000000

  Atom       131         132         133         134         135         136         137         138         139         140
 IAtWgt=          16           1           1          16           1           1          16           1           1          16
 AtmWgt=  15.9949146   1.0078250   1.0078250  15.9949146   1.0078250   1.0078250  15.9949146   1.0078250   1.0078250  15.9949146
 NucSpn=           0           1           1           0           1           1           0           1           1           0
 AtZEff=   0.0000000   0.0000000   0.0000000   0.0000000   0.0000000   0.0000000   0.0000000   0.0000000   0.0000000   0.0000000
 NQMom=    0.0000000   0.0000000   0.0000000   0.0000000   0.0000000   0.0000000   0.0000000   0.0000000   0.0000000   0.0000000
 NMagM=    0.0000000   2.7928460   2.7928460   0.0000000   2.7928460   2.7928460   0.0000000   2.7928460   2.7928460   0.0000000
 AtZNuc=   8.0000000   1.0000000   1.0000000   8.0000000   1.0000000   1.0000000   8.0000000   1.0000000   1.0000000   8.0000000

  Atom       141         142         143         144         145         146         147         148         149         150
 IAtWgt=           1           1          16           1           1          16           1           1          16           1
 AtmWgt=   1.0078250   1.0078250  15.9949146   1.0078250   1.0078250  15.9949146   1.0078250   1.0078250  15.9949146   1.0078250
 NucSpn=           1           1           0           1           1           0           1           1           0           1
 AtZEff=   0.0000000   0.0000000   0.0000000   0.0000000   0.0000000   0.0000000   0.0000000   0.0000000   0.0000000   0.0000000
 NQMom=    0.0000000   0.0000000   0.0000000   0.0000000   0.0000000   0.0000000   0.0000000   0.0000000   0.0000000   0.0000000
 NMagM=    2.7928460   2.7928460   0.0000000   2.7928460   2.7928460   0.0000000   2.7928460   2.7928460   0.0000000   2.7928460
 AtZNuc=   1.0000000   1.0000000   8.0000000   1.0000000   1.0000000   8.0000000   1.0000000   1.0000000   8.0000000   1.0000000

  Atom       151         152         153         154         155         156         157         158         159         160
 IAtWgt=           1          16           1           1          16           1           1          16           1           1
 AtmWgt=   1.0078250  15.9949146   1.0078250   1.0078250  15.9949146   1.0078250   1.0078250  15.9949146   1.0078250   1.0078250
 NucSpn=           1           0           1           1           0           1           1           0           1           1
 AtZEff=   0.0000000   0.0000000   0.0000000   0.0000000   0.0000000   0.0000000   0.0000000   0.0000000   0.0000000   0.0000000
 NQMom=    0.0000000   0.0000000   0.0000000   0.0000000   0.0000000   0.0000000   0.0000000   0.0000000   0.0000000   0.0000000
 NMagM=    2.7928460   0.0000000   2.7928460   2.7928460   0.0000000   2.7928460   2.7928460   0.0000000   2.7928460   2.7928460
 AtZNuc=   1.0000000   8.0000000   1.0000000   1.0000000   8.0000000   1.0000000   1.0000000   8.0000000   1.0000000   1.0000000

  Atom       161         162         163         164         165         166         167         168         169         170
 IAtWgt=          16           1           1          16           1           1          16           1           1          16
 AtmWgt=  15.9949146   1.0078250   1.0078250  15.9949146   1.0078250   1.0078250  15.9949146   1.0078250   1.0078250  15.9949146
 NucSpn=           0           1           1           0           1           1           0           1           1           0
 AtZEff=   0.0000000   0.0000000   0.0000000   0.0000000   0.0000000   0.0000000   0.0000000   0.0000000   0.0000000   0.0000000
 NQMom=    0.0000000   0.0000000   0.0000000   0.0000000   0.0000000   0.0000000   0.0000000   0.0000000   0.0000000   0.0000000
 NMagM=    0.0000000   2.7928460   2.7928460   0.0000000   2.7928460   2.7928460   0.0000000   2.7928460   2.7928460   0.0000000
 AtZNuc=   8.0000000   1.0000000   1.0000000   8.0000000   1.0000000   1.0000000   8.0000000   1.0000000   1.0000000   8.0000000

  Atom       171         172         173         174         175         176         177         178         179         180
 IAtWgt=           1           1          16           1           1          16           1           1          16           1
 AtmWgt=   1.0078250   1.0078250  15.9949146   1.0078250   1.0078250  15.9949146   1.0078250   1.0078250  15.9949146   1.0078250
 NucSpn=           1           1           0           1           1           0           1           1           0           1
 AtZEff=   0.0000000   0.0000000   0.0000000   0.0000000   0.0000000   0.0000000   0.0000000   0.0000000   0.0000000   0.0000000
 NQMom=    0.0000000   0.0000000   0.0000000   0.0000000   0.0000000   0.0000000   0.0000000   0.0000000   0.0000000   0.0000000
 NMagM=    2.7928460   2.7928460   0.0000000   2.7928460   2.7928460   0.0000000   2.7928460   2.7928460   0.0000000   2.7928460
 AtZNuc=   1.0000000   1.0000000   8.0000000   1.0000000   1.0000000   8.0000000   1.0000000   1.0000000   8.0000000   1.0000000

  Atom       181         182         183         184         185         186         187         188         189         190
 IAtWgt=           1          16           1           1          16           1           1          16           1           1
 AtmWgt=   1.0078250  15.9949146   1.0078250   1.0078250  15.9949146   1.0078250   1.0078250  15.9949146   1.0078250   1.0078250
 NucSpn=           1           0           1           1           0           1           1           0           1           1
 AtZEff=   0.0000000   0.0000000   0.0000000   0.0000000   0.0000000   0.0000000   0.0000000   0.0000000   0.0000000   0.0000000
 NQMom=    0.0000000   0.0000000   0.0000000   0.0000000   0.0000000   0.0000000   0.0000000   0.0000000   0.0000000   0.0000000
 NMagM=    2.7928460   0.0000000   2.7928460   2.7928460   0.0000000   2.7928460   2.7928460   0.0000000   2.7928460   2.7928460
 AtZNuc=   1.0000000   8.0000000   1.0000000   1.0000000   8.0000000   1.0000000   1.0000000   8.0000000   1.0000000   1.0000000

  Atom       191         192         193         194         195         196         197         198         199         200
 IAtWgt=          16           1           1          16           1           1          16           1           1          16
 AtmWgt=  15.9949146   1.0078250   1.0078250  15.9949146   1.0078250   1.0078250  15.9949146   1.0078250   1.0078250  15.9949146
 NucSpn=           0           1           1           0           1           1           0           1           1           0
 AtZEff=   0.0000000   0.0000000   0.0000000   0.0000000   0.0000000   0.0000000   0.0000000   0.0000000   0.0000000   0.0000000
 NQMom=    0.0000000   0.0000000   0.0000000   0.0000000   0.0000000   0.0000000   0.0000000   0.0000000   0.0000000   0.0000000
 NMagM=    0.0000000   2.7928460   2.7928460   0.0000000   2.7928460   2.7928460   0.0000000   2.7928460   2.7928460   0.0000000
 AtZNuc=   8.0000000   1.0000000   1.0000000   8.0000000   1.0000000   1.0000000   8.0000000   1.0000000   1.0000000   8.0000000

  Atom       201         202         203         204         205         206         207         208         209         210
 IAtWgt=           1           1          16           1           1          16           1           1          16           1
 AtmWgt=   1.0078250   1.0078250  15.9949146   1.0078250   1.0078250  15.9949146   1.0078250   1.0078250  15.9949146   1.0078250
 NucSpn=           1           1           0           1           1           0           1           1           0           1
 AtZEff=   0.0000000   0.0000000   0.0000000   0.0000000   0.0000000   0.0000000   0.0000000   0.0000000   0.0000000   0.0000000
 NQMom=    0.0000000   0.0000000   0.0000000   0.0000000   0.0000000   0.0000000   0.0000000   0.0000000   0.0000000   0.0000000
 NMagM=    2.7928460   2.7928460   0.0000000   2.7928460   2.7928460   0.0000000   2.7928460   2.7928460   0.0000000   2.7928460
 AtZNuc=   1.0000000   1.0000000   8.0000000   1.0000000   1.0000000   8.0000000   1.0000000   1.0000000   8.0000000   1.0000000

  Atom       211         212         213         214         215         216         217         218         219         220
 IAtWgt=           1          16           1           1          16           1           1          16           1           1
 AtmWgt=   1.0078250  15.9949146   1.0078250   1.0078250  15.9949146   1.0078250   1.0078250  15.9949146   1.0078250   1.0078250
 NucSpn=           1           0           1           1           0           1           1           0           1           1
 AtZEff=   0.0000000   0.0000000   0.0000000   0.0000000   0.0000000   0.0000000   0.0000000   0.0000000   0.0000000   0.0000000
 NQMom=    0.0000000   0.0000000   0.0000000   0.0000000   0.0000000   0.0000000   0.0000000   0.0000000   0.0000000   0.0000000
 NMagM=    2.7928460   0.0000000   2.7928460   2.7928460   0.0000000   2.7928460   2.7928460   0.0000000   2.7928460   2.7928460
 AtZNuc=   1.0000000   8.0000000   1.0000000   1.0000000   8.0000000   1.0000000   1.0000000   8.0000000   1.0000000   1.0000000

  Atom       221         222         223         224         225         226         227         228         229         230
 IAtWgt=          16           1           1          16           1           1          16           1           1          16
 AtmWgt=  15.9949146   1.0078250   1.0078250  15.9949146   1.0078250   1.0078250  15.9949146   1.0078250   1.0078250  15.9949146
 NucSpn=           0           1           1           0           1           1           0           1           1           0
 AtZEff=   0.0000000   0.0000000   0.0000000   0.0000000   0.0000000   0.0000000   0.0000000   0.0000000   0.0000000   0.0000000
 NQMom=    0.0000000   0.0000000   0.0000000   0.0000000   0.0000000   0.0000000   0.0000000   0.0000000   0.0000000   0.0000000
 NMagM=    0.0000000   2.7928460   2.7928460   0.0000000   2.7928460   2.7928460   0.0000000   2.7928460   2.7928460   0.0000000
 AtZNuc=   8.0000000   1.0000000   1.0000000   8.0000000   1.0000000   1.0000000   8.0000000   1.0000000   1.0000000   8.0000000

  Atom       231         232         233         234         235         236         237         238         239         240
 IAtWgt=           1           1          16           1           1          16           1           1          16           1
 AtmWgt=   1.0078250   1.0078250  15.9949146   1.0078250   1.0078250  15.9949146   1.0078250   1.0078250  15.9949146   1.0078250
 NucSpn=           1           1           0           1           1           0           1           1           0           1
 AtZEff=   0.0000000   0.0000000   0.0000000   0.0000000   0.0000000   0.0000000   0.0000000   0.0000000   0.0000000   0.0000000
 NQMom=    0.0000000   0.0000000   0.0000000   0.0000000   0.0000000   0.0000000   0.0000000   0.0000000   0.0000000   0.0000000
 NMagM=    2.7928460   2.7928460   0.0000000   2.7928460   2.7928460   0.0000000   2.7928460   2.7928460   0.0000000   2.7928460
 AtZNuc=   1.0000000   1.0000000   8.0000000   1.0000000   1.0000000   8.0000000   1.0000000   1.0000000   8.0000000   1.0000000

  Atom       241         242         243         244         245         246         247         248         249         250
 IAtWgt=           1          16           1           1          16           1           1          16           1           1
 AtmWgt=   1.0078250  15.9949146   1.0078250   1.0078250  15.9949146   1.0078250   1.0078250  15.9949146   1.0078250   1.0078250
 NucSpn=           1           0           1           1           0           1           1           0           1           1
 AtZEff=   0.0000000   0.0000000   0.0000000   0.0000000   0.0000000   0.0000000   0.0000000   0.0000000   0.0000000   0.0000000
 NQMom=    0.0000000   0.0000000   0.0000000   0.0000000   0.0000000   0.0000000   0.0000000   0.0000000   0.0000000   0.0000000
 NMagM=    2.7928460   0.0000000   2.7928460   2.7928460   0.0000000   2.7928460   2.7928460   0.0000000   2.7928460   2.7928460
 AtZNuc=   1.0000000   8.0000000   1.0000000   1.0000000   8.0000000   1.0000000   1.0000000   8.0000000   1.0000000   1.0000000

  Atom       251         252         253         254         255         256         257         258         259         260
 IAtWgt=          16           1           1          16           1           1          16           1           1          16
 AtmWgt=  15.9949146   1.0078250   1.0078250  15.9949146   1.0078250   1.0078250  15.9949146   1.0078250   1.0078250  15.9949146
 NucSpn=           0           1           1           0           1           1           0           1           1           0
 AtZEff=   0.0000000   0.0000000   0.0000000   0.0000000   0.0000000   0.0000000   0.0000000   0.0000000   0.0000000   0.0000000
 NQMom=    0.0000000   0.0000000   0.0000000   0.0000000   0.0000000   0.0000000   0.0000000   0.0000000   0.0000000   0.0000000
 NMagM=    0.0000000   2.7928460   2.7928460   0.0000000   2.7928460   2.7928460   0.0000000   2.7928460   2.7928460   0.0000000
 AtZNuc=   8.0000000   1.0000000   1.0000000   8.0000000   1.0000000   1.0000000   8.0000000   1.0000000   1.0000000   8.0000000

  Atom       261         262         263         264         265         266         267         268         269         270
 IAtWgt=           1           1          16           1           1          16           1           1          16           1
 AtmWgt=   1.0078250   1.0078250  15.9949146   1.0078250   1.0078250  15.9949146   1.0078250   1.0078250  15.9949146   1.0078250
 NucSpn=           1           1           0           1           1           0           1           1           0           1
 AtZEff=   0.0000000   0.0000000   0.0000000   0.0000000   0.0000000   0.0000000   0.0000000   0.0000000   0.0000000   0.0000000
 NQMom=    0.0000000   0.0000000   0.0000000   0.0000000   0.0000000   0.0000000   0.0000000   0.0000000   0.0000000   0.0000000
 NMagM=    2.7928460   2.7928460   0.0000000   2.7928460   2.7928460   0.0000000   2.7928460   2.7928460   0.0000000   2.7928460
 AtZNuc=   1.0000000   1.0000000   8.0000000   1.0000000   1.0000000   8.0000000   1.0000000   1.0000000   8.0000000   1.0000000

  Atom       271         272         273         274         275         276         277         278         279         280
 IAtWgt=           1          16           1           1          16           1           1          16           1           1
 AtmWgt=   1.0078250  15.9949146   1.0078250   1.0078250  15.9949146   1.0078250   1.0078250  15.9949146   1.0078250   1.0078250
 NucSpn=           1           0           1           1           0           1           1           0           1           1
 AtZEff=   0.0000000   0.0000000   0.0000000   0.0000000   0.0000000   0.0000000   0.0000000   0.0000000   0.0000000   0.0000000
 NQMom=    0.0000000   0.0000000   0.0000000   0.0000000   0.0000000   0.0000000   0.0000000   0.0000000   0.0000000   0.0000000
 NMagM=    2.7928460   0.0000000   2.7928460   2.7928460   0.0000000   2.7928460   2.7928460   0.0000000   2.7928460   2.7928460
 AtZNuc=   1.0000000   8.0000000   1.0000000   1.0000000   8.0000000   1.0000000   1.0000000   8.0000000   1.0000000   1.0000000

  Atom       281         282         283         284         285         286         287         288         289         290
 IAtWgt=          16           1           1          16           1           1          16           1           1          16
 AtmWgt=  15.9949146   1.0078250   1.0078250  15.9949146   1.0078250   1.0078250  15.9949146   1.0078250   1.0078250  15.9949146
 NucSpn=           0           1           1           0           1           1           0           1           1           0
 AtZEff=   0.0000000   0.0000000   0.0000000   0.0000000   0.0000000   0.0000000   0.0000000   0.0000000   0.0000000   0.0000000
 NQMom=    0.0000000   0.0000000   0.0000000   0.0000000   0.0000000   0.0000000   0.0000000   0.0000000   0.0000000   0.0000000
 NMagM=    0.0000000   2.7928460   2.7928460   0.0000000   2.7928460   2.7928460   0.0000000   2.7928460   2.7928460   0.0000000
 AtZNuc=   8.0000000   1.0000000   1.0000000   8.0000000   1.0000000   1.0000000   8.0000000   1.0000000   1.0000000   8.0000000

  Atom       291         292         293         294         295         296         297         298         299         300
 IAtWgt=           1           1          16           1           1          16           1           1          16           1
 AtmWgt=   1.0078250   1.0078250  15.9949146   1.0078250   1.0078250  15.9949146   1.0078250   1.0078250  15.9949146   1.0078250
 NucSpn=           1           1           0           1           1           0           1           1           0           1
 AtZEff=   0.0000000   0.0000000   0.0000000   0.0000000   0.0000000   0.0000000   0.0000000   0.0000000   0.0000000   0.0000000
 NQMom=    0.0000000   0.0000000   0.0000000   0.0000000   0.0000000   0.0000000   0.0000000   0.0000000   0.0000000   0.0000000
 NMagM=    2.7928460   2.7928460   0.0000000   2.7928460   2.7928460   0.0000000   2.7928460   2.7928460   0.0000000   2.7928460
 AtZNuc=   1.0000000   1.0000000   8.0000000   1.0000000   1.0000000   8.0000000   1.0000000   1.0000000   8.0000000   1.0000000

  Atom       301         302         303         304         305         306         307         308         309         310
 IAtWgt=           1          16           1           1          16           1           1          16           1           1
 AtmWgt=   1.0078250  15.9949146   1.0078250   1.0078250  15.9949146   1.0078250   1.0078250  15.9949146   1.0078250   1.0078250
 NucSpn=           1           0           1           1           0           1           1           0           1           1
 AtZEff=   0.0000000   0.0000000   0.0000000   0.0000000   0.0000000   0.0000000   0.0000000   0.0000000   0.0000000   0.0000000
 NQMom=    0.0000000   0.0000000   0.0000000   0.0000000   0.0000000   0.0000000   0.0000000   0.0000000   0.0000000   0.0000000
 NMagM=    2.7928460   0.0000000   2.7928460   2.7928460   0.0000000   2.7928460   2.7928460   0.0000000   2.7928460   2.7928460
 AtZNuc=   1.0000000   8.0000000   1.0000000   1.0000000   8.0000000   1.0000000   1.0000000   8.0000000   1.0000000   1.0000000

  Atom       311         312         313         314         315         316         317         318         319         320
 IAtWgt=          16           1           1          16           1           1          16           1           1          16
 AtmWgt=  15.9949146   1.0078250   1.0078250  15.9949146   1.0078250   1.0078250  15.9949146   1.0078250   1.0078250  15.9949146
 NucSpn=           0           1           1           0           1           1           0           1           1           0
 AtZEff=   0.0000000   0.0000000   0.0000000   0.0000000   0.0000000   0.0000000   0.0000000   0.0000000   0.0000000   0.0000000
 NQMom=    0.0000000   0.0000000   0.0000000   0.0000000   0.0000000   0.0000000   0.0000000   0.0000000   0.0000000   0.0000000
 NMagM=    0.0000000   2.7928460   2.7928460   0.0000000   2.7928460   2.7928460   0.0000000   2.7928460   2.7928460   0.0000000
 AtZNuc=   8.0000000   1.0000000   1.0000000   8.0000000   1.0000000   1.0000000   8.0000000   1.0000000   1.0000000   8.0000000

  Atom       321         322         323         324         325         326         327         328         329         330
 IAtWgt=           1           1          16           1           1          16           1           1          16           1
 AtmWgt=   1.0078250   1.0078250  15.9949146   1.0078250   1.0078250  15.9949146   1.0078250   1.0078250  15.9949146   1.0078250
 NucSpn=           1           1           0           1           1           0           1           1           0           1
 AtZEff=   0.0000000   0.0000000   0.0000000   0.0000000   0.0000000   0.0000000   0.0000000   0.0000000   0.0000000   0.0000000
 NQMom=    0.0000000   0.0000000   0.0000000   0.0000000   0.0000000   0.0000000   0.0000000   0.0000000   0.0000000   0.0000000
 NMagM=    2.7928460   2.7928460   0.0000000   2.7928460   2.7928460   0.0000000   2.7928460   2.7928460   0.0000000   2.7928460
 AtZNuc=   1.0000000   1.0000000   8.0000000   1.0000000   1.0000000   8.0000000   1.0000000   1.0000000   8.0000000   1.0000000

  Atom       331         332         333         334         335         336         337         338         339         340
 IAtWgt=           1          16           1           1          16           1           1          16           1           1
 AtmWgt=   1.0078250  15.9949146   1.0078250   1.0078250  15.9949146   1.0078250   1.0078250  15.9949146   1.0078250   1.0078250
 NucSpn=           1           0           1           1           0           1           1           0           1           1
 AtZEff=   0.0000000   0.0000000   0.0000000   0.0000000   0.0000000   0.0000000   0.0000000   0.0000000   0.0000000   0.0000000
 NQMom=    0.0000000   0.0000000   0.0000000   0.0000000   0.0000000   0.0000000   0.0000000   0.0000000   0.0000000   0.0000000
 NMagM=    2.7928460   0.0000000   2.7928460   2.7928460   0.0000000   2.7928460   2.7928460   0.0000000   2.7928460   2.7928460
 AtZNuc=   1.0000000   8.0000000   1.0000000   1.0000000   8.0000000   1.0000000   1.0000000   8.0000000   1.0000000   1.0000000

  Atom       341         342         343         344         345         346         347         348         349         350
 IAtWgt=          16           1           1          16           1           1          16           1           1          16
 AtmWgt=  15.9949146   1.0078250   1.0078250  15.9949146   1.0078250   1.0078250  15.9949146   1.0078250   1.0078250  15.9949146
 NucSpn=           0           1           1           0           1           1           0           1           1           0
 AtZEff=   0.0000000   0.0000000   0.0000000   0.0000000   0.0000000   0.0000000   0.0000000   0.0000000   0.0000000   0.0000000
 NQMom=    0.0000000   0.0000000   0.0000000   0.0000000   0.0000000   0.0000000   0.0000000   0.0000000   0.0000000   0.0000000
 NMagM=    0.0000000   2.7928460   2.7928460   0.0000000   2.7928460   2.7928460   0.0000000   2.7928460   2.7928460   0.0000000
 AtZNuc=   8.0000000   1.0000000   1.0000000   8.0000000   1.0000000   1.0000000   8.0000000   1.0000000   1.0000000   8.0000000

  Atom       351         352         353         354         355         356         357         358         359         360
 IAtWgt=           1           1          16           1           1          16           1           1          16           1
 AtmWgt=   1.0078250   1.0078250  15.9949146   1.0078250   1.0078250  15.9949146   1.0078250   1.0078250  15.9949146   1.0078250
 NucSpn=           1           1           0           1           1           0           1           1           0           1
 AtZEff=   0.0000000   0.0000000   0.0000000   0.0000000   0.0000000   0.0000000   0.0000000   0.0000000   0.0000000   0.0000000
 NQMom=    0.0000000   0.0000000   0.0000000   0.0000000   0.0000000   0.0000000   0.0000000   0.0000000   0.0000000   0.0000000
 NMagM=    2.7928460   2.7928460   0.0000000   2.7928460   2.7928460   0.0000000   2.7928460   2.7928460   0.0000000   2.7928460
 AtZNuc=   1.0000000   1.0000000   8.0000000   1.0000000   1.0000000   8.0000000   1.0000000   1.0000000   8.0000000   1.0000000

  Atom       361         362         363         364         365         366         367         368         369         370
 IAtWgt=           1          16           1           1          16           1           1          16           1           1
 AtmWgt=   1.0078250  15.9949146   1.0078250   1.0078250  15.9949146   1.0078250   1.0078250  15.9949146   1.0078250   1.0078250
 NucSpn=           1           0           1           1           0           1           1           0           1           1
 AtZEff=   0.0000000   0.0000000   0.0000000   0.0000000   0.0000000   0.0000000   0.0000000   0.0000000   0.0000000   0.0000000
 NQMom=    0.0000000   0.0000000   0.0000000   0.0000000   0.0000000   0.0000000   0.0000000   0.0000000   0.0000000   0.0000000
 NMagM=    2.7928460   0.0000000   2.7928460   2.7928460   0.0000000   2.7928460   2.7928460   0.0000000   2.7928460   2.7928460
 AtZNuc=   1.0000000   8.0000000   1.0000000   1.0000000   8.0000000   1.0000000   1.0000000   8.0000000   1.0000000   1.0000000

  Atom       371         372         373         374         375         376         377         378         379         380
 IAtWgt=          16           1           1          16           1           1          16           1           1          16
 AtmWgt=  15.9949146   1.0078250   1.0078250  15.9949146   1.0078250   1.0078250  15.9949146   1.0078250   1.0078250  15.9949146
 NucSpn=           0           1           1           0           1           1           0           1           1           0
 AtZEff=   0.0000000   0.0000000   0.0000000   0.0000000   0.0000000   0.0000000   0.0000000   0.0000000   0.0000000   0.0000000
 NQMom=    0.0000000   0.0000000   0.0000000   0.0000000   0.0000000   0.0000000   0.0000000   0.0000000   0.0000000   0.0000000
 NMagM=    0.0000000   2.7928460   2.7928460   0.0000000   2.7928460   2.7928460   0.0000000   2.7928460   2.7928460   0.0000000
 AtZNuc=   8.0000000   1.0000000   1.0000000   8.0000000   1.0000000   1.0000000   8.0000000   1.0000000   1.0000000   8.0000000

  Atom       381         382         383         384         385
 IAtWgt=           1           1          16           1           1
 AtmWgt=   1.0078250   1.0078250  15.9949146   1.0078250   1.0078250
 NucSpn=           1           1           0           1           1
 AtZEff=   0.0000000   0.0000000   0.0000000   0.0000000   0.0000000
 NQMom=    0.0000000   0.0000000   0.0000000   0.0000000   0.0000000
 NMagM=    2.7928460   2.7928460   0.0000000   2.7928460   2.7928460
 AtZNuc=   1.0000000   1.0000000   8.0000000   1.0000000   1.0000000
 Leave Link  101 at Sun May  6 06:21:46 2018, MaxMem= 14763950080 cpu:        33.3
 (Enter /cm/shared/gaussian/g09.e01/intel64-sandybridge/g09/l103.exe)

 GradGradGradGradGradGradGradGradGradGradGradGradGradGradGradGradGradGrad
 Berny optimization.
 Initialization pass.
 Trust Radius=3.00D-01 FncErr=1.00D-07 GrdErr=1.00D-07
 Number of steps in this run=      2 maximum allowed number of steps=      2.
 GradGradGradGradGradGradGradGradGradGradGradGradGradGradGradGradGradGrad

 Leave Link  103 at Sun May  6 06:21:46 2018, MaxMem= 14763950080 cpu:         3.7
 (Enter /cm/shared/gaussian/g09.e01/intel64-sandybridge/g09/l202.exe)
 Symmetry turned off by external request.
 Stoichiometry    BrH256O128(1-)
 Framework group  C1[X(BrH256O128)]
 Deg. of freedom  1149
 Full point group                 C1      NOp   1
                          Input orientation:                          
 ---------------------------------------------------------------------
 Center     Atomic      Atomic             Coordinates (Angstroms)
 Number     Number       Type             X           Y           Z
 ---------------------------------------------------------------------
      1         35           0       20.000000   20.000000   20.000000
      2          8           0       22.570000   19.750000   18.410000
      3          1           0       21.790000   19.900000   18.950000
      4          1           0       23.050000   19.060000   18.880000
      5          8           0       19.350000   16.980000   19.700000
      6          1           0       19.460000   16.690000   20.610000
      7          1           0       19.550000   17.920000   19.730000
      8          8           0       17.430000   19.980000   18.050000
      9          1           0       16.910000   19.560000   18.740000
     10          1           0       18.310000   20.050000   18.430000
     11          8           0       17.500000   21.610000   21.410000
     12          1           0       18.100000   20.940000   21.070000
     13          1           0       17.360000   22.200000   20.670000
     14          8           0       22.440000   18.810000   21.930000
     15          1           0       22.780000   18.210000   21.270000
     16          1           0       21.660000   19.200000   21.530000
     17          8           0       20.850000   23.240000   19.750000
     18          1           0       19.980000   23.410000   20.120000
     19          1           0       21.040000   22.330000   19.980000
     20          8           0       20.230000   18.610000   16.970000
     21          1           0       21.100000   19.000000   17.090000
     22          1           0       19.700000   18.980000   17.670000
     23          8           0       20.550000   22.440000   16.280000
     24          1           0       21.030000   22.530000   17.100000
     25          1           0       20.120000   23.280000   16.150000
     26          8           0       17.200000   18.090000   23.230000
     27          1           0       16.800000   17.550000   22.550000
     28          1           0       18.130000   18.140000   23.000000
     29          8           0       20.470000   16.480000   22.440000
     30          1           0       20.860000   17.100000   23.040000
     31          1           0       21.060000   15.730000   22.450000
     32          8           0       18.750000   23.290000   23.490000
     33          1           0       18.600000   22.360000   23.330000
     34          1           0       19.690000   23.410000   23.350000
     35          8           0       23.240000   17.090000   20.100000
     36          1           0       22.610000   16.390000   19.960000
     37          1           0       23.870000   16.730000   20.730000
     38          8           0       15.640000   19.230000   20.230000
     39          1           0       15.610000   18.330000   20.550000
     40          1           0       14.720000   19.500000   20.200000
     41          8           0       21.600000   15.240000   19.240000
     42          1           0       20.770000   15.700000   19.090000
     43          1           0       21.480000   14.810000   20.090000
     44          8           0       17.480000   19.690000   15.240000
     45          1           0       16.900000   20.410000   15.500000
     46          1           0       17.990000   19.500000   16.030000
     47          8           0       18.400000   24.200000   20.540000
     48          1           0       17.540000   24.580000   20.730000
     49          1           0       18.830000   24.140000   21.390000
     50          8           0       22.660000   24.150000   17.990000
     51          1           0       22.090000   23.800000   18.680000
     52          1           0       23.450000   23.610000   18.040000
     53          8           0       15.730000   20.250000   23.090000
     54          1           0       16.180000   20.700000   22.370000
     55          1           0       16.250000   19.460000   23.240000
     56          8           0       17.650000   15.550000   17.470000
     57          1           0       17.720000   14.790000   18.050000
     58          1           0       18.190000   16.220000   17.880000
     59          8           0       22.790000   19.280000   24.610000
     60          1           0       22.120000   18.590000   24.670000
     61          1           0       23.010000   19.310000   23.680000
     62          8           0       24.120000   20.870000   16.090000
     63          1           0       23.520000   21.000000   15.360000
     64          1           0       23.580000   20.500000   16.790000
     65          8           0       21.440000   23.520000   23.160000
     66          1           0       21.700000   23.060000   23.960000
     67          1           0       22.210000   23.500000   22.600000
     68          8           0       21.380000   20.510000   14.600000
     69          1           0       21.820000   21.200000   14.110000
     70          1           0       20.850000   20.980000   15.250000
     71          8           0       16.610000   22.810000   16.060000
     72          1           0       17.200000   23.560000   16.050000
     73          1           0       17.170000   22.060000   16.280000
     74          8           0       23.780000   23.090000   22.000000
     75          1           0       24.230000   23.940000   21.910000
     76          1           0       24.490000   22.450000   21.940000
     77          8           0       16.240000   16.540000   21.390000
     78          1           0       16.700000   15.860000   20.890000
     79          1           0       15.370000   16.180000   21.550000
     80          8           0       18.390000   14.550000   21.840000
     81          1           0       18.950000   15.260000   22.170000
     82          1           0       18.960000   13.790000   21.810000
     83          8           0       20.970000   26.260000   20.490000
     84          1           0       21.020000   25.330000   20.280000
     85          1           0       21.270000   26.700000   19.700000
     86          8           0       20.530000   15.040000   16.370000
     87          1           0       21.150000   15.680000   16.710000
     88          1           0       19.900000   15.550000   15.860000
     89          8           0       24.200000   15.890000   17.510000
     90          1           0       23.540000   15.920000   18.200000
     91          1           0       24.920000   16.430000   17.840000
     92          8           0       18.390000   16.540000   15.060000
     93          1           0       17.950000   16.390000   15.900000
     94          1           0       18.630000   17.460000   15.070000
     95          8           0       17.000000   21.000000   25.550000
     96          1           0       16.700000   20.790000   24.660000
     97          1           0       16.410000   21.700000   25.840000
     98          8           0       18.610000   17.360000   25.710000
     99          1           0       18.030000   17.360000   24.950000
    100          1           0       18.120000   17.840000   26.380000
    101          8           0       21.290000   17.100000   25.150000
    102          1           0       20.420000   17.300000   25.510000
    103          1           0       21.430000   16.180000   25.360000
    104          8           0       26.630000   19.050000   21.110000
    105          1           0       27.390000   18.510000   20.910000
    106          1           0       25.880000   18.510000   20.860000
    107          8           0       18.100000   26.630000   19.110000
    108          1           0       18.560000   25.950000   19.590000
    109          1           0       18.580000   27.440000   19.320000
    110          8           0       22.030000   22.060000   25.460000
    111          1           0       22.340000   21.190000   25.690000
    112          1           0       21.280000   22.210000   26.040000
    113          8           0       15.300000   24.200000   18.300000
    114          1           0       15.780000   23.850000   17.550000
    115          1           0       14.430000   23.790000   18.230000
    116          8           0       20.400000   25.300000   16.460000
    117          1           0       21.090000   25.430000   17.110000
    118          1           0       20.580000   25.950000   15.780000
    119          8           0       18.860000   22.660000   26.230000
    120          1           0       18.920000   23.090000   25.370000
    121          1           0       18.480000   21.800000   26.040000
    122          8           0       13.850000   18.740000   17.620000
    123          1           0       14.420000   17.990000   17.780000
    124          1           0       14.250000   19.180000   16.860000
    125          8           0       25.820000   21.980000   18.430000
    126          1           0       26.020000   21.130000   18.030000
    127          1           0       25.720000   22.570000   17.680000
    128          8           0       23.450000   17.220000   15.330000
    129          1           0       24.060000   17.960000   15.350000
    130          1           0       23.720000   16.660000   16.060000
    131          8           0       17.600000   25.280000   16.220000
    132          1           0       18.450000   25.300000   16.650000
    133          1           0       17.000000   25.690000   16.840000
    134          8           0       16.440000   25.190000   23.460000
    135          1           0       16.160000   25.240000   22.550000
    136          1           0       17.290000   24.760000   23.430000
    137          8           0       21.820000   18.150000   13.420000
    138          1           0       21.480000   18.970000   13.770000
    139          1           0       22.300000   17.750000   14.150000
    140          8           0       24.770000   15.950000   21.980000
    141          1           0       24.710000   16.300000   22.870000
    142          1           0       25.360000   15.200000   22.050000
    143          8           0       26.180000   21.810000   21.370000
    144          1           0       26.500000   20.920000   21.190000
    145          1           0       26.180000   22.240000   20.520000
    146          8           0       23.040000   24.570000   15.180000
    147          1           0       22.770000   24.550000   16.100000
    148          1           0       23.090000   25.500000   14.960000
    149          8           0       15.740000   25.020000   20.940000
    150          1           0       15.010000   24.620000   21.410000
    151          1           0       15.540000   24.880000   20.010000
    152          8           0       20.520000   26.390000   23.190000
    153          1           0       20.450000   26.390000   22.230000
    154          1           0       21.060000   25.630000   23.390000
    155          8           0       17.850000   13.440000   19.040000
    156          1           0       18.710000   13.180000   18.690000
    157          1           0       18.020000   13.630000   19.960000
    158          8           0       13.230000   20.970000   22.940000
    159          1           0       12.920000   20.410000   22.240000
    160          1           0       14.100000   20.630000   23.150000
    161          8           0       22.150000   13.850000   21.860000
    162          1           0       22.080000   13.770000   22.810000
    163          1           0       22.970000   13.410000   21.640000
    164          8           0       26.490000   19.710000   16.080000
    165          1           0       25.670000   20.200000   16.190000
    166          1           0       27.070000   20.330000   15.650000
    167          8           0       12.820000   19.550000   20.110000
    168          1           0       13.230000   19.230000   19.310000
    169          1           0       11.970000   19.890000   19.830000
    170          8           0       15.670000   18.030000   13.930000
    171          1           0       16.250000   18.730000   14.240000
    172          1           0       16.250000   17.280000   13.790000
    173          8           0       20.000000   12.730000   17.730000
    174          1           0       20.200000   13.550000   17.270000
    175          1           0       20.590000   12.080000   17.330000
    176          8           0       12.950000   22.730000   19.080000
    177          1           0       12.320000   23.110000   19.690000
    178          1           0       13.220000   21.910000   19.490000
    179          8           0       26.180000   21.680000   24.120000
    180          1           0       26.200000   20.750000   24.350000
    181          1           0       26.090000   21.690000   23.160000
    182          8           0       18.310000   20.740000   12.590000
    183          1           0       18.930000   20.130000   12.990000
    184          1           0       17.510000   20.650000   13.110000
    185          8           0       19.340000   14.570000   25.700000
    186          1           0       18.630000   14.290000   26.280000
    187          1           0       19.190000   15.500000   25.570000
    188          8           0       25.710000   23.330000   15.350000
    189          1           0       25.110000   24.020000   15.060000
    190          1           0       25.140000   22.620000   15.650000
    191          8           0       24.640000   19.540000   26.790000
    192          1           0       24.010000   19.470000   26.080000
    193          1           0       24.580000   18.700000   27.250000
    194          8           0       24.610000   24.780000   24.780000
    195          1           0       25.480000   24.410000   24.920000
    196          1           0       24.060000   24.030000   24.580000
    197          8           0       27.190000   19.070000   23.830000
    198          1           0       26.580000   19.100000   23.100000
    199          1           0       26.970000   18.260000   24.290000
    200          8           0       26.490000   16.860000   18.510000
    201          1           0       27.240000   17.420000   18.700000
    202          1           0       26.540000   16.170000   19.160000
    203          8           0       18.270000   23.320000   13.510000
    204          1           0       17.650000   23.810000   12.970000
    205          1           0       18.090000   22.400000   13.290000
    206          8           0       22.840000   22.510000   13.370000
    207          1           0       22.810000   23.240000   13.980000
[...]
   Y335      32.31432  -0.01399   0.00000  -0.02634  -0.02589  32.28843
   Z335      51.91078  -0.00677   0.00000  -0.01087  -0.01083  51.89994
   X336      43.76606  -0.01292   0.00000  -0.01324  -0.01300  43.75306
   Y336      31.91747   0.00359   0.00000   0.00705   0.00748  31.92496
   Z336      52.38321   0.00317   0.00000   0.00421   0.00426  52.38747
   X337      46.46837   0.00378   0.00000   0.00461   0.00486  46.47323
   Y337      31.19938  -0.00267   0.00000  -0.00519  -0.00472  31.19465
   Z337      52.93123   0.00550   0.00000   0.01004   0.01009  52.94131
   X338      31.31276   0.00164   0.00000  -0.00502  -0.00504  31.30772
   Y338      52.30762   0.02301   0.00000   0.01765   0.01789  52.32551
   Z338      46.37388   0.00285   0.00000   0.00471   0.00466  46.37854
   X339      30.57577   0.00149   0.00000   0.01107   0.01107  30.58684
   Y339      50.72025  -0.01855   0.00000  -0.01285  -0.01263  50.70762
   Z339      45.90145  -0.00434   0.00000  -0.00387  -0.00390  45.89755
   X340      31.93637   0.00014   0.00000  -0.00028  -0.00028  31.93609
   Y340      52.04306  -0.00293   0.00000  -0.00273  -0.00247  52.04059
   Z340      48.05574   0.00390   0.00000   0.00368   0.00364  48.05937
   X341      22.79010  -0.00757   0.00000  -0.00413  -0.00402  22.78608
   Y341      41.64956   0.00132   0.00000   0.00042   0.00057  41.65014
   Z341      47.81007   0.01301   0.00000   0.00780   0.00789  47.81796
   X342      23.54599   0.00512   0.00000   0.00128   0.00139  23.54738
   Y342      41.00706  -0.00613   0.00000  -0.00531  -0.00516  41.00190
   Z342      46.29829  -0.01305   0.00000  -0.00830  -0.00821  46.29008
   X343      23.39481  -0.00035   0.00000  -0.00250  -0.00241  23.39240
   Y343      43.35032   0.00520   0.00000   0.00520   0.00536  43.35568
   Z343      47.94235  -0.00126   0.00000  -0.00196  -0.00188  47.94047
   X344      30.25452   0.01809   0.00000   0.01264   0.01293  30.26745
   Y344      21.63736  -0.00533   0.00000  -0.00212  -0.00195  21.63542
   Z344      40.02440  -0.00042   0.00000   0.00032   0.00053  40.02493
   X345      29.47973  -0.00601   0.00000  -0.00266  -0.00239  29.47734
   Y345      23.13025   0.01064   0.00000   0.00593   0.00609  23.13634
   Z345      39.38189  -0.00664   0.00000  -0.00682  -0.00661  39.37528
   X346      28.95060  -0.00817   0.00000  -0.00397  -0.00367  28.94694
   Y346      20.78699  -0.00508   0.00000  -0.00383  -0.00366  20.78332
   Z346      40.93147   0.00448   0.00000   0.00139   0.00162  40.93309
   X347      40.78029  -0.01636   0.00000  -0.00910  -0.00912  40.77117
   Y347      39.49528   0.00729   0.00000   0.00522   0.00535  39.50062
   Z347      20.84368  -0.00645   0.00000  -0.00957  -0.00957  20.83411
   X348      42.15979   0.01339   0.00000   0.00741   0.00740  42.16719
   Y348      38.34254  -0.01147   0.00000  -0.00817  -0.00802  38.33452
   Z348      20.73030   0.00298   0.00000   0.00613   0.00614  20.73644
   X349      41.49839  -0.00062   0.00000  -0.00466  -0.00470  41.49369
   Y349      40.98816   0.00370   0.00000   0.00175   0.00190  40.99006
   Z349      21.58067   0.00657   0.00000   0.00905   0.00904  21.58972
   X350      28.55376  -0.01331   0.00000  -0.00775  -0.00762  28.54614
   Y350      28.06243   0.00715   0.00000   0.00608   0.00611  28.06855
   Z350      25.73807  -0.02189   0.00000  -0.02074  -0.02057  25.71750
   X351      30.21672   0.01281   0.00000   0.00974   0.00987  30.22659
   Y351      27.57110  -0.00586   0.00000  -0.00637  -0.00632  27.56478
   Z351      25.20895  -0.00064   0.00000  -0.00017   0.00000  25.20894
   X352      28.59156   0.00249   0.00000   0.00107   0.00121  28.59277
   Y352      27.91125   0.00087   0.00000   0.00407   0.00412  27.91538
   Z352      27.53331   0.01008   0.00000  -0.00160  -0.00142  27.53188
   X353      39.98660   0.00769   0.00000   0.00971   0.00959  39.99620
   Y353      51.55173   0.00117   0.00000   0.00653   0.00671  51.55844
   Z353      27.94905   0.00936   0.00000   0.00426   0.00417  27.95322
   X354      40.45904  -0.00025   0.00000  -0.00292  -0.00305  40.45599
   Y354      51.15489  -0.00425   0.00000  -0.00558  -0.00541  51.14948
   Z354      26.24830  -0.01104   0.00000  -0.00860  -0.00869  26.23961
   X355      38.72049  -0.00916   0.00000  -0.00953  -0.00967  38.71082
   Y355      52.83674   0.00426   0.00000   0.00069   0.00085  52.83759
   Z355      27.76008  -0.00122   0.00000  -0.00043  -0.00052  27.75956
   X356      33.24028  -0.01515   0.00000  -0.01276  -0.01263  33.22766
   Y356      43.19914  -0.00307   0.00000  -0.00990  -0.00957  43.18957
   Z356      55.27449   0.00621   0.00000   0.00111   0.00113  55.27562
   X357      33.48595   0.00791   0.00000   0.01031   0.01043  33.49638
   Y357      43.63378   0.00256   0.00000   0.00272   0.00304  43.63682
   Z357      53.53594  -0.00841   0.00000  -0.00419  -0.00417  53.53177
   X358      34.75206   0.01238   0.00000   0.01111   0.01126  34.76332
   Y358      42.31097  -0.00016   0.00000   0.00506   0.00542  42.31639
   Z358      55.72802  -0.00023   0.00000  -0.00118  -0.00116  55.72686
   X359      35.73472  -0.00534   0.00000  -0.00365  -0.00371  35.73101
   Y359      42.23538   0.02636   0.00000   0.01387   0.01393  42.24931
   Z359      19.74764  -0.01921   0.00000  -0.01790  -0.01789  19.72975
   X360      37.24650   0.01238   0.00000   0.00875   0.00870  37.25520
   Y360      41.49839  -0.01426   0.00000  -0.01537  -0.01529  41.48310
   Z360      19.10513  -0.00234   0.00000  -0.00068  -0.00067  19.10446
   X361      35.11111  -0.00088   0.00000   0.00596   0.00592  35.11703
   Y361      41.04485  -0.01730   0.00000  -0.00789  -0.00782  41.03703
   Z361      20.93817   0.01707   0.00000   0.01071   0.01073  20.94890
   X362      48.15022   0.00862   0.00000   0.00336   0.00362  48.15384
   Y362      23.28143   0.00823   0.00000   0.00267   0.00304  23.28446
   Z362      38.87167  -0.00314   0.00000  -0.00402  -0.00392  38.86775
   X363      47.56441  -0.00618   0.00000  -0.00591  -0.00563  47.55878
   Y363      22.12869  -0.00985   0.00000  -0.00874  -0.00837  22.12032
   Z363      40.11889   0.00466   0.00000  -0.00016  -0.00005  40.11883
   X364      47.07308  -0.00978   0.00000  -0.01134  -0.01109  47.06199
   Y364      22.99797  -0.00010   0.00000   0.00201   0.00235  23.00031
   Z364      37.43547  -0.00656   0.00000  -0.00497  -0.00486  37.43062
   X365      29.47973  -0.00118   0.00000  -0.00379  -0.00386  29.47587
   Y365      54.17845   0.00032   0.00000  -0.00436  -0.00419  54.17426
   Z365      41.17713  -0.01221   0.00000  -0.01086  -0.01091  41.16622
   X366      28.34589   0.00090   0.00000   0.00435   0.00428  28.35017
   Y366      55.16111  -0.00002   0.00000  -0.00131  -0.00114  55.15997
   Z366      42.19758   0.00441   0.00000   0.00372   0.00367  42.20126
   X367      29.93326   0.00081   0.00000   0.00050   0.00046  29.93372
   Y367      52.78005  -0.00264   0.00000   0.00106   0.00125  52.78130
   Z367      42.23538   0.00884   0.00000   0.00924   0.00920  42.24458
   X368      21.39170  -0.02305   0.00000  -0.01794  -0.01788  21.37382
   Y368      35.88590  -0.00025   0.00000   0.00022   0.00020  35.88610
   Z368      29.25296   0.01463   0.00000   0.00994   0.01009  29.26305
   X369      21.93972   0.00593   0.00000   0.00815   0.00821  21.94793
   Y369      37.18981  -0.00141   0.00000  -0.00411  -0.00410  37.18571
   Z369      30.38680   0.00329   0.00000   0.00555   0.00569  30.39249
   X370      22.75230   0.01093   0.00000  -0.00146  -0.00139  22.75091
   Y370      35.71582   0.00031   0.00000   0.00159   0.00158  35.71740
   Z370      28.08133  -0.01533   0.00000  -0.01123  -0.01108  28.07025
   X371      51.49504   0.00371   0.00000   0.00610   0.00618  51.50122
   Y371      44.31408   0.02267   0.00000   0.02075   0.02123  44.33531
   Z371      48.90611   0.01756   0.00000   0.00114   0.00104  48.90715
   X372      51.34386  -0.00359   0.00000  -0.00496  -0.00488  51.33898
   Y372      43.42591  -0.02365   0.00000  -0.02471  -0.02424  43.40167
   Z372      47.35654  -0.02235   0.00000  -0.01020  -0.01029  47.34625
   X373      53.13910   0.00119   0.00000   0.00087   0.00097  53.14007
   Y373      43.86054  -0.00139   0.00000  -0.00164  -0.00113  43.85942
   Z373      49.52972   0.00046   0.00000   0.00176   0.00166  49.53138
   X374      54.83985   0.02397   0.00000   0.02263   0.02275  54.86261
   Y374      39.38189   0.02186   0.00000   0.01680   0.01729  39.39918
   Z374      45.25894   0.00107   0.00000   0.00278   0.00271  45.26165
   X375      55.67133   0.00039   0.00000   0.00286   0.00297  55.67430
   Y375      39.07954  -0.00124   0.00000  -0.00104  -0.00055  39.07899
   Z375      43.67157  -0.00035   0.00000  -0.00189  -0.00197  43.66960
   X376      53.59263  -0.01051   0.00000  -0.00133  -0.00119  53.59144
   Y376      38.07798  -0.00917   0.00000   0.00318   0.00366  38.08164
   Z376      45.35343  -0.00022   0.00000   0.00031   0.00026  45.35368
   X377      32.61667   0.00348   0.00000   0.00731   0.00719  32.62386
   Y377      54.93434   0.00996   0.00000   0.00351   0.00365  54.93799
   Z377      32.90013  -0.01963   0.00000  -0.01944  -0.01951  32.88062
   X378      33.84500   0.00046   0.00000  -0.00778  -0.00789  33.83710
   Y378      54.76426   0.00148   0.00000   0.00566   0.00583  54.77009
   Z378      34.20404   0.01439   0.00000   0.01447   0.01439  34.21844
   X379      31.44504  -0.00805   0.00000  -0.00653  -0.00664  31.43840
   Y379      53.59263  -0.00542   0.00000   0.00115   0.00128  53.59392
   Z379      33.20249   0.00144   0.00000  -0.00144  -0.00149  33.20099
   X380      33.69382   0.01909   0.00000   0.01650   0.01640  33.71022
   Y380      55.02882  -0.00906   0.00000  -0.00811  -0.00791  55.02091
   Z380      38.22916  -0.01776   0.00000  -0.01064  -0.01072  38.21844
   X381      32.10645  -0.01411   0.00000  -0.00645  -0.00653  32.09992
   Y381      54.48080   0.00086   0.00000   0.00531   0.00550  54.48630
   Z381      38.90946   0.00801   0.00000   0.00400   0.00393  38.91339
   X382      34.14735   0.00254   0.00000   0.00353   0.00342  34.15077
   Y382      56.46502   0.00784   0.00000   0.00166   0.00187  56.46689
   Z382      39.21182   0.01100   0.00000   0.00921   0.00911  39.22093
   X383      39.41969  -0.00870   0.00000  -0.01158  -0.01143  39.40825
   Y383      42.10310  -0.02825   0.00000  -0.01819  -0.01779  42.08531
   Z383      55.42567   0.00679   0.00000   0.00451   0.00450  55.43017
   X384      40.78029   0.00567   0.00000   0.00090   0.00105  40.78134
   Y384      42.70781   0.00524   0.00000   0.00098   0.00141  42.70922
   Z384      56.44612   0.00227   0.00000  -0.00132  -0.00134  56.44478
   X385      38.90946   0.00153   0.00000   0.00752   0.00765  38.91711
   Y385      43.53929   0.02423   0.00000   0.01823   0.01862  43.55791
   Z385      54.46191  -0.00913   0.00000  -0.00317  -0.00318  54.45872
         Item               Value     Threshold  Converged?
 Maximum Force            0.041336     0.000450     NO 
 RMS     Force            0.010863     0.000300     NO 
 Maximum Displacement     0.035744     0.001800     NO 
 RMS     Displacement     0.008826     0.001200     NO 
 Predicted change in Energy=-7.528774D-02
 GradGradGradGradGradGradGradGradGradGradGradGradGradGradGradGradGradGrad

 Leave Link  103 at Sun May  6 09:16:28 2018, MaxMem= 14763950080 cpu:      3157.2
 (Enter /cm/shared/gaussian/g09.e01/intel64-sandybridge/g09/l9999.exe)
 1\1\GINC-POPLE03\Force\RPBE1PBE\CC-pVDZ\Br1H256O128(1-)\M.PELUSO\06-Ma
 y-2018\0\\#p PBE1PBE/cc-pvDZ force Counterpoise=2 noSymm\\forces on ch
 loride comput - NWATER: 128\\-1,1\Br,20.,20.,20.\O,22.57,19.75,18.41\H
 ,21.79,19.9,18.95\H,23.05,19.06,18.88\O,19.35,16.98,19.7\H,19.46,16.69
 ,20.61\H,19.55,17.92,19.73\O,17.43,19.98,18.05\H,16.91,19.56,18.74\H,1
 8.31,20.05,18.43\O,17.5,21.61,21.41\H,18.1,20.94,21.07\H,17.36,22.2,20
 .67\O,22.44,18.81,21.93\H,22.78,18.21,21.27\H,21.66,19.2,21.53\O,20.85
 ,23.24,19.75\H,19.98,23.41,20.12\H,21.04,22.33,19.98\O,20.23,18.61,16.
 97\H,21.1,19.,17.09\H,19.7,18.98,17.67\O,20.55,22.44,16.28\H,21.03,22.
 53,17.1\H,20.12,23.28,16.15\O,17.2,18.09,23.23\H,16.8,17.55,22.55\H,18
 .13,18.14,23.\O,20.47,16.48,22.44\H,20.86,17.1,23.04\H,21.06,15.73,22.
 45\O,18.75,23.29,23.49\H,18.6,22.36,23.33\H,19.69,23.41,23.35\O,23.24,
 17.09,20.1\H,22.61,16.39,19.96\H,23.87,16.73,20.73\O,15.64,19.23,20.23
 \H,15.61,18.33,20.55\H,14.72,19.5,20.2\O,21.6,15.24,19.24\H,20.77,15.7
 ,19.09\H,21.48,14.81,20.09\O,17.48,19.69,15.24\H,16.9,20.41,15.5\H,17.
 99,19.5,16.03\O,18.4,24.2,20.54\H,17.54,24.58,20.73\H,18.83,24.14,21.3
 9\O,22.66,24.15,17.99\H,22.09,23.8,18.68\H,23.45,23.61,18.04\O,15.73,2
 0.25,23.09\H,16.18,20.7,22.37\H,16.25,19.46,23.24\O,17.65,15.55,17.47\
 H,17.72,14.79,18.05\H,18.19,16.22,17.88\O,22.79,19.28,24.61\H,22.12,18
 .59,24.67\H,23.01,19.31,23.68\O,24.12,20.87,16.09\H,23.52,21.,15.36\H,
 23.58,20.5,16.79\O,21.44,23.52,23.16\H,21.7,23.06,23.96\H,22.21,23.5,2
 2.6\O,21.38,20.51,14.6\H,21.82,21.2,14.11\H,20.85,20.98,15.25\O,16.61,
 22.81,16.06\H,17.2,23.56,16.05\H,17.17,22.06,16.28\O,23.78,23.09,22.\H
 ,24.23,23.94,21.91\H,24.49,22.45,21.94\O,16.24,16.54,21.39\H,16.7,15.8
 6,20.89\H,15.37,16.18,21.55\O,18.39,14.55,21.84\H,18.95,15.26,22.17\H,
 18.96,13.79,21.81\O,20.97,26.26,20.49\H,21.02,25.33,20.28\H,21.27,26.7
 ,19.7\O,20.53,15.04,16.37\H,21.15,15.68,16.71\H,19.9,15.55,15.86\O,24.
 2,15.89,17.51\H,23.54,15.92,18.2\H,24.92,16.43,17.84\O,18.39,16.54,15.
 06\H,17.95,16.39,15.9\H,18.63,17.46,15.07\O,17.,21.,25.55\H,16.7,20.79
 ,24.66\H,16.41,21.7,25.84\O,18.61,17.36,25.71\H,18.03,17.36,24.95\H,18
 .12,17.84,26.38\O,21.29,17.1,25.15\H,20.42,17.3,25.51\H,21.43,16.18,25
 .36\O,26.63,19.05,21.11\H,27.39,18.51,20.91\H,25.88,18.51,20.86\O,18.1
 ,26.63,19.11\H,18.56,25.95,19.59\H,18.58,27.44,19.32\O,22.03,22.06,25.
 46\H,22.34,21.19,25.69\H,21.28,22.21,26.04\O,15.3,24.2,18.3\H,15.78,23
 .85,17.55\H,14.43,23.79,18.23\O,20.4,25.3,16.46\H,21.09,25.43,17.11\H,
 20.58,25.95,15.78\O,18.86,22.66,26.23\H,18.92,23.09,25.37\H,18.48,21.8
 ,26.04\O,13.85,18.74,17.62\H,14.42,17.99,17.78\H,14.25,19.18,16.86\O,2
 5.82,21.98,18.43\H,26.02,21.13,18.03\H,25.72,22.57,17.68\O,23.45,17.22
 ,15.33\H,24.06,17.96,15.35\H,23.72,16.66,16.06\O,17.6,25.28,16.22\H,18
 .45,25.3,16.65\H,17.,25.69,16.84\O,16.44,25.19,23.46\H,16.16,25.24,22.
 55\H,17.29,24.76,23.43\O,21.82,18.15,13.42\H,21.48,18.97,13.77\H,22.3,
 17.75,14.15\O,24.77,15.95,21.98\H,24.71,16.3,22.87\H,25.36,15.2,22.05\
 O,26.18,21.81,21.37\H,26.5,20.92,21.19\H,26.18,22.24,20.52\O,23.04,24.
 57,15.18\H,22.77,24.55,16.1\H,23.09,25.5,14.96\O,15.74,25.02,20.94\H,1
 5.01,24.62,21.41\H,15.54,24.88,20.01\O,20.52,26.39,23.19\H,20.45,26.39
 ,22.23\H,21.06,25.63,23.39\O,17.85,13.44,19.04\H,18.71,13.18,18.69\H,1
 8.02,13.63,19.96\O,13.23,20.97,22.94\H,12.92,20.41,22.24\H,14.1,20.63,
 23.15\O,22.15,13.85,21.86\H,22.08,13.77,22.81\H,22.97,13.41,21.64\O,26
 .49,19.71,16.08\H,25.67,20.2,16.19\H,27.07,20.33,15.65\O,12.82,19.55,2
 0.11\H,13.23,19.23,19.31\H,11.97,19.89,19.83\O,15.67,18.03,13.93\H,16.
 25,18.73,14.24\H,16.25,17.28,13.79\O,20.,12.73,17.73\H,20.2,13.55,17.2
 7\H,20.59,12.08,17.33\O,12.95,22.73,19.08\H,12.32,23.11,19.69\H,13.22,
 21.91,19.49\O,26.18,21.68,24.12\H,26.2,20.75,24.35\H,26.09,21.69,23.16
 \O,18.31,20.74,12.59\H,18.93,20.13,12.99\H,17.51,20.65,13.11\O,19.34,1
 4.57,25.7\H,18.63,14.29,26.28\H,19.19,15.5,25.57\O,25.71,23.33,15.35\H
 ,25.11,24.02,15.06\H,25.14,22.62,15.65\O,24.64,19.54,26.79\H,24.01,19.
 47,26.08\H,24.58,18.7,27.25\O,24.61,24.78,24.78\H,25.48,24.41,24.92\H,
 24.06,24.03,24.58\O,27.19,19.07,23.83\H,26.58,19.1,23.1\H,26.97,18.26,
 24.29\O,26.49,16.86,18.51\H,27.24,17.42,18.7\H,26.54,16.17,19.16\O,18.
 27,23.32,13.51\H,17.65,23.81,12.97\H,18.09,22.4,13.29\O,22.84,22.51,13
 .37\H,22.81,23.24,13.98\H,23.35,22.83,12.63\O,22.63,12.27,19.26\H,22.1
 6,11.48,19.53\H,21.94,12.89,19.04\O,13.51,23.69,22.18\H,12.67,23.86,21
 .75\H,13.5,22.75,22.36\O,17.32,19.02,27.27\H,16.88,19.74,26.8\H,17.78,
 19.46,27.98\O,13.16,16.79,20.08\H,12.86,17.68,20.23\H,12.69,16.26,20.7
 2\O,15.05,14.49,16.23\H,15.81,14.61,16.79\H,14.76,13.59,16.39\O,13.07,
 21.12,16.19\H,12.53,21.4,15.45\H,13.51,21.92,16.48\O,21.67,14.02,24.59
 \H,20.86,14.3,25.01\H,22.,13.32,25.14\O,15.67,26.69,17.86\H,16.5,26.6,
 18.33\H,15.19,25.89,18.06\O,25.73,16.91,24.57\H,25.97,16.07,24.94\H,25
 .,17.22,25.1\O,25.5,25.22,21.23\H,25.19,25.69,20.46\H,26.45,25.29,21.2
 \O,15.5,21.19,13.48\H,15.87,21.62,12.71\H,15.28,21.91,14.07\O,24.12,13
 .5,16.24\H,24.34,14.32,16.68\H,23.87,12.9,16.95\O,20.18,16.89,28.33\H,
 20.2,15.94,28.45\H,20.01,17.,27.39\O,20.58,26.33,26.07\H,20.5,26.18,25
 .13\H,20.07,27.12,26.24\O,17.87,14.28,13.4\H,18.21,13.57,13.96\H,18.06
 ,15.08,13.89\O,21.66,27.62,17.78\H,21.26,28.49,17.8\H,21.88,27.49,16.8
 6\O,24.01,18.73,12.1\H,24.36,17.93,11.72\H,23.25,18.45,12.6\O,20.1,24.
 5,27.88\H,19.72,23.83,27.31\H,20.32,25.22,27.29\O,18.19,12.57,15.63\H,
 17.32,12.47,16.03\H,18.79,12.66,16.37\O,24.85,22.57,26.97\H,24.78,21.7
 1,26.55\H,25.65,22.95,26.61\O,28.32,18.77,18.32\H,27.83,18.92,17.51\H,
 29.08,19.35,18.25\O,21.46,15.77,11.92\H,21.38,16.15,12.79\H,22.03,16.3
 8,11.44\O,14.2,14.84,23.03\H,13.9,15.24,23.85\H,13.61,14.09,22.9\O,18.
 85,11.86,21.64\H,18.94,11.65,22.57\H,17.95,11.62,21.42\O,26.91,17.12,1
 5.09\H,27.42,16.6,15.71\H,26.82,17.98,15.51\O,16.36,11.76,17.54\H,16.8
 6,12.41,18.02\H,16.43,10.96,18.06\O,22.48,28.82,21.79\H,23.04,28.49,22
 .49\H,21.9,28.09,21.58\O,26.69,14.78,20.23\H,26.25,13.95,20.42\H,27.39
 ,14.84,20.88\O,20.36,24.33,11.72\H,19.99,23.64,11.16\H,19.98,24.17,12.
 58\O,15.,22.95,26.25\H,15.,23.68,26.87\H,14.38,23.21,25.57\O,24.73,27.
 49,19.68\H,23.8,27.68,19.6\H,24.98,27.82,20.54\O,28.76,22.09,19.82\H,2
 8.18,22.74,20.2\H,28.98,21.5,20.54\O,17.5,26.81,13.78\H,17.7,26.33,14.
 58\H,17.09,26.16,13.21\O,12.58,14.89,18.15\H,13.16,15.07,17.42\H,12.61
 ,15.69,18.68\O,20.98,13.44,13.06\H,21.38,14.12,12.52\H,20.47,13.92,13.
 71\O,12.98,19.38,13.33\H,12.69,20.17,12.88\H,13.78,19.64,13.79\O,19.,2
 8.96,23.57\H,19.31,28.25,23.\H,18.2,28.61,23.95\O,24.16,27.48,23.57\H,
 23.74,27.74,24.39\H,24.52,26.61,23.75\O,13.76,23.77,14.47\H,13.98,24.3
 7,15.19\H,13.09,24.24,13.97\O,15.35,14.91,25.93\H,15.52,14.36,25.16\H,
 16.09,14.74,26.52\O,25.78,13.66,23.1\H,25.83,12.71,23.\H,25.09,13.79,2
 3.75\O,13.6,26.71,23.14\H,12.98,27.14,22.54\H,14.01,26.03,22.61\O,24.0
 6,17.1,27.47\H,23.16,16.89,27.72\H,24.59,16.51,28.01\O,16.57,27.68,24.
 54\H,16.18,26.84,24.29\H,16.9,27.54,25.43\O,12.06,22.04,25.3\H,12.46,2
 1.7,24.5\H,12.38,22.94,25.37\O,16.01,11.45,21.18\H,15.6,12.24,20.84\H,
 15.32,11.,21.66\O,21.58,20.9,11.03\H,22.31,20.29,10.97\H,21.96,21.69,1
 1.42\O,15.11,14.85,13.62\H,15.99,14.59,13.34\H,15.13,14.77,14.57\O,21.
 16,27.28,14.79\H,21.41,27.07,13.89\H,20.49,27.96,14.69\O,17.59,22.86,2
 9.25\H,17.72,23.09,28.33\H,18.39,22.39,29.49\O,18.91,22.35,10.45\H,19.
 71,21.96,10.11\H,18.58,21.72,11.08\O,25.48,12.32,20.57\H,25.17,11.71,2
 1.23\H,24.91,12.17,19.81\O,15.6,28.67,21.79\H,15.,29.19,22.33\H,15.84,
 27.93,22.35\O,11.32,18.99,15.48\H,11.61,19.68,16.08\H,12.04,18.9,14.86
 \O,27.25,23.45,25.88\H,27.17,22.98,25.06\H,28.12,23.21,26.21\O,29.02,2
 0.84,23.95\H,29.46,20.68,23.11\H,28.36,20.15,24.\O,17.26,29.07,17.41\H
 ,17.91,28.98,18.1\H,16.64,28.36,17.57\O,17.83,29.12,20.23\H,16.99,28.8
 3,20.59\H,18.07,29.88,20.75\O,20.86,22.28,29.33\H,21.58,22.6,29.87\H,2
 0.59,23.04,28.82\\Version=ES64L-G09RevE.01\HF=-9773.4303343\RMSD=1.385
 e-09\RMSF=1.086e-02\Dipole=1.2917012,-10.2657268,11.9803442\Quadrupole
 =126.1155475,-788.4497356,662.3341881,-1872.0805882,-972.2068739,-1685
 .2585898\PG=C01 [X(Br1H256O128)]\\@


 IF GOD HAD MEANT MAN TO SEE THE SUN RISE, HE
 WOULD HAVE SCHEDULED IT FOR A LATER HOUR.
 Job cpu time:       7 days 14 hours 57 minutes 13.6 seconds.
 File lengths (MBytes):  RWF=   7285 Int=      0 D2E=      0 Chk=   2411 Scr=      1
 Normal termination of Gaussian 09 at Sun May  6 09:16:46 2018.
