 Entering Gaussian System, Link 0=/cm/shared/gaussian/g09.e01/intel64-sandybridge/g09/g09
 Initial command:
 /cm/shared/gaussian/g09.e01/intel64-sandybridge/g09/l1.exe "/local/scratch/m.peluso/128_wat/Gau-22123.inp" -scrdir="/local/scratch/m.peluso/128_wat/"
 Entering Link 1 = /cm/shared/gaussian/g09.e01/intel64-sandybridge/g09/l1.exe PID=     22124.
  
 Copyright (c) 1988,1990,1992,1993,1995,1998,2003,2009,2015,
            Gaussian, Inc.  All Rights Reserved.
  
 This is part of the Gaussian(R) 09 program.  It is based on
 the Gaussian(R) 03 system (copyright 2003, Gaussian, Inc.),
 the Gaussian(R) 98 system (copyright 1998, Gaussian, Inc.),
 the Gaussian(R) 94 system (copyright 1995, Gaussian, Inc.),
 the Gaussian 92(TM) system (copyright 1992, Gaussian, Inc.),
 the Gaussian 90(TM) system (copyright 1990, Gaussian, Inc.),
 the Gaussian 88(TM) system (copyright 1988, Gaussian, Inc.),
 the Gaussian 86(TM) system (copyright 1986, Carnegie Mellon
 University), and the Gaussian 82(TM) system (copyright 1983,
 Carnegie Mellon University). Gaussian is a federally registered
 trademark of Gaussian, Inc.
  
 This software contains proprietary and confidential information,
 including trade secrets, belonging to Gaussian, Inc.
  
 This software is provided under written license and may be
 used, copied, transmitted, or stored only in accord with that
 written license.
  
 The following legend is applicable only to US Government
 contracts under FAR:
  
                    RESTRICTED RIGHTS LEGEND
  
 Use, reproduction and disclosure by the US Government is
 subject to restrictions as set forth in subparagraphs (a)
 and (c) of the Commercial Computer Software - Restricted
 Rights clause in FAR 52.227-19.
  
 Gaussian, Inc.
 340 Quinnipiac St., Bldg. 40, Wallingford CT 06492
  
  
 ---------------------------------------------------------------
 Warning -- This program may not be used in any manner that
 competes with the business of Gaussian, Inc. or will provide
 assistance to any competitor of Gaussian, Inc.  The licensee
 of this program is prohibited from giving any competitor of
 Gaussian, Inc. access to this program.  By using this program,
 the user acknowledges that Gaussian, Inc. is engaged in the
 business of creating and licensing software in the field of
 computational chemistry and represents and warrants to the
 licensee that it is not a competitor of Gaussian, Inc. and that
 it will not use this program in any manner prohibited above.
 ---------------------------------------------------------------
  

 Cite this work as:
 Gaussian 09, Revision E.01,
 M. J. Frisch, G. W. Trucks, H. B. Schlegel, G. E. Scuseria, 
 M. A. Robb, J. R. Cheeseman, G. Scalmani, V. Barone, B. Mennucci, 
 G. A. Petersson, H. Nakatsuji, M. Caricato, X. Li, H. P. Hratchian, 
 A. F. Izmaylov, J. Bloino, G. Zheng, J. L. Sonnenberg, M. Hada, 
 M. Ehara, K. Toyota, R. Fukuda, J. Hasegawa, M. Ishida, T. Nakajima, 
 Y. Honda, O. Kitao, H. Nakai, T. Vreven, J. A. Montgomery, Jr., 
 J. E. Peralta, F. Ogliaro, M. Bearpark, J. J. Heyd, E. Brothers, 
 K. N. Kudin, V. N. Staroverov, T. Keith, R. Kobayashi, J. Normand, 
 K. Raghavachari, A. Rendell, J. C. Burant, S. S. Iyengar, J. Tomasi, 
 M. Cossi, N. Rega, J. M. Millam, M. Klene, J. E. Knox, J. B. Cross, 
 V. Bakken, C. Adamo, J. Jaramillo, R. Gomperts, R. E. Stratmann, 
 O. Yazyev, A. J. Austin, R. Cammi, C. Pomelli, J. W. Ochterski, 
 R. L. Martin, K. Morokuma, V. G. Zakrzewski, G. A. Voth, 
 P. Salvador, J. J. Dannenberg, S. Dapprich, A. D. Daniels, 
 O. Farkas, J. B. Foresman, J. V. Ortiz, J. Cioslowski, 
 and D. J. Fox, Gaussian, Inc., Wallingford CT, 2013.
 
 ******************************************
 Gaussian 09:  ES64L-G09RevE.01 30-Nov-2015
                 6-May-2018 
 ******************************************
 %Mem=110GB
 %NProcShared=64
 Will use up to   64 processors via shared memory.
 %chk=snap56.chk
 ----------------------------------------------
 #p PBE1PBE/cc-pvDZ force Counterpoise=2 noSymm
 ----------------------------------------------
 1/10=7,30=1,38=1,62=2/1,3;
 2/12=2,15=1,17=6,18=5,40=1/2;
 1/10=7,30=1,38=1,53=2,62=2,63=101/22;
 3/5=16,11=2,16=1,25=1,30=1,71=1,74=-13/1,2,3;
 4//1;
 5/5=2,38=5/2;
 6/7=2,8=2,9=2,10=2,28=1/1;
 7/7=1,29=1,30=1,33=-1/1,2,3,16;
 1/10=7,30=1,53=2,62=2,63=101/22;
 3/5=7,6=11,11=2,16=1,25=1,30=1,71=1,74=-13,82=7/1,2,3;
 4//1;
 5/5=2,38=5/2;
 6/7=2,8=2,9=2,10=2,28=1/1;
 7/7=1,29=1,30=1,33=-1/1,2,3,16;
 1/10=7,30=1,53=2,62=2,63=101/22(-5);
 7/9=1,29=1,44=-1/16;
 1/10=7,30=1,62=2/3;
 99//99;
 Leave Link    1 at Sun May  6 15:41:27 2018, MaxMem= 14763950080 cpu:         6.3
 (Enter /cm/shared/gaussian/g09.e01/intel64-sandybridge/g09/l101.exe)
 ---------------------------------------
 forces on chloride comput - NWATER: 128
 ---------------------------------------
 Symbolic Z-matrix:
 Charge = -1 Multiplicity = 1 in supermolecule
 Charge = -1 Multiplicity = 1 in fragment      1.
 Charge =  0 Multiplicity = 1 in fragment      2.
 Br(Fragment=1)        20.       20.       20. 
 O(Fragment=2)         17.22     19.86     18.38 
 H(Fragment=2)         17.46     19.17     17.76 
 H(Fragment=2)         17.9      19.83     19.05 
 O(Fragment=2)         19.94     23.39     20.04 
 H(Fragment=2)         20.84     23.71     20.04 
 H(Fragment=2)         20.02     22.44     20.02 
 O(Fragment=2)         16.87     20.81     21.11 
 H(Fragment=2)         16.89     21.77     21.03 
 H(Fragment=2)         17.78     20.54     21. 
 O(Fragment=2)         22.7      20.52     22.03 
 H(Fragment=2)         23.03     19.62     21.93 
 H(Fragment=2)         21.83     20.51     21.63 
 O(Fragment=2)         18.32     17.01     19.92 
 H(Fragment=2)         18.27     16.99     20.88 
 H(Fragment=2)         19.02     17.63     19.73 
 O(Fragment=2)         22.15     17.55     21.77 
 H(Fragment=2)         21.82     17.41     22.66 
 H(Fragment=2)         21.48     18.09     21.35 
 O(Fragment=2)         21.65     19.66     16.44 
 H(Fragment=2)         20.84     19.87     15.97 
 H(Fragment=2)         21.42     19.78     17.37 
 O(Fragment=2)         23.89     18.73     18.81 
 H(Fragment=2)         24.1      19.12     19.65 
 H(Fragment=2)         23.55     19.45     18.28 
 O(Fragment=2)         20.76     23.82     16.65 
 H(Fragment=2)         20.85     23.1      16.03 
 H(Fragment=2)         20.61     23.4      17.5 
 O(Fragment=2)         22.06     23.09     23.23 
 H(Fragment=2)         22.79     23.7      23.1 
 H(Fragment=2)         22.43     22.23     23.03 
 O(Fragment=2)         16.32     21.73     16.53 
 H(Fragment=2)         16.82     21.07     17.01 
 H(Fragment=2)         16.96     22.37     16.24 
 O(Fragment=2)         14.58     19.54     19.53 
 H(Fragment=2)         14.32     20.34     19.99 
 H(Fragment=2)         15.53     19.54     19.56 
 O(Fragment=2)         19.39     16.       22.67 
 H(Fragment=2)         19.05     15.13     22.89 
 H(Fragment=2)         19.93     15.85     21.89 
 O(Fragment=2)         15.49     19.03     22.78 
 H(Fragment=2)         16.13     18.48     23.23 
 H(Fragment=2)         16.01     19.56     22.18 
 O(Fragment=2)         22.85     16.23     19.25 
 H(Fragment=2)         23.39     16.95     18.92 
 H(Fragment=2)         22.81     16.38     20.2 
 O(Fragment=2)         24.33     22.54     20.63 
 H(Fragment=2)         24.06     22.28     19.75 
 H(Fragment=2)         24.09     21.8      21.18 
 O(Fragment=2)         17.62     17.75     16.39 
 H(Fragment=2)         18.44     17.28     16.52 
 H(Fragment=2)         17.55     17.86     15.44 
 O(Fragment=2)         19.07     25.05     22.02 
 H(Fragment=2)         18.22     25.49     22.07 
 H(Fragment=2)         18.98     24.44     21.29 
 O(Fragment=2)         19.93     20.49     25.31 
 H(Fragment=2)         20.7      19.97     25.07 
 H(Fragment=2)         19.83     21.12     24.6 
 O(Fragment=2)         20.39     14.93     20.27 
 H(Fragment=2)         19.63     15.26     19.8 
 H(Fragment=2)         21.13     15.08     19.68 
 O(Fragment=2)         19.43     23.18     23.94 
 H(Fragment=2)         20.36     23.09     23.71 
 H(Fragment=2)         19.02     23.49     23.14 
 O(Fragment=2)         24.31     19.74     16.02 
 H(Fragment=2)         23.41     19.98     16.26 
 H(Fragment=2)         24.2      19.09     15.32 
 O(Fragment=2)         19.72     20.84     14.91 
 H(Fragment=2)         18.78     20.8      15.07 
 H(Fragment=2)         19.83     21.54     14.27 
 O(Fragment=2)         22.86     16.83     16.25 
 H(Fragment=2)         21.91     16.91     16.33 
 H(Fragment=2)         23.2      17.27     17.03 
 O(Fragment=2)         17.64     14.51     19.1 
 H(Fragment=2)         17.21     14.36     18.26 
 H(Fragment=2)         17.72     15.46     19.16 
 O(Fragment=2)         22.16     24.69     20.58 
 H(Fragment=2)         23.11     24.71     20.44 
 H(Fragment=2)         21.88     25.6      20.44 
 O(Fragment=2)         16.47     23.75     21.51 
 H(Fragment=2)         16.67     24.01     20.62 
 H(Fragment=2)         16.44     24.57     22.01 
 O(Fragment=2)         20.91     16.97     24.7 
 H(Fragment=2)         20.24     16.62     24.13 
 H(Fragment=2)         20.56     16.88     25.58 
 O(Fragment=2)         24.66     21.93     17.91 
 H(Fragment=2)         25.27     22.64     17.71 
 H(Fragment=2)         24.87     21.25     17.28 
 O(Fragment=2)         25.4      19.29     21.33 
 H(Fragment=2)         25.12     19.85     22.05 
 H(Fragment=2)         25.8      18.53     21.75 
 O(Fragment=2)         19.62     16.       16.16 
 H(Fragment=2)         18.84     15.53     15.84 
 H(Fragment=2)         20.14     15.33     16.6 
 O(Fragment=2)         14.18     22.28     20.36 
 H(Fragment=2)         14.64     23.12     20.37 
 H(Fragment=2)         14.76     21.68     20.81 
 O(Fragment=2)         14.84     17.94     15.82 
 H(Fragment=2)         15.7      18.05     16.24 
 H(Fragment=2)         14.58     18.82     15.56 
 O(Fragment=2)         22.9      25.65     17.61 
 H(Fragment=2)         22.55     26.53     17.69 
 H(Fragment=2)         22.14     25.1      17.43 
 O(Fragment=2)         21.39     13.77     22.34 
 H(Fragment=2)         22.33     13.83     22.18 
 H(Fragment=2)         20.99     14.15     21.55 
 O(Fragment=2)         18.13     23.56     15.14 
 H(Fragment=2)         17.9      24.05     14.35 
 H(Fragment=2)         18.85     24.06     15.52 
 O(Fragment=2)         24.6      24.43     22.62 
 H(Fragment=2)         24.46     23.82     21.9 
 H(Fragment=2)         24.59     25.29     22.2 
 O(Fragment=2)         18.45     18.47     26.55 
 H(Fragment=2)         18.35     18.88     27.41 
 H(Fragment=2)         19.12     18.98     26.11 
 O(Fragment=2)         21.15     25.95     23.42 
 H(Fragment=2)         21.82     25.28     23.45 
 H(Fragment=2)         20.46     25.58     22.87 
 O(Fragment=2)         25.32     20.92     23.41 
 H(Fragment=2)         25.73     21.74     23.68 
 H(Fragment=2)         24.8      20.65     24.17 
 O(Fragment=2)         21.51     19.31     12.92 
 H(Fragment=2)         20.95     19.3      12.15 
 H(Fragment=2)         20.9      19.43     13.65 
 O(Fragment=2)         17.36     22.27     26.55 
 H(Fragment=2)         16.84     23.07     26.4 
 H(Fragment=2)         17.72     22.06     25.69 
 O(Fragment=2)         24.21     17.03     24.55 
 H(Fragment=2)         23.51     16.44     24.8 
 H(Fragment=2)         23.88     17.91     24.75 
 O(Fragment=2)         16.65     14.12     21.67 
 H(Fragment=2)         16.87     13.19     21.78 
 H(Fragment=2)         16.9      14.32     20.77 
 O(Fragment=2)         14.29     20.55     15.06 
 H(Fragment=2)         14.98     20.88     15.64 
 H(Fragment=2)         14.23     21.21     14.37 
 O(Fragment=2)         27.01     23.05     20.21 
 H(Fragment=2)         26.3      22.49     20.54 
 H(Fragment=2)         26.56     23.84     19.9 
 O(Fragment=2)         21.4      15.33     13.97 
 H(Fragment=2)         21.15     16.01     14.59 
 H(Fragment=2)         20.58     15.07     13.55 
 O(Fragment=2)         17.5      18.84     13.76 
 H(Fragment=2)         17.17     19.6      13.28 
 H(Fragment=2)         18.16     18.46     13.19 
 O(Fragment=2)         18.07     26.73     19.01 
 H(Fragment=2)         17.62     27.55     18.81 
 H(Fragment=2)         18.45     26.45     18.17 
 O(Fragment=2)         24.04     19.73     25.58 
 H(Fragment=2)         24.82     19.84     26.13 
 H(Fragment=2)         23.31     19.99     26.14 
 O(Fragment=2)         13.6      16.01     20.82 
 H(Fragment=2)         13.88     15.81     21.72 
 H(Fragment=2)         13.85     16.92     20.69 
 O(Fragment=2)         21.22     23.46     26.51 
 H(Fragment=2)         20.38     23.33     26.07 
 H(Fragment=2)         20.98     23.77     27.39 
 O(Fragment=2)         20.75     22.73     13.08 
 H(Fragment=2)         21.17     23.24     12.39 
 H(Fragment=2)         21.48     22.41     13.62 
 O(Fragment=2)         20.42     13.47     17.47 
 H(Fragment=2)         20.61     13.       18.28 
 H(Fragment=2)         19.55     13.17     17.21 
 O(Fragment=2)         12.64     18.87     22.08 
 H(Fragment=2)         12.3      19.76     22.14 
 H(Fragment=2)         13.5      18.91     22.49 
 O(Fragment=2)         19.07     12.28     20.27 
 H(Fragment=2)         18.78     13.05     19.78 
 H(Fragment=2)         18.28     11.73     20.34 
 O(Fragment=2)         12.45     20.23     17.52 
 H(Fragment=2)         13.14     19.97     18.13 
 H(Fragment=2)         12.87     20.2      16.66 
 O(Fragment=2)         23.94     13.29     19.67 
 H(Fragment=2)         23.02     13.49     19.83 
 H(Fragment=2)         24.11     13.61     18.79 
 O(Fragment=2)         25.48     25.09     18.75 
 H(Fragment=2)         24.61     25.29     18.4 
 H(Fragment=2)         25.91     24.59     18.07 
 O(Fragment=2)         23.29     21.81     13.7 
 H(Fragment=2)         24.02     21.89     14.31 
 H(Fragment=2)         23.37     20.93     13.34 
 O(Fragment=2)         21.17     27.16     19.81 
 H(Fragment=2)         20.23     27.24     19.95 
 H(Fragment=2)         21.38     27.83     19.17 
 O(Fragment=2)         18.22     14.26     24.38 
 H(Fragment=2)         18.04     15.03     24.93 
 H(Fragment=2)         19.09     13.98     24.64 
 O(Fragment=2)         22.18     20.79     27.58 
 H(Fragment=2)         21.65     21.37     27.04 
 H(Fragment=2)         21.57     20.43     28.23 
 O(Fragment=2)         17.52     15.52     14.27 
 H(Fragment=2)         16.81     14.9      14.08 
 H(Fragment=2)         17.11     16.38     14.21 
 O(Fragment=2)         26.95     17.16     21.22 
 H(Fragment=2)         26.94     17.4      20.29 
 H(Fragment=2)         27.31     16.28     21.24 
 O(Fragment=2)         16.22     20.07     27.36 
 H(Fragment=2)         16.48     20.98     27.25 
 H(Fragment=2)         16.5      19.64     26.55 
 O(Fragment=2)         22.89     13.53     16.24 
 H(Fragment=2)         22.       13.73     16.52 
 H(Fragment=2)         23.14     14.28     15.7 
 O(Fragment=2)         25.91     16.87     15.52 
 H(Fragment=2)         26.06     16.02     15.11 
 H(Fragment=2)         25.02     17.1      15.25 
 O(Fragment=2)         14.54     15.18     23.27 
 H(Fragment=2)         14.7      15.41     24.19 
 H(Fragment=2)         15.38     14.85     22.95 
 O(Fragment=2)         13.68     20.52     24.88 
 H(Fragment=2)         12.77     20.55     25.19 
 H(Fragment=2)         13.63     20.13     24.01 
 O(Fragment=2)         27.17     17.       18.45 
 H(Fragment=2)         26.67     17.36     17.71 
 H(Fragment=2)         28.08     17.08     18.18 
 O(Fragment=2)         17.37     16.07     26.76 
 H(Fragment=2)         18.09     15.68     27.25 
 H(Fragment=2)         17.71     16.92     26.48 
 O(Fragment=2)         13.1      16.85     17.64 
 H(Fragment=2)         13.88     16.3      17.62 
 H(Fragment=2)         13.26     17.52     16.98 
 O(Fragment=2)         15.16     24.71     15.09 
 H(Fragment=2)         15.56     23.85     15.24 
 H(Fragment=2)         15.76     25.16     14.5 
 O(Fragment=2)         24.06     18.57     13.32 
 H(Fragment=2)         23.12     18.67     13.21 
 H(Fragment=2)         24.33     18.02     12.59 
 O(Fragment=2)         20.86     13.4      24.91 
 H(Fragment=2)         21.65     13.71     25.36 
 H(Fragment=2)         21.03     13.57     23.98 
 O(Fragment=2)         25.32     14.87     17.72 
 H(Fragment=2)         25.87     15.38     18.32 
 H(Fragment=2)         25.29     15.39     16.92 
 O(Fragment=2)         16.64     26.55     22.18 
 H(Fragment=2)         17.16     27.34     22.33 
 H(Fragment=2)         16.24     26.7      21.32 
 O(Fragment=2)         27.3      20.29     16.12 
 H(Fragment=2)         27.82     19.73     15.54 
 H(Fragment=2)         26.42     20.25     15.76 
 O(Fragment=2)         26.25     23.21     24.39 
 H(Fragment=2)         25.67     23.71     23.81 
 H(Fragment=2)         26.       23.48     25.27 
 O(Fragment=2)         28.46     20.23     22.11 
 H(Fragment=2)         29.05     19.8      21.5 
 H(Fragment=2)         27.58     20.       21.8 
 O(Fragment=2)         19.28     26.94     25.03 
 H(Fragment=2)         19.92     27.53     25.43 
 H(Fragment=2)         19.79     26.46     24.37 
 O(Fragment=2)         11.86     22.9      18.98 
 H(Fragment=2)         11.67     22.02     18.66 
 H(Fragment=2)         12.78     22.88     19.23 
 O(Fragment=2)         12.07     21.61     22.12 
 H(Fragment=2)         11.25     22.1      22.12 
 H(Fragment=2)         12.5      21.87     21.3 
 O(Fragment=2)         14.35     13.73     19.42 
 H(Fragment=2)         13.79     13.18     19.97 
 H(Fragment=2)         14.26     14.61     19.8 
 O(Fragment=2)         14.58     23.18     25.34 
 H(Fragment=2)         14.17     23.53     24.55 
 H(Fragment=2)         14.54     22.23     25.24 
 O(Fragment=2)         22.02     25.78     14.33 
 H(Fragment=2)         22.17     24.88     14.03 
 H(Fragment=2)         22.57     25.87     15.1 
 O(Fragment=2)         23.04     25.97     25.4 
 H(Fragment=2)         22.65     26.43     24.65 
 H(Fragment=2)         22.44     25.25     25.58 
 O(Fragment=2)         16.35     27.14     16.58 
 H(Fragment=2)         16.13     26.57     17.32 
 H(Fragment=2)         16.35     26.56     15.82 
 O(Fragment=2)         14.79     26.37     20.12 
 H(Fragment=2)         14.16     27.06     20.33 
 H(Fragment=2)         14.49     26.       19.3 
 O(Fragment=2)         20.35     16.06     27.2 
 H(Fragment=2)         20.49     15.23     27.66 
 H(Fragment=2)         20.14     16.69     27.89 
 O(Fragment=2)         24.3      26.84     21.61 
 H(Fragment=2)         24.91     27.31     21.03 
 H(Fragment=2)         23.48     27.34     21.54 
 O(Fragment=2)         26.5      23.83     16.63 
 H(Fragment=2)         27.38     23.6      16.33 
 H(Fragment=2)         25.99     23.91     15.83 
 O(Fragment=2)         13.72     25.42     17.75 
 H(Fragment=2)         13.11     25.93     17.2 
 H(Fragment=2)         13.5      24.51     17.55 
 O(Fragment=2)         19.77     20.84     29. 
 H(Fragment=2)         19.4      21.27     28.22 
 H(Fragment=2)         19.01     20.47     29.45 
 O(Fragment=2)         27.14     17.85     25.53 
 H(Fragment=2)         27.19     18.6      26.13 
 H(Fragment=2)         26.32     17.97     25.06 
 O(Fragment=2)         21.52     28.7      22.74 
 H(Fragment=2)         22.36     28.81     23.19 
 H(Fragment=2)         21.31     27.77     22.84 
 O(Fragment=2)         21.2      11.1      19.29 
 H(Fragment=2)         20.7      10.5      18.73 
 H(Fragment=2)         20.53     11.6      19.76 
 O(Fragment=2)         25.92     13.42     21.55 
 H(Fragment=2)         25.47     13.86     22.27 
 H(Fragment=2)         25.31     13.49     20.81 
 O(Fragment=2)         17.97     12.66     16.34 
 H(Fragment=2)         18.22     12.84     15.44 
 H(Fragment=2)         17.15     12.17     16.27 
 O(Fragment=2)         19.21     14.63     12.49 
 H(Fragment=2)         18.66     14.9      13.22 
 H(Fragment=2)         18.74     14.93     11.71 
 O(Fragment=2)         25.98     20.55     13.13 
 H(Fragment=2)         25.22     19.97     13.17 
 H(Fragment=2)         26.36     20.39     12.27 
 O(Fragment=2)         28.84     21.43     17.95 
 H(Fragment=2)         28.44     21.24     18.8 
 H(Fragment=2)         28.29     20.96     17.32 
 O(Fragment=2)         12.52     23.74     23.7 
 H(Fragment=2)         12.45     22.98     23.12 
 H(Fragment=2)         12.11     24.45     23.2 
 O(Fragment=2)         10.68     18.55     20.03 
 H(Fragment=2)         11.42     18.4      20.62 
 H(Fragment=2)         11.07     18.87     19.22 
 O(Fragment=2)         17.41     25.73     26.67 
 H(Fragment=2)         16.63     25.62     26.12 
 H(Fragment=2)         18.08     26.04     26.06 
 O(Fragment=2)         15.4      26.04     24.78 
 H(Fragment=2)         15.86     26.61     24.16 
 H(Fragment=2)         14.62     25.75     24.31 
 O(Fragment=2)         13.81     16.45     13.38 
 H(Fragment=2)         14.19     15.59     13.54 
 H(Fragment=2)         14.41     17.07     13.79 
 O(Fragment=2)         19.2      22.66     10.68 
 H(Fragment=2)         19.65     22.91     11.49 
 H(Fragment=2)         19.58     21.82     10.44 
 O(Fragment=2)         11.83     16.73     23.66 
 H(Fragment=2)         12.59     16.14     23.64 
 H(Fragment=2)         11.9      17.25     22.87 
 O(Fragment=2)         22.34     28.36     17.46 
 H(Fragment=2)         22.96     28.41     16.73 
 H(Fragment=2)         22.64     29.02     18.08 
 O(Fragment=2)         17.15     25.52     13.42 
 H(Fragment=2)         17.04     26.46     13.52 
 H(Fragment=2)         17.57     25.41     12.57 
 O(Fragment=2)         14.76     15.24     26.11 
 H(Fragment=2)         15.51     15.64     26.54 
 H(Fragment=2)         14.       15.7      26.47 
 O(Fragment=2)         24.08     23.46     28.44 
 H(Fragment=2)         23.93     23.13     27.56 
 H(Fragment=2)         24.55     24.28     28.31 
 O(Fragment=2)         18.03     11.34     24.38 
 H(Fragment=2)         18.96     11.21     24.19 
 H(Fragment=2)         17.9      12.28     24.29 
 O(Fragment=2)         25.84     23.37     13.91 
 H(Fragment=2)         25.77     22.54     13.43 
 H(Fragment=2)         25.28     23.97     13.44 
 O(Fragment=2)         28.54     21.57     24.42 
 H(Fragment=2)         27.74     22.08     24.28 
 H(Fragment=2)         28.57     20.96     23.68 
 O(Fragment=2)         20.28     10.64     22.43 
 H(Fragment=2)         19.9      11.06     21.67 
 H(Fragment=2)         20.73     11.34     22.9 
 O(Fragment=2)         14.31     13.59     16.29 
 H(Fragment=2)         14.12     13.56     17.23 
 H(Fragment=2)         14.66     12.73     16.08 
 O(Fragment=2)         23.43     16.01     28.34 
 H(Fragment=2)         24.09     16.69     28.52 
 H(Fragment=2)         22.66     16.5      28.04 
 O(Fragment=2)         26.82     26.17     23.48 
 H(Fragment=2)         25.92     26.34     23.21 
 H(Fragment=2)         27.34     26.29     22.69 
 O(Fragment=2)         29.72     19.06     20.15 
 H(Fragment=2)         29.86     19.38     19.25 
 H(Fragment=2)         29.1      18.34     20.04 
 O(Fragment=2)         24.69     26.2      14.82 
 H(Fragment=2)         25.43     25.71     15.15 
 H(Fragment=2)         24.91     27.12     14.99 
 O(Fragment=2)         19.71     29.01     15.38 
 H(Fragment=2)         20.08     28.16     15.63 
 H(Fragment=2)         20.41     29.64     15.56 
 O(Fragment=2)         23.04     13.98     26.37 
 H(Fragment=2)         22.75     13.18     26.81 
 H(Fragment=2)         23.42     14.51     27.07 
 O(Fragment=2)         19.25     18.2      10.86 
 H(Fragment=2)         19.71     17.39     11.05 
 H(Fragment=2)         18.55     17.94     10.25 
 O(Fragment=2)         29.36     23.83     18.94 
 H(Fragment=2)         29.28     23.11     18.31 
 H(Fragment=2)         28.56     23.78     19.46 
 O(Fragment=2)         26.78     27.1      17.31 
 H(Fragment=2)         26.58     26.3      17.78 
 H(Fragment=2)         27.2      26.8      16.5 
 
 NAtoms=    385 NQM=      385 NQMF=       0 NMMI=      0 NMMIF=      0
                NMic=       0 NMicF=      0.
                    Isotopes and Nuclear Properties:
 (Nuclear quadrupole moments (NQMom) in fm**2, nuclear magnetic moments (NMagM)
  in nuclear magnetons)

  Atom         1           2           3           4           5           6           7           8           9          10
 IAtWgt=          79          16           1           1          16           1           1          16           1           1
 AtmWgt=  78.9183361  15.9949146   1.0078250   1.0078250  15.9949146   1.0078250   1.0078250  15.9949146   1.0078250   1.0078250
 NucSpn=           3           0           1           1           0           1           1           0           1           1
 AtZEff=   0.0000000   0.0000000   0.0000000   0.0000000   0.0000000   0.0000000   0.0000000   0.0000000   0.0000000   0.0000000
 NQMom=   31.3000000   0.0000000   0.0000000   0.0000000   0.0000000   0.0000000   0.0000000   0.0000000   0.0000000   0.0000000
 NMagM=    2.1063990   0.0000000   2.7928460   2.7928460   0.0000000   2.7928460   2.7928460   0.0000000   2.7928460   2.7928460
 AtZNuc=  35.0000000   8.0000000   1.0000000   1.0000000   8.0000000   1.0000000   1.0000000   8.0000000   1.0000000   1.0000000

  Atom        11          12          13          14          15          16          17          18          19          20
 IAtWgt=          16           1           1          16           1           1          16           1           1          16
 AtmWgt=  15.9949146   1.0078250   1.0078250  15.9949146   1.0078250   1.0078250  15.9949146   1.0078250   1.0078250  15.9949146
 NucSpn=           0           1           1           0           1           1           0           1           1           0
 AtZEff=   0.0000000   0.0000000   0.0000000   0.0000000   0.0000000   0.0000000   0.0000000   0.0000000   0.0000000   0.0000000
 NQMom=    0.0000000   0.0000000   0.0000000   0.0000000   0.0000000   0.0000000   0.0000000   0.0000000   0.0000000   0.0000000
 NMagM=    0.0000000   2.7928460   2.7928460   0.0000000   2.7928460   2.7928460   0.0000000   2.7928460   2.7928460   0.0000000
 AtZNuc=   8.0000000   1.0000000   1.0000000   8.0000000   1.0000000   1.0000000   8.0000000   1.0000000   1.0000000   8.0000000

  Atom        21          22          23          24          25          26          27          28          29          30
 IAtWgt=           1           1          16           1           1          16           1           1          16           1
 AtmWgt=   1.0078250   1.0078250  15.9949146   1.0078250   1.0078250  15.9949146   1.0078250   1.0078250  15.9949146   1.0078250
 NucSpn=           1           1           0           1           1           0           1           1           0           1
 AtZEff=   0.0000000   0.0000000   0.0000000   0.0000000   0.0000000   0.0000000   0.0000000   0.0000000   0.0000000   0.0000000
 NQMom=    0.0000000   0.0000000   0.0000000   0.0000000   0.0000000   0.0000000   0.0000000   0.0000000   0.0000000   0.0000000
 NMagM=    2.7928460   2.7928460   0.0000000   2.7928460   2.7928460   0.0000000   2.7928460   2.7928460   0.0000000   2.7928460
 AtZNuc=   1.0000000   1.0000000   8.0000000   1.0000000   1.0000000   8.0000000   1.0000000   1.0000000   8.0000000   1.0000000

  Atom        31          32          33          34          35          36          37          38          39          40
 IAtWgt=           1          16           1           1          16           1           1          16           1           1
 AtmWgt=   1.0078250  15.9949146   1.0078250   1.0078250  15.9949146   1.0078250   1.0078250  15.9949146   1.0078250   1.0078250
 NucSpn=           1           0           1           1           0           1           1           0           1           1
 AtZEff=   0.0000000   0.0000000   0.0000000   0.0000000   0.0000000   0.0000000   0.0000000   0.0000000   0.0000000   0.0000000
 NQMom=    0.0000000   0.0000000   0.0000000   0.0000000   0.0000000   0.0000000   0.0000000   0.0000000   0.0000000   0.0000000
 NMagM=    2.7928460   0.0000000   2.7928460   2.7928460   0.0000000   2.7928460   2.7928460   0.0000000   2.7928460   2.7928460
 AtZNuc=   1.0000000   8.0000000   1.0000000   1.0000000   8.0000000   1.0000000   1.0000000   8.0000000   1.0000000   1.0000000

  Atom        41          42          43          44          45          46          47          48          49          50
 IAtWgt=          16           1           1          16           1           1          16           1           1          16
 AtmWgt=  15.9949146   1.0078250   1.0078250  15.9949146   1.0078250   1.0078250  15.9949146   1.0078250   1.0078250  15.9949146
 NucSpn=           0           1           1           0           1           1           0           1           1           0
 AtZEff=   0.0000000   0.0000000   0.0000000   0.0000000   0.0000000   0.0000000   0.0000000   0.0000000   0.0000000   0.0000000
 NQMom=    0.0000000   0.0000000   0.0000000   0.0000000   0.0000000   0.0000000   0.0000000   0.0000000   0.0000000   0.0000000
 NMagM=    0.0000000   2.7928460   2.7928460   0.0000000   2.7928460   2.7928460   0.0000000   2.7928460   2.7928460   0.0000000
 AtZNuc=   8.0000000   1.0000000   1.0000000   8.0000000   1.0000000   1.0000000   8.0000000   1.0000000   1.0000000   8.0000000

  Atom        51          52          53          54          55          56          57          58          59          60
 IAtWgt=           1           1          16           1           1          16           1           1          16           1
 AtmWgt=   1.0078250   1.0078250  15.9949146   1.0078250   1.0078250  15.9949146   1.0078250   1.0078250  15.9949146   1.0078250
 NucSpn=           1           1           0           1           1           0           1           1           0           1
 AtZEff=   0.0000000   0.0000000   0.0000000   0.0000000   0.0000000   0.0000000   0.0000000   0.0000000   0.0000000   0.0000000
 NQMom=    0.0000000   0.0000000   0.0000000   0.0000000   0.0000000   0.0000000   0.0000000   0.0000000   0.0000000   0.0000000
 NMagM=    2.7928460   2.7928460   0.0000000   2.7928460   2.7928460   0.0000000   2.7928460   2.7928460   0.0000000   2.7928460
 AtZNuc=   1.0000000   1.0000000   8.0000000   1.0000000   1.0000000   8.0000000   1.0000000   1.0000000   8.0000000   1.0000000

  Atom        61          62          63          64          65          66          67          68          69          70
 IAtWgt=           1          16           1           1          16           1           1          16           1           1
 AtmWgt=   1.0078250  15.9949146   1.0078250   1.0078250  15.9949146   1.0078250   1.0078250  15.9949146   1.0078250   1.0078250
 NucSpn=           1           0           1           1           0           1           1           0           1           1
 AtZEff=   0.0000000   0.0000000   0.0000000   0.0000000   0.0000000   0.0000000   0.0000000   0.0000000   0.0000000   0.0000000
 NQMom=    0.0000000   0.0000000   0.0000000   0.0000000   0.0000000   0.0000000   0.0000000   0.0000000   0.0000000   0.0000000
 NMagM=    2.7928460   0.0000000   2.7928460   2.7928460   0.0000000   2.7928460   2.7928460   0.0000000   2.7928460   2.7928460
 AtZNuc=   1.0000000   8.0000000   1.0000000   1.0000000   8.0000000   1.0000000   1.0000000   8.0000000   1.0000000   1.0000000

  Atom        71          72          73          74          75          76          77          78          79          80
 IAtWgt=          16           1           1          16           1           1          16           1           1          16
 AtmWgt=  15.9949146   1.0078250   1.0078250  15.9949146   1.0078250   1.0078250  15.9949146   1.0078250   1.0078250  15.9949146
 NucSpn=           0           1           1           0           1           1           0           1           1           0
 AtZEff=   0.0000000   0.0000000   0.0000000   0.0000000   0.0000000   0.0000000   0.0000000   0.0000000   0.0000000   0.0000000
 NQMom=    0.0000000   0.0000000   0.0000000   0.0000000   0.0000000   0.0000000   0.0000000   0.0000000   0.0000000   0.0000000
 NMagM=    0.0000000   2.7928460   2.7928460   0.0000000   2.7928460   2.7928460   0.0000000   2.7928460   2.7928460   0.0000000
 AtZNuc=   8.0000000   1.0000000   1.0000000   8.0000000   1.0000000   1.0000000   8.0000000   1.0000000   1.0000000   8.0000000

  Atom        81          82          83          84          85          86          87          88          89          90
 IAtWgt=           1           1          16           1           1          16           1           1          16           1
 AtmWgt=   1.0078250   1.0078250  15.9949146   1.0078250   1.0078250  15.9949146   1.0078250   1.0078250  15.9949146   1.0078250
 NucSpn=           1           1           0           1           1           0           1           1           0           1
 AtZEff=   0.0000000   0.0000000   0.0000000   0.0000000   0.0000000   0.0000000   0.0000000   0.0000000   0.0000000   0.0000000
 NQMom=    0.0000000   0.0000000   0.0000000   0.0000000   0.0000000   0.0000000   0.0000000   0.0000000   0.0000000   0.0000000
 NMagM=    2.7928460   2.7928460   0.0000000   2.7928460   2.7928460   0.0000000   2.7928460   2.7928460   0.0000000   2.7928460
 AtZNuc=   1.0000000   1.0000000   8.0000000   1.0000000   1.0000000   8.0000000   1.0000000   1.0000000   8.0000000   1.0000000

  Atom        91          92          93          94          95          96          97          98          99         100
 IAtWgt=           1          16           1           1          16           1           1          16           1           1
 AtmWgt=   1.0078250  15.9949146   1.0078250   1.0078250  15.9949146   1.0078250   1.0078250  15.9949146   1.0078250   1.0078250
 NucSpn=           1           0           1           1           0           1           1           0           1           1
 AtZEff=   0.0000000   0.0000000   0.0000000   0.0000000   0.0000000   0.0000000   0.0000000   0.0000000   0.0000000   0.0000000
 NQMom=    0.0000000   0.0000000   0.0000000   0.0000000   0.0000000   0.0000000   0.0000000   0.0000000   0.0000000   0.0000000
 NMagM=    2.7928460   0.0000000   2.7928460   2.7928460   0.0000000   2.7928460   2.7928460   0.0000000   2.7928460   2.7928460
 AtZNuc=   1.0000000   8.0000000   1.0000000   1.0000000   8.0000000   1.0000000   1.0000000   8.0000000   1.0000000   1.0000000

  Atom       101         102         103         104         105         106         107         108         109         110
 IAtWgt=          16           1           1          16           1           1          16           1           1          16
 AtmWgt=  15.9949146   1.0078250   1.0078250  15.9949146   1.0078250   1.0078250  15.9949146   1.0078250   1.0078250  15.9949146
 NucSpn=           0           1           1           0           1           1           0           1           1           0
 AtZEff=   0.0000000   0.0000000   0.0000000   0.0000000   0.0000000   0.0000000   0.0000000   0.0000000   0.0000000   0.0000000
 NQMom=    0.0000000   0.0000000   0.0000000   0.0000000   0.0000000   0.0000000   0.0000000   0.0000000   0.0000000   0.0000000
 NMagM=    0.0000000   2.7928460   2.7928460   0.0000000   2.7928460   2.7928460   0.0000000   2.7928460   2.7928460   0.0000000
 AtZNuc=   8.0000000   1.0000000   1.0000000   8.0000000   1.0000000   1.0000000   8.0000000   1.0000000   1.0000000   8.0000000

  Atom       111         112         113         114         115         116         117         118         119         120
 IAtWgt=           1           1          16           1           1          16           1           1          16           1
 AtmWgt=   1.0078250   1.0078250  15.9949146   1.0078250   1.0078250  15.9949146   1.0078250   1.0078250  15.9949146   1.0078250
 NucSpn=           1           1           0           1           1           0           1           1           0           1
 AtZEff=   0.0000000   0.0000000   0.0000000   0.0000000   0.0000000   0.0000000   0.0000000   0.0000000   0.0000000   0.0000000
 NQMom=    0.0000000   0.0000000   0.0000000   0.0000000   0.0000000   0.0000000   0.0000000   0.0000000   0.0000000   0.0000000
 NMagM=    2.7928460   2.7928460   0.0000000   2.7928460   2.7928460   0.0000000   2.7928460   2.7928460   0.0000000   2.7928460
 AtZNuc=   1.0000000   1.0000000   8.0000000   1.0000000   1.0000000   8.0000000   1.0000000   1.0000000   8.0000000   1.0000000

  Atom       121         122         123         124         125         126         127         128         129         130
 IAtWgt=           1          16           1           1          16           1           1          16           1           1
 AtmWgt=   1.0078250  15.9949146   1.0078250   1.0078250  15.9949146   1.0078250   1.0078250  15.9949146   1.0078250   1.0078250
 NucSpn=           1           0           1           1           0           1           1           0           1           1
 AtZEff=   0.0000000   0.0000000   0.0000000   0.0000000   0.0000000   0.0000000   0.0000000   0.0000000   0.0000000   0.0000000
 NQMom=    0.0000000   0.0000000   0.0000000   0.0000000   0.0000000   0.0000000   0.0000000   0.0000000   0.0000000   0.0000000
 NMagM=    2.7928460   0.0000000   2.7928460   2.7928460   0.0000000   2.7928460   2.7928460   0.0000000   2.7928460   2.7928460
 AtZNuc=   1.0000000   8.0000000   1.0000000   1.0000000   8.0000000   1.0000000   1.0000000   8.0000000   1.0000000   1.0000000

  Atom       131         132         133         134         135         136         137         138         139         140
 IAtWgt=          16           1           1          16           1           1          16           1           1          16
 AtmWgt=  15.9949146   1.0078250   1.0078250  15.9949146   1.0078250   1.0078250  15.9949146   1.0078250   1.0078250  15.9949146
 NucSpn=           0           1           1           0           1           1           0           1           1           0
 AtZEff=   0.0000000   0.0000000   0.0000000   0.0000000   0.0000000   0.0000000   0.0000000   0.0000000   0.0000000   0.0000000
 NQMom=    0.0000000   0.0000000   0.0000000   0.0000000   0.0000000   0.0000000   0.0000000   0.0000000   0.0000000   0.0000000
 NMagM=    0.0000000   2.7928460   2.7928460   0.0000000   2.7928460   2.7928460   0.0000000   2.7928460   2.7928460   0.0000000
 AtZNuc=   8.0000000   1.0000000   1.0000000   8.0000000   1.0000000   1.0000000   8.0000000   1.0000000   1.0000000   8.0000000

  Atom       141         142         143         144         145         146         147         148         149         150
 IAtWgt=           1           1          16           1           1          16           1           1          16           1
 AtmWgt=   1.0078250   1.0078250  15.9949146   1.0078250   1.0078250  15.9949146   1.0078250   1.0078250  15.9949146   1.0078250
 NucSpn=           1           1           0           1           1           0           1           1           0           1
 AtZEff=   0.0000000   0.0000000   0.0000000   0.0000000   0.0000000   0.0000000   0.0000000   0.0000000   0.0000000   0.0000000
 NQMom=    0.0000000   0.0000000   0.0000000   0.0000000   0.0000000   0.0000000   0.0000000   0.0000000   0.0000000   0.0000000
 NMagM=    2.7928460   2.7928460   0.0000000   2.7928460   2.7928460   0.0000000   2.7928460   2.7928460   0.0000000   2.7928460
 AtZNuc=   1.0000000   1.0000000   8.0000000   1.0000000   1.0000000   8.0000000   1.0000000   1.0000000   8.0000000   1.0000000

  Atom       151         152         153         154         155         156         157         158         159         160
 IAtWgt=           1          16           1           1          16           1           1          16           1           1
 AtmWgt=   1.0078250  15.9949146   1.0078250   1.0078250  15.9949146   1.0078250   1.0078250  15.9949146   1.0078250   1.0078250
 NucSpn=           1           0           1           1           0           1           1           0           1           1
 AtZEff=   0.0000000   0.0000000   0.0000000   0.0000000   0.0000000   0.0000000   0.0000000   0.0000000   0.0000000   0.0000000
 NQMom=    0.0000000   0.0000000   0.0000000   0.0000000   0.0000000   0.0000000   0.0000000   0.0000000   0.0000000   0.0000000
 NMagM=    2.7928460   0.0000000   2.7928460   2.7928460   0.0000000   2.7928460   2.7928460   0.0000000   2.7928460   2.7928460
 AtZNuc=   1.0000000   8.0000000   1.0000000   1.0000000   8.0000000   1.0000000   1.0000000   8.0000000   1.0000000   1.0000000

  Atom       161         162         163         164         165         166         167         168         169         170
 IAtWgt=          16           1           1          16           1           1          16           1           1          16
 AtmWgt=  15.9949146   1.0078250   1.0078250  15.9949146   1.0078250   1.0078250  15.9949146   1.0078250   1.0078250  15.9949146
 NucSpn=           0           1           1           0           1           1           0           1           1           0
 AtZEff=   0.0000000   0.0000000   0.0000000   0.0000000   0.0000000   0.0000000   0.0000000   0.0000000   0.0000000   0.0000000
 NQMom=    0.0000000   0.0000000   0.0000000   0.0000000   0.0000000   0.0000000   0.0000000   0.0000000   0.0000000   0.0000000
 NMagM=    0.0000000   2.7928460   2.7928460   0.0000000   2.7928460   2.7928460   0.0000000   2.7928460   2.7928460   0.0000000
 AtZNuc=   8.0000000   1.0000000   1.0000000   8.0000000   1.0000000   1.0000000   8.0000000   1.0000000   1.0000000   8.0000000

  Atom       171         172         173         174         175         176         177         178         179         180
 IAtWgt=           1           1          16           1           1          16           1           1          16           1
 AtmWgt=   1.0078250   1.0078250  15.9949146   1.0078250   1.0078250  15.9949146   1.0078250   1.0078250  15.9949146   1.0078250
 NucSpn=           1           1           0           1           1           0           1           1           0           1
 AtZEff=   0.0000000   0.0000000   0.0000000   0.0000000   0.0000000   0.0000000   0.0000000   0.0000000   0.0000000   0.0000000
 NQMom=    0.0000000   0.0000000   0.0000000   0.0000000   0.0000000   0.0000000   0.0000000   0.0000000   0.0000000   0.0000000
 NMagM=    2.7928460   2.7928460   0.0000000   2.7928460   2.7928460   0.0000000   2.7928460   2.7928460   0.0000000   2.7928460
 AtZNuc=   1.0000000   1.0000000   8.0000000   1.0000000   1.0000000   8.0000000   1.0000000   1.0000000   8.0000000   1.0000000

  Atom       181         182         183         184         185         186         187         188         189         190
 IAtWgt=           1          16           1           1          16           1           1          16           1           1
 AtmWgt=   1.0078250  15.9949146   1.0078250   1.0078250  15.9949146   1.0078250   1.0078250  15.9949146   1.0078250   1.0078250
 NucSpn=           1           0           1           1           0           1           1           0           1           1
 AtZEff=   0.0000000   0.0000000   0.0000000   0.0000000   0.0000000   0.0000000   0.0000000   0.0000000   0.0000000   0.0000000
 NQMom=    0.0000000   0.0000000   0.0000000   0.0000000   0.0000000   0.0000000   0.0000000   0.0000000   0.0000000   0.0000000
 NMagM=    2.7928460   0.0000000   2.7928460   2.7928460   0.0000000   2.7928460   2.7928460   0.0000000   2.7928460   2.7928460
 AtZNuc=   1.0000000   8.0000000   1.0000000   1.0000000   8.0000000   1.0000000   1.0000000   8.0000000   1.0000000   1.0000000

  Atom       191         192         193         194         195         196         197         198         199         200
 IAtWgt=          16           1           1          16           1           1          16           1           1          16
 AtmWgt=  15.9949146   1.0078250   1.0078250  15.9949146   1.0078250   1.0078250  15.9949146   1.0078250   1.0078250  15.9949146
 NucSpn=           0           1           1           0           1           1           0           1           1           0
 AtZEff=   0.0000000   0.0000000   0.0000000   0.0000000   0.0000000   0.0000000   0.0000000   0.0000000   0.0000000   0.0000000
 NQMom=    0.0000000   0.0000000   0.0000000   0.0000000   0.0000000   0.0000000   0.0000000   0.0000000   0.0000000   0.0000000
 NMagM=    0.0000000   2.7928460   2.7928460   0.0000000   2.7928460   2.7928460   0.0000000   2.7928460   2.7928460   0.0000000
 AtZNuc=   8.0000000   1.0000000   1.0000000   8.0000000   1.0000000   1.0000000   8.0000000   1.0000000   1.0000000   8.0000000

  Atom       201         202         203         204         205         206         207         208         209         210
 IAtWgt=           1           1          16           1           1          16           1           1          16           1
 AtmWgt=   1.0078250   1.0078250  15.9949146   1.0078250   1.0078250  15.9949146   1.0078250   1.0078250  15.9949146   1.0078250
 NucSpn=           1           1           0           1           1           0           1           1           0           1
 AtZEff=   0.0000000   0.0000000   0.0000000   0.0000000   0.0000000   0.0000000   0.0000000   0.0000000   0.0000000   0.0000000
 NQMom=    0.0000000   0.0000000   0.0000000   0.0000000   0.0000000   0.0000000   0.0000000   0.0000000   0.0000000   0.0000000
 NMagM=    2.7928460   2.7928460   0.0000000   2.7928460   2.7928460   0.0000000   2.7928460   2.7928460   0.0000000   2.7928460
 AtZNuc=   1.0000000   1.0000000   8.0000000   1.0000000   1.0000000   8.0000000   1.0000000   1.0000000   8.0000000   1.0000000

  Atom       211         212         213         214         215         216         217         218         219         220
 IAtWgt=           1          16           1           1          16           1           1          16           1           1
 AtmWgt=   1.0078250  15.9949146   1.0078250   1.0078250  15.9949146   1.0078250   1.0078250  15.9949146   1.0078250   1.0078250
 NucSpn=           1           0           1           1           0           1           1           0           1           1
 AtZEff=   0.0000000   0.0000000   0.0000000   0.0000000   0.0000000   0.0000000   0.0000000   0.0000000   0.0000000   0.0000000
 NQMom=    0.0000000   0.0000000   0.0000000   0.0000000   0.0000000   0.0000000   0.0000000   0.0000000   0.0000000   0.0000000
 NMagM=    2.7928460   0.0000000   2.7928460   2.7928460   0.0000000   2.7928460   2.7928460   0.0000000   2.7928460   2.7928460
 AtZNuc=   1.0000000   8.0000000   1.0000000   1.0000000   8.0000000   1.0000000   1.0000000   8.0000000   1.0000000   1.0000000

  Atom       221         222         223         224         225         226         227         228         229         230
 IAtWgt=          16           1           1          16           1           1          16           1           1          16
 AtmWgt=  15.9949146   1.0078250   1.0078250  15.9949146   1.0078250   1.0078250  15.9949146   1.0078250   1.0078250  15.9949146
 NucSpn=           0           1           1           0           1           1           0           1           1           0
 AtZEff=   0.0000000   0.0000000   0.0000000   0.0000000   0.0000000   0.0000000   0.0000000   0.0000000   0.0000000   0.0000000
 NQMom=    0.0000000   0.0000000   0.0000000   0.0000000   0.0000000   0.0000000   0.0000000   0.0000000   0.0000000   0.0000000
 NMagM=    0.0000000   2.7928460   2.7928460   0.0000000   2.7928460   2.7928460   0.0000000   2.7928460   2.7928460   0.0000000
 AtZNuc=   8.0000000   1.0000000   1.0000000   8.0000000   1.0000000   1.0000000   8.0000000   1.0000000   1.0000000   8.0000000

  Atom       231         232         233         234         235         236         237         238         239         240
 IAtWgt=           1           1          16           1           1          16           1           1          16           1
 AtmWgt=   1.0078250   1.0078250  15.9949146   1.0078250   1.0078250  15.9949146   1.0078250   1.0078250  15.9949146   1.0078250
 NucSpn=           1           1           0           1           1           0           1           1           0           1
 AtZEff=   0.0000000   0.0000000   0.0000000   0.0000000   0.0000000   0.0000000   0.0000000   0.0000000   0.0000000   0.0000000
 NQMom=    0.0000000   0.0000000   0.0000000   0.0000000   0.0000000   0.0000000   0.0000000   0.0000000   0.0000000   0.0000000
 NMagM=    2.7928460   2.7928460   0.0000000   2.7928460   2.7928460   0.0000000   2.7928460   2.7928460   0.0000000   2.7928460
 AtZNuc=   1.0000000   1.0000000   8.0000000   1.0000000   1.0000000   8.0000000   1.0000000   1.0000000   8.0000000   1.0000000

  Atom       241         242         243         244         245         246         247         248         249         250
 IAtWgt=           1          16           1           1          16           1           1          16           1           1
 AtmWgt=   1.0078250  15.9949146   1.0078250   1.0078250  15.9949146   1.0078250   1.0078250  15.9949146   1.0078250   1.0078250
 NucSpn=           1           0           1           1           0           1           1           0           1           1
 AtZEff=   0.0000000   0.0000000   0.0000000   0.0000000   0.0000000   0.0000000   0.0000000   0.0000000   0.0000000   0.0000000
 NQMom=    0.0000000   0.0000000   0.0000000   0.0000000   0.0000000   0.0000000   0.0000000   0.0000000   0.0000000   0.0000000
 NMagM=    2.7928460   0.0000000   2.7928460   2.7928460   0.0000000   2.7928460   2.7928460   0.0000000   2.7928460   2.7928460
 AtZNuc=   1.0000000   8.0000000   1.0000000   1.0000000   8.0000000   1.0000000   1.0000000   8.0000000   1.0000000   1.0000000

  Atom       251         252         253         254         255         256         257         258         259         260
 IAtWgt=          16           1           1          16           1           1          16           1           1          16
 AtmWgt=  15.9949146   1.0078250   1.0078250  15.9949146   1.0078250   1.0078250  15.9949146   1.0078250   1.0078250  15.9949146
 NucSpn=           0           1           1           0           1           1           0           1           1           0
 AtZEff=   0.0000000   0.0000000   0.0000000   0.0000000   0.0000000   0.0000000   0.0000000   0.0000000   0.0000000   0.0000000
 NQMom=    0.0000000   0.0000000   0.0000000   0.0000000   0.0000000   0.0000000   0.0000000   0.0000000   0.0000000   0.0000000
 NMagM=    0.0000000   2.7928460   2.7928460   0.0000000   2.7928460   2.7928460   0.0000000   2.7928460   2.7928460   0.0000000
 AtZNuc=   8.0000000   1.0000000   1.0000000   8.0000000   1.0000000   1.0000000   8.0000000   1.0000000   1.0000000   8.0000000

  Atom       261         262         263         264         265         266         267         268         269         270
 IAtWgt=           1           1          16           1           1          16           1           1          16           1
 AtmWgt=   1.0078250   1.0078250  15.9949146   1.0078250   1.0078250  15.9949146   1.0078250   1.0078250  15.9949146   1.0078250
 NucSpn=           1           1           0           1           1           0           1           1           0           1
 AtZEff=   0.0000000   0.0000000   0.0000000   0.0000000   0.0000000   0.0000000   0.0000000   0.0000000   0.0000000   0.0000000
 NQMom=    0.0000000   0.0000000   0.0000000   0.0000000   0.0000000   0.0000000   0.0000000   0.0000000   0.0000000   0.0000000
 NMagM=    2.7928460   2.7928460   0.0000000   2.7928460   2.7928460   0.0000000   2.7928460   2.7928460   0.0000000   2.7928460
 AtZNuc=   1.0000000   1.0000000   8.0000000   1.0000000   1.0000000   8.0000000   1.0000000   1.0000000   8.0000000   1.0000000

  Atom       271         272         273         274         275         276         277         278         279         280
 IAtWgt=           1          16           1           1          16           1           1          16           1           1
 AtmWgt=   1.0078250  15.9949146   1.0078250   1.0078250  15.9949146   1.0078250   1.0078250  15.9949146   1.0078250   1.0078250
 NucSpn=           1           0           1           1           0           1           1           0           1           1
 AtZEff=   0.0000000   0.0000000   0.0000000   0.0000000   0.0000000   0.0000000   0.0000000   0.0000000   0.0000000   0.0000000
 NQMom=    0.0000000   0.0000000   0.0000000   0.0000000   0.0000000   0.0000000   0.0000000   0.0000000   0.0000000   0.0000000
 NMagM=    2.7928460   0.0000000   2.7928460   2.7928460   0.0000000   2.7928460   2.7928460   0.0000000   2.7928460   2.7928460
 AtZNuc=   1.0000000   8.0000000   1.0000000   1.0000000   8.0000000   1.0000000   1.0000000   8.0000000   1.0000000   1.0000000

  Atom       281         282         283         284         285         286         287         288         289         290
 IAtWgt=          16           1           1          16           1           1          16           1           1          16
 AtmWgt=  15.9949146   1.0078250   1.0078250  15.9949146   1.0078250   1.0078250  15.9949146   1.0078250   1.0078250  15.9949146
 NucSpn=           0           1           1           0           1           1           0           1           1           0
 AtZEff=   0.0000000   0.0000000   0.0000000   0.0000000   0.0000000   0.0000000   0.0000000   0.0000000   0.0000000   0.0000000
 NQMom=    0.0000000   0.0000000   0.0000000   0.0000000   0.0000000   0.0000000   0.0000000   0.0000000   0.0000000   0.0000000
 NMagM=    0.0000000   2.7928460   2.7928460   0.0000000   2.7928460   2.7928460   0.0000000   2.7928460   2.7928460   0.0000000
 AtZNuc=   8.0000000   1.0000000   1.0000000   8.0000000   1.0000000   1.0000000   8.0000000   1.0000000   1.0000000   8.0000000

  Atom       291         292         293         294         295         296         297         298         299         300
 IAtWgt=           1           1          16           1           1          16           1           1          16           1
 AtmWgt=   1.0078250   1.0078250  15.9949146   1.0078250   1.0078250  15.9949146   1.0078250   1.0078250  15.9949146   1.0078250
 NucSpn=           1           1           0           1           1           0           1           1           0           1
 AtZEff=   0.0000000   0.0000000   0.0000000   0.0000000   0.0000000   0.0000000   0.0000000   0.0000000   0.0000000   0.0000000
 NQMom=    0.0000000   0.0000000   0.0000000   0.0000000   0.0000000   0.0000000   0.0000000   0.0000000   0.0000000   0.0000000
 NMagM=    2.7928460   2.7928460   0.0000000   2.7928460   2.7928460   0.0000000   2.7928460   2.7928460   0.0000000   2.7928460
 AtZNuc=   1.0000000   1.0000000   8.0000000   1.0000000   1.0000000   8.0000000   1.0000000   1.0000000   8.0000000   1.0000000

  Atom       301         302         303         304         305         306         307         308         309         310
 IAtWgt=           1          16           1           1          16           1           1          16           1           1
 AtmWgt=   1.0078250  15.9949146   1.0078250   1.0078250  15.9949146   1.0078250   1.0078250  15.9949146   1.0078250   1.0078250
 NucSpn=           1           0           1           1           0           1           1           0           1           1
 AtZEff=   0.0000000   0.0000000   0.0000000   0.0000000   0.0000000   0.0000000   0.0000000   0.0000000   0.0000000   0.0000000
 NQMom=    0.0000000   0.0000000   0.0000000   0.0000000   0.0000000   0.0000000   0.0000000   0.0000000   0.0000000   0.0000000
 NMagM=    2.7928460   0.0000000   2.7928460   2.7928460   0.0000000   2.7928460   2.7928460   0.0000000   2.7928460   2.7928460
 AtZNuc=   1.0000000   8.0000000   1.0000000   1.0000000   8.0000000   1.0000000   1.0000000   8.0000000   1.0000000   1.0000000

  Atom       311         312         313         314         315         316         317         318         319         320
 IAtWgt=          16           1           1          16           1           1          16           1           1          16
 AtmWgt=  15.9949146   1.0078250   1.0078250  15.9949146   1.0078250   1.0078250  15.9949146   1.0078250   1.0078250  15.9949146
 NucSpn=           0           1           1           0           1           1           0           1           1           0
 AtZEff=   0.0000000   0.0000000   0.0000000   0.0000000   0.0000000   0.0000000   0.0000000   0.0000000   0.0000000   0.0000000
 NQMom=    0.0000000   0.0000000   0.0000000   0.0000000   0.0000000   0.0000000   0.0000000   0.0000000   0.0000000   0.0000000
 NMagM=    0.0000000   2.7928460   2.7928460   0.0000000   2.7928460   2.7928460   0.0000000   2.7928460   2.7928460   0.0000000
 AtZNuc=   8.0000000   1.0000000   1.0000000   8.0000000   1.0000000   1.0000000   8.0000000   1.0000000   1.0000000   8.0000000

  Atom       321         322         323         324         325         326         327         328         329         330
 IAtWgt=           1           1          16           1           1          16           1           1          16           1
 AtmWgt=   1.0078250   1.0078250  15.9949146   1.0078250   1.0078250  15.9949146   1.0078250   1.0078250  15.9949146   1.0078250
 NucSpn=           1           1           0           1           1           0           1           1           0           1
 AtZEff=   0.0000000   0.0000000   0.0000000   0.0000000   0.0000000   0.0000000   0.0000000   0.0000000   0.0000000   0.0000000
 NQMom=    0.0000000   0.0000000   0.0000000   0.0000000   0.0000000   0.0000000   0.0000000   0.0000000   0.0000000   0.0000000
 NMagM=    2.7928460   2.7928460   0.0000000   2.7928460   2.7928460   0.0000000   2.7928460   2.7928460   0.0000000   2.7928460
 AtZNuc=   1.0000000   1.0000000   8.0000000   1.0000000   1.0000000   8.0000000   1.0000000   1.0000000   8.0000000   1.0000000

  Atom       331         332         333         334         335         336         337         338         339         340
 IAtWgt=           1          16           1           1          16           1           1          16           1           1
 AtmWgt=   1.0078250  15.9949146   1.0078250   1.0078250  15.9949146   1.0078250   1.0078250  15.9949146   1.0078250   1.0078250
 NucSpn=           1           0           1           1           0           1           1           0           1           1
 AtZEff=   0.0000000   0.0000000   0.0000000   0.0000000   0.0000000   0.0000000   0.0000000   0.0000000   0.0000000   0.0000000
 NQMom=    0.0000000   0.0000000   0.0000000   0.0000000   0.0000000   0.0000000   0.0000000   0.0000000   0.0000000   0.0000000
 NMagM=    2.7928460   0.0000000   2.7928460   2.7928460   0.0000000   2.7928460   2.7928460   0.0000000   2.7928460   2.7928460
 AtZNuc=   1.0000000   8.0000000   1.0000000   1.0000000   8.0000000   1.0000000   1.0000000   8.0000000   1.0000000   1.0000000

  Atom       341         342         343         344         345         346         347         348         349         350
 IAtWgt=          16           1           1          16           1           1          16           1           1          16
 AtmWgt=  15.9949146   1.0078250   1.0078250  15.9949146   1.0078250   1.0078250  15.9949146   1.0078250   1.0078250  15.9949146
 NucSpn=           0           1           1           0           1           1           0           1           1           0
 AtZEff=   0.0000000   0.0000000   0.0000000   0.0000000   0.0000000   0.0000000   0.0000000   0.0000000   0.0000000   0.0000000
 NQMom=    0.0000000   0.0000000   0.0000000   0.0000000   0.0000000   0.0000000   0.0000000   0.0000000   0.0000000   0.0000000
 NMagM=    0.0000000   2.7928460   2.7928460   0.0000000   2.7928460   2.7928460   0.0000000   2.7928460   2.7928460   0.0000000
 AtZNuc=   8.0000000   1.0000000   1.0000000   8.0000000   1.0000000   1.0000000   8.0000000   1.0000000   1.0000000   8.0000000

  Atom       351         352         353         354         355         356         357         358         359         360
 IAtWgt=           1           1          16           1           1          16           1           1          16           1
 AtmWgt=   1.0078250   1.0078250  15.9949146   1.0078250   1.0078250  15.9949146   1.0078250   1.0078250  15.9949146   1.0078250
 NucSpn=           1           1           0           1           1           0           1           1           0           1
 AtZEff=   0.0000000   0.0000000   0.0000000   0.0000000   0.0000000   0.0000000   0.0000000   0.0000000   0.0000000   0.0000000
 NQMom=    0.0000000   0.0000000   0.0000000   0.0000000   0.0000000   0.0000000   0.0000000   0.0000000   0.0000000   0.0000000
 NMagM=    2.7928460   2.7928460   0.0000000   2.7928460   2.7928460   0.0000000   2.7928460   2.7928460   0.0000000   2.7928460
 AtZNuc=   1.0000000   1.0000000   8.0000000   1.0000000   1.0000000   8.0000000   1.0000000   1.0000000   8.0000000   1.0000000

  Atom       361         362         363         364         365         366         367         368         369         370
 IAtWgt=           1          16           1           1          16           1           1          16           1           1
 AtmWgt=   1.0078250  15.9949146   1.0078250   1.0078250  15.9949146   1.0078250   1.0078250  15.9949146   1.0078250   1.0078250
 NucSpn=           1           0           1           1           0           1           1           0           1           1
 AtZEff=   0.0000000   0.0000000   0.0000000   0.0000000   0.0000000   0.0000000   0.0000000   0.0000000   0.0000000   0.0000000
 NQMom=    0.0000000   0.0000000   0.0000000   0.0000000   0.0000000   0.0000000   0.0000000   0.0000000   0.0000000   0.0000000
 NMagM=    2.7928460   0.0000000   2.7928460   2.7928460   0.0000000   2.7928460   2.7928460   0.0000000   2.7928460   2.7928460
 AtZNuc=   1.0000000   8.0000000   1.0000000   1.0000000   8.0000000   1.0000000   1.0000000   8.0000000   1.0000000   1.0000000

  Atom       371         372         373         374         375         376         377         378         379         380
 IAtWgt=          16           1           1          16           1           1          16           1           1          16
 AtmWgt=  15.9949146   1.0078250   1.0078250  15.9949146   1.0078250   1.0078250  15.9949146   1.0078250   1.0078250  15.9949146
 NucSpn=           0           1           1           0           1           1           0           1           1           0
 AtZEff=   0.0000000   0.0000000   0.0000000   0.0000000   0.0000000   0.0000000   0.0000000   0.0000000   0.0000000   0.0000000
 NQMom=    0.0000000   0.0000000   0.0000000   0.0000000   0.0000000   0.0000000   0.0000000   0.0000000   0.0000000   0.0000000
 NMagM=    0.0000000   2.7928460   2.7928460   0.0000000   2.7928460   2.7928460   0.0000000   2.7928460   2.7928460   0.0000000
 AtZNuc=   8.0000000   1.0000000   1.0000000   8.0000000   1.0000000   1.0000000   8.0000000   1.0000000   1.0000000   8.0000000

  Atom       381         382         383         384         385
 IAtWgt=           1           1          16           1           1
 AtmWgt=   1.0078250   1.0078250  15.9949146   1.0078250   1.0078250
 NucSpn=           1           1           0           1           1
 AtZEff=   0.0000000   0.0000000   0.0000000   0.0000000   0.0000000
 NQMom=    0.0000000   0.0000000   0.0000000   0.0000000   0.0000000
 NMagM=    2.7928460   2.7928460   0.0000000   2.7928460   2.7928460
 AtZNuc=   1.0000000   1.0000000   8.0000000   1.0000000   1.0000000
 Leave Link  101 at Sun May  6 15:41:28 2018, MaxMem= 14763950080 cpu:        31.9
 (Enter /cm/shared/gaussian/g09.e01/intel64-sandybridge/g09/l103.exe)

 GradGradGradGradGradGradGradGradGradGradGradGradGradGradGradGradGradGrad
 Berny optimization.
 Initialization pass.
 Trust Radius=3.00D-01 FncErr=1.00D-07 GrdErr=1.00D-07
 Number of steps in this run=      2 maximum allowed number of steps=      2.
 GradGradGradGradGradGradGradGradGradGradGradGradGradGradGradGradGradGrad

 Leave Link  103 at Sun May  6 15:41:28 2018, MaxMem= 14763950080 cpu:         3.7
 (Enter /cm/shared/gaussian/g09.e01/intel64-sandybridge/g09/l202.exe)
 Symmetry turned off by external request.
 Stoichiometry    BrH256O128(1-)
 Framework group  C1[X(BrH256O128)]
 Deg. of freedom  1149
 Full point group                 C1      NOp   1
                          Input orientation:                          
 ---------------------------------------------------------------------
 Center     Atomic      Atomic             Coordinates (Angstroms)
 Number     Number       Type             X           Y           Z
 ---------------------------------------------------------------------
      1         35           0       20.000000   20.000000   20.000000
      2          8           0       17.220000   19.860000   18.380000
      3          1           0       17.460000   19.170000   17.760000
      4          1           0       17.900000   19.830000   19.050000
      5          8           0       19.940000   23.390000   20.040000
      6          1           0       20.840000   23.710000   20.040000
      7          1           0       20.020000   22.440000   20.020000
      8          8           0       16.870000   20.810000   21.110000
      9          1           0       16.890000   21.770000   21.030000
     10          1           0       17.780000   20.540000   21.000000
     11          8           0       22.700000   20.520000   22.030000
     12          1           0       23.030000   19.620000   21.930000
     13          1           0       21.830000   20.510000   21.630000
     14          8           0       18.320000   17.010000   19.920000
     15          1           0       18.270000   16.990000   20.880000
     16          1           0       19.020000   17.630000   19.730000
     17          8           0       22.150000   17.550000   21.770000
     18          1           0       21.820000   17.410000   22.660000
     19          1           0       21.480000   18.090000   21.350000
     20          8           0       21.650000   19.660000   16.440000
     21          1           0       20.840000   19.870000   15.970000
     22          1           0       21.420000   19.780000   17.370000
     23          8           0       23.890000   18.730000   18.810000
     24          1           0       24.100000   19.120000   19.650000
     25          1           0       23.550000   19.450000   18.280000
     26          8           0       20.760000   23.820000   16.650000
     27          1           0       20.850000   23.100000   16.030000
     28          1           0       20.610000   23.400000   17.500000
     29          8           0       22.060000   23.090000   23.230000
     30          1           0       22.790000   23.700000   23.100000
     31          1           0       22.430000   22.230000   23.030000
     32          8           0       16.320000   21.730000   16.530000
     33          1           0       16.820000   21.070000   17.010000
     34          1           0       16.960000   22.370000   16.240000
     35          8           0       14.580000   19.540000   19.530000
     36          1           0       14.320000   20.340000   19.990000
     37          1           0       15.530000   19.540000   19.560000
     38          8           0       19.390000   16.000000   22.670000
     39          1           0       19.050000   15.130000   22.890000
     40          1           0       19.930000   15.850000   21.890000
     41          8           0       15.490000   19.030000   22.780000
     42          1           0       16.130000   18.480000   23.230000
     43          1           0       16.010000   19.560000   22.180000
     44          8           0       22.850000   16.230000   19.250000
     45          1           0       23.390000   16.950000   18.920000
     46          1           0       22.810000   16.380000   20.200000
     47          8           0       24.330000   22.540000   20.630000
     48          1           0       24.060000   22.280000   19.750000
     49          1           0       24.090000   21.800000   21.180000
     50          8           0       17.620000   17.750000   16.390000
     51          1           0       18.440000   17.280000   16.520000
     52          1           0       17.550000   17.860000   15.440000
     53          8           0       19.070000   25.050000   22.020000
     54          1           0       18.220000   25.490000   22.070000
     55          1           0       18.980000   24.440000   21.290000
     56          8           0       19.930000   20.490000   25.310000
     57          1           0       20.700000   19.970000   25.070000
     58          1           0       19.830000   21.120000   24.600000
     59          8           0       20.390000   14.930000   20.270000
     60          1           0       19.630000   15.260000   19.800000
     61          1           0       21.130000   15.080000   19.680000
     62          8           0       19.430000   23.180000   23.940000
     63          1           0       20.360000   23.090000   23.710000
     64          1           0       19.020000   23.490000   23.140000
     65          8           0       24.310000   19.740000   16.020000
     66          1           0       23.410000   19.980000   16.260000
     67          1           0       24.200000   19.090000   15.320000
     68          8           0       19.720000   20.840000   14.910000
     69          1           0       18.780000   20.800000   15.070000
     70          1           0       19.830000   21.540000   14.270000
     71          8           0       22.860000   16.830000   16.250000
     72          1           0       21.910000   16.910000   16.330000
     73          1           0       23.200000   17.270000   17.030000
     74          8           0       17.640000   14.510000   19.100000
     75          1           0       17.210000   14.360000   18.260000
     76          1           0       17.720000   15.460000   19.160000
     77          8           0       22.160000   24.690000   20.580000
     78          1           0       23.110000   24.710000   20.440000
     79          1           0       21.880000   25.600000   20.440000
     80          8           0       16.470000   23.750000   21.510000
     81          1           0       16.670000   24.010000   20.620000
     82          1           0       16.440000   24.570000   22.010000
     83          8           0       20.910000   16.970000   24.700000
     84          1           0       20.240000   16.620000   24.130000
     85          1           0       20.560000   16.880000   25.580000
     86          8           0       24.660000   21.930000   17.910000
     87          1           0       25.270000   22.640000   17.710000
     88          1           0       24.870000   21.250000   17.280000
     89          8           0       25.400000   19.290000   21.330000
     90          1           0       25.120000   19.850000   22.050000
     91          1           0       25.800000   18.530000   21.750000
     92          8           0       19.620000   16.000000   16.160000
     93          1           0       18.840000   15.530000   15.840000
     94          1           0       20.140000   15.330000   16.600000
     95          8           0       14.180000   22.280000   20.360000
     96          1           0       14.640000   23.120000   20.370000
     97          1           0       14.760000   21.680000   20.810000
     98          8           0       14.840000   17.940000   15.820000
     99          1           0       15.700000   18.050000   16.240000
    100          1           0       14.580000   18.820000   15.560000
    101          8           0       22.900000   25.650000   17.610000
    102          1           0       22.550000   26.530000   17.690000
    103          1           0       22.140000   25.100000   17.430000
    104          8           0       21.390000   13.770000   22.340000
    105          1           0       22.330000   13.830000   22.180000
    106          1           0       20.990000   14.150000   21.550000
    107          8           0       18.130000   23.560000   15.140000
    108          1           0       17.900000   24.050000   14.350000
    109          1           0       18.850000   24.060000   15.520000
    110          8           0       24.600000   24.430000   22.620000
    111          1           0       24.460000   23.820000   21.900000
    112          1           0       24.590000   25.290000   22.200000
    113          8           0       18.450000   18.470000   26.550000
    114          1           0       18.350000   18.880000   27.410000
    115          1           0       19.120000   18.980000   26.110000
    116          8           0       21.150000   25.950000   23.420000
    117          1           0       21.820000   25.280000   23.450000
    118          1           0       20.460000   25.580000   22.870000
    119          8           0       25.320000   20.920000   23.410000
    120          1           0       25.730000   21.740000   23.680000
    121          1           0       24.800000   20.650000   24.170000
    122          8           0       21.510000   19.310000   12.920000
    123          1           0       20.950000   19.300000   12.150000
    124          1           0       20.900000   19.430000   13.650000
    125          8           0       17.360000   22.270000   26.550000
    126          1           0       16.840000   23.070000   26.400000
    127          1           0       17.720000   22.060000   25.690000
    128          8           0       24.210000   17.030000   24.550000
    129          1           0       23.510000   16.440000   24.800000
    130          1           0       23.880000   17.910000   24.750000
    131          8           0       16.650000   14.120000   21.670000
    132          1           0       16.870000   13.190000   21.780000
    133          1           0       16.900000   14.320000   20.770000
    134          8           0       14.290000   20.550000   15.060000
    135          1           0       14.980000   20.880000   15.640000
    136          1           0       14.230000   21.210000   14.370000
    137          8           0       27.010000   23.050000   20.210000
    138          1           0       26.300000   22.490000   20.540000
    139          1           0       26.560000   23.840000   19.900000
    140          8           0       21.400000   15.330000   13.970000
    141          1           0       21.150000   16.010000   14.590000
    142          1           0       20.580000   15.070000   13.550000
    143          8           0       17.500000   18.840000   13.760000
    144          1           0       17.170000   19.600000   13.280000
    145          1           0       18.160000   18.460000   13.190000
    146          8           0       18.070000   26.730000   19.010000
    147          1           0       17.620000   27.550000   18.810000
    148          1           0       18.450000   26.450000   18.170000
    149          8           0       24.040000   19.730000   25.580000
    150          1           0       24.820000   19.840000   26.130000
    151          1           0       23.310000   19.990000   26.140000
    152          8           0       13.600000   16.010000   20.820000
    153          1           0       13.880000   15.810000   21.720000
    154          1           0       13.850000   16.920000   20.690000
    155          8           0       21.220000   23.460000   26.510000
    156          1           0       20.380000   23.330000   26.070000
    157          1           0       20.980000   23.770000   27.390000
    158          8           0       20.750000   22.730000   13.080000
    159          1           0       21.170000   23.240000   12.390000
    160          1           0       21.480000   22.410000   13.620000
    161          8           0       20.420000   13.470000   17.470000
    162          1           0       20.610000   13.000000   18.280000
    163          1           0       19.550000   13.170000   17.210000
    164          8           0       12.640000   18.870000   22.080000
    165          1           0       12.300000   19.760000   22.140000
    166          1           0       13.500000   18.910000   22.490000
    167          8           0       19.070000   12.280000   20.270000
    168          1           0       18.780000   13.050000   19.780000
    169          1           0       18.280000   11.730000   20.340000
    170          8           0       12.450000   20.230000   17.520000
    171          1           0       13.140000   19.970000   18.130000
    172          1           0       12.870000   20.200000   16.660000
    173          8           0       23.940000   13.290000   19.670000
    174          1           0       23.020000   13.490000   19.830000
    175          1           0       24.110000   13.610000   18.790000
    176          8           0       25.480000   25.090000   18.750000
    177          1           0       24.610000   25.290000   18.400000
    178          1           0       25.910000   24.590000   18.070000
    179          8           0       23.290000   21.810000   13.700000
    180          1           0       24.020000   21.890000   14.310000
    181          1           0       23.370000   20.930000   13.340000
    182          8           0       21.170000   27.160000   19.810000
    183          1           0       20.230000   27.240000   19.950000
    184          1           0       21.380000   27.830000   19.170000
    185          8           0       18.220000   14.260000   24.380000
    186          1           0       18.040000   15.030000   24.930000
    187          1           0       19.090000   13.980000   24.640000
    188          8           0       22.180000   20.790000   27.580000
    189          1           0       21.650000   21.370000   27.040000
    190          1           0       21.570000   20.430000   28.230000
    191          8           0       17.520000   15.520000   14.270000
    192          1           0       16.810000   14.900000   14.080000
    193          1           0       17.110000   16.380000   14.210000
    194          8           0       26.950000   17.160000   21.220000
    195          1           0       26.940000   17.400000   20.290000
    196          1           0       27.310000   16.280000   21.240000
    197          8           0       16.220000   20.070000   27.360000
    198          1           0       16.480000   20.980000   27.250000
    199          1           0       16.500000   19.640000   26.550000
    200          8           0       22.890000   13.530000   16.240000
    201          1           0       22.000000   13.730000   16.520000
    202          1           0       23.140000   14.280000   15.700000
    203          8           0       25.910000   16.870000   15.520000
    204          1           0       26.060000   16.020000   15.110000
    205          1           0       25.020000   17.100000   15.250000
    206          8           0       14.540000   15.180000   23.270000
    207          1           0       14.700000   15.410000   24.190000
[...]
   Z335      25.36012   0.00420   0.00000  -0.00160  -0.00093  25.35919
   X336      32.20093   0.00319   0.00000   0.00812   0.00762  32.20855
   Y336      50.00215   0.01760   0.00000   0.01456   0.01522  50.01738
   Z336      25.54910   0.00020   0.00000  -0.00130  -0.00052  25.54858
   X337      33.20249   0.00276   0.00000   0.00080   0.00033  33.20282
   Y337      48.01794   0.00013   0.00000   0.00020   0.00100  48.01894
   Z337      23.75386  -0.01304   0.00000  -0.01534  -0.01469  23.73917
   X338      27.89236  -0.01381   0.00000  -0.00866  -0.00828  27.88407
   Y338      28.79943  -0.00885   0.00000  -0.00071  -0.00156  28.79787
   Z338      49.34075  -0.01332   0.00000  -0.00951  -0.00992  49.33083
   X339      29.30965   0.02080   0.00000   0.01697   0.01734  29.32699
   Y339      29.55532   0.00672   0.00000   0.00126   0.00040  29.55571
   Z339      50.15333   0.00763   0.00000   0.00184   0.00146  50.15479
   X340      26.45617  -0.00531   0.00000  -0.00622  -0.00585  26.45031
   Y340      29.66870   0.00368   0.00000   0.00489   0.00397  29.67267
   Z340      50.02105   0.00187   0.00000   0.00168   0.00133  50.02239
   X341      45.50461  -0.00272   0.00000  -0.00110  -0.00106  45.50354
   Y341      44.33298  -0.00472   0.00000  -0.00207  -0.00272  44.33025
   Z341      53.74381   0.01543   0.00000   0.00905   0.00931  53.75312
   X342      45.22115  -0.00458   0.00000  -0.00657  -0.00654  45.21460
   Y342      43.70937  -0.00455   0.00000  -0.00335  -0.00391  43.70545
   Z342      52.08085  -0.01238   0.00000  -0.00691  -0.00668  52.07417
   X343      46.39278   0.00435   0.00000   0.00205   0.00204  46.39482
   Y343      45.88255   0.00947   0.00000   0.00758   0.00697  45.88952
   Z343      53.49815  -0.00423   0.00000  -0.00507  -0.00473  53.49342
   X344      34.07176  -0.00866   0.00000  -0.00829  -0.00777  34.06400
   Y344      21.42949  -0.01470   0.00000  -0.00740  -0.00789  21.42160
   Z344      46.07152   0.00167   0.00000   0.00035  -0.00058  46.07094
   X345      35.82921   0.00629   0.00000   0.00113   0.00166  35.83087
   Y345      21.18383  -0.00173   0.00000  -0.00281  -0.00324  21.18059
   Z345      45.71248  -0.00540   0.00000  -0.00730  -0.00826  45.70421
   X346      33.82610  -0.00163   0.00000  -0.00188  -0.00141  33.82469
   Y346      23.20584   0.01705   0.00000   0.01277   0.01228  23.21812
   Z346      45.90145   0.00196   0.00000   0.00638   0.00556  45.90700
   X347      48.83052   0.00904   0.00000   0.00114   0.00080  48.83133
   Y347      44.16290   0.00096   0.00000   0.00109   0.00215  44.16505
   Z347      26.28609   0.01765   0.00000   0.01140   0.01160  26.29769
   X348      48.69824   0.00339   0.00000   0.00806   0.00776  48.70600
   Y348      42.59443  -0.01484   0.00000  -0.01397  -0.01287  42.58156
   Z348      25.37902  -0.00285   0.00000   0.00337   0.00349  25.38251
   X349      47.77228  -0.01376   0.00000  -0.01065  -0.01103  47.76125
   Y349      45.29674   0.01422   0.00000   0.01035   0.01142  45.30816
   Z349      25.39792  -0.01137   0.00000  -0.00880  -0.00851  25.38941
   X350      53.93278   0.00601   0.00000   0.00271   0.00273  53.93552
   Y350      40.76139   0.00222   0.00000  -0.00477  -0.00476  40.75664
   Z350      46.14711   0.02244   0.00000   0.02284   0.02278  46.16989
   X351      52.42100  -0.00048   0.00000   0.00612   0.00611  52.42712
   Y351      41.72515   0.00544   0.00000   0.00746   0.00745  41.73260
   Z351      45.88255  -0.00341   0.00000  -0.00310  -0.00309  45.87946
   X352      53.98948  -0.00065   0.00000   0.00036   0.00040  53.98987
   Y352      39.60866  -0.00626   0.00000  -0.00017  -0.00007  39.60859
   Z352      44.74871  -0.01178   0.00000  -0.00577  -0.00591  44.74281
   X353      38.32365   0.00142   0.00000  -0.00108  -0.00058  38.32307
   Y353      20.10669  -0.02167   0.00000  -0.01419  -0.01436  20.09233
   Z353      42.38656   0.01478   0.00000   0.01563   0.01457  42.40112
   X354      37.60555  -0.00341   0.00000   0.00101   0.00148  37.60703
   Y354      20.90037   0.01315   0.00000   0.01070   0.01060  20.91097
   Z354      40.95037  -0.00866   0.00000   0.00177   0.00076  40.95112
   X355      39.17402   0.00638   0.00000   0.00691   0.00739  39.18142
   Y355      21.42949   0.01205   0.00000   0.01058   0.01039  21.43988
   Z355      43.27473  -0.00081   0.00000  -0.00425  -0.00525  43.26948
   X356      27.04198   0.00514   0.00000   0.01007   0.01027  27.05225
   Y356      25.68138   0.01358   0.00000   0.01028   0.01050  25.69188
   Z356      30.78364  -0.01574   0.00000  -0.00706  -0.00764  30.77599
   X357      26.68293  -0.00184   0.00000   0.00023   0.00046  26.68339
   Y357      25.62469   0.00044   0.00000   0.00345   0.00356  25.62825
   Z357      32.55998   0.01855   0.00000   0.01294   0.01236  32.57234
   X358      27.70339   0.00021   0.00000  -0.00426  -0.00402  27.69936
   Y358      24.05621  -0.01259   0.00000  -0.01166  -0.01140  24.04482
   Z358      30.38680   0.00180   0.00000   0.00466   0.00397  30.39077
   X359      44.27628   0.00169   0.00000  -0.00240  -0.00200  44.27428
   Y359      30.25452  -0.00598   0.00000  -0.00414  -0.00481  30.24970
   Z359      53.55484   0.00393   0.00000   0.00630   0.00575  53.56059
   X360      45.52350   0.00116   0.00000   0.00107   0.00144  45.52494
   Y360      31.53953  -0.00038   0.00000  -0.00201  -0.00267  31.53686
   Z360      53.89499  -0.00268   0.00000  -0.00493  -0.00543  53.88956
   X361      42.82119  -0.00410   0.00000  -0.00213  -0.00177  42.81943
   Y361      31.18048   0.00303   0.00000   0.00178   0.00110  31.18159
   Z361      52.98792  -0.00564   0.00000  -0.00802  -0.00850  52.97942
   X362      50.68245   0.00359   0.00000   0.00401   0.00378  50.68624
   Y362      49.45413   0.00254   0.00000   0.00894   0.00897  49.46311
   Z362      44.37077   0.01549   0.00000   0.01168   0.01218  44.38295
   X363      48.98170  -0.00725   0.00000  -0.00396  -0.00420  48.97750
   Y363      49.77539   0.00248   0.00000   0.00250   0.00252  49.77791
   Z363      43.86054  -0.00273   0.00000  -0.00104  -0.00051  43.86003
   X364      51.66511   0.00456   0.00000   0.00239   0.00214  51.66725
   Y364      49.68090  -0.00201   0.00000  -0.00598  -0.00583  49.67507
   Z364      42.87789  -0.01030   0.00000  -0.00736  -0.00687  42.87102
   X365      56.16266   0.01121   0.00000   0.01576   0.01580  56.17846
   Y365      36.01818  -0.00367   0.00000  -0.01522  -0.01467  36.00351
   Z365      38.07798  -0.01104   0.00000  -0.01464  -0.01501  38.06297
   X366      56.42722  -0.00026   0.00000  -0.00174  -0.00174  56.42548
   Y366      36.62289   0.00718   0.00000   0.01231   0.01297  36.63586
   Z366      36.37723  -0.00026   0.00000  -0.00421  -0.00455  36.37268
   X367      54.99103  -0.00893   0.00000  -0.01028  -0.01021  54.98082
   Y367      34.65758  -0.00872   0.00000  -0.00864  -0.00811  34.64947
   Z367      37.87011   0.00340   0.00000   0.00516   0.00473  37.87484
   X368      46.65734  -0.01601   0.00000  -0.00575  -0.00621  46.65113
   Y368      49.51082   0.00291   0.00000  -0.00154  -0.00064  49.51018
   Z368      28.00574  -0.01172   0.00000  -0.01177  -0.01122  27.99452
   X369      48.05574   0.01668   0.00000   0.01202   0.01160  48.06733
   Y369      48.58486  -0.00383   0.00000   0.00158   0.00247  48.58733
   Z369      28.62935   0.01233   0.00000   0.01396   0.01443  28.64378
   X370      47.07308   0.00542   0.00000   0.00662   0.00613  47.07921
   Y370      51.24937   0.00117   0.00000  -0.00223  -0.00134  51.24803
   Z370      28.32699   0.00300   0.00000   0.00310   0.00375  28.33074
   X371      37.24650  -0.00970   0.00000  -0.00646  -0.00703  37.23947
   Y371      54.82096   0.00060   0.00000  -0.00112  -0.00054  54.82042
   Z371      29.06399  -0.00370   0.00000  -0.00442  -0.00343  29.06056
   X372      37.94570   0.00563   0.00000   0.00680   0.00627  37.95197
   Y372      53.21469  -0.00264   0.00000  -0.00077  -0.00019  53.21450
   Z372      29.53642   0.00141   0.00000  -0.00002   0.00087  29.53729
   X373      38.56931   0.00529   0.00000   0.00372   0.00312  38.57243
   Y373      56.01148   0.00005   0.00000  -0.00362  -0.00302  56.00847
   Z373      29.40414   0.00268   0.00000   0.00238   0.00342  29.40756
   X374      43.53929  -0.00314   0.00000  -0.00041   0.00004  43.53933
   Y374      26.41837  -0.00669   0.00000  -0.00540  -0.00587  26.41250
   Z374      49.83208  -0.01071   0.00000  -0.00153  -0.00230  49.82978
   X375      42.99127   0.00125   0.00000   0.00409   0.00459  42.99586
   Y375      24.90659  -0.00811   0.00000  -0.00964  -0.01018  24.89641
   Z375      50.66356   0.00449   0.00000   0.00654   0.00570  50.66925
   X376      44.25739   0.00569   0.00000   0.00215   0.00259  44.25997
   Y376      27.41993   0.01541   0.00000   0.01759   0.01706  27.43698
   Z376      51.15489   0.01101   0.00000   0.00637   0.00566  51.16054
   X377      36.37723  -0.00624   0.00000  -0.00413  -0.00429  36.37294
   Y377      34.39302   0.01534   0.00000   0.00597   0.00704  34.40006
   Z377      20.52243   0.00574   0.00000   0.01247   0.01228  20.53470
   X378      37.24650   0.00851   0.00000   0.00650   0.00638  37.25288
   Y378      32.86234  -0.01689   0.00000  -0.01355  -0.01248  32.84986
   Z378      20.88147   0.00328   0.00000   0.00283   0.00253  20.88401
   X379      35.05442   0.00013   0.00000   0.00268   0.00251  35.05693
   Y379      33.90169   0.00081   0.00000   0.00301   0.00411  33.90580
   Z379      19.36969  -0.00119   0.00000   0.00020  -0.00001  19.36968
   X380      55.48236   0.01474   0.00000   0.00711   0.00688  55.48924
   Y380      45.03217   0.02467   0.00000   0.02985   0.03052  45.06269
   Z380      35.79141  -0.00786   0.00000  -0.01487  -0.01470  35.77671
   X381      55.33118  -0.00342   0.00000  -0.00118  -0.00139  55.32979
   Y381      43.67157  -0.00918   0.00000  -0.00678  -0.00605  43.66552
   Z381      34.60089   0.00109   0.00000   0.00887   0.00896  34.60984
   X382      53.97058  -0.00580   0.00000   0.00517   0.00496  53.97554
   Y382      44.93769  -0.01038   0.00000  -0.01541  -0.01484  44.92284
   Z382      36.77407   0.00793   0.00000   0.00786   0.00804  36.78211
   X383      50.60687   0.00004   0.00000  -0.00663  -0.00706  50.59980
   Y383      51.21158   0.02509   0.00000   0.01599   0.01672  51.22830
   Z383      32.71116  -0.01863   0.00000  -0.01850  -0.01791  32.69325
   X384      50.22892  -0.00732   0.00000  -0.00662  -0.00700  50.22192
   Y384      49.69980  -0.01689   0.00000  -0.00266  -0.00200  49.69780
   Z384      33.59933   0.01618   0.00000   0.01374   0.01425  33.61358
   X385      51.40055   0.00552   0.00000   0.01123   0.01079  51.41134
   Y385      50.64466  -0.00254   0.00000  -0.00483  -0.00400  50.64066
   Z385      31.18048   0.00055   0.00000  -0.00038   0.00017  31.18065
         Item               Value     Threshold  Converged?
 Maximum Force            0.031513     0.000450     NO 
 RMS     Force            0.010172     0.000300     NO 
 Maximum Displacement     0.033183     0.001800     NO 
 RMS     Displacement     0.008832     0.001200     NO 
 Predicted change in Energy=-7.006997D-02
 GradGradGradGradGradGradGradGradGradGradGradGradGradGradGradGradGradGrad

 Leave Link  103 at Sun May  6 18:07:01 2018, MaxMem= 14763950080 cpu:      2624.0
 (Enter /cm/shared/gaussian/g09.e01/intel64-sandybridge/g09/l9999.exe)
 1\1\GINC-POPLE04\Force\RPBE1PBE\CC-pVDZ\Br1H256O128(1-)\M.PELUSO\06-Ma
 y-2018\0\\#p PBE1PBE/cc-pvDZ force Counterpoise=2 noSymm\\forces on ch
 loride comput - NWATER: 128\\-1,1\Br,20.,20.,20.\O,17.22,19.86,18.38\H
 ,17.46,19.17,17.76\H,17.9,19.83,19.05\O,19.94,23.39,20.04\H,20.84,23.7
 1,20.04\H,20.02,22.44,20.02\O,16.87,20.81,21.11\H,16.89,21.77,21.03\H,
 17.78,20.54,21.\O,22.7,20.52,22.03\H,23.03,19.62,21.93\H,21.83,20.51,2
 1.63\O,18.32,17.01,19.92\H,18.27,16.99,20.88\H,19.02,17.63,19.73\O,22.
 15,17.55,21.77\H,21.82,17.41,22.66\H,21.48,18.09,21.35\O,21.65,19.66,1
 6.44\H,20.84,19.87,15.97\H,21.42,19.78,17.37\O,23.89,18.73,18.81\H,24.
 1,19.12,19.65\H,23.55,19.45,18.28\O,20.76,23.82,16.65\H,20.85,23.1,16.
 03\H,20.61,23.4,17.5\O,22.06,23.09,23.23\H,22.79,23.7,23.1\H,22.43,22.
 23,23.03\O,16.32,21.73,16.53\H,16.82,21.07,17.01\H,16.96,22.37,16.24\O
 ,14.58,19.54,19.53\H,14.32,20.34,19.99\H,15.53,19.54,19.56\O,19.39,16.
 ,22.67\H,19.05,15.13,22.89\H,19.93,15.85,21.89\O,15.49,19.03,22.78\H,1
 6.13,18.48,23.23\H,16.01,19.56,22.18\O,22.85,16.23,19.25\H,23.39,16.95
 ,18.92\H,22.81,16.38,20.2\O,24.33,22.54,20.63\H,24.06,22.28,19.75\H,24
 .09,21.8,21.18\O,17.62,17.75,16.39\H,18.44,17.28,16.52\H,17.55,17.86,1
 5.44\O,19.07,25.05,22.02\H,18.22,25.49,22.07\H,18.98,24.44,21.29\O,19.
 93,20.49,25.31\H,20.7,19.97,25.07\H,19.83,21.12,24.6\O,20.39,14.93,20.
 27\H,19.63,15.26,19.8\H,21.13,15.08,19.68\O,19.43,23.18,23.94\H,20.36,
 23.09,23.71\H,19.02,23.49,23.14\O,24.31,19.74,16.02\H,23.41,19.98,16.2
 6\H,24.2,19.09,15.32\O,19.72,20.84,14.91\H,18.78,20.8,15.07\H,19.83,21
 .54,14.27\O,22.86,16.83,16.25\H,21.91,16.91,16.33\H,23.2,17.27,17.03\O
 ,17.64,14.51,19.1\H,17.21,14.36,18.26\H,17.72,15.46,19.16\O,22.16,24.6
 9,20.58\H,23.11,24.71,20.44\H,21.88,25.6,20.44\O,16.47,23.75,21.51\H,1
 6.67,24.01,20.62\H,16.44,24.57,22.01\O,20.91,16.97,24.7\H,20.24,16.62,
 24.13\H,20.56,16.88,25.58\O,24.66,21.93,17.91\H,25.27,22.64,17.71\H,24
 .87,21.25,17.28\O,25.4,19.29,21.33\H,25.12,19.85,22.05\H,25.8,18.53,21
 .75\O,19.62,16.,16.16\H,18.84,15.53,15.84\H,20.14,15.33,16.6\O,14.18,2
 2.28,20.36\H,14.64,23.12,20.37\H,14.76,21.68,20.81\O,14.84,17.94,15.82
 \H,15.7,18.05,16.24\H,14.58,18.82,15.56\O,22.9,25.65,17.61\H,22.55,26.
 53,17.69\H,22.14,25.1,17.43\O,21.39,13.77,22.34\H,22.33,13.83,22.18\H,
 20.99,14.15,21.55\O,18.13,23.56,15.14\H,17.9,24.05,14.35\H,18.85,24.06
 ,15.52\O,24.6,24.43,22.62\H,24.46,23.82,21.9\H,24.59,25.29,22.2\O,18.4
 5,18.47,26.55\H,18.35,18.88,27.41\H,19.12,18.98,26.11\O,21.15,25.95,23
 .42\H,21.82,25.28,23.45\H,20.46,25.58,22.87\O,25.32,20.92,23.41\H,25.7
 3,21.74,23.68\H,24.8,20.65,24.17\O,21.51,19.31,12.92\H,20.95,19.3,12.1
 5\H,20.9,19.43,13.65\O,17.36,22.27,26.55\H,16.84,23.07,26.4\H,17.72,22
 .06,25.69\O,24.21,17.03,24.55\H,23.51,16.44,24.8\H,23.88,17.91,24.75\O
 ,16.65,14.12,21.67\H,16.87,13.19,21.78\H,16.9,14.32,20.77\O,14.29,20.5
 5,15.06\H,14.98,20.88,15.64\H,14.23,21.21,14.37\O,27.01,23.05,20.21\H,
 26.3,22.49,20.54\H,26.56,23.84,19.9\O,21.4,15.33,13.97\H,21.15,16.01,1
 4.59\H,20.58,15.07,13.55\O,17.5,18.84,13.76\H,17.17,19.6,13.28\H,18.16
 ,18.46,13.19\O,18.07,26.73,19.01\H,17.62,27.55,18.81\H,18.45,26.45,18.
 17\O,24.04,19.73,25.58\H,24.82,19.84,26.13\H,23.31,19.99,26.14\O,13.6,
 16.01,20.82\H,13.88,15.81,21.72\H,13.85,16.92,20.69\O,21.22,23.46,26.5
 1\H,20.38,23.33,26.07\H,20.98,23.77,27.39\O,20.75,22.73,13.08\H,21.17,
 23.24,12.39\H,21.48,22.41,13.62\O,20.42,13.47,17.47\H,20.61,13.,18.28\
 H,19.55,13.17,17.21\O,12.64,18.87,22.08\H,12.3,19.76,22.14\H,13.5,18.9
 1,22.49\O,19.07,12.28,20.27\H,18.78,13.05,19.78\H,18.28,11.73,20.34\O,
 12.45,20.23,17.52\H,13.14,19.97,18.13\H,12.87,20.2,16.66\O,23.94,13.29
 ,19.67\H,23.02,13.49,19.83\H,24.11,13.61,18.79\O,25.48,25.09,18.75\H,2
 4.61,25.29,18.4\H,25.91,24.59,18.07\O,23.29,21.81,13.7\H,24.02,21.89,1
 4.31\H,23.37,20.93,13.34\O,21.17,27.16,19.81\H,20.23,27.24,19.95\H,21.
 38,27.83,19.17\O,18.22,14.26,24.38\H,18.04,15.03,24.93\H,19.09,13.98,2
 4.64\O,22.18,20.79,27.58\H,21.65,21.37,27.04\H,21.57,20.43,28.23\O,17.
 52,15.52,14.27\H,16.81,14.9,14.08\H,17.11,16.38,14.21\O,26.95,17.16,21
 .22\H,26.94,17.4,20.29\H,27.31,16.28,21.24\O,16.22,20.07,27.36\H,16.48
 ,20.98,27.25\H,16.5,19.64,26.55\O,22.89,13.53,16.24\H,22.,13.73,16.52\
 H,23.14,14.28,15.7\O,25.91,16.87,15.52\H,26.06,16.02,15.11\H,25.02,17.
 1,15.25\O,14.54,15.18,23.27\H,14.7,15.41,24.19\H,15.38,14.85,22.95\O,1
 3.68,20.52,24.88\H,12.77,20.55,25.19\H,13.63,20.13,24.01\O,27.17,17.,1
 8.45\H,26.67,17.36,17.71\H,28.08,17.08,18.18\O,17.37,16.07,26.76\H,18.
 09,15.68,27.25\H,17.71,16.92,26.48\O,13.1,16.85,17.64\H,13.88,16.3,17.
 62\H,13.26,17.52,16.98\O,15.16,24.71,15.09\H,15.56,23.85,15.24\H,15.76
 ,25.16,14.5\O,24.06,18.57,13.32\H,23.12,18.67,13.21\H,24.33,18.02,12.5
 9\O,20.86,13.4,24.91\H,21.65,13.71,25.36\H,21.03,13.57,23.98\O,25.32,1
 4.87,17.72\H,25.87,15.38,18.32\H,25.29,15.39,16.92\O,16.64,26.55,22.18
 \H,17.16,27.34,22.33\H,16.24,26.7,21.32\O,27.3,20.29,16.12\H,27.82,19.
 73,15.54\H,26.42,20.25,15.76\O,26.25,23.21,24.39\H,25.67,23.71,23.81\H
 ,26.,23.48,25.27\O,28.46,20.23,22.11\H,29.05,19.8,21.5\H,27.58,20.,21.
 8\O,19.28,26.94,25.03\H,19.92,27.53,25.43\H,19.79,26.46,24.37\O,11.86,
 22.9,18.98\H,11.67,22.02,18.66\H,12.78,22.88,19.23\O,12.07,21.61,22.12
 \H,11.25,22.1,22.12\H,12.5,21.87,21.3\O,14.35,13.73,19.42\H,13.79,13.1
 8,19.97\H,14.26,14.61,19.8\O,14.58,23.18,25.34\H,14.17,23.53,24.55\H,1
 4.54,22.23,25.24\O,22.02,25.78,14.33\H,22.17,24.88,14.03\H,22.57,25.87
 ,15.1\O,23.04,25.97,25.4\H,22.65,26.43,24.65\H,22.44,25.25,25.58\O,16.
 35,27.14,16.58\H,16.13,26.57,17.32\H,16.35,26.56,15.82\O,14.79,26.37,2
 0.12\H,14.16,27.06,20.33\H,14.49,26.,19.3\O,20.35,16.06,27.2\H,20.49,1
 5.23,27.66\H,20.14,16.69,27.89\O,24.3,26.84,21.61\H,24.91,27.31,21.03\
 H,23.48,27.34,21.54\O,26.5,23.83,16.63\H,27.38,23.6,16.33\H,25.99,23.9
 1,15.83\O,13.72,25.42,17.75\H,13.11,25.93,17.2\H,13.5,24.51,17.55\O,19
 .77,20.84,29.\H,19.4,21.27,28.22\H,19.01,20.47,29.45\O,27.14,17.85,25.
 53\H,27.19,18.6,26.13\H,26.32,17.97,25.06\O,21.52,28.7,22.74\H,22.36,2
 8.81,23.19\H,21.31,27.77,22.84\O,21.2,11.1,19.29\H,20.7,10.5,18.73\H,2
 0.53,11.6,19.76\O,25.92,13.42,21.55\H,25.47,13.86,22.27\H,25.31,13.49,
 20.81\O,17.97,12.66,16.34\H,18.22,12.84,15.44\H,17.15,12.17,16.27\O,19
 .21,14.63,12.49\H,18.66,14.9,13.22\H,18.74,14.93,11.71\O,25.98,20.55,1
 3.13\H,25.22,19.97,13.17\H,26.36,20.39,12.27\O,28.84,21.43,17.95\H,28.
 44,21.24,18.8\H,28.29,20.96,17.32\O,12.52,23.74,23.7\H,12.45,22.98,23.
 12\H,12.11,24.45,23.2\O,10.68,18.55,20.03\H,11.42,18.4,20.62\H,11.07,1
 8.87,19.22\O,17.41,25.73,26.67\H,16.63,25.62,26.12\H,18.08,26.04,26.06
 \O,15.4,26.04,24.78\H,15.86,26.61,24.16\H,14.62,25.75,24.31\O,13.81,16
 .45,13.38\H,14.19,15.59,13.54\H,14.41,17.07,13.79\O,19.2,22.66,10.68\H
 ,19.65,22.91,11.49\H,19.58,21.82,10.44\O,11.83,16.73,23.66\H,12.59,16.
 14,23.64\H,11.9,17.25,22.87\O,22.34,28.36,17.46\H,22.96,28.41,16.73\H,
 22.64,29.02,18.08\O,17.15,25.52,13.42\H,17.04,26.46,13.52\H,17.57,25.4
 1,12.57\O,14.76,15.24,26.11\H,15.51,15.64,26.54\H,14.,15.7,26.47\O,24.
 08,23.46,28.44\H,23.93,23.13,27.56\H,24.55,24.28,28.31\O,18.03,11.34,2
 4.38\H,18.96,11.21,24.19\H,17.9,12.28,24.29\O,25.84,23.37,13.91\H,25.7
 7,22.54,13.43\H,25.28,23.97,13.44\O,28.54,21.57,24.42\H,27.74,22.08,24
 .28\H,28.57,20.96,23.68\O,20.28,10.64,22.43\H,19.9,11.06,21.67\H,20.73
 ,11.34,22.9\O,14.31,13.59,16.29\H,14.12,13.56,17.23\H,14.66,12.73,16.0
 8\O,23.43,16.01,28.34\H,24.09,16.69,28.52\H,22.66,16.5,28.04\O,26.82,2
 6.17,23.48\H,25.92,26.34,23.21\H,27.34,26.29,22.69\O,29.72,19.06,20.15
 \H,29.86,19.38,19.25\H,29.1,18.34,20.04\O,24.69,26.2,14.82\H,25.43,25.
 71,15.15\H,24.91,27.12,14.99\O,19.71,29.01,15.38\H,20.08,28.16,15.63\H
 ,20.41,29.64,15.56\O,23.04,13.98,26.37\H,22.75,13.18,26.81\H,23.42,14.
 51,27.07\O,19.25,18.2,10.86\H,19.71,17.39,11.05\H,18.55,17.94,10.25\O,
 29.36,23.83,18.94\H,29.28,23.11,18.31\H,28.56,23.78,19.46\O,26.78,27.1
 ,17.31\H,26.58,26.3,17.78\H,27.2,26.8,16.5\\Version=ES64L-G09RevE.01\H
 F=-9773.2858275\RMSD=2.113e-09\RMSF=1.017e-02\Dipole=-0.9162277,9.2891
 16,-21.0864309\Quadrupole=-11.3254699,1075.6697425,-1064.3442725,-1185
 .7238637,-2338.5267929,-1904.8411396\PG=C01 [X(Br1H256O128)]\\@


 ART, GLORY, FREEDOM FAIL, BUT NATURE STILL IS FAIR.

                                           -- BYRON
 Job cpu time:       6 days  8 hours 23 minutes 49.9 seconds.
 File lengths (MBytes):  RWF=   7285 Int=      0 D2E=      0 Chk=   2411 Scr=      1
 Normal termination of Gaussian 09 at Sun May  6 18:07:23 2018.
