 Entering Gaussian System, Link 0=/cm/shared/gaussian/g09.e01/intel64-sandybridge/g09/g09
 Initial command:
 /cm/shared/gaussian/g09.e01/intel64-sandybridge/g09/l1.exe "/local/scratch/m.peluso/128_wat/370/Gau-35753.inp" -scrdir="/local/scratch/m.peluso/128_wat/370/"
 Entering Link 1 = /cm/shared/gaussian/g09.e01/intel64-sandybridge/g09/l1.exe PID=     35754.
  
 Copyright (c) 1988,1990,1992,1993,1995,1998,2003,2009,2015,
            Gaussian, Inc.  All Rights Reserved.
  
 This is part of the Gaussian(R) 09 program.  It is based on
 the Gaussian(R) 03 system (copyright 2003, Gaussian, Inc.),
 the Gaussian(R) 98 system (copyright 1998, Gaussian, Inc.),
 the Gaussian(R) 94 system (copyright 1995, Gaussian, Inc.),
 the Gaussian 92(TM) system (copyright 1992, Gaussian, Inc.),
 the Gaussian 90(TM) system (copyright 1990, Gaussian, Inc.),
 the Gaussian 88(TM) system (copyright 1988, Gaussian, Inc.),
 the Gaussian 86(TM) system (copyright 1986, Carnegie Mellon
 University), and the Gaussian 82(TM) system (copyright 1983,
 Carnegie Mellon University). Gaussian is a federally registered
 trademark of Gaussian, Inc.
  
 This software contains proprietary and confidential information,
 including trade secrets, belonging to Gaussian, Inc.
  
 This software is provided under written license and may be
 used, copied, transmitted, or stored only in accord with that
 written license.
  
 The following legend is applicable only to US Government
 contracts under FAR:
  
                    RESTRICTED RIGHTS LEGEND
  
 Use, reproduction and disclosure by the US Government is
 subject to restrictions as set forth in subparagraphs (a)
 and (c) of the Commercial Computer Software - Restricted
 Rights clause in FAR 52.227-19.
  
 Gaussian, Inc.
 340 Quinnipiac St., Bldg. 40, Wallingford CT 06492
  
  
 ---------------------------------------------------------------
 Warning -- This program may not be used in any manner that
 competes with the business of Gaussian, Inc. or will provide
 assistance to any competitor of Gaussian, Inc.  The licensee
 of this program is prohibited from giving any competitor of
 Gaussian, Inc. access to this program.  By using this program,
 the user acknowledges that Gaussian, Inc. is engaged in the
 business of creating and licensing software in the field of
 computational chemistry and represents and warrants to the
 licensee that it is not a competitor of Gaussian, Inc. and that
 it will not use this program in any manner prohibited above.
 ---------------------------------------------------------------
  

 Cite this work as:
 Gaussian 09, Revision E.01,
 M. J. Frisch, G. W. Trucks, H. B. Schlegel, G. E. Scuseria, 
 M. A. Robb, J. R. Cheeseman, G. Scalmani, V. Barone, B. Mennucci, 
 G. A. Petersson, H. Nakatsuji, M. Caricato, X. Li, H. P. Hratchian, 
 A. F. Izmaylov, J. Bloino, G. Zheng, J. L. Sonnenberg, M. Hada, 
 M. Ehara, K. Toyota, R. Fukuda, J. Hasegawa, M. Ishida, T. Nakajima, 
 Y. Honda, O. Kitao, H. Nakai, T. Vreven, J. A. Montgomery, Jr., 
 J. E. Peralta, F. Ogliaro, M. Bearpark, J. J. Heyd, E. Brothers, 
 K. N. Kudin, V. N. Staroverov, T. Keith, R. Kobayashi, J. Normand, 
 K. Raghavachari, A. Rendell, J. C. Burant, S. S. Iyengar, J. Tomasi, 
 M. Cossi, N. Rega, J. M. Millam, M. Klene, J. E. Knox, J. B. Cross, 
 V. Bakken, C. Adamo, J. Jaramillo, R. Gomperts, R. E. Stratmann, 
 O. Yazyev, A. J. Austin, R. Cammi, C. Pomelli, J. W. Ochterski, 
 R. L. Martin, K. Morokuma, V. G. Zakrzewski, G. A. Voth, 
 P. Salvador, J. J. Dannenberg, S. Dapprich, A. D. Daniels, 
 O. Farkas, J. B. Foresman, J. V. Ortiz, J. Cioslowski, 
 and D. J. Fox, Gaussian, Inc., Wallingford CT, 2013.
 
 ******************************************
 Gaussian 09:  ES64L-G09RevE.01 30-Nov-2015
                 8-May-2018 
 ******************************************
 %Mem=110GB
 %NProcShared=64
 Will use up to   64 processors via shared memory.
 %chk=snap46.chk
 ----------------------------------------------
 #p PBE1PBE/cc-pvDZ force Counterpoise=2 noSymm
 ----------------------------------------------
 1/10=7,30=1,38=1,62=2/1,3;
 2/12=2,15=1,17=6,18=5,40=1/2;
 1/10=7,30=1,38=1,53=2,62=2,63=101/22;
 3/5=16,11=2,16=1,25=1,30=1,71=1,74=-13/1,2,3;
 4//1;
 5/5=2,38=5/2;
 6/7=2,8=2,9=2,10=2,28=1/1;
 7/7=1,29=1,30=1,33=-1/1,2,3,16;
 1/10=7,30=1,53=2,62=2,63=101/22;
 3/5=7,6=11,11=2,16=1,25=1,30=1,71=1,74=-13,82=7/1,2,3;
 4//1;
 5/5=2,38=5/2;
 6/7=2,8=2,9=2,10=2,28=1/1;
 7/7=1,29=1,30=1,33=-1/1,2,3,16;
 1/10=7,30=1,53=2,62=2,63=101/22(-5);
 7/9=1,29=1,44=-1/16;
 1/10=7,30=1,62=2/3;
 99//99;
 Leave Link    1 at Tue May  8 14:51:33 2018, MaxMem= 14763950080 cpu:         6.2
 (Enter /cm/shared/gaussian/g09.e01/intel64-sandybridge/g09/l101.exe)
 ---------------------------------------
 forces on chloride comput - NWATER: 128
 ---------------------------------------
 Symbolic Z-matrix:
 Charge = -1 Multiplicity = 1 in supermolecule
 Charge = -1 Multiplicity = 1 in fragment      1.
 Charge =  0 Multiplicity = 1 in fragment      2.
 Br(Fragment=1)        20.       20.       20. 
 O(Fragment=2)         16.78     19.12     20.08 
 H(Fragment=2)         17.68     19.28     19.82 
 H(Fragment=2)         16.82     18.34     20.63 
 O(Fragment=2)         21.27     21.9      22.44 
 H(Fragment=2)         20.4      21.97     22.82 
 H(Fragment=2)         21.14     21.43     21.62 
 O(Fragment=2)         18.3      22.93     20.06 
 H(Fragment=2)         18.63     22.81     20.96 
 H(Fragment=2)         18.51     22.1      19.62 
 O(Fragment=2)         22.       21.22     17.41 
 H(Fragment=2)         22.46     20.69     16.76 
 H(Fragment=2)         21.69     20.58     18.05 
 O(Fragment=2)         17.89     19.51     16.83 
 H(Fragment=2)         18.3      19.79     17.64 
 H(Fragment=2)         17.46     20.3      16.49 
 O(Fragment=2)         21.97     16.72     20.01 
 H(Fragment=2)         21.44     17.44     19.68 
 H(Fragment=2)         22.19     16.21     19.23 
 O(Fragment=2)         23.78     20.05     21.5 
 H(Fragment=2)         22.91     19.92     21.14 
 H(Fragment=2)         24.11     20.84     21.07 
 O(Fragment=2)         20.36     16.94     22.38 
 H(Fragment=2)         20.2      17.88     22.41 
 H(Fragment=2)         20.95     16.82     21.63 
 O(Fragment=2)         18.48     22.1      22.74 
 H(Fragment=2)         17.73     21.77     22.25 
 H(Fragment=2)         18.65     21.42     23.39 
 O(Fragment=2)         20.05     23.51     17.09 
 H(Fragment=2)         20.71     22.95     17.49 
 H(Fragment=2)         20.34     23.61     16.18 
 O(Fragment=2)         16.13     21.31     21.45 
 H(Fragment=2)         15.2      21.42     21.64 
 H(Fragment=2)         16.16     20.52     20.9 
 O(Fragment=2)         18.84     19.92     24.32 
 H(Fragment=2)         18.18     19.44     23.81 
 H(Fragment=2)         18.76     19.55     25.2 
 O(Fragment=2)         16.2      17.09     18.02 
 H(Fragment=2)         15.44     17.52     18.41 
 H(Fragment=2)         16.89     17.75     18.01 
 O(Fragment=2)         24.51     21.91     19.31 
 H(Fragment=2)         23.75     21.89     18.73 
 H(Fragment=2)         24.77     22.83     19.34 
 O(Fragment=2)         19.26     17.19     15.46 
 H(Fragment=2)         18.89     17.67     16.2 
 H(Fragment=2)         19.47     17.86     14.82 
 O(Fragment=2)         22.04     24.43     21.81 
 H(Fragment=2)         21.97     23.61     22.3 
 H(Fragment=2)         22.89     24.39     21.38 
 O(Fragment=2)         18.07     15.08     21.52 
 H(Fragment=2)         18.26     14.25     21.06 
 H(Fragment=2)         18.92     15.5      21.61 
 O(Fragment=2)         16.99     21.82     15.99 
 H(Fragment=2)         17.58     22.44     16.41 
 H(Fragment=2)         17.11     21.97     15.06 
 O(Fragment=2)         18.16     25.16     18.4 
 H(Fragment=2)         18.57     24.75     19.16 
 H(Fragment=2)         18.36     24.57     17.67 
 O(Fragment=2)         22.78     25.25     19.02 
 H(Fragment=2)         22.06     25.87     19.08 
 H(Fragment=2)         22.35     24.39     18.95 
 O(Fragment=2)         14.26     18.92     18.7 
 H(Fragment=2)         14.17     19.24     17.81 
 H(Fragment=2)         14.95     19.46     19.08 
 O(Fragment=2)         20.03     20.15     14.05 
 H(Fragment=2)         20.54     20.26     14.84 
 H(Fragment=2)         19.3      20.76     14.14 
 O(Fragment=2)         21.44     20.45     25.77 
 H(Fragment=2)         20.73     20.5      25.13 
 H(Fragment=2)         21.32     21.22     26.32 
 O(Fragment=2)         16.73     18.3      23.8 
 H(Fragment=2)         15.89     18.49     24.22 
 H(Fragment=2)         17.15     17.66     24.37 
 O(Fragment=2)         24.       20.29     24.43 
 H(Fragment=2)         23.1      20.49     24.69 
 H(Fragment=2)         23.99     20.34     23.47 
 O(Fragment=2)         23.81     16.48     23.51 
 H(Fragment=2)         23.31     16.8      22.76 
 H(Fragment=2)         23.6      15.55     23.55 
 O(Fragment=2)         15.51     24.03     20.66 
 H(Fragment=2)         15.75     23.29     20.1 
 H(Fragment=2)         16.34     24.48     20.83 
 O(Fragment=2)         20.69     15.24     24.37 
 H(Fragment=2)         21.06     15.82     25.03 
 H(Fragment=2)         20.4      15.83     23.67 
 O(Fragment=2)         22.85     15.35     18. 
 H(Fragment=2)         23.04     14.45     17.75 
 H(Fragment=2)         22.39     15.72     17.24 
 O(Fragment=2)         24.       19.47     15.85 
 H(Fragment=2)         24.36     19.29     14.98 
 H(Fragment=2)         24.16     18.67     16.35 
 O(Fragment=2)         21.74     16.06     15.73 
 H(Fragment=2)         22.09     15.91     14.85 
 H(Fragment=2)         20.89     16.48     15.58 
 O(Fragment=2)         14.58     20.6      16.44 
 H(Fragment=2)         15.49     20.8      16.23 
 H(Fragment=2)         14.16     21.46     16.51 
 O(Fragment=2)         18.31     24.18     25.11 
 H(Fragment=2)         18.21     23.45     24.5 
 H(Fragment=2)         18.54     24.93     24.57 
 O(Fragment=2)         16.83     14.3      18.37 
 H(Fragment=2)         16.72     15.23     18.53 
 H(Fragment=2)         17.05     13.93     19.22 
 O(Fragment=2)         26.72     20.56     18.56 
 H(Fragment=2)         25.84     20.9      18.71 
 H(Fragment=2)         27.28     21.07     19.15 
 O(Fragment=2)         24.54     22.34     16.3 
 H(Fragment=2)         24.5      21.4      16.13 
 H(Fragment=2)         25.46     22.57     16.14 
 O(Fragment=2)         15.48     15.67     22.75 
 H(Fragment=2)         16.39     15.72     22.47 
 H(Fragment=2)         15.26     16.56     23.04 
 O(Fragment=2)         16.14     17.69     14.61 
 H(Fragment=2)         16.28     17.95     15.53 
 H(Fragment=2)         16.55     16.83     14.54 
 O(Fragment=2)         20.85     17.58     26.05 
 H(Fragment=2)         21.12     18.49     25.92 
 H(Fragment=2)         21.23     17.33     26.89 
 O(Fragment=2)         22.4      23.33     14.71 
 H(Fragment=2)         22.96     22.84     15.31 
 H(Fragment=2)         22.95     23.5      13.94 
 O(Fragment=2)         20.42     27.04     21.01 
 H(Fragment=2)         20.19     26.15     21.27 
 H(Fragment=2)         20.42     27.02     20.05 
 O(Fragment=2)         24.99     15.2      19.52 
 H(Fragment=2)         24.26     15.49     18.98 
 H(Fragment=2)         25.35     16.01     19.89 
 O(Fragment=2)         20.5      25.7      23.75 
 H(Fragment=2)         21.08     25.86     24.5 
 H(Fragment=2)         21.08     25.51     23.02 
 O(Fragment=2)         26.42     18.14     22.46 
 H(Fragment=2)         26.64     17.84     21.58 
 H(Fragment=2)         25.48     17.96     22.55 
 O(Fragment=2)         17.84     25.72     22.57 
 H(Fragment=2)         17.89     26.65     22.35 
 H(Fragment=2)         18.69     25.52     22.97 
 O(Fragment=2)         14.87     21.02     24.67 
 H(Fragment=2)         15.78     21.25     24.85 
 H(Fragment=2)         14.54     21.74     24.14 
 O(Fragment=2)         17.53     16.28     25.34 
 H(Fragment=2)         18.41     15.99     25.09 
 H(Fragment=2)         17.05     15.48     25.53 
 O(Fragment=2)         24.8      23.91     24.25 
 H(Fragment=2)         24.59     23.16     23.69 
 H(Fragment=2)         25.44     23.57     24.87 
 O(Fragment=2)         13.97     22.77     18.13 
 H(Fragment=2)         14.08     23.65     18.48 
 H(Fragment=2)         13.68     22.24     18.87 
 O(Fragment=2)         13.89     23.32     22.86 
 H(Fragment=2)         14.56     23.52     22.21 
 H(Fragment=2)         13.52     24.17     23.09 
 O(Fragment=2)         25.6      24.47     18.94 
 H(Fragment=2)         24.73     24.86     18.97 
 H(Fragment=2)         26.15     25.07     19.44 
 O(Fragment=2)         12.75     17.88     20.61 
 H(Fragment=2)         13.35     18.13     19.91 
 H(Fragment=2)         12.26     17.14     20.26 
 O(Fragment=2)         19.76     13.57     16.31 
 H(Fragment=2)         19.24     14.29     15.95 
 H(Fragment=2)         20.55     13.98     16.64 
 O(Fragment=2)         25.01     16.66     15.81 
 H(Fragment=2)         24.91     16.02     15.1 
 H(Fragment=2)         24.71     16.21     16.59 
 O(Fragment=2)         17.16     21.44     26.28 
 H(Fragment=2)         18.02     21.82     26.46 
 H(Fragment=2)         17.23     20.54     26.6 
 O(Fragment=2)         22.23     18.2      12.78 
 H(Fragment=2)         21.64     18.76     13.29 
 H(Fragment=2)         21.67     17.81     12.11 
 O(Fragment=2)         12.67     21.07     19.89 
 H(Fragment=2)         12.97     20.17     19.75 
 H(Fragment=2)         11.76     20.99     20.17 
 O(Fragment=2)         17.19     14.74     15.33 
 H(Fragment=2)         17.28     13.85     15.66 
 H(Fragment=2)         16.65     15.19     15.99 
 O(Fragment=2)         18.02     22.9      13.8 
 H(Fragment=2)         17.85     23.8      14.09 
 H(Fragment=2)         17.88     22.92     12.85 
 O(Fragment=2)         17.83     27.62     19.43 
 H(Fragment=2)         16.97     27.26     19.66 
 H(Fragment=2)         18.2      26.96     18.85 
 O(Fragment=2)         27.01     21.02     23.44 
 H(Fragment=2)         26.6      20.17     23.27 
 H(Fragment=2)         27.82     21.01     22.93 
 O(Fragment=2)         17.36     18.83     26.78 
 H(Fragment=2)         17.3      17.91     26.53 
 H(Fragment=2)         16.6      18.98     27.34 
 O(Fragment=2)         27.63     18.14     17.79 
 H(Fragment=2)         28.44     18.57     17.5 
 H(Fragment=2)         27.05     18.86     18.03 
 O(Fragment=2)         24.39     17.26     26.38 
 H(Fragment=2)         23.78     17.09     25.67 
 H(Fragment=2)         24.71     18.15     26.23 
 O(Fragment=2)         20.5      27.36     18.41 
 H(Fragment=2)         21.04     28.14     18.26 
 H(Fragment=2)         20.34     27.       17.53 
 O(Fragment=2)         17.15     19.44     12.29 
 H(Fragment=2)         16.86     19.32     13.2 
 H(Fragment=2)         17.45     18.57     12.02 
 O(Fragment=2)         13.37     17.61     23.44 
 H(Fragment=2)         13.24     16.66     23.49 
 H(Fragment=2)         13.2      17.82     22.53 
 O(Fragment=2)         27.03     17.03     20.25 
 H(Fragment=2)         27.91     17.03     20.63 
 H(Fragment=2)         27.18     17.06     19.3 
 O(Fragment=2)         19.23     23.23     27.49 
 H(Fragment=2)         20.19     23.23     27.53 
 H(Fragment=2)         19.02     23.69     26.68 
 O(Fragment=2)         24.37     27.04     17.36 
 H(Fragment=2)         23.75     26.38     17.64 
 H(Fragment=2)         24.69     26.73     16.52 
 O(Fragment=2)         11.7      20.07     22.77 
 H(Fragment=2)         11.57     20.7      23.47 
 H(Fragment=2)         12.63     20.16     22.53 
 O(Fragment=2)         24.3      13.08     21.72 
 H(Fragment=2)         25.16     13.24     22.11 
 H(Fragment=2)         24.31     13.56     20.89 
 O(Fragment=2)         15.29     26.8      20.44 
 H(Fragment=2)         15.01     27.31     21.21 
 H(Fragment=2)         14.94     25.92     20.6 
 O(Fragment=2)         19.94     12.2      21.46 
 H(Fragment=2)         19.92     11.3      21.77 
 H(Fragment=2)         19.33     12.21     20.72 
 O(Fragment=2)         26.06     21.96     25.6 
 H(Fragment=2)         26.48     21.49     24.88 
 H(Fragment=2)         25.2      21.56     25.68 
 O(Fragment=2)         21.84     23.05     27.04 
 H(Fragment=2)         22.38     22.4      27.49 
 H(Fragment=2)         21.98     23.86     27.54 
 O(Fragment=2)         21.71     12.41     23.77 
 H(Fragment=2)         22.17     12.55     22.94 
 H(Fragment=2)         21.18     13.2      23.88 
 O(Fragment=2)         22.84     27.48     22.46 
 H(Fragment=2)         21.91     27.35     22.28 
 H(Fragment=2)         23.12     28.12     21.8 
 O(Fragment=2)         22.84     26.19     25.21 
 H(Fragment=2)         22.98     26.76     24.45 
 H(Fragment=2)         23.22     25.35     24.95 
 O(Fragment=2)         16.85     12.51     22.24 
 H(Fragment=2)         17.07     13.17     22.9 
 H(Fragment=2)         16.22     12.94     21.66 
 O(Fragment=2)         19.92     26.9      15.81 
 H(Fragment=2)         20.16     26.85     14.89 
 H(Fragment=2)         18.98     26.76     15.83 
 O(Fragment=2)         23.58     25.71     14.46 
 H(Fragment=2)         23.08     26.53     14.5 
 H(Fragment=2)         22.91     25.03     14.44 
 O(Fragment=2)         13.81     13.69     21.71 
 H(Fragment=2)         13.79     13.54     22.65 
 H(Fragment=2)         14.4      14.44     21.6 
 O(Fragment=2)         27.09     23.59     16.56 
 H(Fragment=2)         28.04     23.69     16.64 
 H(Fragment=2)         26.76     23.69     17.45 
 O(Fragment=2)         19.05     13.32     25.59 
 H(Fragment=2)         19.59     14.11     25.63 
 H(Fragment=2)         19.05     13.07     24.67 
 O(Fragment=2)         17.54     25.66     14.27 
 H(Fragment=2)         16.78     25.46     14.81 
 H(Fragment=2)         17.25     26.38     13.71 
 O(Fragment=2)         24.77     18.87     13.13 
 H(Fragment=2)         25.16     19.1      12.28 
 H(Fragment=2)         23.88     18.59     12.91 
 O(Fragment=2)         18.02     12.05     19.43 
 H(Fragment=2)         18.55     11.79     18.68 
 H(Fragment=2)         17.3      11.42     19.44 
 O(Fragment=2)         15.46     25.31     25.62 
 H(Fragment=2)         15.94     26.01     25.18 
 H(Fragment=2)         16.06     24.57     25.62 
 O(Fragment=2)         14.32     17.49     25.99 
 H(Fragment=2)         13.58     17.64     26.58 
 H(Fragment=2)         13.96     17.64     25.12 
 O(Fragment=2)         22.93     12.77     17.21 
 H(Fragment=2)         22.26     12.1      17.34 
 H(Fragment=2)         23.14     12.71     16.28 
 O(Fragment=2)         18.7      14.66     12.94 
 H(Fragment=2)         18.11     14.21     12.34 
 H(Fragment=2)         18.15     14.93     13.67 
 O(Fragment=2)         21.15     21.27     11.52 
 H(Fragment=2)         20.46     20.63     11.7 
 H(Fragment=2)         20.77     22.11     11.8 
 O(Fragment=2)         23.9      22.47     12.4 
 H(Fragment=2)         23.22     22.57     11.74 
 H(Fragment=2)         23.81     21.57     12.7 
 O(Fragment=2)         14.99     25.18     15.19 
 H(Fragment=2)         14.99     25.48     16.1 
 H(Fragment=2)         14.07     25.02     14.98 
 O(Fragment=2)         13.4      19.03     14.05 
 H(Fragment=2)         13.3      18.99     15. 
 H(Fragment=2)         14.2      18.55     13.86 
 O(Fragment=2)         28.74     20.79     16.68 
 H(Fragment=2)         29.12     21.63     16.93 
 H(Fragment=2)         27.97     20.7      17.25 
 O(Fragment=2)         28.17     22.47     20.09 
 H(Fragment=2)         28.15     23.43     20.16 
 H(Fragment=2)         28.65     22.3      19.28 
 O(Fragment=2)         19.51     20.84     29.01 
 H(Fragment=2)         18.56     20.69     28.98 
 H(Fragment=2)         19.66     21.55     28.39 
 O(Fragment=2)         13.35     20.46     26.75 
 H(Fragment=2)         12.53     20.09     26.4 
 H(Fragment=2)         13.91     20.55     25.98 
 O(Fragment=2)         11.91     22.84     16.07 
 H(Fragment=2)         12.58     22.9      16.75 
 H(Fragment=2)         11.14     22.47     16.52 
 O(Fragment=2)         21.31     14.62     13.15 
 H(Fragment=2)         21.5      13.86     13.71 
 H(Fragment=2)         20.36     14.72     13.2 
 O(Fragment=2)         23.73     14.19     25.16 
 H(Fragment=2)         23.12     13.53     24.81 
 H(Fragment=2)         24.6      13.81     25. 
 O(Fragment=2)         11.23     23.43     21.82 
 H(Fragment=2)         12.12     23.09     21.7 
 H(Fragment=2)         11.33     24.15     22.44 
 O(Fragment=2)         19.25     17.36     28.73 
 H(Fragment=2)         18.55     17.8      28.24 
 H(Fragment=2)         19.09     17.59     29.64 
 O(Fragment=2)         22.46     15.12     27.36 
 H(Fragment=2)         22.99     15.19     26.57 
 H(Fragment=2)         23.07     14.8      28.03 
 O(Fragment=2)         27.04     17.32     14.19 
 H(Fragment=2)         26.95     18.26     14.02 
 H(Fragment=2)         26.29     17.1      14.74 
 O(Fragment=2)         12.17     17.81     16.29 
 H(Fragment=2)         11.98     18.54     16.88 
 H(Fragment=2)         11.32     17.45     16.06 
 O(Fragment=2)         14.12     26.07     17.81 
 H(Fragment=2)         13.35     25.88     18.34 
 H(Fragment=2)         14.5      26.85     18.22 
 O(Fragment=2)         12.28     15.71     18.28 
 H(Fragment=2)         12.23     16.57     17.86 
 H(Fragment=2)         12.78     15.18     17.67 
 O(Fragment=2)         14.93     22.95     27.63 
 H(Fragment=2)         14.29     22.44     28.13 
 H(Fragment=2)         15.49     22.3      27.21 
 O(Fragment=2)         20.16     29.42     22.52 
 H(Fragment=2)         20.06     28.69     21.9 
 H(Fragment=2)         20.57     30.11     22. 
 O(Fragment=2)         26.82     13.58     18.22 
 H(Fragment=2)         26.65     14.31     17.63 
 H(Fragment=2)         26.21     13.7      18.94 
 O(Fragment=2)         25.48     26.9      23.56 
 H(Fragment=2)         24.57     27.06     23.3 
 H(Fragment=2)         25.52     25.96     23.73 
 O(Fragment=2)         18.3      21.78     10.92 
 H(Fragment=2)         17.71     21.24     11.44 
 H(Fragment=2)         17.93     21.76     10.04 
 O(Fragment=2)         23.15     10.92     20.25 
 H(Fragment=2)         23.85     11.55     20.4 
 H(Fragment=2)         22.36     11.37     20.53 
 O(Fragment=2)         27.08     21.27     14.13 
 H(Fragment=2)         27.82     21.27     13.52 
 H(Fragment=2)         27.42     20.86     14.92 
 O(Fragment=2)         22.17     17.56     28.94 
 H(Fragment=2)         21.26     17.45     28.68 
 H(Fragment=2)         22.67     17.15     28.23 
 O(Fragment=2)         28.64     16.9      24.12 
 H(Fragment=2)         27.87     17.16     23.61 
 H(Fragment=2)         28.5      15.97     24.29 
 O(Fragment=2)         19.24     11.05     15.59 
 H(Fragment=2)         20.02     10.52     15.42 
 H(Fragment=2)         19.57     11.94     15.68 
 O(Fragment=2)         11.08     19.45     17.96 
 H(Fragment=2)         10.74     20.31     18.23 
 H(Fragment=2)         10.3      18.94     17.74 
 O(Fragment=2)         15.31     19.68     28.41 
 H(Fragment=2)         14.77     19.56     27.63 
 H(Fragment=2)         14.85     20.35     28.92 
 O(Fragment=2)         21.22     26.25     13.27 
 H(Fragment=2)         21.73     26.81     12.67 
 H(Fragment=2)         20.7      25.69     12.69 
 O(Fragment=2)         23.57     13.14     14.76 
 H(Fragment=2)         24.21     13.81     14.52 
 H(Fragment=2)         23.89     12.34     14.33 
 O(Fragment=2)         16.16     13.89     25.84 
 H(Fragment=2)         15.59     13.13     25.73 
 H(Fragment=2)         16.96     13.53     26.23 
 O(Fragment=2)         19.93     23.79     11.51 
 H(Fragment=2)         19.33     23.09     11.22 
 H(Fragment=2)         19.51     24.6      11.21 
 O(Fragment=2)         25.56     23.52     27.63 
 H(Fragment=2)         25.48     22.78     27.03 
 H(Fragment=2)         24.73     23.53     28.11 
 O(Fragment=2)         23.42     21.28     28.77 
 H(Fragment=2)         24.1      20.72     28.39 
 H(Fragment=2)         23.15     20.82     29.57 
 
 NAtoms=    385 NQM=      385 NQMF=       0 NMMI=      0 NMMIF=      0
                NMic=       0 NMicF=      0.
                    Isotopes and Nuclear Properties:
 (Nuclear quadrupole moments (NQMom) in fm**2, nuclear magnetic moments (NMagM)
  in nuclear magnetons)

  Atom         1           2           3           4           5           6           7           8           9          10
 IAtWgt=          79          16           1           1          16           1           1          16           1           1
 AtmWgt=  78.9183361  15.9949146   1.0078250   1.0078250  15.9949146   1.0078250   1.0078250  15.9949146   1.0078250   1.0078250
 NucSpn=           3           0           1           1           0           1           1           0           1           1
 AtZEff=   0.0000000   0.0000000   0.0000000   0.0000000   0.0000000   0.0000000   0.0000000   0.0000000   0.0000000   0.0000000
 NQMom=   31.3000000   0.0000000   0.0000000   0.0000000   0.0000000   0.0000000   0.0000000   0.0000000   0.0000000   0.0000000
 NMagM=    2.1063990   0.0000000   2.7928460   2.7928460   0.0000000   2.7928460   2.7928460   0.0000000   2.7928460   2.7928460
 AtZNuc=  35.0000000   8.0000000   1.0000000   1.0000000   8.0000000   1.0000000   1.0000000   8.0000000   1.0000000   1.0000000

  Atom        11          12          13          14          15          16          17          18          19          20
 IAtWgt=          16           1           1          16           1           1          16           1           1          16
 AtmWgt=  15.9949146   1.0078250   1.0078250  15.9949146   1.0078250   1.0078250  15.9949146   1.0078250   1.0078250  15.9949146
 NucSpn=           0           1           1           0           1           1           0           1           1           0
 AtZEff=   0.0000000   0.0000000   0.0000000   0.0000000   0.0000000   0.0000000   0.0000000   0.0000000   0.0000000   0.0000000
 NQMom=    0.0000000   0.0000000   0.0000000   0.0000000   0.0000000   0.0000000   0.0000000   0.0000000   0.0000000   0.0000000
 NMagM=    0.0000000   2.7928460   2.7928460   0.0000000   2.7928460   2.7928460   0.0000000   2.7928460   2.7928460   0.0000000
 AtZNuc=   8.0000000   1.0000000   1.0000000   8.0000000   1.0000000   1.0000000   8.0000000   1.0000000   1.0000000   8.0000000

  Atom        21          22          23          24          25          26          27          28          29          30
 IAtWgt=           1           1          16           1           1          16           1           1          16           1
 AtmWgt=   1.0078250   1.0078250  15.9949146   1.0078250   1.0078250  15.9949146   1.0078250   1.0078250  15.9949146   1.0078250
 NucSpn=           1           1           0           1           1           0           1           1           0           1
 AtZEff=   0.0000000   0.0000000   0.0000000   0.0000000   0.0000000   0.0000000   0.0000000   0.0000000   0.0000000   0.0000000
 NQMom=    0.0000000   0.0000000   0.0000000   0.0000000   0.0000000   0.0000000   0.0000000   0.0000000   0.0000000   0.0000000
 NMagM=    2.7928460   2.7928460   0.0000000   2.7928460   2.7928460   0.0000000   2.7928460   2.7928460   0.0000000   2.7928460
 AtZNuc=   1.0000000   1.0000000   8.0000000   1.0000000   1.0000000   8.0000000   1.0000000   1.0000000   8.0000000   1.0000000

  Atom        31          32          33          34          35          36          37          38          39          40
 IAtWgt=           1          16           1           1          16           1           1          16           1           1
 AtmWgt=   1.0078250  15.9949146   1.0078250   1.0078250  15.9949146   1.0078250   1.0078250  15.9949146   1.0078250   1.0078250
 NucSpn=           1           0           1           1           0           1           1           0           1           1
 AtZEff=   0.0000000   0.0000000   0.0000000   0.0000000   0.0000000   0.0000000   0.0000000   0.0000000   0.0000000   0.0000000
 NQMom=    0.0000000   0.0000000   0.0000000   0.0000000   0.0000000   0.0000000   0.0000000   0.0000000   0.0000000   0.0000000
 NMagM=    2.7928460   0.0000000   2.7928460   2.7928460   0.0000000   2.7928460   2.7928460   0.0000000   2.7928460   2.7928460
 AtZNuc=   1.0000000   8.0000000   1.0000000   1.0000000   8.0000000   1.0000000   1.0000000   8.0000000   1.0000000   1.0000000

  Atom        41          42          43          44          45          46          47          48          49          50
 IAtWgt=          16           1           1          16           1           1          16           1           1          16
 AtmWgt=  15.9949146   1.0078250   1.0078250  15.9949146   1.0078250   1.0078250  15.9949146   1.0078250   1.0078250  15.9949146
 NucSpn=           0           1           1           0           1           1           0           1           1           0
 AtZEff=   0.0000000   0.0000000   0.0000000   0.0000000   0.0000000   0.0000000   0.0000000   0.0000000   0.0000000   0.0000000
 NQMom=    0.0000000   0.0000000   0.0000000   0.0000000   0.0000000   0.0000000   0.0000000   0.0000000   0.0000000   0.0000000
 NMagM=    0.0000000   2.7928460   2.7928460   0.0000000   2.7928460   2.7928460   0.0000000   2.7928460   2.7928460   0.0000000
 AtZNuc=   8.0000000   1.0000000   1.0000000   8.0000000   1.0000000   1.0000000   8.0000000   1.0000000   1.0000000   8.0000000

  Atom        51          52          53          54          55          56          57          58          59          60
 IAtWgt=           1           1          16           1           1          16           1           1          16           1
 AtmWgt=   1.0078250   1.0078250  15.9949146   1.0078250   1.0078250  15.9949146   1.0078250   1.0078250  15.9949146   1.0078250
 NucSpn=           1           1           0           1           1           0           1           1           0           1
 AtZEff=   0.0000000   0.0000000   0.0000000   0.0000000   0.0000000   0.0000000   0.0000000   0.0000000   0.0000000   0.0000000
 NQMom=    0.0000000   0.0000000   0.0000000   0.0000000   0.0000000   0.0000000   0.0000000   0.0000000   0.0000000   0.0000000
 NMagM=    2.7928460   2.7928460   0.0000000   2.7928460   2.7928460   0.0000000   2.7928460   2.7928460   0.0000000   2.7928460
 AtZNuc=   1.0000000   1.0000000   8.0000000   1.0000000   1.0000000   8.0000000   1.0000000   1.0000000   8.0000000   1.0000000

  Atom        61          62          63          64          65          66          67          68          69          70
 IAtWgt=           1          16           1           1          16           1           1          16           1           1
 AtmWgt=   1.0078250  15.9949146   1.0078250   1.0078250  15.9949146   1.0078250   1.0078250  15.9949146   1.0078250   1.0078250
 NucSpn=           1           0           1           1           0           1           1           0           1           1
 AtZEff=   0.0000000   0.0000000   0.0000000   0.0000000   0.0000000   0.0000000   0.0000000   0.0000000   0.0000000   0.0000000
 NQMom=    0.0000000   0.0000000   0.0000000   0.0000000   0.0000000   0.0000000   0.0000000   0.0000000   0.0000000   0.0000000
 NMagM=    2.7928460   0.0000000   2.7928460   2.7928460   0.0000000   2.7928460   2.7928460   0.0000000   2.7928460   2.7928460
 AtZNuc=   1.0000000   8.0000000   1.0000000   1.0000000   8.0000000   1.0000000   1.0000000   8.0000000   1.0000000   1.0000000

  Atom        71          72          73          74          75          76          77          78          79          80
 IAtWgt=          16           1           1          16           1           1          16           1           1          16
 AtmWgt=  15.9949146   1.0078250   1.0078250  15.9949146   1.0078250   1.0078250  15.9949146   1.0078250   1.0078250  15.9949146
 NucSpn=           0           1           1           0           1           1           0           1           1           0
 AtZEff=   0.0000000   0.0000000   0.0000000   0.0000000   0.0000000   0.0000000   0.0000000   0.0000000   0.0000000   0.0000000
 NQMom=    0.0000000   0.0000000   0.0000000   0.0000000   0.0000000   0.0000000   0.0000000   0.0000000   0.0000000   0.0000000
 NMagM=    0.0000000   2.7928460   2.7928460   0.0000000   2.7928460   2.7928460   0.0000000   2.7928460   2.7928460   0.0000000
 AtZNuc=   8.0000000   1.0000000   1.0000000   8.0000000   1.0000000   1.0000000   8.0000000   1.0000000   1.0000000   8.0000000

  Atom        81          82          83          84          85          86          87          88          89          90
 IAtWgt=           1           1          16           1           1          16           1           1          16           1
 AtmWgt=   1.0078250   1.0078250  15.9949146   1.0078250   1.0078250  15.9949146   1.0078250   1.0078250  15.9949146   1.0078250
 NucSpn=           1           1           0           1           1           0           1           1           0           1
 AtZEff=   0.0000000   0.0000000   0.0000000   0.0000000   0.0000000   0.0000000   0.0000000   0.0000000   0.0000000   0.0000000
 NQMom=    0.0000000   0.0000000   0.0000000   0.0000000   0.0000000   0.0000000   0.0000000   0.0000000   0.0000000   0.0000000
 NMagM=    2.7928460   2.7928460   0.0000000   2.7928460   2.7928460   0.0000000   2.7928460   2.7928460   0.0000000   2.7928460
 AtZNuc=   1.0000000   1.0000000   8.0000000   1.0000000   1.0000000   8.0000000   1.0000000   1.0000000   8.0000000   1.0000000

  Atom        91          92          93          94          95          96          97          98          99         100
 IAtWgt=           1          16           1           1          16           1           1          16           1           1
 AtmWgt=   1.0078250  15.9949146   1.0078250   1.0078250  15.9949146   1.0078250   1.0078250  15.9949146   1.0078250   1.0078250
 NucSpn=           1           0           1           1           0           1           1           0           1           1
 AtZEff=   0.0000000   0.0000000   0.0000000   0.0000000   0.0000000   0.0000000   0.0000000   0.0000000   0.0000000   0.0000000
 NQMom=    0.0000000   0.0000000   0.0000000   0.0000000   0.0000000   0.0000000   0.0000000   0.0000000   0.0000000   0.0000000
 NMagM=    2.7928460   0.0000000   2.7928460   2.7928460   0.0000000   2.7928460   2.7928460   0.0000000   2.7928460   2.7928460
 AtZNuc=   1.0000000   8.0000000   1.0000000   1.0000000   8.0000000   1.0000000   1.0000000   8.0000000   1.0000000   1.0000000

  Atom       101         102         103         104         105         106         107         108         109         110
 IAtWgt=          16           1           1          16           1           1          16           1           1          16
 AtmWgt=  15.9949146   1.0078250   1.0078250  15.9949146   1.0078250   1.0078250  15.9949146   1.0078250   1.0078250  15.9949146
 NucSpn=           0           1           1           0           1           1           0           1           1           0
 AtZEff=   0.0000000   0.0000000   0.0000000   0.0000000   0.0000000   0.0000000   0.0000000   0.0000000   0.0000000   0.0000000
 NQMom=    0.0000000   0.0000000   0.0000000   0.0000000   0.0000000   0.0000000   0.0000000   0.0000000   0.0000000   0.0000000
 NMagM=    0.0000000   2.7928460   2.7928460   0.0000000   2.7928460   2.7928460   0.0000000   2.7928460   2.7928460   0.0000000
 AtZNuc=   8.0000000   1.0000000   1.0000000   8.0000000   1.0000000   1.0000000   8.0000000   1.0000000   1.0000000   8.0000000

  Atom       111         112         113         114         115         116         117         118         119         120
 IAtWgt=           1           1          16           1           1          16           1           1          16           1
 AtmWgt=   1.0078250   1.0078250  15.9949146   1.0078250   1.0078250  15.9949146   1.0078250   1.0078250  15.9949146   1.0078250
 NucSpn=           1           1           0           1           1           0           1           1           0           1
 AtZEff=   0.0000000   0.0000000   0.0000000   0.0000000   0.0000000   0.0000000   0.0000000   0.0000000   0.0000000   0.0000000
 NQMom=    0.0000000   0.0000000   0.0000000   0.0000000   0.0000000   0.0000000   0.0000000   0.0000000   0.0000000   0.0000000
 NMagM=    2.7928460   2.7928460   0.0000000   2.7928460   2.7928460   0.0000000   2.7928460   2.7928460   0.0000000   2.7928460
 AtZNuc=   1.0000000   1.0000000   8.0000000   1.0000000   1.0000000   8.0000000   1.0000000   1.0000000   8.0000000   1.0000000

  Atom       121         122         123         124         125         126         127         128         129         130
 IAtWgt=           1          16           1           1          16           1           1          16           1           1
 AtmWgt=   1.0078250  15.9949146   1.0078250   1.0078250  15.9949146   1.0078250   1.0078250  15.9949146   1.0078250   1.0078250
 NucSpn=           1           0           1           1           0           1           1           0           1           1
 AtZEff=   0.0000000   0.0000000   0.0000000   0.0000000   0.0000000   0.0000000   0.0000000   0.0000000   0.0000000   0.0000000
 NQMom=    0.0000000   0.0000000   0.0000000   0.0000000   0.0000000   0.0000000   0.0000000   0.0000000   0.0000000   0.0000000
 NMagM=    2.7928460   0.0000000   2.7928460   2.7928460   0.0000000   2.7928460   2.7928460   0.0000000   2.7928460   2.7928460
 AtZNuc=   1.0000000   8.0000000   1.0000000   1.0000000   8.0000000   1.0000000   1.0000000   8.0000000   1.0000000   1.0000000

  Atom       131         132         133         134         135         136         137         138         139         140
 IAtWgt=          16           1           1          16           1           1          16           1           1          16
 AtmWgt=  15.9949146   1.0078250   1.0078250  15.9949146   1.0078250   1.0078250  15.9949146   1.0078250   1.0078250  15.9949146
 NucSpn=           0           1           1           0           1           1           0           1           1           0
 AtZEff=   0.0000000   0.0000000   0.0000000   0.0000000   0.0000000   0.0000000   0.0000000   0.0000000   0.0000000   0.0000000
 NQMom=    0.0000000   0.0000000   0.0000000   0.0000000   0.0000000   0.0000000   0.0000000   0.0000000   0.0000000   0.0000000
 NMagM=    0.0000000   2.7928460   2.7928460   0.0000000   2.7928460   2.7928460   0.0000000   2.7928460   2.7928460   0.0000000
 AtZNuc=   8.0000000   1.0000000   1.0000000   8.0000000   1.0000000   1.0000000   8.0000000   1.0000000   1.0000000   8.0000000

  Atom       141         142         143         144         145         146         147         148         149         150
 IAtWgt=           1           1          16           1           1          16           1           1          16           1
 AtmWgt=   1.0078250   1.0078250  15.9949146   1.0078250   1.0078250  15.9949146   1.0078250   1.0078250  15.9949146   1.0078250
 NucSpn=           1           1           0           1           1           0           1           1           0           1
 AtZEff=   0.0000000   0.0000000   0.0000000   0.0000000   0.0000000   0.0000000   0.0000000   0.0000000   0.0000000   0.0000000
 NQMom=    0.0000000   0.0000000   0.0000000   0.0000000   0.0000000   0.0000000   0.0000000   0.0000000   0.0000000   0.0000000
 NMagM=    2.7928460   2.7928460   0.0000000   2.7928460   2.7928460   0.0000000   2.7928460   2.7928460   0.0000000   2.7928460
 AtZNuc=   1.0000000   1.0000000   8.0000000   1.0000000   1.0000000   8.0000000   1.0000000   1.0000000   8.0000000   1.0000000

  Atom       151         152         153         154         155         156         157         158         159         160
 IAtWgt=           1          16           1           1          16           1           1          16           1           1
 AtmWgt=   1.0078250  15.9949146   1.0078250   1.0078250  15.9949146   1.0078250   1.0078250  15.9949146   1.0078250   1.0078250
 NucSpn=           1           0           1           1           0           1           1           0           1           1
 AtZEff=   0.0000000   0.0000000   0.0000000   0.0000000   0.0000000   0.0000000   0.0000000   0.0000000   0.0000000   0.0000000
 NQMom=    0.0000000   0.0000000   0.0000000   0.0000000   0.0000000   0.0000000   0.0000000   0.0000000   0.0000000   0.0000000
 NMagM=    2.7928460   0.0000000   2.7928460   2.7928460   0.0000000   2.7928460   2.7928460   0.0000000   2.7928460   2.7928460
 AtZNuc=   1.0000000   8.0000000   1.0000000   1.0000000   8.0000000   1.0000000   1.0000000   8.0000000   1.0000000   1.0000000

  Atom       161         162         163         164         165         166         167         168         169         170
 IAtWgt=          16           1           1          16           1           1          16           1           1          16
 AtmWgt=  15.9949146   1.0078250   1.0078250  15.9949146   1.0078250   1.0078250  15.9949146   1.0078250   1.0078250  15.9949146
 NucSpn=           0           1           1           0           1           1           0           1           1           0
 AtZEff=   0.0000000   0.0000000   0.0000000   0.0000000   0.0000000   0.0000000   0.0000000   0.0000000   0.0000000   0.0000000
 NQMom=    0.0000000   0.0000000   0.0000000   0.0000000   0.0000000   0.0000000   0.0000000   0.0000000   0.0000000   0.0000000
 NMagM=    0.0000000   2.7928460   2.7928460   0.0000000   2.7928460   2.7928460   0.0000000   2.7928460   2.7928460   0.0000000
 AtZNuc=   8.0000000   1.0000000   1.0000000   8.0000000   1.0000000   1.0000000   8.0000000   1.0000000   1.0000000   8.0000000

  Atom       171         172         173         174         175         176         177         178         179         180
 IAtWgt=           1           1          16           1           1          16           1           1          16           1
 AtmWgt=   1.0078250   1.0078250  15.9949146   1.0078250   1.0078250  15.9949146   1.0078250   1.0078250  15.9949146   1.0078250
 NucSpn=           1           1           0           1           1           0           1           1           0           1
 AtZEff=   0.0000000   0.0000000   0.0000000   0.0000000   0.0000000   0.0000000   0.0000000   0.0000000   0.0000000   0.0000000
 NQMom=    0.0000000   0.0000000   0.0000000   0.0000000   0.0000000   0.0000000   0.0000000   0.0000000   0.0000000   0.0000000
 NMagM=    2.7928460   2.7928460   0.0000000   2.7928460   2.7928460   0.0000000   2.7928460   2.7928460   0.0000000   2.7928460
 AtZNuc=   1.0000000   1.0000000   8.0000000   1.0000000   1.0000000   8.0000000   1.0000000   1.0000000   8.0000000   1.0000000

  Atom       181         182         183         184         185         186         187         188         189         190
 IAtWgt=           1          16           1           1          16           1           1          16           1           1
 AtmWgt=   1.0078250  15.9949146   1.0078250   1.0078250  15.9949146   1.0078250   1.0078250  15.9949146   1.0078250   1.0078250
 NucSpn=           1           0           1           1           0           1           1           0           1           1
 AtZEff=   0.0000000   0.0000000   0.0000000   0.0000000   0.0000000   0.0000000   0.0000000   0.0000000   0.0000000   0.0000000
 NQMom=    0.0000000   0.0000000   0.0000000   0.0000000   0.0000000   0.0000000   0.0000000   0.0000000   0.0000000   0.0000000
 NMagM=    2.7928460   0.0000000   2.7928460   2.7928460   0.0000000   2.7928460   2.7928460   0.0000000   2.7928460   2.7928460
 AtZNuc=   1.0000000   8.0000000   1.0000000   1.0000000   8.0000000   1.0000000   1.0000000   8.0000000   1.0000000   1.0000000

  Atom       191         192         193         194         195         196         197         198         199         200
 IAtWgt=          16           1           1          16           1           1          16           1           1          16
 AtmWgt=  15.9949146   1.0078250   1.0078250  15.9949146   1.0078250   1.0078250  15.9949146   1.0078250   1.0078250  15.9949146
 NucSpn=           0           1           1           0           1           1           0           1           1           0
 AtZEff=   0.0000000   0.0000000   0.0000000   0.0000000   0.0000000   0.0000000   0.0000000   0.0000000   0.0000000   0.0000000
 NQMom=    0.0000000   0.0000000   0.0000000   0.0000000   0.0000000   0.0000000   0.0000000   0.0000000   0.0000000   0.0000000
 NMagM=    0.0000000   2.7928460   2.7928460   0.0000000   2.7928460   2.7928460   0.0000000   2.7928460   2.7928460   0.0000000
 AtZNuc=   8.0000000   1.0000000   1.0000000   8.0000000   1.0000000   1.0000000   8.0000000   1.0000000   1.0000000   8.0000000

  Atom       201         202         203         204         205         206         207         208         209         210
 IAtWgt=           1           1          16           1           1          16           1           1          16           1
 AtmWgt=   1.0078250   1.0078250  15.9949146   1.0078250   1.0078250  15.9949146   1.0078250   1.0078250  15.9949146   1.0078250
 NucSpn=           1           1           0           1           1           0           1           1           0           1
 AtZEff=   0.0000000   0.0000000   0.0000000   0.0000000   0.0000000   0.0000000   0.0000000   0.0000000   0.0000000   0.0000000
 NQMom=    0.0000000   0.0000000   0.0000000   0.0000000   0.0000000   0.0000000   0.0000000   0.0000000   0.0000000   0.0000000
 NMagM=    2.7928460   2.7928460   0.0000000   2.7928460   2.7928460   0.0000000   2.7928460   2.7928460   0.0000000   2.7928460
 AtZNuc=   1.0000000   1.0000000   8.0000000   1.0000000   1.0000000   8.0000000   1.0000000   1.0000000   8.0000000   1.0000000

  Atom       211         212         213         214         215         216         217         218         219         220
 IAtWgt=           1          16           1           1          16           1           1          16           1           1
 AtmWgt=   1.0078250  15.9949146   1.0078250   1.0078250  15.9949146   1.0078250   1.0078250  15.9949146   1.0078250   1.0078250
 NucSpn=           1           0           1           1           0           1           1           0           1           1
 AtZEff=   0.0000000   0.0000000   0.0000000   0.0000000   0.0000000   0.0000000   0.0000000   0.0000000   0.0000000   0.0000000
 NQMom=    0.0000000   0.0000000   0.0000000   0.0000000   0.0000000   0.0000000   0.0000000   0.0000000   0.0000000   0.0000000
 NMagM=    2.7928460   0.0000000   2.7928460   2.7928460   0.0000000   2.7928460   2.7928460   0.0000000   2.7928460   2.7928460
 AtZNuc=   1.0000000   8.0000000   1.0000000   1.0000000   8.0000000   1.0000000   1.0000000   8.0000000   1.0000000   1.0000000

  Atom       221         222         223         224         225         226         227         228         229         230
 IAtWgt=          16           1           1          16           1           1          16           1           1          16
 AtmWgt=  15.9949146   1.0078250   1.0078250  15.9949146   1.0078250   1.0078250  15.9949146   1.0078250   1.0078250  15.9949146
 NucSpn=           0           1           1           0           1           1           0           1           1           0
 AtZEff=   0.0000000   0.0000000   0.0000000   0.0000000   0.0000000   0.0000000   0.0000000   0.0000000   0.0000000   0.0000000
 NQMom=    0.0000000   0.0000000   0.0000000   0.0000000   0.0000000   0.0000000   0.0000000   0.0000000   0.0000000   0.0000000
 NMagM=    0.0000000   2.7928460   2.7928460   0.0000000   2.7928460   2.7928460   0.0000000   2.7928460   2.7928460   0.0000000
 AtZNuc=   8.0000000   1.0000000   1.0000000   8.0000000   1.0000000   1.0000000   8.0000000   1.0000000   1.0000000   8.0000000

  Atom       231         232         233         234         235         236         237         238         239         240
 IAtWgt=           1           1          16           1           1          16           1           1          16           1
 AtmWgt=   1.0078250   1.0078250  15.9949146   1.0078250   1.0078250  15.9949146   1.0078250   1.0078250  15.9949146   1.0078250
 NucSpn=           1           1           0           1           1           0           1           1           0           1
 AtZEff=   0.0000000   0.0000000   0.0000000   0.0000000   0.0000000   0.0000000   0.0000000   0.0000000   0.0000000   0.0000000
 NQMom=    0.0000000   0.0000000   0.0000000   0.0000000   0.0000000   0.0000000   0.0000000   0.0000000   0.0000000   0.0000000
 NMagM=    2.7928460   2.7928460   0.0000000   2.7928460   2.7928460   0.0000000   2.7928460   2.7928460   0.0000000   2.7928460
 AtZNuc=   1.0000000   1.0000000   8.0000000   1.0000000   1.0000000   8.0000000   1.0000000   1.0000000   8.0000000   1.0000000

  Atom       241         242         243         244         245         246         247         248         249         250
 IAtWgt=           1          16           1           1          16           1           1          16           1           1
 AtmWgt=   1.0078250  15.9949146   1.0078250   1.0078250  15.9949146   1.0078250   1.0078250  15.9949146   1.0078250   1.0078250
 NucSpn=           1           0           1           1           0           1           1           0           1           1
 AtZEff=   0.0000000   0.0000000   0.0000000   0.0000000   0.0000000   0.0000000   0.0000000   0.0000000   0.0000000   0.0000000
 NQMom=    0.0000000   0.0000000   0.0000000   0.0000000   0.0000000   0.0000000   0.0000000   0.0000000   0.0000000   0.0000000
 NMagM=    2.7928460   0.0000000   2.7928460   2.7928460   0.0000000   2.7928460   2.7928460   0.0000000   2.7928460   2.7928460
 AtZNuc=   1.0000000   8.0000000   1.0000000   1.0000000   8.0000000   1.0000000   1.0000000   8.0000000   1.0000000   1.0000000

  Atom       251         252         253         254         255         256         257         258         259         260
 IAtWgt=          16           1           1          16           1           1          16           1           1          16
 AtmWgt=  15.9949146   1.0078250   1.0078250  15.9949146   1.0078250   1.0078250  15.9949146   1.0078250   1.0078250  15.9949146
 NucSpn=           0           1           1           0           1           1           0           1           1           0
 AtZEff=   0.0000000   0.0000000   0.0000000   0.0000000   0.0000000   0.0000000   0.0000000   0.0000000   0.0000000   0.0000000
 NQMom=    0.0000000   0.0000000   0.0000000   0.0000000   0.0000000   0.0000000   0.0000000   0.0000000   0.0000000   0.0000000
 NMagM=    0.0000000   2.7928460   2.7928460   0.0000000   2.7928460   2.7928460   0.0000000   2.7928460   2.7928460   0.0000000
 AtZNuc=   8.0000000   1.0000000   1.0000000   8.0000000   1.0000000   1.0000000   8.0000000   1.0000000   1.0000000   8.0000000

  Atom       261         262         263         264         265         266         267         268         269         270
 IAtWgt=           1           1          16           1           1          16           1           1          16           1
 AtmWgt=   1.0078250   1.0078250  15.9949146   1.0078250   1.0078250  15.9949146   1.0078250   1.0078250  15.9949146   1.0078250
 NucSpn=           1           1           0           1           1           0           1           1           0           1
 AtZEff=   0.0000000   0.0000000   0.0000000   0.0000000   0.0000000   0.0000000   0.0000000   0.0000000   0.0000000   0.0000000
 NQMom=    0.0000000   0.0000000   0.0000000   0.0000000   0.0000000   0.0000000   0.0000000   0.0000000   0.0000000   0.0000000
 NMagM=    2.7928460   2.7928460   0.0000000   2.7928460   2.7928460   0.0000000   2.7928460   2.7928460   0.0000000   2.7928460
 AtZNuc=   1.0000000   1.0000000   8.0000000   1.0000000   1.0000000   8.0000000   1.0000000   1.0000000   8.0000000   1.0000000

  Atom       271         272         273         274         275         276         277         278         279         280
 IAtWgt=           1          16           1           1          16           1           1          16           1           1
 AtmWgt=   1.0078250  15.9949146   1.0078250   1.0078250  15.9949146   1.0078250   1.0078250  15.9949146   1.0078250   1.0078250
 NucSpn=           1           0           1           1           0           1           1           0           1           1
 AtZEff=   0.0000000   0.0000000   0.0000000   0.0000000   0.0000000   0.0000000   0.0000000   0.0000000   0.0000000   0.0000000
 NQMom=    0.0000000   0.0000000   0.0000000   0.0000000   0.0000000   0.0000000   0.0000000   0.0000000   0.0000000   0.0000000
 NMagM=    2.7928460   0.0000000   2.7928460   2.7928460   0.0000000   2.7928460   2.7928460   0.0000000   2.7928460   2.7928460
 AtZNuc=   1.0000000   8.0000000   1.0000000   1.0000000   8.0000000   1.0000000   1.0000000   8.0000000   1.0000000   1.0000000

  Atom       281         282         283         284         285         286         287         288         289         290
 IAtWgt=          16           1           1          16           1           1          16           1           1          16
 AtmWgt=  15.9949146   1.0078250   1.0078250  15.9949146   1.0078250   1.0078250  15.9949146   1.0078250   1.0078250  15.9949146
 NucSpn=           0           1           1           0           1           1           0           1           1           0
 AtZEff=   0.0000000   0.0000000   0.0000000   0.0000000   0.0000000   0.0000000   0.0000000   0.0000000   0.0000000   0.0000000
 NQMom=    0.0000000   0.0000000   0.0000000   0.0000000   0.0000000   0.0000000   0.0000000   0.0000000   0.0000000   0.0000000
 NMagM=    0.0000000   2.7928460   2.7928460   0.0000000   2.7928460   2.7928460   0.0000000   2.7928460   2.7928460   0.0000000
 AtZNuc=   8.0000000   1.0000000   1.0000000   8.0000000   1.0000000   1.0000000   8.0000000   1.0000000   1.0000000   8.0000000

  Atom       291         292         293         294         295         296         297         298         299         300
 IAtWgt=           1           1          16           1           1          16           1           1          16           1
 AtmWgt=   1.0078250   1.0078250  15.9949146   1.0078250   1.0078250  15.9949146   1.0078250   1.0078250  15.9949146   1.0078250
 NucSpn=           1           1           0           1           1           0           1           1           0           1
 AtZEff=   0.0000000   0.0000000   0.0000000   0.0000000   0.0000000   0.0000000   0.0000000   0.0000000   0.0000000   0.0000000
 NQMom=    0.0000000   0.0000000   0.0000000   0.0000000   0.0000000   0.0000000   0.0000000   0.0000000   0.0000000   0.0000000
 NMagM=    2.7928460   2.7928460   0.0000000   2.7928460   2.7928460   0.0000000   2.7928460   2.7928460   0.0000000   2.7928460
 AtZNuc=   1.0000000   1.0000000   8.0000000   1.0000000   1.0000000   8.0000000   1.0000000   1.0000000   8.0000000   1.0000000

  Atom       301         302         303         304         305         306         307         308         309         310
 IAtWgt=           1          16           1           1          16           1           1          16           1           1
 AtmWgt=   1.0078250  15.9949146   1.0078250   1.0078250  15.9949146   1.0078250   1.0078250  15.9949146   1.0078250   1.0078250
 NucSpn=           1           0           1           1           0           1           1           0           1           1
 AtZEff=   0.0000000   0.0000000   0.0000000   0.0000000   0.0000000   0.0000000   0.0000000   0.0000000   0.0000000   0.0000000
 NQMom=    0.0000000   0.0000000   0.0000000   0.0000000   0.0000000   0.0000000   0.0000000   0.0000000   0.0000000   0.0000000
 NMagM=    2.7928460   0.0000000   2.7928460   2.7928460   0.0000000   2.7928460   2.7928460   0.0000000   2.7928460   2.7928460
 AtZNuc=   1.0000000   8.0000000   1.0000000   1.0000000   8.0000000   1.0000000   1.0000000   8.0000000   1.0000000   1.0000000

  Atom       311         312         313         314         315         316         317         318         319         320
 IAtWgt=          16           1           1          16           1           1          16           1           1          16
 AtmWgt=  15.9949146   1.0078250   1.0078250  15.9949146   1.0078250   1.0078250  15.9949146   1.0078250   1.0078250  15.9949146
 NucSpn=           0           1           1           0           1           1           0           1           1           0
 AtZEff=   0.0000000   0.0000000   0.0000000   0.0000000   0.0000000   0.0000000   0.0000000   0.0000000   0.0000000   0.0000000
 NQMom=    0.0000000   0.0000000   0.0000000   0.0000000   0.0000000   0.0000000   0.0000000   0.0000000   0.0000000   0.0000000
 NMagM=    0.0000000   2.7928460   2.7928460   0.0000000   2.7928460   2.7928460   0.0000000   2.7928460   2.7928460   0.0000000
 AtZNuc=   8.0000000   1.0000000   1.0000000   8.0000000   1.0000000   1.0000000   8.0000000   1.0000000   1.0000000   8.0000000

  Atom       321         322         323         324         325         326         327         328         329         330
 IAtWgt=           1           1          16           1           1          16           1           1          16           1
 AtmWgt=   1.0078250   1.0078250  15.9949146   1.0078250   1.0078250  15.9949146   1.0078250   1.0078250  15.9949146   1.0078250
 NucSpn=           1           1           0           1           1           0           1           1           0           1
 AtZEff=   0.0000000   0.0000000   0.0000000   0.0000000   0.0000000   0.0000000   0.0000000   0.0000000   0.0000000   0.0000000
 NQMom=    0.0000000   0.0000000   0.0000000   0.0000000   0.0000000   0.0000000   0.0000000   0.0000000   0.0000000   0.0000000
 NMagM=    2.7928460   2.7928460   0.0000000   2.7928460   2.7928460   0.0000000   2.7928460   2.7928460   0.0000000   2.7928460
 AtZNuc=   1.0000000   1.0000000   8.0000000   1.0000000   1.0000000   8.0000000   1.0000000   1.0000000   8.0000000   1.0000000

  Atom       331         332         333         334         335         336         337         338         339         340
 IAtWgt=           1          16           1           1          16           1           1          16           1           1
 AtmWgt=   1.0078250  15.9949146   1.0078250   1.0078250  15.9949146   1.0078250   1.0078250  15.9949146   1.0078250   1.0078250
 NucSpn=           1           0           1           1           0           1           1           0           1           1
 AtZEff=   0.0000000   0.0000000   0.0000000   0.0000000   0.0000000   0.0000000   0.0000000   0.0000000   0.0000000   0.0000000
 NQMom=    0.0000000   0.0000000   0.0000000   0.0000000   0.0000000   0.0000000   0.0000000   0.0000000   0.0000000   0.0000000
 NMagM=    2.7928460   0.0000000   2.7928460   2.7928460   0.0000000   2.7928460   2.7928460   0.0000000   2.7928460   2.7928460
 AtZNuc=   1.0000000   8.0000000   1.0000000   1.0000000   8.0000000   1.0000000   1.0000000   8.0000000   1.0000000   1.0000000

  Atom       341         342         343         344         345         346         347         348         349         350
 IAtWgt=          16           1           1          16           1           1          16           1           1          16
 AtmWgt=  15.9949146   1.0078250   1.0078250  15.9949146   1.0078250   1.0078250  15.9949146   1.0078250   1.0078250  15.9949146
 NucSpn=           0           1           1           0           1           1           0           1           1           0
 AtZEff=   0.0000000   0.0000000   0.0000000   0.0000000   0.0000000   0.0000000   0.0000000   0.0000000   0.0000000   0.0000000
 NQMom=    0.0000000   0.0000000   0.0000000   0.0000000   0.0000000   0.0000000   0.0000000   0.0000000   0.0000000   0.0000000
 NMagM=    0.0000000   2.7928460   2.7928460   0.0000000   2.7928460   2.7928460   0.0000000   2.7928460   2.7928460   0.0000000
 AtZNuc=   8.0000000   1.0000000   1.0000000   8.0000000   1.0000000   1.0000000   8.0000000   1.0000000   1.0000000   8.0000000

  Atom       351         352         353         354         355         356         357         358         359         360
 IAtWgt=           1           1          16           1           1          16           1           1          16           1
 AtmWgt=   1.0078250   1.0078250  15.9949146   1.0078250   1.0078250  15.9949146   1.0078250   1.0078250  15.9949146   1.0078250
 NucSpn=           1           1           0           1           1           0           1           1           0           1
 AtZEff=   0.0000000   0.0000000   0.0000000   0.0000000   0.0000000   0.0000000   0.0000000   0.0000000   0.0000000   0.0000000
 NQMom=    0.0000000   0.0000000   0.0000000   0.0000000   0.0000000   0.0000000   0.0000000   0.0000000   0.0000000   0.0000000
 NMagM=    2.7928460   2.7928460   0.0000000   2.7928460   2.7928460   0.0000000   2.7928460   2.7928460   0.0000000   2.7928460
 AtZNuc=   1.0000000   1.0000000   8.0000000   1.0000000   1.0000000   8.0000000   1.0000000   1.0000000   8.0000000   1.0000000

  Atom       361         362         363         364         365         366         367         368         369         370
 IAtWgt=           1          16           1           1          16           1           1          16           1           1
 AtmWgt=   1.0078250  15.9949146   1.0078250   1.0078250  15.9949146   1.0078250   1.0078250  15.9949146   1.0078250   1.0078250
 NucSpn=           1           0           1           1           0           1           1           0           1           1
 AtZEff=   0.0000000   0.0000000   0.0000000   0.0000000   0.0000000   0.0000000   0.0000000   0.0000000   0.0000000   0.0000000
 NQMom=    0.0000000   0.0000000   0.0000000   0.0000000   0.0000000   0.0000000   0.0000000   0.0000000   0.0000000   0.0000000
 NMagM=    2.7928460   0.0000000   2.7928460   2.7928460   0.0000000   2.7928460   2.7928460   0.0000000   2.7928460   2.7928460
 AtZNuc=   1.0000000   8.0000000   1.0000000   1.0000000   8.0000000   1.0000000   1.0000000   8.0000000   1.0000000   1.0000000

  Atom       371         372         373         374         375         376         377         378         379         380
 IAtWgt=          16           1           1          16           1           1          16           1           1          16
 AtmWgt=  15.9949146   1.0078250   1.0078250  15.9949146   1.0078250   1.0078250  15.9949146   1.0078250   1.0078250  15.9949146
 NucSpn=           0           1           1           0           1           1           0           1           1           0
 AtZEff=   0.0000000   0.0000000   0.0000000   0.0000000   0.0000000   0.0000000   0.0000000   0.0000000   0.0000000   0.0000000
 NQMom=    0.0000000   0.0000000   0.0000000   0.0000000   0.0000000   0.0000000   0.0000000   0.0000000   0.0000000   0.0000000
 NMagM=    0.0000000   2.7928460   2.7928460   0.0000000   2.7928460   2.7928460   0.0000000   2.7928460   2.7928460   0.0000000
 AtZNuc=   8.0000000   1.0000000   1.0000000   8.0000000   1.0000000   1.0000000   8.0000000   1.0000000   1.0000000   8.0000000

  Atom       381         382         383         384         385
 IAtWgt=           1           1          16           1           1
 AtmWgt=   1.0078250   1.0078250  15.9949146   1.0078250   1.0078250
 NucSpn=           1           1           0           1           1
 AtZEff=   0.0000000   0.0000000   0.0000000   0.0000000   0.0000000
 NQMom=    0.0000000   0.0000000   0.0000000   0.0000000   0.0000000
 NMagM=    2.7928460   2.7928460   0.0000000   2.7928460   2.7928460
 AtZNuc=   1.0000000   1.0000000   8.0000000   1.0000000   1.0000000
 Leave Link  101 at Tue May  8 14:51:34 2018, MaxMem= 14763950080 cpu:        33.2
 (Enter /cm/shared/gaussian/g09.e01/intel64-sandybridge/g09/l103.exe)

 GradGradGradGradGradGradGradGradGradGradGradGradGradGradGradGradGradGrad
 Berny optimization.
 Initialization pass.
 Trust Radius=3.00D-01 FncErr=1.00D-07 GrdErr=1.00D-07
 Number of steps in this run=      2 maximum allowed number of steps=      2.
 GradGradGradGradGradGradGradGradGradGradGradGradGradGradGradGradGradGrad

 Leave Link  103 at Tue May  8 14:51:34 2018, MaxMem= 14763950080 cpu:         3.6
 (Enter /cm/shared/gaussian/g09.e01/intel64-sandybridge/g09/l202.exe)
 Symmetry turned off by external request.
 Stoichiometry    BrH256O128(1-)
 Framework group  C1[X(BrH256O128)]
 Deg. of freedom  1149
 Full point group                 C1      NOp   1
                          Input orientation:                          
 ---------------------------------------------------------------------
 Center     Atomic      Atomic             Coordinates (Angstroms)
 Number     Number       Type             X           Y           Z
 ---------------------------------------------------------------------
      1         35           0       20.000000   20.000000   20.000000
      2          8           0       16.780000   19.120000   20.080000
      3          1           0       17.680000   19.280000   19.820000
      4          1           0       16.820000   18.340000   20.630000
      5          8           0       21.270000   21.900000   22.440000
      6          1           0       20.400000   21.970000   22.820000
      7          1           0       21.140000   21.430000   21.620000
      8          8           0       18.300000   22.930000   20.060000
      9          1           0       18.630000   22.810000   20.960000
     10          1           0       18.510000   22.100000   19.620000
     11          8           0       22.000000   21.220000   17.410000
     12          1           0       22.460000   20.690000   16.760000
     13          1           0       21.690000   20.580000   18.050000
     14          8           0       17.890000   19.510000   16.830000
     15          1           0       18.300000   19.790000   17.640000
     16          1           0       17.460000   20.300000   16.490000
     17          8           0       21.970000   16.720000   20.010000
     18          1           0       21.440000   17.440000   19.680000
     19          1           0       22.190000   16.210000   19.230000
     20          8           0       23.780000   20.050000   21.500000
     21          1           0       22.910000   19.920000   21.140000
     22          1           0       24.110000   20.840000   21.070000
     23          8           0       20.360000   16.940000   22.380000
     24          1           0       20.200000   17.880000   22.410000
     25          1           0       20.950000   16.820000   21.630000
     26          8           0       18.480000   22.100000   22.740000
     27          1           0       17.730000   21.770000   22.250000
     28          1           0       18.650000   21.420000   23.390000
     29          8           0       20.050000   23.510000   17.090000
     30          1           0       20.710000   22.950000   17.490000
     31          1           0       20.340000   23.610000   16.180000
     32          8           0       16.130000   21.310000   21.450000
     33          1           0       15.200000   21.420000   21.640000
     34          1           0       16.160000   20.520000   20.900000
     35          8           0       18.840000   19.920000   24.320000
     36          1           0       18.180000   19.440000   23.810000
     37          1           0       18.760000   19.550000   25.200000
     38          8           0       16.200000   17.090000   18.020000
     39          1           0       15.440000   17.520000   18.410000
     40          1           0       16.890000   17.750000   18.010000
     41          8           0       24.510000   21.910000   19.310000
     42          1           0       23.750000   21.890000   18.730000
     43          1           0       24.770000   22.830000   19.340000
     44          8           0       19.260000   17.190000   15.460000
     45          1           0       18.890000   17.670000   16.200000
     46          1           0       19.470000   17.860000   14.820000
     47          8           0       22.040000   24.430000   21.810000
     48          1           0       21.970000   23.610000   22.300000
     49          1           0       22.890000   24.390000   21.380000
     50          8           0       18.070000   15.080000   21.520000
     51          1           0       18.260000   14.250000   21.060000
     52          1           0       18.920000   15.500000   21.610000
     53          8           0       16.990000   21.820000   15.990000
     54          1           0       17.580000   22.440000   16.410000
     55          1           0       17.110000   21.970000   15.060000
     56          8           0       18.160000   25.160000   18.400000
     57          1           0       18.570000   24.750000   19.160000
     58          1           0       18.360000   24.570000   17.670000
     59          8           0       22.780000   25.250000   19.020000
     60          1           0       22.060000   25.870000   19.080000
     61          1           0       22.350000   24.390000   18.950000
     62          8           0       14.260000   18.920000   18.700000
     63          1           0       14.170000   19.240000   17.810000
     64          1           0       14.950000   19.460000   19.080000
     65          8           0       20.030000   20.150000   14.050000
     66          1           0       20.540000   20.260000   14.840000
     67          1           0       19.300000   20.760000   14.140000
     68          8           0       21.440000   20.450000   25.770000
     69          1           0       20.730000   20.500000   25.130000
     70          1           0       21.320000   21.220000   26.320000
     71          8           0       16.730000   18.300000   23.800000
     72          1           0       15.890000   18.490000   24.220000
     73          1           0       17.150000   17.660000   24.370000
     74          8           0       24.000000   20.290000   24.430000
     75          1           0       23.100000   20.490000   24.690000
     76          1           0       23.990000   20.340000   23.470000
     77          8           0       23.810000   16.480000   23.510000
     78          1           0       23.310000   16.800000   22.760000
     79          1           0       23.600000   15.550000   23.550000
     80          8           0       15.510000   24.030000   20.660000
     81          1           0       15.750000   23.290000   20.100000
     82          1           0       16.340000   24.480000   20.830000
     83          8           0       20.690000   15.240000   24.370000
     84          1           0       21.060000   15.820000   25.030000
     85          1           0       20.400000   15.830000   23.670000
     86          8           0       22.850000   15.350000   18.000000
     87          1           0       23.040000   14.450000   17.750000
     88          1           0       22.390000   15.720000   17.240000
     89          8           0       24.000000   19.470000   15.850000
     90          1           0       24.360000   19.290000   14.980000
     91          1           0       24.160000   18.670000   16.350000
     92          8           0       21.740000   16.060000   15.730000
     93          1           0       22.090000   15.910000   14.850000
     94          1           0       20.890000   16.480000   15.580000
     95          8           0       14.580000   20.600000   16.440000
     96          1           0       15.490000   20.800000   16.230000
     97          1           0       14.160000   21.460000   16.510000
     98          8           0       18.310000   24.180000   25.110000
     99          1           0       18.210000   23.450000   24.500000
    100          1           0       18.540000   24.930000   24.570000
    101          8           0       16.830000   14.300000   18.370000
    102          1           0       16.720000   15.230000   18.530000
    103          1           0       17.050000   13.930000   19.220000
    104          8           0       26.720000   20.560000   18.560000
    105          1           0       25.840000   20.900000   18.710000
    106          1           0       27.280000   21.070000   19.150000
    107          8           0       24.540000   22.340000   16.300000
    108          1           0       24.500000   21.400000   16.130000
    109          1           0       25.460000   22.570000   16.140000
    110          8           0       15.480000   15.670000   22.750000
    111          1           0       16.390000   15.720000   22.470000
    112          1           0       15.260000   16.560000   23.040000
    113          8           0       16.140000   17.690000   14.610000
    114          1           0       16.280000   17.950000   15.530000
    115          1           0       16.550000   16.830000   14.540000
    116          8           0       20.850000   17.580000   26.050000
    117          1           0       21.120000   18.490000   25.920000
    118          1           0       21.230000   17.330000   26.890000
    119          8           0       22.400000   23.330000   14.710000
    120          1           0       22.960000   22.840000   15.310000
    121          1           0       22.950000   23.500000   13.940000
    122          8           0       20.420000   27.040000   21.010000
    123          1           0       20.190000   26.150000   21.270000
    124          1           0       20.420000   27.020000   20.050000
    125          8           0       24.990000   15.200000   19.520000
    126          1           0       24.260000   15.490000   18.980000
    127          1           0       25.350000   16.010000   19.890000
    128          8           0       20.500000   25.700000   23.750000
    129          1           0       21.080000   25.860000   24.500000
    130          1           0       21.080000   25.510000   23.020000
    131          8           0       26.420000   18.140000   22.460000
    132          1           0       26.640000   17.840000   21.580000
    133          1           0       25.480000   17.960000   22.550000
    134          8           0       17.840000   25.720000   22.570000
    135          1           0       17.890000   26.650000   22.350000
    136          1           0       18.690000   25.520000   22.970000
    137          8           0       14.870000   21.020000   24.670000
    138          1           0       15.780000   21.250000   24.850000
    139          1           0       14.540000   21.740000   24.140000
    140          8           0       17.530000   16.280000   25.340000
    141          1           0       18.410000   15.990000   25.090000
    142          1           0       17.050000   15.480000   25.530000
    143          8           0       24.800000   23.910000   24.250000
    144          1           0       24.590000   23.160000   23.690000
    145          1           0       25.440000   23.570000   24.870000
    146          8           0       13.970000   22.770000   18.130000
    147          1           0       14.080000   23.650000   18.480000
    148          1           0       13.680000   22.240000   18.870000
    149          8           0       13.890000   23.320000   22.860000
    150          1           0       14.560000   23.520000   22.210000
    151          1           0       13.520000   24.170000   23.090000
    152          8           0       25.600000   24.470000   18.940000
    153          1           0       24.730000   24.860000   18.970000
    154          1           0       26.150000   25.070000   19.440000
    155          8           0       12.750000   17.880000   20.610000
    156          1           0       13.350000   18.130000   19.910000
    157          1           0       12.260000   17.140000   20.260000
    158          8           0       19.760000   13.570000   16.310000
    159          1           0       19.240000   14.290000   15.950000
    160          1           0       20.550000   13.980000   16.640000
    161          8           0       25.010000   16.660000   15.810000
    162          1           0       24.910000   16.020000   15.100000
    163          1           0       24.710000   16.210000   16.590000
    164          8           0       17.160000   21.440000   26.280000
    165          1           0       18.020000   21.820000   26.460000
    166          1           0       17.230000   20.540000   26.600000
    167          8           0       22.230000   18.200000   12.780000
    168          1           0       21.640000   18.760000   13.290000
    169          1           0       21.670000   17.810000   12.110000
    170          8           0       12.670000   21.070000   19.890000
    171          1           0       12.970000   20.170000   19.750000
    172          1           0       11.760000   20.990000   20.170000
    173          8           0       17.190000   14.740000   15.330000
    174          1           0       17.280000   13.850000   15.660000
    175          1           0       16.650000   15.190000   15.990000
    176          8           0       18.020000   22.900000   13.800000
    177          1           0       17.850000   23.800000   14.090000
    178          1           0       17.880000   22.920000   12.850000
    179          8           0       17.830000   27.620000   19.430000
    180          1           0       16.970000   27.260000   19.660000
    181          1           0       18.200000   26.960000   18.850000
    182          8           0       27.010000   21.020000   23.440000
    183          1           0       26.600000   20.170000   23.270000
    184          1           0       27.820000   21.010000   22.930000
    185          8           0       17.360000   18.830000   26.780000
    186          1           0       17.300000   17.910000   26.530000
    187          1           0       16.600000   18.980000   27.340000
    188          8           0       27.630000   18.140000   17.790000
    189          1           0       28.440000   18.570000   17.500000
    190          1           0       27.050000   18.860000   18.030000
    191          8           0       24.390000   17.260000   26.380000
    192          1           0       23.780000   17.090000   25.670000
    193          1           0       24.710000   18.150000   26.230000
    194          8           0       20.500000   27.360000   18.410000
    195          1           0       21.040000   28.140000   18.260000
    196          1           0       20.340000   27.000000   17.530000
    197          8           0       17.150000   19.440000   12.290000
    198          1           0       16.860000   19.320000   13.200000
    199          1           0       17.450000   18.570000   12.020000
    200          8           0       13.370000   17.610000   23.440000
    201          1           0       13.240000   16.660000   23.490000
    202          1           0       13.200000   17.820000   22.530000
    203          8           0       27.030000   17.030000   20.250000
    204          1           0       27.910000   17.030000   20.630000
    205          1           0       27.180000   17.060000   19.300000
    206          8           0       19.230000   23.230000   27.490000
    207          1           0       20.190000   23.230000   27.530000
[...]
   Z335      42.55663   0.01085   0.00000   0.00546   0.00592  42.56255
   X336      37.90791  -0.00147   0.00000  -0.00137  -0.00183  37.90608
   Y336      54.21624  -0.00908   0.00000  -0.00734  -0.00759  54.20865
   Z336      41.38500  -0.00590   0.00000  -0.00255  -0.00212  41.38288
   X337      38.87167   0.00305   0.00000   0.00249   0.00197  38.87364
   Y337      56.89965   0.00421   0.00000   0.00254   0.00231  56.90196
   Z337      41.57397  -0.00505   0.00000  -0.00456  -0.00407  41.56991
   X338      50.68245   0.01884   0.00000   0.01185   0.01218  50.69464
   Y338      25.66248  -0.01997   0.00000  -0.01800  -0.01783  25.64465
   Z338      34.43081  -0.00984   0.00000  -0.00868  -0.00848  34.42233
   X339      50.36120  -0.00444   0.00000  -0.00239  -0.00206  50.35914
   Y339      27.04198   0.00949   0.00000   0.00561   0.00579  27.04777
   Z339      33.31587   0.00025   0.00000   0.00486   0.00508  33.32095
   X340      49.52972  -0.01181   0.00000  -0.00590  -0.00560  49.52412
   Y340      25.88925   0.01201   0.00000   0.01446   0.01457  25.90382
   Z340      35.79141   0.00680   0.00000  -0.00182  -0.00165  35.78977
   X341      48.15022   0.01171   0.00000   0.01016   0.00970  48.15992
   Y341      50.83363   0.01261   0.00000   0.00634   0.00626  50.83990
   Z341      44.52195  -0.00192   0.00000  -0.00473  -0.00412  44.51783
   X342      46.43057  -0.00668   0.00000  -0.00182  -0.00228  46.42829
   Y342      51.13599  -0.00236   0.00000  -0.00338  -0.00348  51.13251
   Z342      44.03062  -0.00406   0.00000  -0.00522  -0.00465  44.02597
   X343      48.22581  -0.00540   0.00000  -0.00755  -0.00797  48.21784
   Y343      49.05729  -0.01352   0.00000  -0.00869  -0.00877  49.04852
   Z343      44.84320   0.00293   0.00000   0.00268   0.00325  44.84645
   X344      34.58199   0.00716   0.00000  -0.00525  -0.00494  34.57705
   Y344      41.15824   0.01230   0.00000   0.00873   0.00879  41.16703
   Z344      20.63581  -0.00149   0.00000   0.00100   0.00110  20.63691
   X345      33.46705  -0.00988   0.00000  -0.00382  -0.00351  33.46354
   Y345      40.13778  -0.02090   0.00000  -0.02442  -0.02440  40.11338
   Z345      21.61847   0.01199   0.00000   0.00904   0.00910  21.62756
   X346      33.88279  -0.00416   0.00000  -0.00406  -0.00370  33.87909
   Y346      41.12044  -0.00122   0.00000  -0.00202  -0.00194  41.11850
   Z346      18.97285  -0.00974   0.00000  -0.00903  -0.00894  18.96391
   X347      43.74716  -0.00011   0.00000  -0.00431  -0.00396  43.74320
   Y347      20.63581  -0.02012   0.00000  -0.01150  -0.01156  20.62425
   Z347      38.26695  -0.01483   0.00000  -0.01644  -0.01650  38.25045
   X348      45.06997   0.00577   0.00000  -0.00018   0.00014  45.07010
   Y348      21.82634   0.00860   0.00000   0.00223   0.00219  21.82853
   Z348      38.55041   0.00861   0.00000   0.01159   0.01158  38.56199
   X349      42.25428  -0.01182   0.00000  -0.00752  -0.00719  42.24708
   Y349      21.48619   0.01033   0.00000   0.00720   0.00710  21.49328
   Z349      38.79608   0.00684   0.00000   0.00602   0.00594  38.80201
   X350      51.17378  -0.01550   0.00000  -0.01299  -0.01279  51.16099
   Y350      40.19447   0.00184   0.00000  -0.00707  -0.00675  40.18773
   Z350      26.70183  -0.01131   0.00000  -0.00797  -0.00750  26.69433
   X351      52.57218   0.00479   0.00000   0.00252   0.00274  52.57492
   Y351      40.19447  -0.00030   0.00000   0.00021   0.00058  40.19505
   Z351      25.54910  -0.00023   0.00000   0.00145   0.00196  25.55105
   X352      51.81629   0.01201   0.00000   0.01221   0.01239  51.82868
   Y352      39.41969  -0.00375   0.00000   0.00176   0.00207  39.42176
   Z352      28.19471   0.01381   0.00000   0.00902   0.00949  28.20421
   X353      41.89523   0.01556   0.00000   0.01040   0.01009  41.90532
   Y353      33.18359   0.01106   0.00000   0.01362   0.01321  33.19680
   Z353      54.68867   0.00775   0.00000   0.00026   0.00039  54.68907
   X354      40.17558  -0.02065   0.00000  -0.01432  -0.01461  40.16097
   Y354      32.97572  -0.00221   0.00000  -0.00089  -0.00132  32.97440
   Z354      54.19735   0.00123   0.00000   0.00867   0.00875  54.20610
   X355      42.84009   0.00565   0.00000   0.00578   0.00552  42.84561
   Y355      32.40880  -0.00686   0.00000  -0.00814  -0.00850  32.40030
   Z355      53.34697  -0.00517   0.00000  -0.00261  -0.00248  53.34449
   X356      54.12176   0.01343   0.00000   0.00934   0.00927  54.13103
   Y356      31.93637   0.00367   0.00000   0.00129   0.00132  31.93769
   Z356      45.58019   0.00053   0.00000  -0.00679  -0.00640  45.57379
   X357      52.66667  -0.01418   0.00000  -0.01244  -0.01250  52.65417
   Y357      32.42770   0.00667   0.00000   0.00826   0.00828  32.43598
   Z357      44.61643  -0.00442   0.00000   0.00010   0.00047  44.61690
   X358      53.85719  -0.00316   0.00000  -0.00368  -0.00371  53.85348
   Y358      30.17893  -0.00723   0.00000  -0.00430  -0.00428  30.17464
   Z358      45.90145   0.00170   0.00000   0.00157   0.00192  45.90337
   X359      36.35833  -0.01179   0.00000  -0.00790  -0.00734  36.35099
   Y359      20.88147  -0.02023   0.00000  -0.01287  -0.01292  20.86855
   Z359      29.46083  -0.00075   0.00000   0.00069   0.00045  29.46128
   X360      37.83232   0.00398   0.00000   0.00280   0.00339  37.83570
   Y360      19.87992  -0.00296   0.00000  -0.00389  -0.00391  19.87600
   Z360      29.13958  -0.00109   0.00000  -0.00116  -0.00137  29.13820
   X361      36.98194   0.00606   0.00000   0.00027   0.00079  36.98273
   Y361      22.56333   0.02036   0.00000   0.01176   0.01171  22.57504
   Z361      29.63091   0.00411   0.00000   0.00505   0.00486  29.63577
   X362      20.93817   0.00020   0.00000  -0.00442  -0.00432  20.93384
   Y362      36.75517   0.00555   0.00000   0.00352   0.00303  36.75821
   Z362      33.93948   0.00602   0.00000   0.00845   0.00815  33.94763
   X363      20.29566   0.00315   0.00000   0.00400   0.00405  20.29971
   Y363      38.38034   0.00200   0.00000   0.00633   0.00583  38.38616
   Z363      34.44971  -0.00099   0.00000  -0.00085  -0.00113  34.44858
   X364      19.46418  -0.00984   0.00000  -0.01138  -0.01124  19.45293
   Y364      35.79141  -0.00265   0.00000   0.00028  -0.00023  35.79118
   Z364      33.52374   0.00202   0.00000   0.00574   0.00539  33.52913
   X365      28.93171   0.01933   0.00000   0.01397   0.01360  28.94530
   Y365      37.18981  -0.00978   0.00000  -0.01139  -0.01206  37.17775
   Z365      53.68712   0.01199   0.00000   0.00554   0.00544  53.69256
   X366      27.91125  -0.02061   0.00000  -0.02140  -0.02174  27.88952
   Y366      36.96304   0.00398   0.00000   0.00735   0.00669  36.96973
   Z366      52.21313  -0.00907   0.00000   0.00037   0.00024  52.21337
   X367      28.06243   0.00000   0.00000   0.00629   0.00586  28.06830
   Y367      38.45593   0.00301   0.00000   0.00103   0.00032  38.45625
   Z367      54.65088  -0.00274   0.00000  -0.00535  -0.00545  54.64543
   X368      40.09999  -0.00704   0.00000  -0.01696  -0.01693  40.08305
   Y368      49.60531   0.01166   0.00000   0.01561   0.01571  49.62102
   Z368      25.07667   0.00147   0.00000  -0.00046  -0.00007  25.07660
   X369      41.06375   0.00069   0.00000   0.00191   0.00194  41.06569
   Y369      50.66356  -0.00313   0.00000  -0.00492  -0.00477  50.65879
   Z369      23.94283   0.00045   0.00000  -0.00083  -0.00040  23.94243
   X370      39.11733  -0.00111   0.00000   0.00177   0.00185  39.11918
   Y370      48.54706  -0.01026   0.00000  -0.01423  -0.01412  48.53294
   Z370      23.98062  -0.00171   0.00000   0.00042   0.00077  23.98139
   X371      44.54084  -0.00661   0.00000  -0.00721  -0.00671  44.53414
   Y371      24.83100  -0.00578   0.00000  -0.00429  -0.00414  24.82686
   Z371      27.89236  -0.00845   0.00000  -0.01697  -0.01694  27.87542
   X372      45.75027   0.00553   0.00000   0.00390   0.00439  45.75466
   Y372      26.09712   0.00468   0.00000   0.00230   0.00249  26.09961
   Z372      27.43882  -0.00255   0.00000  -0.00250  -0.00241  27.43642
   X373      45.14556   0.00303   0.00000   0.00518   0.00574  45.15130
   Y373      23.31922  -0.00168   0.00000  -0.00359  -0.00341  23.31581
   Z373      27.07978  -0.00423   0.00000  -0.00779  -0.00776  27.07201
   X374      30.53797  -0.00215   0.00000   0.00142   0.00140  30.53937
   Y374      26.24830   0.00923   0.00000   0.00608   0.00554  26.25383
   Z374      48.83052   0.00074   0.00000   0.00575   0.00548  48.83600
   X375      29.46083  -0.00397   0.00000  -0.00251  -0.00250  29.45833
   Y375      24.81210  -0.00362   0.00000   0.00041  -0.00016  24.81194
   Z375      48.62265  -0.00284   0.00000  -0.00406  -0.00438  48.61828
   X376      32.04976   0.01390   0.00000   0.01487   0.01485  32.06460
   Y376      25.56799  -0.00661   0.00000  -0.00672  -0.00725  25.56074
   Z376      49.56752   0.00043   0.00000  -0.00393  -0.00417  49.56334
   X377      37.66224   0.00858   0.00000   0.00444   0.00464  37.66688
   Y377      44.95658   0.01455   0.00000   0.01303   0.01314  44.96973
   Z377      21.75075   0.00443   0.00000   0.00236   0.00260  21.75335
   X378      36.52841  -0.00797   0.00000  -0.00392  -0.00367  36.52473
   Y378      43.63378  -0.00685   0.00000  -0.00146  -0.00137  43.63241
   Z378      21.20273  -0.00290   0.00000  -0.00016   0.00003  21.20276
   X379      36.86856  -0.00236   0.00000  -0.00422  -0.00403  36.86452
   Y379      46.48726   0.00109   0.00000   0.00359   0.00370  46.49096
   Z379      21.18383  -0.00337   0.00000  -0.00625  -0.00599  21.17784
   X380      48.30140  -0.00160   0.00000  -0.00285  -0.00335  48.29805
   Y380      44.44636   0.01268   0.00000   0.01247   0.01225  44.45861
   Z380      52.21313   0.01193   0.00000   0.01179   0.01228  52.22541
   X381      48.15022   0.00892   0.00000   0.01694   0.01650  48.16672
   Y381      43.04796  -0.00451   0.00000   0.00267   0.00247  43.05043
   Z381      51.07930  -0.00517   0.00000  -0.00070  -0.00024  51.07905
   X382      46.73293  -0.00429   0.00000  -0.00720  -0.00773  46.72520
   Y382      44.46526  -0.00127   0.00000  -0.00241  -0.00268  44.46258
   Z382      53.12020   0.00315   0.00000   0.00501   0.00546  53.12566
   X383      44.25739  -0.00217   0.00000   0.00074   0.00028  44.25767
   Y383      40.21337   0.01259   0.00000   0.01201   0.01167  40.22504
   Z383      54.36742  -0.00590   0.00000  -0.00581  -0.00550  54.36193
   X384      45.54240   0.00335   0.00000   0.00114   0.00072  45.54312
   Y384      39.15513  -0.00531   0.00000  -0.00383  -0.00414  39.15099
   Z384      53.64932  -0.00117   0.00000  -0.00067  -0.00035  53.64898
   X385      43.74716  -0.00461   0.00000  -0.00660  -0.00707  43.74009
   Y385      39.34410  -0.00477   0.00000  -0.00286  -0.00325  39.34085
   Z385      55.87920   0.00050   0.00000  -0.00619  -0.00590  55.87330
         Item               Value     Threshold  Converged?
 Maximum Force            0.035869     0.000450     NO 
 RMS     Force            0.010697     0.000300     NO 
 Maximum Displacement     0.029588     0.001800     NO 
 RMS     Displacement     0.008851     0.001200     NO 
 Predicted change in Energy=-7.474952D-02
 GradGradGradGradGradGradGradGradGradGradGradGradGradGradGradGradGradGrad

 Leave Link  103 at Tue May  8 17:00:17 2018, MaxMem= 14763950080 cpu:      3071.2
 (Enter /cm/shared/gaussian/g09.e01/intel64-sandybridge/g09/l9999.exe)
 1\1\GINC-POPLE01\Force\RPBE1PBE\CC-pVDZ\Br1H256O128(1-)\M.PELUSO\08-Ma
 y-2018\0\\#p PBE1PBE/cc-pvDZ force Counterpoise=2 noSymm\\forces on ch
 loride comput - NWATER: 128\\-1,1\Br,20.,20.,20.\O,16.78,19.12,20.08\H
 ,17.68,19.28,19.82\H,16.82,18.34,20.63\O,21.27,21.9,22.44\H,20.4,21.97
 ,22.82\H,21.14,21.43,21.62\O,18.3,22.93,20.06\H,18.63,22.81,20.96\H,18
 .51,22.1,19.62\O,22.,21.22,17.41\H,22.46,20.69,16.76\H,21.69,20.58,18.
 05\O,17.89,19.51,16.83\H,18.3,19.79,17.64\H,17.46,20.3,16.49\O,21.97,1
 6.72,20.01\H,21.44,17.44,19.68\H,22.19,16.21,19.23\O,23.78,20.05,21.5\
 H,22.91,19.92,21.14\H,24.11,20.84,21.07\O,20.36,16.94,22.38\H,20.2,17.
 88,22.41\H,20.95,16.82,21.63\O,18.48,22.1,22.74\H,17.73,21.77,22.25\H,
 18.65,21.42,23.39\O,20.05,23.51,17.09\H,20.71,22.95,17.49\H,20.34,23.6
 1,16.18\O,16.13,21.31,21.45\H,15.2,21.42,21.64\H,16.16,20.52,20.9\O,18
 .84,19.92,24.32\H,18.18,19.44,23.81\H,18.76,19.55,25.2\O,16.2,17.09,18
 .02\H,15.44,17.52,18.41\H,16.89,17.75,18.01\O,24.51,21.91,19.31\H,23.7
 5,21.89,18.73\H,24.77,22.83,19.34\O,19.26,17.19,15.46\H,18.89,17.67,16
 .2\H,19.47,17.86,14.82\O,22.04,24.43,21.81\H,21.97,23.61,22.3\H,22.89,
 24.39,21.38\O,18.07,15.08,21.52\H,18.26,14.25,21.06\H,18.92,15.5,21.61
 \O,16.99,21.82,15.99\H,17.58,22.44,16.41\H,17.11,21.97,15.06\O,18.16,2
 5.16,18.4\H,18.57,24.75,19.16\H,18.36,24.57,17.67\O,22.78,25.25,19.02\
 H,22.06,25.87,19.08\H,22.35,24.39,18.95\O,14.26,18.92,18.7\H,14.17,19.
 24,17.81\H,14.95,19.46,19.08\O,20.03,20.15,14.05\H,20.54,20.26,14.84\H
 ,19.3,20.76,14.14\O,21.44,20.45,25.77\H,20.73,20.5,25.13\H,21.32,21.22
 ,26.32\O,16.73,18.3,23.8\H,15.89,18.49,24.22\H,17.15,17.66,24.37\O,24.
 ,20.29,24.43\H,23.1,20.49,24.69\H,23.99,20.34,23.47\O,23.81,16.48,23.5
 1\H,23.31,16.8,22.76\H,23.6,15.55,23.55\O,15.51,24.03,20.66\H,15.75,23
 .29,20.1\H,16.34,24.48,20.83\O,20.69,15.24,24.37\H,21.06,15.82,25.03\H
 ,20.4,15.83,23.67\O,22.85,15.35,18.\H,23.04,14.45,17.75\H,22.39,15.72,
 17.24\O,24.,19.47,15.85\H,24.36,19.29,14.98\H,24.16,18.67,16.35\O,21.7
 4,16.06,15.73\H,22.09,15.91,14.85\H,20.89,16.48,15.58\O,14.58,20.6,16.
 44\H,15.49,20.8,16.23\H,14.16,21.46,16.51\O,18.31,24.18,25.11\H,18.21,
 23.45,24.5\H,18.54,24.93,24.57\O,16.83,14.3,18.37\H,16.72,15.23,18.53\
 H,17.05,13.93,19.22\O,26.72,20.56,18.56\H,25.84,20.9,18.71\H,27.28,21.
 07,19.15\O,24.54,22.34,16.3\H,24.5,21.4,16.13\H,25.46,22.57,16.14\O,15
 .48,15.67,22.75\H,16.39,15.72,22.47\H,15.26,16.56,23.04\O,16.14,17.69,
 14.61\H,16.28,17.95,15.53\H,16.55,16.83,14.54\O,20.85,17.58,26.05\H,21
 .12,18.49,25.92\H,21.23,17.33,26.89\O,22.4,23.33,14.71\H,22.96,22.84,1
 5.31\H,22.95,23.5,13.94\O,20.42,27.04,21.01\H,20.19,26.15,21.27\H,20.4
 2,27.02,20.05\O,24.99,15.2,19.52\H,24.26,15.49,18.98\H,25.35,16.01,19.
 89\O,20.5,25.7,23.75\H,21.08,25.86,24.5\H,21.08,25.51,23.02\O,26.42,18
 .14,22.46\H,26.64,17.84,21.58\H,25.48,17.96,22.55\O,17.84,25.72,22.57\
 H,17.89,26.65,22.35\H,18.69,25.52,22.97\O,14.87,21.02,24.67\H,15.78,21
 .25,24.85\H,14.54,21.74,24.14\O,17.53,16.28,25.34\H,18.41,15.99,25.09\
 H,17.05,15.48,25.53\O,24.8,23.91,24.25\H,24.59,23.16,23.69\H,25.44,23.
 57,24.87\O,13.97,22.77,18.13\H,14.08,23.65,18.48\H,13.68,22.24,18.87\O
 ,13.89,23.32,22.86\H,14.56,23.52,22.21\H,13.52,24.17,23.09\O,25.6,24.4
 7,18.94\H,24.73,24.86,18.97\H,26.15,25.07,19.44\O,12.75,17.88,20.61\H,
 13.35,18.13,19.91\H,12.26,17.14,20.26\O,19.76,13.57,16.31\H,19.24,14.2
 9,15.95\H,20.55,13.98,16.64\O,25.01,16.66,15.81\H,24.91,16.02,15.1\H,2
 4.71,16.21,16.59\O,17.16,21.44,26.28\H,18.02,21.82,26.46\H,17.23,20.54
 ,26.6\O,22.23,18.2,12.78\H,21.64,18.76,13.29\H,21.67,17.81,12.11\O,12.
 67,21.07,19.89\H,12.97,20.17,19.75\H,11.76,20.99,20.17\O,17.19,14.74,1
 5.33\H,17.28,13.85,15.66\H,16.65,15.19,15.99\O,18.02,22.9,13.8\H,17.85
 ,23.8,14.09\H,17.88,22.92,12.85\O,17.83,27.62,19.43\H,16.97,27.26,19.6
 6\H,18.2,26.96,18.85\O,27.01,21.02,23.44\H,26.6,20.17,23.27\H,27.82,21
 .01,22.93\O,17.36,18.83,26.78\H,17.3,17.91,26.53\H,16.6,18.98,27.34\O,
 27.63,18.14,17.79\H,28.44,18.57,17.5\H,27.05,18.86,18.03\O,24.39,17.26
 ,26.38\H,23.78,17.09,25.67\H,24.71,18.15,26.23\O,20.5,27.36,18.41\H,21
 .04,28.14,18.26\H,20.34,27.,17.53\O,17.15,19.44,12.29\H,16.86,19.32,13
 .2\H,17.45,18.57,12.02\O,13.37,17.61,23.44\H,13.24,16.66,23.49\H,13.2,
 17.82,22.53\O,27.03,17.03,20.25\H,27.91,17.03,20.63\H,27.18,17.06,19.3
 \O,19.23,23.23,27.49\H,20.19,23.23,27.53\H,19.02,23.69,26.68\O,24.37,2
 7.04,17.36\H,23.75,26.38,17.64\H,24.69,26.73,16.52\O,11.7,20.07,22.77\
 H,11.57,20.7,23.47\H,12.63,20.16,22.53\O,24.3,13.08,21.72\H,25.16,13.2
 4,22.11\H,24.31,13.56,20.89\O,15.29,26.8,20.44\H,15.01,27.31,21.21\H,1
 4.94,25.92,20.6\O,19.94,12.2,21.46\H,19.92,11.3,21.77\H,19.33,12.21,20
 .72\O,26.06,21.96,25.6\H,26.48,21.49,24.88\H,25.2,21.56,25.68\O,21.84,
 23.05,27.04\H,22.38,22.4,27.49\H,21.98,23.86,27.54\O,21.71,12.41,23.77
 \H,22.17,12.55,22.94\H,21.18,13.2,23.88\O,22.84,27.48,22.46\H,21.91,27
 .35,22.28\H,23.12,28.12,21.8\O,22.84,26.19,25.21\H,22.98,26.76,24.45\H
 ,23.22,25.35,24.95\O,16.85,12.51,22.24\H,17.07,13.17,22.9\H,16.22,12.9
 4,21.66\O,19.92,26.9,15.81\H,20.16,26.85,14.89\H,18.98,26.76,15.83\O,2
 3.58,25.71,14.46\H,23.08,26.53,14.5\H,22.91,25.03,14.44\O,13.81,13.69,
 21.71\H,13.79,13.54,22.65\H,14.4,14.44,21.6\O,27.09,23.59,16.56\H,28.0
 4,23.69,16.64\H,26.76,23.69,17.45\O,19.05,13.32,25.59\H,19.59,14.11,25
 .63\H,19.05,13.07,24.67\O,17.54,25.66,14.27\H,16.78,25.46,14.81\H,17.2
 5,26.38,13.71\O,24.77,18.87,13.13\H,25.16,19.1,12.28\H,23.88,18.59,12.
 91\O,18.02,12.05,19.43\H,18.55,11.79,18.68\H,17.3,11.42,19.44\O,15.46,
 25.31,25.62\H,15.94,26.01,25.18\H,16.06,24.57,25.62\O,14.32,17.49,25.9
 9\H,13.58,17.64,26.58\H,13.96,17.64,25.12\O,22.93,12.77,17.21\H,22.26,
 12.1,17.34\H,23.14,12.71,16.28\O,18.7,14.66,12.94\H,18.11,14.21,12.34\
 H,18.15,14.93,13.67\O,21.15,21.27,11.52\H,20.46,20.63,11.7\H,20.77,22.
 11,11.8\O,23.9,22.47,12.4\H,23.22,22.57,11.74\H,23.81,21.57,12.7\O,14.
 99,25.18,15.19\H,14.99,25.48,16.1\H,14.07,25.02,14.98\O,13.4,19.03,14.
 05\H,13.3,18.99,15.\H,14.2,18.55,13.86\O,28.74,20.79,16.68\H,29.12,21.
 63,16.93\H,27.97,20.7,17.25\O,28.17,22.47,20.09\H,28.15,23.43,20.16\H,
 28.65,22.3,19.28\O,19.51,20.84,29.01\H,18.56,20.69,28.98\H,19.66,21.55
 ,28.39\O,13.35,20.46,26.75\H,12.53,20.09,26.4\H,13.91,20.55,25.98\O,11
 .91,22.84,16.07\H,12.58,22.9,16.75\H,11.14,22.47,16.52\O,21.31,14.62,1
 3.15\H,21.5,13.86,13.71\H,20.36,14.72,13.2\O,23.73,14.19,25.16\H,23.12
 ,13.53,24.81\H,24.6,13.81,25.\O,11.23,23.43,21.82\H,12.12,23.09,21.7\H
 ,11.33,24.15,22.44\O,19.25,17.36,28.73\H,18.55,17.8,28.24\H,19.09,17.5
 9,29.64\O,22.46,15.12,27.36\H,22.99,15.19,26.57\H,23.07,14.8,28.03\O,2
 7.04,17.32,14.19\H,26.95,18.26,14.02\H,26.29,17.1,14.74\O,12.17,17.81,
 16.29\H,11.98,18.54,16.88\H,11.32,17.45,16.06\O,14.12,26.07,17.81\H,13
 .35,25.88,18.34\H,14.5,26.85,18.22\O,12.28,15.71,18.28\H,12.23,16.57,1
 7.86\H,12.78,15.18,17.67\O,14.93,22.95,27.63\H,14.29,22.44,28.13\H,15.
 49,22.3,27.21\O,20.16,29.42,22.52\H,20.06,28.69,21.9\H,20.57,30.11,22.
 \O,26.82,13.58,18.22\H,26.65,14.31,17.63\H,26.21,13.7,18.94\O,25.48,26
 .9,23.56\H,24.57,27.06,23.3\H,25.52,25.96,23.73\O,18.3,21.78,10.92\H,1
 7.71,21.24,11.44\H,17.93,21.76,10.04\O,23.15,10.92,20.25\H,23.85,11.55
 ,20.4\H,22.36,11.37,20.53\O,27.08,21.27,14.13\H,27.82,21.27,13.52\H,27
 .42,20.86,14.92\O,22.17,17.56,28.94\H,21.26,17.45,28.68\H,22.67,17.15,
 28.23\O,28.64,16.9,24.12\H,27.87,17.16,23.61\H,28.5,15.97,24.29\O,19.2
 4,11.05,15.59\H,20.02,10.52,15.42\H,19.57,11.94,15.68\O,11.08,19.45,17
 .96\H,10.74,20.31,18.23\H,10.3,18.94,17.74\O,15.31,19.68,28.41\H,14.77
 ,19.56,27.63\H,14.85,20.35,28.92\O,21.22,26.25,13.27\H,21.73,26.81,12.
 67\H,20.7,25.69,12.69\O,23.57,13.14,14.76\H,24.21,13.81,14.52\H,23.89,
 12.34,14.33\O,16.16,13.89,25.84\H,15.59,13.13,25.73\H,16.96,13.53,26.2
 3\O,19.93,23.79,11.51\H,19.33,23.09,11.22\H,19.51,24.6,11.21\O,25.56,2
 3.52,27.63\H,25.48,22.78,27.03\H,24.73,23.53,28.11\O,23.42,21.28,28.77
 \H,24.1,20.72,28.39\H,23.15,20.82,29.57\\Version=ES64L-G09RevE.01\HF=-
 9773.3639559\RMSD=1.646e-09\RMSF=1.070e-02\Dipole=-6.6418487,-1.219051
 1,-15.1859417\Quadrupole=140.6776511,468.6179513,-609.2956025,-1746.34
 05066,-2286.8905063,-2109.2718356\PG=C01 [X(Br1H256O128)]\\@


 We're simply so accustomed to the marvels of everyday thought
 that we never wonder about it.
 -- Marvin Minsky in "Why people think computers are smart"
 Job cpu time:       5 days 14 hours 58 minutes 26.1 seconds.
 File lengths (MBytes):  RWF=   7285 Int=      0 D2E=      0 Chk=   2411 Scr=      1
 Normal termination of Gaussian 09 at Tue May  8 17:00:44 2018.
