 Entering Gaussian System, Link 0=/cm/shared/gaussian/g09.e01/intel64-sandybridge/g09/g09
 Initial command:
 /cm/shared/gaussian/g09.e01/intel64-sandybridge/g09/l1.exe "/local/scratch/m.peluso/128_wat/370/Gau-44901.inp" -scrdir="/local/scratch/m.peluso/128_wat/370/"
 Entering Link 1 = /cm/shared/gaussian/g09.e01/intel64-sandybridge/g09/l1.exe PID=     44902.
  
 Copyright (c) 1988,1990,1992,1993,1995,1998,2003,2009,2015,
            Gaussian, Inc.  All Rights Reserved.
  
 This is part of the Gaussian(R) 09 program.  It is based on
 the Gaussian(R) 03 system (copyright 2003, Gaussian, Inc.),
 the Gaussian(R) 98 system (copyright 1998, Gaussian, Inc.),
 the Gaussian(R) 94 system (copyright 1995, Gaussian, Inc.),
 the Gaussian 92(TM) system (copyright 1992, Gaussian, Inc.),
 the Gaussian 90(TM) system (copyright 1990, Gaussian, Inc.),
 the Gaussian 88(TM) system (copyright 1988, Gaussian, Inc.),
 the Gaussian 86(TM) system (copyright 1986, Carnegie Mellon
 University), and the Gaussian 82(TM) system (copyright 1983,
 Carnegie Mellon University). Gaussian is a federally registered
 trademark of Gaussian, Inc.
  
 This software contains proprietary and confidential information,
 including trade secrets, belonging to Gaussian, Inc.
  
 This software is provided under written license and may be
 used, copied, transmitted, or stored only in accord with that
 written license.
  
 The following legend is applicable only to US Government
 contracts under FAR:
  
                    RESTRICTED RIGHTS LEGEND
  
 Use, reproduction and disclosure by the US Government is
 subject to restrictions as set forth in subparagraphs (a)
 and (c) of the Commercial Computer Software - Restricted
 Rights clause in FAR 52.227-19.
  
 Gaussian, Inc.
 340 Quinnipiac St., Bldg. 40, Wallingford CT 06492
  
  
 ---------------------------------------------------------------
 Warning -- This program may not be used in any manner that
 competes with the business of Gaussian, Inc. or will provide
 assistance to any competitor of Gaussian, Inc.  The licensee
 of this program is prohibited from giving any competitor of
 Gaussian, Inc. access to this program.  By using this program,
 the user acknowledges that Gaussian, Inc. is engaged in the
 business of creating and licensing software in the field of
 computational chemistry and represents and warrants to the
 licensee that it is not a competitor of Gaussian, Inc. and that
 it will not use this program in any manner prohibited above.
 ---------------------------------------------------------------
  

 Cite this work as:
 Gaussian 09, Revision E.01,
 M. J. Frisch, G. W. Trucks, H. B. Schlegel, G. E. Scuseria, 
 M. A. Robb, J. R. Cheeseman, G. Scalmani, V. Barone, B. Mennucci, 
 G. A. Petersson, H. Nakatsuji, M. Caricato, X. Li, H. P. Hratchian, 
 A. F. Izmaylov, J. Bloino, G. Zheng, J. L. Sonnenberg, M. Hada, 
 M. Ehara, K. Toyota, R. Fukuda, J. Hasegawa, M. Ishida, T. Nakajima, 
 Y. Honda, O. Kitao, H. Nakai, T. Vreven, J. A. Montgomery, Jr., 
 J. E. Peralta, F. Ogliaro, M. Bearpark, J. J. Heyd, E. Brothers, 
 K. N. Kudin, V. N. Staroverov, T. Keith, R. Kobayashi, J. Normand, 
 K. Raghavachari, A. Rendell, J. C. Burant, S. S. Iyengar, J. Tomasi, 
 M. Cossi, N. Rega, J. M. Millam, M. Klene, J. E. Knox, J. B. Cross, 
 V. Bakken, C. Adamo, J. Jaramillo, R. Gomperts, R. E. Stratmann, 
 O. Yazyev, A. J. Austin, R. Cammi, C. Pomelli, J. W. Ochterski, 
 R. L. Martin, K. Morokuma, V. G. Zakrzewski, G. A. Voth, 
 P. Salvador, J. J. Dannenberg, S. Dapprich, A. D. Daniels, 
 O. Farkas, J. B. Foresman, J. V. Ortiz, J. Cioslowski, 
 and D. J. Fox, Gaussian, Inc., Wallingford CT, 2013.
 
 ******************************************
 Gaussian 09:  ES64L-G09RevE.01 30-Nov-2015
                 7-May-2018 
 ******************************************
 %Mem=110GB
 %NProcShared=64
 Will use up to   64 processors via shared memory.
 %chk=snap79.chk
 ----------------------------------------------
 #p PBE1PBE/cc-pvDZ force Counterpoise=2 noSymm
 ----------------------------------------------
 1/10=7,30=1,38=1,62=2/1,3;
 2/12=2,15=1,17=6,18=5,40=1/2;
 1/10=7,30=1,38=1,53=2,62=2,63=101/22;
 3/5=16,11=2,16=1,25=1,30=1,71=1,74=-13/1,2,3;
 4//1;
 5/5=2,38=5/2;
 6/7=2,8=2,9=2,10=2,28=1/1;
 7/7=1,29=1,30=1,33=-1/1,2,3,16;
 1/10=7,30=1,53=2,62=2,63=101/22;
 3/5=7,6=11,11=2,16=1,25=1,30=1,71=1,74=-13,82=7/1,2,3;
 4//1;
 5/5=2,38=5/2;
 6/7=2,8=2,9=2,10=2,28=1/1;
 7/7=1,29=1,30=1,33=-1/1,2,3,16;
 1/10=7,30=1,53=2,62=2,63=101/22(-5);
 7/9=1,29=1,44=-1/16;
 1/10=7,30=1,62=2/3;
 99//99;
 Leave Link    1 at Mon May  7 20:48:47 2018, MaxMem= 14763950080 cpu:       450.9
 (Enter /cm/shared/gaussian/g09.e01/intel64-sandybridge/g09/l101.exe)
 ---------------------------------------
 forces on chloride comput - NWATER: 128
 ---------------------------------------
 Symbolic Z-matrix:
 Charge = -1 Multiplicity = 1 in supermolecule
 Charge = -1 Multiplicity = 1 in fragment      1.
 Charge =  0 Multiplicity = 1 in fragment      2.
 Br(Fragment=1)        20.       20.       20. 
 O(Fragment=2)         21.39     22.76     21.2 
 H(Fragment=2)         21.99     22.95     20.48 
 H(Fragment=2)         20.92     21.97     20.93 
 O(Fragment=2)         19.27     16.73     19.79 
 H(Fragment=2)         19.9      16.58     19.09 
 H(Fragment=2)         19.33     17.66     19.98 
 O(Fragment=2)         20.66     20.27     23.31 
 H(Fragment=2)         20.4      20.17     22.4 
 H(Fragment=2)         21.47     20.78     23.27 
 O(Fragment=2)         17.62     19.76     22.44 
 H(Fragment=2)         18.38     19.87     21.87 
 H(Fragment=2)         17.49     20.63     22.83 
 O(Fragment=2)         20.81     19.29     16.81 
 H(Fragment=2)         20.01     19.67     16.46 
 H(Fragment=2)         20.63     19.16     17.74 
 O(Fragment=2)         17.64     20.23     17.29 
 H(Fragment=2)         17.37     19.34     17.07 
 H(Fragment=2)         18.08     20.15     18.13 
 O(Fragment=2)         19.83     22.79     17.63 
 H(Fragment=2)         20.06     22.09     18.24 
 H(Fragment=2)         20.59     23.37     17.63 
 O(Fragment=2)         16.88     17.56     17.74 
 H(Fragment=2)         17.57     17.71     18.39 
 H(Fragment=2)         16.36     16.84     18.1 
 O(Fragment=2)         19.26     23.66     22.73 
 H(Fragment=2)         19.92     23.23     22.18 
 H(Fragment=2)         18.63     24.01     22.1 
 O(Fragment=2)         23.79     19.85     17.31 
 H(Fragment=2)         23.99     20.22     18.17 
 H(Fragment=2)         22.85     19.66     17.35 
 O(Fragment=2)         17.98     17.05     22.64 
 H(Fragment=2)         17.94     18.01     22.67 
 H(Fragment=2)         17.16     16.79     22.2 
 O(Fragment=2)         21.78     18.02     24.32 
 H(Fragment=2)         22.36     18.53     24.89 
 H(Fragment=2)         21.3      18.68     23.82 
 O(Fragment=2)         15.36     18.61     20.42 
 H(Fragment=2)         15.93     19.16     20.97 
 H(Fragment=2)         14.88     19.23     19.88 
 O(Fragment=2)         16.35     22.94     18.05 
 H(Fragment=2)         17.22     22.56     17.98 
 H(Fragment=2)         15.96     22.81     17.19 
 O(Fragment=2)         23.93     19.51     21.86 
 H(Fragment=2)         23.98     18.57     22. 
 H(Fragment=2)         24.05     19.89     22.73 
 O(Fragment=2)         22.76     23.48     18.61 
 H(Fragment=2)         22.95     22.66     18.16 
 H(Fragment=2)         23.61     23.92     18.68 
 O(Fragment=2)         24.76     21.06     19.76 
 H(Fragment=2)         24.4      20.49     20.44 
 H(Fragment=2)         25.68     20.81     19.69 
 O(Fragment=2)         17.97     24.7      20.3 
 H(Fragment=2)         18.19     24.05     19.64 
 H(Fragment=2)         17.68     25.46     19.81 
 O(Fragment=2)         20.02     15.57     22.16 
 H(Fragment=2)         19.81     15.61     21.22 
 H(Fragment=2)         19.42     16.19     22.57 
 O(Fragment=2)         15.81     22.09     20.83 
 H(Fragment=2)         16.35     22.74     20.37 
 H(Fragment=2)         16.19     22.05     21.71 
 O(Fragment=2)         17.12     22.15     23.25 
 H(Fragment=2)         17.91     22.68     23.14 
 H(Fragment=2)         16.7      22.51     24.04 
 O(Fragment=2)         23.24     16.61     21.43 
 H(Fragment=2)         23.78     15.94     21.85 
 H(Fragment=2)         22.69     16.12     20.82 
 O(Fragment=2)         18.8      19.08     25.2 
 H(Fragment=2)         18.6      18.44     24.52 
 H(Fragment=2)         19.31     19.76     24.75 
 O(Fragment=2)         21.18     21.74     14.67 
 H(Fragment=2)         21.74     20.97     14.61 
 H(Fragment=2)         21.19     21.97     15.6 
 O(Fragment=2)         22.67     23.71     23.63 
 H(Fragment=2)         22.27     23.57     22.78 
 H(Fragment=2)         21.99     23.48     24.26 
 O(Fragment=2)         14.52     20.56     18.5 
 H(Fragment=2)         15.27     20.38     17.94 
 H(Fragment=2)         14.84     21.19     19.14 
 O(Fragment=2)         23.55     21.04     24.12 
 H(Fragment=2)         23.02     21.82     23.94 
 H(Fragment=2)         23.68     21.06     25.07 
 O(Fragment=2)         25.51     17.32     18.79 
 H(Fragment=2)         24.82     17.7      19.34 
 H(Fragment=2)         25.13     16.51     18.45 
 O(Fragment=2)         22.55     15.3      19.09 
 H(Fragment=2)         21.98     14.67     19.52 
 H(Fragment=2)         22.67     14.96     18.2 
 O(Fragment=2)         15.6      16.5      21.83 
 H(Fragment=2)         15.44     17.32     21.34 
 H(Fragment=2)         14.82     15.97     21.66 
 O(Fragment=2)         17.52     14.3      20.52 
 H(Fragment=2)         16.9      14.97     20.83 
 H(Fragment=2)         18.31     14.79     20.31 
 O(Fragment=2)         20.1      16.27     15.54 
 H(Fragment=2)         19.58     15.9      16.25 
 H(Fragment=2)         21.       16.27     15.88 
 O(Fragment=2)         17.61     22.85     14.82 
 H(Fragment=2)         17.46     21.92     14.63 
 H(Fragment=2)         18.31     22.85     15.47 
 O(Fragment=2)         25.74     22.13     22.53 
 H(Fragment=2)         24.81     21.96     22.39 
 H(Fragment=2)         25.85     22.09     23.48 
 O(Fragment=2)         20.29     26.28     20.87 
 H(Fragment=2)         19.56     25.7      20.67 
 H(Fragment=2)         20.14     27.05     20.32 
 O(Fragment=2)         18.39     15.09     17.09 
 H(Fragment=2)         17.72     15.11     17.77 
 H(Fragment=2)         18.02     14.53     16.4 
 O(Fragment=2)         20.18     18.54     13.81 
 H(Fragment=2)         20.07     17.9      14.51 
 H(Fragment=2)         20.52     18.04     13.07 
 O(Fragment=2)         24.42     18.24     15.21 
 H(Fragment=2)         24.12     18.84     15.89 
 H(Fragment=2)         25.36     18.43     15.12 
 O(Fragment=2)         17.04     16.77     14.91 
 H(Fragment=2)         17.55     16.37     15.62 
 H(Fragment=2)         16.44     17.37     15.36 
 O(Fragment=2)         22.65     15.47     24.87 
 H(Fragment=2)         22.       15.38     25.56 
 H(Fragment=2)         22.32     16.18     24.32 
 O(Fragment=2)         17.66     20.16     13.73 
 H(Fragment=2)         18.25     19.45     13.99 
 H(Fragment=2)         17.1      19.78     13.06 
 O(Fragment=2)         16.04     25.15     22.55 
 H(Fragment=2)         16.12     24.9      21.63 
 H(Fragment=2)         15.37     24.57     22.9 
 O(Fragment=2)         16.65     20.1      26.42 
 H(Fragment=2)         17.22     19.58     25.85 
 H(Fragment=2)         16.5      20.9      25.92 
 O(Fragment=2)         21.84     13.52     22.88 
 H(Fragment=2)         22.49     13.9      23.47 
 H(Fragment=2)         21.21     14.23     22.73 
 O(Fragment=2)         26.15     20.99     16.01 
 H(Fragment=2)         25.87     20.95     15.1 
 H(Fragment=2)         25.44     20.56     16.49 
 O(Fragment=2)         15.37     19.57     15.19 
 H(Fragment=2)         16.2      19.73     14.73 
 H(Fragment=2)         14.93     20.42     15.19 
 O(Fragment=2)         18.48     14.72     24.99 
 H(Fragment=2)         18.88     15.26     24.31 
 H(Fragment=2)         18.1      13.98     24.53 
 O(Fragment=2)         20.49     13.35     20.02 
 H(Fragment=2)         19.84     13.33     20.71 
 H(Fragment=2)         20.73     12.43     19.88 
 O(Fragment=2)         20.9      27.01     16.75 
 H(Fragment=2)         20.68     26.13     17.06 
 H(Fragment=2)         20.91     26.93     15.8 
 O(Fragment=2)         19.54     26.7      23.43 
 H(Fragment=2)         19.05     27.48     23.2 
 H(Fragment=2)         19.88     26.37     22.59 
 O(Fragment=2)         21.65     22.58     26.2 
 H(Fragment=2)         20.87     22.72     26.74 
 H(Fragment=2)         22.23     22.05     26.74 
 O(Fragment=2)         14.31     18.89     24.4 
 H(Fragment=2)         14.48     19.81     24.2 
 H(Fragment=2)         14.28     18.86     25.36 
 O(Fragment=2)         17.76     26.26     17.95 
 H(Fragment=2)         17.07     26.93     17.91 
 H(Fragment=2)         17.96     26.07     17.04 
 O(Fragment=2)         25.24     17.29     23.87 
 H(Fragment=2)         26.14     17.14     23.6 
 H(Fragment=2)         24.8      16.45     23.7 
 O(Fragment=2)         22.18     14.4      16.35 
 H(Fragment=2)         22.39     13.49     16.58 
 H(Fragment=2)         22.66     14.56     15.54 
 O(Fragment=2)         12.96     23.44     21.07 
 H(Fragment=2)         12.59     23.89     21.82 
 H(Fragment=2)         13.83     23.18     21.36 
 O(Fragment=2)         16.89     22.92     26. 
 H(Fragment=2)         17.65     23.43     25.74 
 H(Fragment=2)         16.51     23.41     26.73 
 O(Fragment=2)         15.63     15.04     17.44 
 H(Fragment=2)         14.81     15.27     17. 
 H(Fragment=2)         15.37     14.39     18.09 
 O(Fragment=2)         19.04     17.57     27.49 
 H(Fragment=2)         19.28     18.2      26.82 
 H(Fragment=2)         19.13     18.05     28.31 
 O(Fragment=2)         25.68     24.45     18.72 
 H(Fragment=2)         26.24     24.89     19.35 
 H(Fragment=2)         26.01     23.56     18.67 
 O(Fragment=2)         23.93     18.6      25.94 
 H(Fragment=2)         23.87     17.9      26.59 
 H(Fragment=2)         24.47     18.23     25.24 
 O(Fragment=2)         14.23     21.73     24. 
 H(Fragment=2)         13.76     21.56     23.19 
 H(Fragment=2)         14.4      22.68     23.98 
 O(Fragment=2)         27.31     20.72     20.83 
 H(Fragment=2)         27.47     19.78     20.92 
 H(Fragment=2)         26.92     20.97     21.67 
 O(Fragment=2)         19.11     21.9      27.5 
 H(Fragment=2)         18.47     21.86     26.78 
 H(Fragment=2)         19.07     22.81     27.79 
 O(Fragment=2)         14.92     15.73     24.52 
 H(Fragment=2)         15.3      14.86     24.58 
 H(Fragment=2)         15.21     16.06     23.67 
 O(Fragment=2)         14.75     22.4      15.59 
 H(Fragment=2)         13.91     22.85     15.5 
 H(Fragment=2)         15.39     23.       15.2 
 O(Fragment=2)         12.98     20.59     21.94 
 H(Fragment=2)         12.26     19.96     22.02 
 H(Fragment=2)         12.86     20.98     21.08 
 O(Fragment=2)         19.79     21.2      12.16 
 H(Fragment=2)         20.14     21.72     12.87 
 H(Fragment=2)         19.11     20.67     12.57 
 O(Fragment=2)         17.12     13.06     22.99 
 H(Fragment=2)         17.16     13.58     22.19 
 H(Fragment=2)         16.88     12.19     22.69 
 O(Fragment=2)         15.17     26.14     19.49 
 H(Fragment=2)         15.65     26.93     19.22 
 H(Fragment=2)         15.24     25.55     18.75 
 O(Fragment=2)         12.51     17.43     18.38 
 H(Fragment=2)         13.       18.22     18.16 
 H(Fragment=2)         12.49     17.43     19.34 
 O(Fragment=2)         27.95     18.41     18.25 
 H(Fragment=2)         28.65     17.86     18.6 
 H(Fragment=2)         27.16     18.12     18.71 
 O(Fragment=2)         27.36     16.26     20.96 
 H(Fragment=2)         28.18     16.4      20.49 
 H(Fragment=2)         26.68     16.56     20.35 
 O(Fragment=2)         19.49     14.08     13.98 
 H(Fragment=2)         18.61     13.84     14.27 
 H(Fragment=2)         19.65     14.93     14.38 
 O(Fragment=2)         25.18     15.       22.49 
 H(Fragment=2)         25.68     14.35     22.98 
 H(Fragment=2)         25.76     15.26     21.78 
 O(Fragment=2)         18.06     11.89     18.58 
 H(Fragment=2)         17.96     12.68     19.11 
 H(Fragment=2)         17.34     11.32     18.84 
 O(Fragment=2)         11.69     21.5      19.26 
 H(Fragment=2)         11.91     22.18     19.9 
 H(Fragment=2)         12.53     21.25     18.88 
 O(Fragment=2)         23.13     17.48     12.67 
 H(Fragment=2)         23.4      17.43     13.59 
 H(Fragment=2)         22.55     18.24     12.63 
 O(Fragment=2)         12.75     18.7      15.6 
 H(Fragment=2)         12.24     19.48     15.39 
 H(Fragment=2)         13.65     19.01     15.69 
 O(Fragment=2)         17.26     26.21     24.73 
 H(Fragment=2)         18.15     26.23     24.36 
 H(Fragment=2)         16.74     25.74     24.07 
 O(Fragment=2)         23.03     27.63     22.37 
 H(Fragment=2)         22.39     26.95     22.59 
 H(Fragment=2)         23.34     27.39     21.5 
 O(Fragment=2)         24.72     25.09     25.05 
 H(Fragment=2)         25.2      24.3      24.79 
 H(Fragment=2)         23.94     25.09     24.5 
 O(Fragment=2)         19.21     24.31     26.52 
 H(Fragment=2)         18.57     24.99     26.71 
 H(Fragment=2)         20.03     24.79     26.35 
 O(Fragment=2)         23.57     21.14     27.5 
 H(Fragment=2)         23.71     20.35     26.98 
 H(Fragment=2)         24.39     21.62     27.42 
 O(Fragment=2)         21.08     25.81     14.25 
 H(Fragment=2)         20.21     25.42     14.23 
 H(Fragment=2)         21.59     25.31     13.61 
 O(Fragment=2)         17.37     17.57     12.26 
 H(Fragment=2)         18.05     17.04     11.84 
 H(Fragment=2)         17.26     17.18     13.12 
 O(Fragment=2)         17.84     26.01     15.04 
 H(Fragment=2)         17.26     25.31     14.74 
 H(Fragment=2)         17.9      26.61     14.29 
 O(Fragment=2)         16.37     16.65     27.1 
 H(Fragment=2)         17.27     16.82     26.81 
 H(Fragment=2)         15.9      16.41     26.3 
 O(Fragment=2)         21.23     26.53     25.8 
 H(Fragment=2)         21.39     26.15     24.93 
 H(Fragment=2)         20.57     27.21     25.65 
 O(Fragment=2)         20.02     12.19     15.95 
 H(Fragment=2)         20.12     12.56     16.83 
 H(Fragment=2)         19.94     12.96     15.38 
 O(Fragment=2)         21.14     20.18     28.58 
 H(Fragment=2)         21.96     20.44     28.17 
 H(Fragment=2)         20.47     20.68     28.11 
 O(Fragment=2)         16.32     24.47     13.09 
 H(Fragment=2)         16.92     23.82     13.46 
 H(Fragment=2)         16.14     24.15     12.2 
 O(Fragment=2)         28.25     22.97     19.59 
 H(Fragment=2)         28.9      22.34     19.27 
 H(Fragment=2)         27.79     22.49     20.28 
 O(Fragment=2)         20.89     15.27     26.77 
 H(Fragment=2)         20.47     15.99     27.25 
 H(Fragment=2)         20.16     14.7      26.53 
 O(Fragment=2)         19.8      28.64     19.81 
 H(Fragment=2)         19.39     28.24     19.05 
 H(Fragment=2)         19.31     29.45     19.95 
 O(Fragment=2)         24.34     12.04     19.42 
 H(Fragment=2)         24.72     11.57     20.15 
 H(Fragment=2)         24.45     12.97     19.64 
 O(Fragment=2)         25.52     20.86     13.27 
 H(Fragment=2)         24.89     20.14     13.26 
 H(Fragment=2)         25.       21.63     13.07 
 O(Fragment=2)         12.88     15.81     21.33 
 H(Fragment=2)         12.52     16.21     22.12 
 H(Fragment=2)         12.19     15.23     21.01 
 O(Fragment=2)         13.82     15.68     15.81 
 H(Fragment=2)         13.52     16.59     15.84 
 H(Fragment=2)         13.99     15.51     14.88 
 O(Fragment=2)         24.22     27.31     19.55 
 H(Fragment=2)         23.98     27.44     18.63 
 H(Fragment=2)         25.14     27.07     19.53 
 O(Fragment=2)         26.32     14.68     18.07 
 H(Fragment=2)         27.28     14.65     18.11 
 H(Fragment=2)         26.12     14.62     17.14 
 O(Fragment=2)         25.01     26.4      16.65 
 H(Fragment=2)         25.47     25.92     17.34 
 H(Fragment=2)         25.44     26.11     15.84 
 O(Fragment=2)         12.38     16.92     23.61 
 H(Fragment=2)         12.74     16.11     23.97 
 H(Fragment=2)         12.91     17.61     24.02 
 O(Fragment=2)         28.65     20.85     17.22 
 H(Fragment=2)         28.45     20.06     17.72 
 H(Fragment=2)         27.84     21.05     16.75 
 O(Fragment=2)         17.22     13.21     15.14 
 H(Fragment=2)         16.97     12.42     14.67 
 H(Fragment=2)         16.89     13.08     16.03 
 O(Fragment=2)         21.21     10.96     22.07 
 H(Fragment=2)         21.18     11.85     22.41 
 H(Fragment=2)         22.14     10.74     22.02 
 O(Fragment=2)         19.03     23.84     11.27 
 H(Fragment=2)         19.17     23.82     12.22 
 H(Fragment=2)         18.26     23.3      11.13 
 O(Fragment=2)         16.87     14.92     12.39 
 H(Fragment=2)         17.24     15.27     13.21 
 H(Fragment=2)         17.36     14.11     12.23 
 O(Fragment=2)         17.75     19.77     29.01 
 H(Fragment=2)         16.97     19.61     28.47 
 H(Fragment=2)         18.16     20.53     28.61 
 O(Fragment=2)         14.43     13.15     20.49 
 H(Fragment=2)         14.77     12.79     21.31 
 H(Fragment=2)         13.76     13.78     20.76 
 O(Fragment=2)         13.27     24.53     23.53 
 H(Fragment=2)         12.92     25.37     23.24 
 H(Fragment=2)         12.99     24.46     24.45 
 O(Fragment=2)         28.       18.43     15.53 
 H(Fragment=2)         28.64     19.14     15.54 
 H(Fragment=2)         27.9      18.19     16.45 
 O(Fragment=2)         27.97     16.92     23.48 
 H(Fragment=2)         27.88     16.79     22.54 
 H(Fragment=2)         28.88     16.67     23.67 
 O(Fragment=2)         11.08     18.19     21.22 
 H(Fragment=2)         10.43     17.58     20.87 
 H(Fragment=2)         11.62     17.65     21.8 
 O(Fragment=2)         18.73     28.84     15.97 
 H(Fragment=2)         19.15     28.03     16.25 
 H(Fragment=2)         18.96     28.92     15.05 
 O(Fragment=2)         14.76     27.36     23.89 
 H(Fragment=2)         15.37     26.9      23.31 
 H(Fragment=2)         15.32     27.83     24.5 
 O(Fragment=2)         25.12     14.49     26.34 
 H(Fragment=2)         25.73     15.21     26.53 
 H(Fragment=2)         24.32     14.93     26.04 
 O(Fragment=2)         21.11     18.61     10.86 
 H(Fragment=2)         22.01     18.47     10.57 
 H(Fragment=2)         21.06     19.55     11.04 
 O(Fragment=2)         29.44     18.99     20.66 
 H(Fragment=2)         29.07     19.85     20.43 
 H(Fragment=2)         30.11     18.84     19.99 
 O(Fragment=2)         13.95     17.66     12.77 
 H(Fragment=2)         14.31     16.84     13.12 
 H(Fragment=2)         13.84     18.22     13.53 
 O(Fragment=2)         27.98     19.51     24.37 
 H(Fragment=2)         27.81     19.58     25.31 
 H(Fragment=2)         28.26     18.61     24.24 
 O(Fragment=2)         27.14     15.72     15.07 
 H(Fragment=2)         27.9      15.71     14.48 
 H(Fragment=2)         27.21     16.55     15.53 
 O(Fragment=2)         26.94     23.36     25.04 
 H(Fragment=2)         27.77     23.5      24.59 
 H(Fragment=2)         27.14     23.5      25.96 
 O(Fragment=2)         23.49     20.57     11.39 
 H(Fragment=2)         23.82     20.43     10.5 
 H(Fragment=2)         23.1      21.44     11.36 
 O(Fragment=2)         22.82     11.51     17.17 
 H(Fragment=2)         23.39     11.57     17.94 
 H(Fragment=2)         23.24     10.85     16.62 
 O(Fragment=2)         23.06     28.79     15.79 
 H(Fragment=2)         23.85     28.63     16.31 
 H(Fragment=2)         22.43     28.14     16.11 
 O(Fragment=2)         18.48     10.42     21.66 
 H(Fragment=2)         19.36     10.79     21.67 
 H(Fragment=2)         18.6      9.49      21.81 
 O(Fragment=2)         16.63     22.32     11.37 
 H(Fragment=2)         15.8      21.84     11.32 
 H(Fragment=2)         17.3      21.66     11.16 
 
 NAtoms=    385 NQM=      385 NQMF=       0 NMMI=      0 NMMIF=      0
                NMic=       0 NMicF=      0.
                    Isotopes and Nuclear Properties:
 (Nuclear quadrupole moments (NQMom) in fm**2, nuclear magnetic moments (NMagM)
  in nuclear magnetons)

  Atom         1           2           3           4           5           6           7           8           9          10
 IAtWgt=          79          16           1           1          16           1           1          16           1           1
 AtmWgt=  78.9183361  15.9949146   1.0078250   1.0078250  15.9949146   1.0078250   1.0078250  15.9949146   1.0078250   1.0078250
 NucSpn=           3           0           1           1           0           1           1           0           1           1
 AtZEff=   0.0000000   0.0000000   0.0000000   0.0000000   0.0000000   0.0000000   0.0000000   0.0000000   0.0000000   0.0000000
 NQMom=   31.3000000   0.0000000   0.0000000   0.0000000   0.0000000   0.0000000   0.0000000   0.0000000   0.0000000   0.0000000
 NMagM=    2.1063990   0.0000000   2.7928460   2.7928460   0.0000000   2.7928460   2.7928460   0.0000000   2.7928460   2.7928460
 AtZNuc=  35.0000000   8.0000000   1.0000000   1.0000000   8.0000000   1.0000000   1.0000000   8.0000000   1.0000000   1.0000000

  Atom        11          12          13          14          15          16          17          18          19          20
 IAtWgt=          16           1           1          16           1           1          16           1           1          16
 AtmWgt=  15.9949146   1.0078250   1.0078250  15.9949146   1.0078250   1.0078250  15.9949146   1.0078250   1.0078250  15.9949146
 NucSpn=           0           1           1           0           1           1           0           1           1           0
 AtZEff=   0.0000000   0.0000000   0.0000000   0.0000000   0.0000000   0.0000000   0.0000000   0.0000000   0.0000000   0.0000000
 NQMom=    0.0000000   0.0000000   0.0000000   0.0000000   0.0000000   0.0000000   0.0000000   0.0000000   0.0000000   0.0000000
 NMagM=    0.0000000   2.7928460   2.7928460   0.0000000   2.7928460   2.7928460   0.0000000   2.7928460   2.7928460   0.0000000
 AtZNuc=   8.0000000   1.0000000   1.0000000   8.0000000   1.0000000   1.0000000   8.0000000   1.0000000   1.0000000   8.0000000

  Atom        21          22          23          24          25          26          27          28          29          30
 IAtWgt=           1           1          16           1           1          16           1           1          16           1
 AtmWgt=   1.0078250   1.0078250  15.9949146   1.0078250   1.0078250  15.9949146   1.0078250   1.0078250  15.9949146   1.0078250
 NucSpn=           1           1           0           1           1           0           1           1           0           1
 AtZEff=   0.0000000   0.0000000   0.0000000   0.0000000   0.0000000   0.0000000   0.0000000   0.0000000   0.0000000   0.0000000
 NQMom=    0.0000000   0.0000000   0.0000000   0.0000000   0.0000000   0.0000000   0.0000000   0.0000000   0.0000000   0.0000000
 NMagM=    2.7928460   2.7928460   0.0000000   2.7928460   2.7928460   0.0000000   2.7928460   2.7928460   0.0000000   2.7928460
 AtZNuc=   1.0000000   1.0000000   8.0000000   1.0000000   1.0000000   8.0000000   1.0000000   1.0000000   8.0000000   1.0000000

  Atom        31          32          33          34          35          36          37          38          39          40
 IAtWgt=           1          16           1           1          16           1           1          16           1           1
 AtmWgt=   1.0078250  15.9949146   1.0078250   1.0078250  15.9949146   1.0078250   1.0078250  15.9949146   1.0078250   1.0078250
 NucSpn=           1           0           1           1           0           1           1           0           1           1
 AtZEff=   0.0000000   0.0000000   0.0000000   0.0000000   0.0000000   0.0000000   0.0000000   0.0000000   0.0000000   0.0000000
 NQMom=    0.0000000   0.0000000   0.0000000   0.0000000   0.0000000   0.0000000   0.0000000   0.0000000   0.0000000   0.0000000
 NMagM=    2.7928460   0.0000000   2.7928460   2.7928460   0.0000000   2.7928460   2.7928460   0.0000000   2.7928460   2.7928460
 AtZNuc=   1.0000000   8.0000000   1.0000000   1.0000000   8.0000000   1.0000000   1.0000000   8.0000000   1.0000000   1.0000000

  Atom        41          42          43          44          45          46          47          48          49          50
 IAtWgt=          16           1           1          16           1           1          16           1           1          16
 AtmWgt=  15.9949146   1.0078250   1.0078250  15.9949146   1.0078250   1.0078250  15.9949146   1.0078250   1.0078250  15.9949146
 NucSpn=           0           1           1           0           1           1           0           1           1           0
 AtZEff=   0.0000000   0.0000000   0.0000000   0.0000000   0.0000000   0.0000000   0.0000000   0.0000000   0.0000000   0.0000000
 NQMom=    0.0000000   0.0000000   0.0000000   0.0000000   0.0000000   0.0000000   0.0000000   0.0000000   0.0000000   0.0000000
 NMagM=    0.0000000   2.7928460   2.7928460   0.0000000   2.7928460   2.7928460   0.0000000   2.7928460   2.7928460   0.0000000
 AtZNuc=   8.0000000   1.0000000   1.0000000   8.0000000   1.0000000   1.0000000   8.0000000   1.0000000   1.0000000   8.0000000

  Atom        51          52          53          54          55          56          57          58          59          60
 IAtWgt=           1           1          16           1           1          16           1           1          16           1
 AtmWgt=   1.0078250   1.0078250  15.9949146   1.0078250   1.0078250  15.9949146   1.0078250   1.0078250  15.9949146   1.0078250
 NucSpn=           1           1           0           1           1           0           1           1           0           1
 AtZEff=   0.0000000   0.0000000   0.0000000   0.0000000   0.0000000   0.0000000   0.0000000   0.0000000   0.0000000   0.0000000
 NQMom=    0.0000000   0.0000000   0.0000000   0.0000000   0.0000000   0.0000000   0.0000000   0.0000000   0.0000000   0.0000000
 NMagM=    2.7928460   2.7928460   0.0000000   2.7928460   2.7928460   0.0000000   2.7928460   2.7928460   0.0000000   2.7928460
 AtZNuc=   1.0000000   1.0000000   8.0000000   1.0000000   1.0000000   8.0000000   1.0000000   1.0000000   8.0000000   1.0000000

  Atom        61          62          63          64          65          66          67          68          69          70
 IAtWgt=           1          16           1           1          16           1           1          16           1           1
 AtmWgt=   1.0078250  15.9949146   1.0078250   1.0078250  15.9949146   1.0078250   1.0078250  15.9949146   1.0078250   1.0078250
 NucSpn=           1           0           1           1           0           1           1           0           1           1
 AtZEff=   0.0000000   0.0000000   0.0000000   0.0000000   0.0000000   0.0000000   0.0000000   0.0000000   0.0000000   0.0000000
 NQMom=    0.0000000   0.0000000   0.0000000   0.0000000   0.0000000   0.0000000   0.0000000   0.0000000   0.0000000   0.0000000
 NMagM=    2.7928460   0.0000000   2.7928460   2.7928460   0.0000000   2.7928460   2.7928460   0.0000000   2.7928460   2.7928460
 AtZNuc=   1.0000000   8.0000000   1.0000000   1.0000000   8.0000000   1.0000000   1.0000000   8.0000000   1.0000000   1.0000000

  Atom        71          72          73          74          75          76          77          78          79          80
 IAtWgt=          16           1           1          16           1           1          16           1           1          16
 AtmWgt=  15.9949146   1.0078250   1.0078250  15.9949146   1.0078250   1.0078250  15.9949146   1.0078250   1.0078250  15.9949146
 NucSpn=           0           1           1           0           1           1           0           1           1           0
 AtZEff=   0.0000000   0.0000000   0.0000000   0.0000000   0.0000000   0.0000000   0.0000000   0.0000000   0.0000000   0.0000000
 NQMom=    0.0000000   0.0000000   0.0000000   0.0000000   0.0000000   0.0000000   0.0000000   0.0000000   0.0000000   0.0000000
 NMagM=    0.0000000   2.7928460   2.7928460   0.0000000   2.7928460   2.7928460   0.0000000   2.7928460   2.7928460   0.0000000
 AtZNuc=   8.0000000   1.0000000   1.0000000   8.0000000   1.0000000   1.0000000   8.0000000   1.0000000   1.0000000   8.0000000

  Atom        81          82          83          84          85          86          87          88          89          90
 IAtWgt=           1           1          16           1           1          16           1           1          16           1
 AtmWgt=   1.0078250   1.0078250  15.9949146   1.0078250   1.0078250  15.9949146   1.0078250   1.0078250  15.9949146   1.0078250
 NucSpn=           1           1           0           1           1           0           1           1           0           1
 AtZEff=   0.0000000   0.0000000   0.0000000   0.0000000   0.0000000   0.0000000   0.0000000   0.0000000   0.0000000   0.0000000
 NQMom=    0.0000000   0.0000000   0.0000000   0.0000000   0.0000000   0.0000000   0.0000000   0.0000000   0.0000000   0.0000000
 NMagM=    2.7928460   2.7928460   0.0000000   2.7928460   2.7928460   0.0000000   2.7928460   2.7928460   0.0000000   2.7928460
 AtZNuc=   1.0000000   1.0000000   8.0000000   1.0000000   1.0000000   8.0000000   1.0000000   1.0000000   8.0000000   1.0000000

  Atom        91          92          93          94          95          96          97          98          99         100
 IAtWgt=           1          16           1           1          16           1           1          16           1           1
 AtmWgt=   1.0078250  15.9949146   1.0078250   1.0078250  15.9949146   1.0078250   1.0078250  15.9949146   1.0078250   1.0078250
 NucSpn=           1           0           1           1           0           1           1           0           1           1
 AtZEff=   0.0000000   0.0000000   0.0000000   0.0000000   0.0000000   0.0000000   0.0000000   0.0000000   0.0000000   0.0000000
 NQMom=    0.0000000   0.0000000   0.0000000   0.0000000   0.0000000   0.0000000   0.0000000   0.0000000   0.0000000   0.0000000
 NMagM=    2.7928460   0.0000000   2.7928460   2.7928460   0.0000000   2.7928460   2.7928460   0.0000000   2.7928460   2.7928460
 AtZNuc=   1.0000000   8.0000000   1.0000000   1.0000000   8.0000000   1.0000000   1.0000000   8.0000000   1.0000000   1.0000000

  Atom       101         102         103         104         105         106         107         108         109         110
 IAtWgt=          16           1           1          16           1           1          16           1           1          16
 AtmWgt=  15.9949146   1.0078250   1.0078250  15.9949146   1.0078250   1.0078250  15.9949146   1.0078250   1.0078250  15.9949146
 NucSpn=           0           1           1           0           1           1           0           1           1           0
 AtZEff=   0.0000000   0.0000000   0.0000000   0.0000000   0.0000000   0.0000000   0.0000000   0.0000000   0.0000000   0.0000000
 NQMom=    0.0000000   0.0000000   0.0000000   0.0000000   0.0000000   0.0000000   0.0000000   0.0000000   0.0000000   0.0000000
 NMagM=    0.0000000   2.7928460   2.7928460   0.0000000   2.7928460   2.7928460   0.0000000   2.7928460   2.7928460   0.0000000
 AtZNuc=   8.0000000   1.0000000   1.0000000   8.0000000   1.0000000   1.0000000   8.0000000   1.0000000   1.0000000   8.0000000

  Atom       111         112         113         114         115         116         117         118         119         120
 IAtWgt=           1           1          16           1           1          16           1           1          16           1
 AtmWgt=   1.0078250   1.0078250  15.9949146   1.0078250   1.0078250  15.9949146   1.0078250   1.0078250  15.9949146   1.0078250
 NucSpn=           1           1           0           1           1           0           1           1           0           1
 AtZEff=   0.0000000   0.0000000   0.0000000   0.0000000   0.0000000   0.0000000   0.0000000   0.0000000   0.0000000   0.0000000
 NQMom=    0.0000000   0.0000000   0.0000000   0.0000000   0.0000000   0.0000000   0.0000000   0.0000000   0.0000000   0.0000000
 NMagM=    2.7928460   2.7928460   0.0000000   2.7928460   2.7928460   0.0000000   2.7928460   2.7928460   0.0000000   2.7928460
 AtZNuc=   1.0000000   1.0000000   8.0000000   1.0000000   1.0000000   8.0000000   1.0000000   1.0000000   8.0000000   1.0000000

  Atom       121         122         123         124         125         126         127         128         129         130
 IAtWgt=           1          16           1           1          16           1           1          16           1           1
 AtmWgt=   1.0078250  15.9949146   1.0078250   1.0078250  15.9949146   1.0078250   1.0078250  15.9949146   1.0078250   1.0078250
 NucSpn=           1           0           1           1           0           1           1           0           1           1
 AtZEff=   0.0000000   0.0000000   0.0000000   0.0000000   0.0000000   0.0000000   0.0000000   0.0000000   0.0000000   0.0000000
 NQMom=    0.0000000   0.0000000   0.0000000   0.0000000   0.0000000   0.0000000   0.0000000   0.0000000   0.0000000   0.0000000
 NMagM=    2.7928460   0.0000000   2.7928460   2.7928460   0.0000000   2.7928460   2.7928460   0.0000000   2.7928460   2.7928460
 AtZNuc=   1.0000000   8.0000000   1.0000000   1.0000000   8.0000000   1.0000000   1.0000000   8.0000000   1.0000000   1.0000000

  Atom       131         132         133         134         135         136         137         138         139         140
 IAtWgt=          16           1           1          16           1           1          16           1           1          16
 AtmWgt=  15.9949146   1.0078250   1.0078250  15.9949146   1.0078250   1.0078250  15.9949146   1.0078250   1.0078250  15.9949146
 NucSpn=           0           1           1           0           1           1           0           1           1           0
 AtZEff=   0.0000000   0.0000000   0.0000000   0.0000000   0.0000000   0.0000000   0.0000000   0.0000000   0.0000000   0.0000000
 NQMom=    0.0000000   0.0000000   0.0000000   0.0000000   0.0000000   0.0000000   0.0000000   0.0000000   0.0000000   0.0000000
 NMagM=    0.0000000   2.7928460   2.7928460   0.0000000   2.7928460   2.7928460   0.0000000   2.7928460   2.7928460   0.0000000
 AtZNuc=   8.0000000   1.0000000   1.0000000   8.0000000   1.0000000   1.0000000   8.0000000   1.0000000   1.0000000   8.0000000

  Atom       141         142         143         144         145         146         147         148         149         150
 IAtWgt=           1           1          16           1           1          16           1           1          16           1
 AtmWgt=   1.0078250   1.0078250  15.9949146   1.0078250   1.0078250  15.9949146   1.0078250   1.0078250  15.9949146   1.0078250
 NucSpn=           1           1           0           1           1           0           1           1           0           1
 AtZEff=   0.0000000   0.0000000   0.0000000   0.0000000   0.0000000   0.0000000   0.0000000   0.0000000   0.0000000   0.0000000
 NQMom=    0.0000000   0.0000000   0.0000000   0.0000000   0.0000000   0.0000000   0.0000000   0.0000000   0.0000000   0.0000000
 NMagM=    2.7928460   2.7928460   0.0000000   2.7928460   2.7928460   0.0000000   2.7928460   2.7928460   0.0000000   2.7928460
 AtZNuc=   1.0000000   1.0000000   8.0000000   1.0000000   1.0000000   8.0000000   1.0000000   1.0000000   8.0000000   1.0000000

  Atom       151         152         153         154         155         156         157         158         159         160
 IAtWgt=           1          16           1           1          16           1           1          16           1           1
 AtmWgt=   1.0078250  15.9949146   1.0078250   1.0078250  15.9949146   1.0078250   1.0078250  15.9949146   1.0078250   1.0078250
 NucSpn=           1           0           1           1           0           1           1           0           1           1
 AtZEff=   0.0000000   0.0000000   0.0000000   0.0000000   0.0000000   0.0000000   0.0000000   0.0000000   0.0000000   0.0000000
 NQMom=    0.0000000   0.0000000   0.0000000   0.0000000   0.0000000   0.0000000   0.0000000   0.0000000   0.0000000   0.0000000
 NMagM=    2.7928460   0.0000000   2.7928460   2.7928460   0.0000000   2.7928460   2.7928460   0.0000000   2.7928460   2.7928460
 AtZNuc=   1.0000000   8.0000000   1.0000000   1.0000000   8.0000000   1.0000000   1.0000000   8.0000000   1.0000000   1.0000000

  Atom       161         162         163         164         165         166         167         168         169         170
 IAtWgt=          16           1           1          16           1           1          16           1           1          16
 AtmWgt=  15.9949146   1.0078250   1.0078250  15.9949146   1.0078250   1.0078250  15.9949146   1.0078250   1.0078250  15.9949146
 NucSpn=           0           1           1           0           1           1           0           1           1           0
 AtZEff=   0.0000000   0.0000000   0.0000000   0.0000000   0.0000000   0.0000000   0.0000000   0.0000000   0.0000000   0.0000000
 NQMom=    0.0000000   0.0000000   0.0000000   0.0000000   0.0000000   0.0000000   0.0000000   0.0000000   0.0000000   0.0000000
 NMagM=    0.0000000   2.7928460   2.7928460   0.0000000   2.7928460   2.7928460   0.0000000   2.7928460   2.7928460   0.0000000
 AtZNuc=   8.0000000   1.0000000   1.0000000   8.0000000   1.0000000   1.0000000   8.0000000   1.0000000   1.0000000   8.0000000

  Atom       171         172         173         174         175         176         177         178         179         180
 IAtWgt=           1           1          16           1           1          16           1           1          16           1
 AtmWgt=   1.0078250   1.0078250  15.9949146   1.0078250   1.0078250  15.9949146   1.0078250   1.0078250  15.9949146   1.0078250
 NucSpn=           1           1           0           1           1           0           1           1           0           1
 AtZEff=   0.0000000   0.0000000   0.0000000   0.0000000   0.0000000   0.0000000   0.0000000   0.0000000   0.0000000   0.0000000
 NQMom=    0.0000000   0.0000000   0.0000000   0.0000000   0.0000000   0.0000000   0.0000000   0.0000000   0.0000000   0.0000000
 NMagM=    2.7928460   2.7928460   0.0000000   2.7928460   2.7928460   0.0000000   2.7928460   2.7928460   0.0000000   2.7928460
 AtZNuc=   1.0000000   1.0000000   8.0000000   1.0000000   1.0000000   8.0000000   1.0000000   1.0000000   8.0000000   1.0000000

  Atom       181         182         183         184         185         186         187         188         189         190
 IAtWgt=           1          16           1           1          16           1           1          16           1           1
 AtmWgt=   1.0078250  15.9949146   1.0078250   1.0078250  15.9949146   1.0078250   1.0078250  15.9949146   1.0078250   1.0078250
 NucSpn=           1           0           1           1           0           1           1           0           1           1
 AtZEff=   0.0000000   0.0000000   0.0000000   0.0000000   0.0000000   0.0000000   0.0000000   0.0000000   0.0000000   0.0000000
 NQMom=    0.0000000   0.0000000   0.0000000   0.0000000   0.0000000   0.0000000   0.0000000   0.0000000   0.0000000   0.0000000
 NMagM=    2.7928460   0.0000000   2.7928460   2.7928460   0.0000000   2.7928460   2.7928460   0.0000000   2.7928460   2.7928460
 AtZNuc=   1.0000000   8.0000000   1.0000000   1.0000000   8.0000000   1.0000000   1.0000000   8.0000000   1.0000000   1.0000000

  Atom       191         192         193         194         195         196         197         198         199         200
 IAtWgt=          16           1           1          16           1           1          16           1           1          16
 AtmWgt=  15.9949146   1.0078250   1.0078250  15.9949146   1.0078250   1.0078250  15.9949146   1.0078250   1.0078250  15.9949146
 NucSpn=           0           1           1           0           1           1           0           1           1           0
 AtZEff=   0.0000000   0.0000000   0.0000000   0.0000000   0.0000000   0.0000000   0.0000000   0.0000000   0.0000000   0.0000000
 NQMom=    0.0000000   0.0000000   0.0000000   0.0000000   0.0000000   0.0000000   0.0000000   0.0000000   0.0000000   0.0000000
 NMagM=    0.0000000   2.7928460   2.7928460   0.0000000   2.7928460   2.7928460   0.0000000   2.7928460   2.7928460   0.0000000
 AtZNuc=   8.0000000   1.0000000   1.0000000   8.0000000   1.0000000   1.0000000   8.0000000   1.0000000   1.0000000   8.0000000

  Atom       201         202         203         204         205         206         207         208         209         210
 IAtWgt=           1           1          16           1           1          16           1           1          16           1
 AtmWgt=   1.0078250   1.0078250  15.9949146   1.0078250   1.0078250  15.9949146   1.0078250   1.0078250  15.9949146   1.0078250
 NucSpn=           1           1           0           1           1           0           1           1           0           1
 AtZEff=   0.0000000   0.0000000   0.0000000   0.0000000   0.0000000   0.0000000   0.0000000   0.0000000   0.0000000   0.0000000
 NQMom=    0.0000000   0.0000000   0.0000000   0.0000000   0.0000000   0.0000000   0.0000000   0.0000000   0.0000000   0.0000000
 NMagM=    2.7928460   2.7928460   0.0000000   2.7928460   2.7928460   0.0000000   2.7928460   2.7928460   0.0000000   2.7928460
 AtZNuc=   1.0000000   1.0000000   8.0000000   1.0000000   1.0000000   8.0000000   1.0000000   1.0000000   8.0000000   1.0000000

  Atom       211         212         213         214         215         216         217         218         219         220
 IAtWgt=           1          16           1           1          16           1           1          16           1           1
 AtmWgt=   1.0078250  15.9949146   1.0078250   1.0078250  15.9949146   1.0078250   1.0078250  15.9949146   1.0078250   1.0078250
 NucSpn=           1           0           1           1           0           1           1           0           1           1
 AtZEff=   0.0000000   0.0000000   0.0000000   0.0000000   0.0000000   0.0000000   0.0000000   0.0000000   0.0000000   0.0000000
 NQMom=    0.0000000   0.0000000   0.0000000   0.0000000   0.0000000   0.0000000   0.0000000   0.0000000   0.0000000   0.0000000
 NMagM=    2.7928460   0.0000000   2.7928460   2.7928460   0.0000000   2.7928460   2.7928460   0.0000000   2.7928460   2.7928460
 AtZNuc=   1.0000000   8.0000000   1.0000000   1.0000000   8.0000000   1.0000000   1.0000000   8.0000000   1.0000000   1.0000000

  Atom       221         222         223         224         225         226         227         228         229         230
 IAtWgt=          16           1           1          16           1           1          16           1           1          16
 AtmWgt=  15.9949146   1.0078250   1.0078250  15.9949146   1.0078250   1.0078250  15.9949146   1.0078250   1.0078250  15.9949146
 NucSpn=           0           1           1           0           1           1           0           1           1           0
 AtZEff=   0.0000000   0.0000000   0.0000000   0.0000000   0.0000000   0.0000000   0.0000000   0.0000000   0.0000000   0.0000000
 NQMom=    0.0000000   0.0000000   0.0000000   0.0000000   0.0000000   0.0000000   0.0000000   0.0000000   0.0000000   0.0000000
 NMagM=    0.0000000   2.7928460   2.7928460   0.0000000   2.7928460   2.7928460   0.0000000   2.7928460   2.7928460   0.0000000
 AtZNuc=   8.0000000   1.0000000   1.0000000   8.0000000   1.0000000   1.0000000   8.0000000   1.0000000   1.0000000   8.0000000

  Atom       231         232         233         234         235         236         237         238         239         240
 IAtWgt=           1           1          16           1           1          16           1           1          16           1
 AtmWgt=   1.0078250   1.0078250  15.9949146   1.0078250   1.0078250  15.9949146   1.0078250   1.0078250  15.9949146   1.0078250
 NucSpn=           1           1           0           1           1           0           1           1           0           1
 AtZEff=   0.0000000   0.0000000   0.0000000   0.0000000   0.0000000   0.0000000   0.0000000   0.0000000   0.0000000   0.0000000
 NQMom=    0.0000000   0.0000000   0.0000000   0.0000000   0.0000000   0.0000000   0.0000000   0.0000000   0.0000000   0.0000000
 NMagM=    2.7928460   2.7928460   0.0000000   2.7928460   2.7928460   0.0000000   2.7928460   2.7928460   0.0000000   2.7928460
 AtZNuc=   1.0000000   1.0000000   8.0000000   1.0000000   1.0000000   8.0000000   1.0000000   1.0000000   8.0000000   1.0000000

  Atom       241         242         243         244         245         246         247         248         249         250
 IAtWgt=           1          16           1           1          16           1           1          16           1           1
 AtmWgt=   1.0078250  15.9949146   1.0078250   1.0078250  15.9949146   1.0078250   1.0078250  15.9949146   1.0078250   1.0078250
 NucSpn=           1           0           1           1           0           1           1           0           1           1
 AtZEff=   0.0000000   0.0000000   0.0000000   0.0000000   0.0000000   0.0000000   0.0000000   0.0000000   0.0000000   0.0000000
 NQMom=    0.0000000   0.0000000   0.0000000   0.0000000   0.0000000   0.0000000   0.0000000   0.0000000   0.0000000   0.0000000
 NMagM=    2.7928460   0.0000000   2.7928460   2.7928460   0.0000000   2.7928460   2.7928460   0.0000000   2.7928460   2.7928460
 AtZNuc=   1.0000000   8.0000000   1.0000000   1.0000000   8.0000000   1.0000000   1.0000000   8.0000000   1.0000000   1.0000000

  Atom       251         252         253         254         255         256         257         258         259         260
 IAtWgt=          16           1           1          16           1           1          16           1           1          16
 AtmWgt=  15.9949146   1.0078250   1.0078250  15.9949146   1.0078250   1.0078250  15.9949146   1.0078250   1.0078250  15.9949146
 NucSpn=           0           1           1           0           1           1           0           1           1           0
 AtZEff=   0.0000000   0.0000000   0.0000000   0.0000000   0.0000000   0.0000000   0.0000000   0.0000000   0.0000000   0.0000000
 NQMom=    0.0000000   0.0000000   0.0000000   0.0000000   0.0000000   0.0000000   0.0000000   0.0000000   0.0000000   0.0000000
 NMagM=    0.0000000   2.7928460   2.7928460   0.0000000   2.7928460   2.7928460   0.0000000   2.7928460   2.7928460   0.0000000
 AtZNuc=   8.0000000   1.0000000   1.0000000   8.0000000   1.0000000   1.0000000   8.0000000   1.0000000   1.0000000   8.0000000

  Atom       261         262         263         264         265         266         267         268         269         270
 IAtWgt=           1           1          16           1           1          16           1           1          16           1
 AtmWgt=   1.0078250   1.0078250  15.9949146   1.0078250   1.0078250  15.9949146   1.0078250   1.0078250  15.9949146   1.0078250
 NucSpn=           1           1           0           1           1           0           1           1           0           1
 AtZEff=   0.0000000   0.0000000   0.0000000   0.0000000   0.0000000   0.0000000   0.0000000   0.0000000   0.0000000   0.0000000
 NQMom=    0.0000000   0.0000000   0.0000000   0.0000000   0.0000000   0.0000000   0.0000000   0.0000000   0.0000000   0.0000000
 NMagM=    2.7928460   2.7928460   0.0000000   2.7928460   2.7928460   0.0000000   2.7928460   2.7928460   0.0000000   2.7928460
 AtZNuc=   1.0000000   1.0000000   8.0000000   1.0000000   1.0000000   8.0000000   1.0000000   1.0000000   8.0000000   1.0000000

  Atom       271         272         273         274         275         276         277         278         279         280
 IAtWgt=           1          16           1           1          16           1           1          16           1           1
 AtmWgt=   1.0078250  15.9949146   1.0078250   1.0078250  15.9949146   1.0078250   1.0078250  15.9949146   1.0078250   1.0078250
 NucSpn=           1           0           1           1           0           1           1           0           1           1
 AtZEff=   0.0000000   0.0000000   0.0000000   0.0000000   0.0000000   0.0000000   0.0000000   0.0000000   0.0000000   0.0000000
 NQMom=    0.0000000   0.0000000   0.0000000   0.0000000   0.0000000   0.0000000   0.0000000   0.0000000   0.0000000   0.0000000
 NMagM=    2.7928460   0.0000000   2.7928460   2.7928460   0.0000000   2.7928460   2.7928460   0.0000000   2.7928460   2.7928460
 AtZNuc=   1.0000000   8.0000000   1.0000000   1.0000000   8.0000000   1.0000000   1.0000000   8.0000000   1.0000000   1.0000000

  Atom       281         282         283         284         285         286         287         288         289         290
 IAtWgt=          16           1           1          16           1           1          16           1           1          16
 AtmWgt=  15.9949146   1.0078250   1.0078250  15.9949146   1.0078250   1.0078250  15.9949146   1.0078250   1.0078250  15.9949146
 NucSpn=           0           1           1           0           1           1           0           1           1           0
 AtZEff=   0.0000000   0.0000000   0.0000000   0.0000000   0.0000000   0.0000000   0.0000000   0.0000000   0.0000000   0.0000000
 NQMom=    0.0000000   0.0000000   0.0000000   0.0000000   0.0000000   0.0000000   0.0000000   0.0000000   0.0000000   0.0000000
 NMagM=    0.0000000   2.7928460   2.7928460   0.0000000   2.7928460   2.7928460   0.0000000   2.7928460   2.7928460   0.0000000
 AtZNuc=   8.0000000   1.0000000   1.0000000   8.0000000   1.0000000   1.0000000   8.0000000   1.0000000   1.0000000   8.0000000

  Atom       291         292         293         294         295         296         297         298         299         300
 IAtWgt=           1           1          16           1           1          16           1           1          16           1
 AtmWgt=   1.0078250   1.0078250  15.9949146   1.0078250   1.0078250  15.9949146   1.0078250   1.0078250  15.9949146   1.0078250
 NucSpn=           1           1           0           1           1           0           1           1           0           1
 AtZEff=   0.0000000   0.0000000   0.0000000   0.0000000   0.0000000   0.0000000   0.0000000   0.0000000   0.0000000   0.0000000
 NQMom=    0.0000000   0.0000000   0.0000000   0.0000000   0.0000000   0.0000000   0.0000000   0.0000000   0.0000000   0.0000000
 NMagM=    2.7928460   2.7928460   0.0000000   2.7928460   2.7928460   0.0000000   2.7928460   2.7928460   0.0000000   2.7928460
 AtZNuc=   1.0000000   1.0000000   8.0000000   1.0000000   1.0000000   8.0000000   1.0000000   1.0000000   8.0000000   1.0000000

  Atom       301         302         303         304         305         306         307         308         309         310
 IAtWgt=           1          16           1           1          16           1           1          16           1           1
 AtmWgt=   1.0078250  15.9949146   1.0078250   1.0078250  15.9949146   1.0078250   1.0078250  15.9949146   1.0078250   1.0078250
 NucSpn=           1           0           1           1           0           1           1           0           1           1
 AtZEff=   0.0000000   0.0000000   0.0000000   0.0000000   0.0000000   0.0000000   0.0000000   0.0000000   0.0000000   0.0000000
 NQMom=    0.0000000   0.0000000   0.0000000   0.0000000   0.0000000   0.0000000   0.0000000   0.0000000   0.0000000   0.0000000
 NMagM=    2.7928460   0.0000000   2.7928460   2.7928460   0.0000000   2.7928460   2.7928460   0.0000000   2.7928460   2.7928460
 AtZNuc=   1.0000000   8.0000000   1.0000000   1.0000000   8.0000000   1.0000000   1.0000000   8.0000000   1.0000000   1.0000000

  Atom       311         312         313         314         315         316         317         318         319         320
 IAtWgt=          16           1           1          16           1           1          16           1           1          16
 AtmWgt=  15.9949146   1.0078250   1.0078250  15.9949146   1.0078250   1.0078250  15.9949146   1.0078250   1.0078250  15.9949146
 NucSpn=           0           1           1           0           1           1           0           1           1           0
 AtZEff=   0.0000000   0.0000000   0.0000000   0.0000000   0.0000000   0.0000000   0.0000000   0.0000000   0.0000000   0.0000000
 NQMom=    0.0000000   0.0000000   0.0000000   0.0000000   0.0000000   0.0000000   0.0000000   0.0000000   0.0000000   0.0000000
 NMagM=    0.0000000   2.7928460   2.7928460   0.0000000   2.7928460   2.7928460   0.0000000   2.7928460   2.7928460   0.0000000
 AtZNuc=   8.0000000   1.0000000   1.0000000   8.0000000   1.0000000   1.0000000   8.0000000   1.0000000   1.0000000   8.0000000

  Atom       321         322         323         324         325         326         327         328         329         330
 IAtWgt=           1           1          16           1           1          16           1           1          16           1
 AtmWgt=   1.0078250   1.0078250  15.9949146   1.0078250   1.0078250  15.9949146   1.0078250   1.0078250  15.9949146   1.0078250
 NucSpn=           1           1           0           1           1           0           1           1           0           1
 AtZEff=   0.0000000   0.0000000   0.0000000   0.0000000   0.0000000   0.0000000   0.0000000   0.0000000   0.0000000   0.0000000
 NQMom=    0.0000000   0.0000000   0.0000000   0.0000000   0.0000000   0.0000000   0.0000000   0.0000000   0.0000000   0.0000000
 NMagM=    2.7928460   2.7928460   0.0000000   2.7928460   2.7928460   0.0000000   2.7928460   2.7928460   0.0000000   2.7928460
 AtZNuc=   1.0000000   1.0000000   8.0000000   1.0000000   1.0000000   8.0000000   1.0000000   1.0000000   8.0000000   1.0000000

  Atom       331         332         333         334         335         336         337         338         339         340
 IAtWgt=           1          16           1           1          16           1           1          16           1           1
 AtmWgt=   1.0078250  15.9949146   1.0078250   1.0078250  15.9949146   1.0078250   1.0078250  15.9949146   1.0078250   1.0078250
 NucSpn=           1           0           1           1           0           1           1           0           1           1
 AtZEff=   0.0000000   0.0000000   0.0000000   0.0000000   0.0000000   0.0000000   0.0000000   0.0000000   0.0000000   0.0000000
 NQMom=    0.0000000   0.0000000   0.0000000   0.0000000   0.0000000   0.0000000   0.0000000   0.0000000   0.0000000   0.0000000
 NMagM=    2.7928460   0.0000000   2.7928460   2.7928460   0.0000000   2.7928460   2.7928460   0.0000000   2.7928460   2.7928460
 AtZNuc=   1.0000000   8.0000000   1.0000000   1.0000000   8.0000000   1.0000000   1.0000000   8.0000000   1.0000000   1.0000000

  Atom       341         342         343         344         345         346         347         348         349         350
 IAtWgt=          16           1           1          16           1           1          16           1           1          16
 AtmWgt=  15.9949146   1.0078250   1.0078250  15.9949146   1.0078250   1.0078250  15.9949146   1.0078250   1.0078250  15.9949146
 NucSpn=           0           1           1           0           1           1           0           1           1           0
 AtZEff=   0.0000000   0.0000000   0.0000000   0.0000000   0.0000000   0.0000000   0.0000000   0.0000000   0.0000000   0.0000000
 NQMom=    0.0000000   0.0000000   0.0000000   0.0000000   0.0000000   0.0000000   0.0000000   0.0000000   0.0000000   0.0000000
 NMagM=    0.0000000   2.7928460   2.7928460   0.0000000   2.7928460   2.7928460   0.0000000   2.7928460   2.7928460   0.0000000
 AtZNuc=   8.0000000   1.0000000   1.0000000   8.0000000   1.0000000   1.0000000   8.0000000   1.0000000   1.0000000   8.0000000

  Atom       351         352         353         354         355         356         357         358         359         360
 IAtWgt=           1           1          16           1           1          16           1           1          16           1
 AtmWgt=   1.0078250   1.0078250  15.9949146   1.0078250   1.0078250  15.9949146   1.0078250   1.0078250  15.9949146   1.0078250
 NucSpn=           1           1           0           1           1           0           1           1           0           1
 AtZEff=   0.0000000   0.0000000   0.0000000   0.0000000   0.0000000   0.0000000   0.0000000   0.0000000   0.0000000   0.0000000
 NQMom=    0.0000000   0.0000000   0.0000000   0.0000000   0.0000000   0.0000000   0.0000000   0.0000000   0.0000000   0.0000000
 NMagM=    2.7928460   2.7928460   0.0000000   2.7928460   2.7928460   0.0000000   2.7928460   2.7928460   0.0000000   2.7928460
 AtZNuc=   1.0000000   1.0000000   8.0000000   1.0000000   1.0000000   8.0000000   1.0000000   1.0000000   8.0000000   1.0000000

  Atom       361         362         363         364         365         366         367         368         369         370
 IAtWgt=           1          16           1           1          16           1           1          16           1           1
 AtmWgt=   1.0078250  15.9949146   1.0078250   1.0078250  15.9949146   1.0078250   1.0078250  15.9949146   1.0078250   1.0078250
 NucSpn=           1           0           1           1           0           1           1           0           1           1
 AtZEff=   0.0000000   0.0000000   0.0000000   0.0000000   0.0000000   0.0000000   0.0000000   0.0000000   0.0000000   0.0000000
 NQMom=    0.0000000   0.0000000   0.0000000   0.0000000   0.0000000   0.0000000   0.0000000   0.0000000   0.0000000   0.0000000
 NMagM=    2.7928460   0.0000000   2.7928460   2.7928460   0.0000000   2.7928460   2.7928460   0.0000000   2.7928460   2.7928460
 AtZNuc=   1.0000000   8.0000000   1.0000000   1.0000000   8.0000000   1.0000000   1.0000000   8.0000000   1.0000000   1.0000000

  Atom       371         372         373         374         375         376         377         378         379         380
 IAtWgt=          16           1           1          16           1           1          16           1           1          16
 AtmWgt=  15.9949146   1.0078250   1.0078250  15.9949146   1.0078250   1.0078250  15.9949146   1.0078250   1.0078250  15.9949146
 NucSpn=           0           1           1           0           1           1           0           1           1           0
 AtZEff=   0.0000000   0.0000000   0.0000000   0.0000000   0.0000000   0.0000000   0.0000000   0.0000000   0.0000000   0.0000000
 NQMom=    0.0000000   0.0000000   0.0000000   0.0000000   0.0000000   0.0000000   0.0000000   0.0000000   0.0000000   0.0000000
 NMagM=    0.0000000   2.7928460   2.7928460   0.0000000   2.7928460   2.7928460   0.0000000   2.7928460   2.7928460   0.0000000
 AtZNuc=   8.0000000   1.0000000   1.0000000   8.0000000   1.0000000   1.0000000   8.0000000   1.0000000   1.0000000   8.0000000

  Atom       381         382         383         384         385
 IAtWgt=           1           1          16           1           1
 AtmWgt=   1.0078250   1.0078250  15.9949146   1.0078250   1.0078250
 NucSpn=           1           1           0           1           1
 AtZEff=   0.0000000   0.0000000   0.0000000   0.0000000   0.0000000
 NQMom=    0.0000000   0.0000000   0.0000000   0.0000000   0.0000000
 NMagM=    2.7928460   2.7928460   0.0000000   2.7928460   2.7928460
 AtZNuc=   1.0000000   1.0000000   8.0000000   1.0000000   1.0000000
 Leave Link  101 at Mon May  7 20:48:49 2018, MaxMem= 14763950080 cpu:       140.0
 (Enter /cm/shared/gaussian/g09.e01/intel64-sandybridge/g09/l103.exe)

 GradGradGradGradGradGradGradGradGradGradGradGradGradGradGradGradGradGrad
 Berny optimization.
 Initialization pass.
 Trust Radius=3.00D-01 FncErr=1.00D-07 GrdErr=1.00D-07
 Number of steps in this run=      2 maximum allowed number of steps=      2.
 GradGradGradGradGradGradGradGradGradGradGradGradGradGradGradGradGradGrad

 Leave Link  103 at Mon May  7 20:48:49 2018, MaxMem= 14763950080 cpu:         3.6
 (Enter /cm/shared/gaussian/g09.e01/intel64-sandybridge/g09/l202.exe)
 Symmetry turned off by external request.
 Stoichiometry    BrH256O128(1-)
 Framework group  C1[X(BrH256O128)]
 Deg. of freedom  1149
 Full point group                 C1      NOp   1
                          Input orientation:                          
 ---------------------------------------------------------------------
 Center     Atomic      Atomic             Coordinates (Angstroms)
 Number     Number       Type             X           Y           Z
 ---------------------------------------------------------------------
      1         35           0       20.000000   20.000000   20.000000
      2          8           0       21.390000   22.760000   21.200000
      3          1           0       21.990000   22.950000   20.480000
      4          1           0       20.920000   21.970000   20.930000
      5          8           0       19.270000   16.730000   19.790000
      6          1           0       19.900000   16.580000   19.090000
      7          1           0       19.330000   17.660000   19.980000
      8          8           0       20.660000   20.270000   23.310000
      9          1           0       20.400000   20.170000   22.400000
     10          1           0       21.470000   20.780000   23.270000
     11          8           0       17.620000   19.760000   22.440000
     12          1           0       18.380000   19.870000   21.870000
     13          1           0       17.490000   20.630000   22.830000
     14          8           0       20.810000   19.290000   16.810000
     15          1           0       20.010000   19.670000   16.460000
     16          1           0       20.630000   19.160000   17.740000
     17          8           0       17.640000   20.230000   17.290000
     18          1           0       17.370000   19.340000   17.070000
     19          1           0       18.080000   20.150000   18.130000
     20          8           0       19.830000   22.790000   17.630000
     21          1           0       20.060000   22.090000   18.240000
     22          1           0       20.590000   23.370000   17.630000
     23          8           0       16.880000   17.560000   17.740000
     24          1           0       17.570000   17.710000   18.390000
     25          1           0       16.360000   16.840000   18.100000
     26          8           0       19.260000   23.660000   22.730000
     27          1           0       19.920000   23.230000   22.180000
     28          1           0       18.630000   24.010000   22.100000
     29          8           0       23.790000   19.850000   17.310000
     30          1           0       23.990000   20.220000   18.170000
     31          1           0       22.850000   19.660000   17.350000
     32          8           0       17.980000   17.050000   22.640000
     33          1           0       17.940000   18.010000   22.670000
     34          1           0       17.160000   16.790000   22.200000
     35          8           0       21.780000   18.020000   24.320000
     36          1           0       22.360000   18.530000   24.890000
     37          1           0       21.300000   18.680000   23.820000
     38          8           0       15.360000   18.610000   20.420000
     39          1           0       15.930000   19.160000   20.970000
     40          1           0       14.880000   19.230000   19.880000
     41          8           0       16.350000   22.940000   18.050000
     42          1           0       17.220000   22.560000   17.980000
     43          1           0       15.960000   22.810000   17.190000
     44          8           0       23.930000   19.510000   21.860000
     45          1           0       23.980000   18.570000   22.000000
     46          1           0       24.050000   19.890000   22.730000
     47          8           0       22.760000   23.480000   18.610000
     48          1           0       22.950000   22.660000   18.160000
     49          1           0       23.610000   23.920000   18.680000
     50          8           0       24.760000   21.060000   19.760000
     51          1           0       24.400000   20.490000   20.440000
     52          1           0       25.680000   20.810000   19.690000
     53          8           0       17.970000   24.700000   20.300000
     54          1           0       18.190000   24.050000   19.640000
     55          1           0       17.680000   25.460000   19.810000
     56          8           0       20.020000   15.570000   22.160000
     57          1           0       19.810000   15.610000   21.220000
     58          1           0       19.420000   16.190000   22.570000
     59          8           0       15.810000   22.090000   20.830000
     60          1           0       16.350000   22.740000   20.370000
     61          1           0       16.190000   22.050000   21.710000
     62          8           0       17.120000   22.150000   23.250000
     63          1           0       17.910000   22.680000   23.140000
     64          1           0       16.700000   22.510000   24.040000
     65          8           0       23.240000   16.610000   21.430000
     66          1           0       23.780000   15.940000   21.850000
     67          1           0       22.690000   16.120000   20.820000
     68          8           0       18.800000   19.080000   25.200000
     69          1           0       18.600000   18.440000   24.520000
     70          1           0       19.310000   19.760000   24.750000
     71          8           0       21.180000   21.740000   14.670000
     72          1           0       21.740000   20.970000   14.610000
     73          1           0       21.190000   21.970000   15.600000
     74          8           0       22.670000   23.710000   23.630000
     75          1           0       22.270000   23.570000   22.780000
     76          1           0       21.990000   23.480000   24.260000
     77          8           0       14.520000   20.560000   18.500000
     78          1           0       15.270000   20.380000   17.940000
     79          1           0       14.840000   21.190000   19.140000
     80          8           0       23.550000   21.040000   24.120000
     81          1           0       23.020000   21.820000   23.940000
     82          1           0       23.680000   21.060000   25.070000
     83          8           0       25.510000   17.320000   18.790000
     84          1           0       24.820000   17.700000   19.340000
     85          1           0       25.130000   16.510000   18.450000
     86          8           0       22.550000   15.300000   19.090000
     87          1           0       21.980000   14.670000   19.520000
     88          1           0       22.670000   14.960000   18.200000
     89          8           0       15.600000   16.500000   21.830000
     90          1           0       15.440000   17.320000   21.340000
     91          1           0       14.820000   15.970000   21.660000
     92          8           0       17.520000   14.300000   20.520000
     93          1           0       16.900000   14.970000   20.830000
     94          1           0       18.310000   14.790000   20.310000
     95          8           0       20.100000   16.270000   15.540000
     96          1           0       19.580000   15.900000   16.250000
     97          1           0       21.000000   16.270000   15.880000
     98          8           0       17.610000   22.850000   14.820000
     99          1           0       17.460000   21.920000   14.630000
    100          1           0       18.310000   22.850000   15.470000
    101          8           0       25.740000   22.130000   22.530000
    102          1           0       24.810000   21.960000   22.390000
    103          1           0       25.850000   22.090000   23.480000
    104          8           0       20.290000   26.280000   20.870000
    105          1           0       19.560000   25.700000   20.670000
    106          1           0       20.140000   27.050000   20.320000
    107          8           0       18.390000   15.090000   17.090000
    108          1           0       17.720000   15.110000   17.770000
    109          1           0       18.020000   14.530000   16.400000
    110          8           0       20.180000   18.540000   13.810000
    111          1           0       20.070000   17.900000   14.510000
    112          1           0       20.520000   18.040000   13.070000
    113          8           0       24.420000   18.240000   15.210000
    114          1           0       24.120000   18.840000   15.890000
    115          1           0       25.360000   18.430000   15.120000
    116          8           0       17.040000   16.770000   14.910000
    117          1           0       17.550000   16.370000   15.620000
    118          1           0       16.440000   17.370000   15.360000
    119          8           0       22.650000   15.470000   24.870000
    120          1           0       22.000000   15.380000   25.560000
    121          1           0       22.320000   16.180000   24.320000
    122          8           0       17.660000   20.160000   13.730000
    123          1           0       18.250000   19.450000   13.990000
    124          1           0       17.100000   19.780000   13.060000
    125          8           0       16.040000   25.150000   22.550000
    126          1           0       16.120000   24.900000   21.630000
    127          1           0       15.370000   24.570000   22.900000
    128          8           0       16.650000   20.100000   26.420000
    129          1           0       17.220000   19.580000   25.850000
    130          1           0       16.500000   20.900000   25.920000
    131          8           0       21.840000   13.520000   22.880000
    132          1           0       22.490000   13.900000   23.470000
    133          1           0       21.210000   14.230000   22.730000
    134          8           0       26.150000   20.990000   16.010000
    135          1           0       25.870000   20.950000   15.100000
    136          1           0       25.440000   20.560000   16.490000
    137          8           0       15.370000   19.570000   15.190000
    138          1           0       16.200000   19.730000   14.730000
    139          1           0       14.930000   20.420000   15.190000
    140          8           0       18.480000   14.720000   24.990000
    141          1           0       18.880000   15.260000   24.310000
    142          1           0       18.100000   13.980000   24.530000
    143          8           0       20.490000   13.350000   20.020000
    144          1           0       19.840000   13.330000   20.710000
    145          1           0       20.730000   12.430000   19.880000
    146          8           0       20.900000   27.010000   16.750000
    147          1           0       20.680000   26.130000   17.060000
    148          1           0       20.910000   26.930000   15.800000
    149          8           0       19.540000   26.700000   23.430000
    150          1           0       19.050000   27.480000   23.200000
    151          1           0       19.880000   26.370000   22.590000
    152          8           0       21.650000   22.580000   26.200000
    153          1           0       20.870000   22.720000   26.740000
    154          1           0       22.230000   22.050000   26.740000
    155          8           0       14.310000   18.890000   24.400000
    156          1           0       14.480000   19.810000   24.200000
    157          1           0       14.280000   18.860000   25.360000
    158          8           0       17.760000   26.260000   17.950000
    159          1           0       17.070000   26.930000   17.910000
    160          1           0       17.960000   26.070000   17.040000
    161          8           0       25.240000   17.290000   23.870000
    162          1           0       26.140000   17.140000   23.600000
    163          1           0       24.800000   16.450000   23.700000
    164          8           0       22.180000   14.400000   16.350000
    165          1           0       22.390000   13.490000   16.580000
    166          1           0       22.660000   14.560000   15.540000
    167          8           0       12.960000   23.440000   21.070000
    168          1           0       12.590000   23.890000   21.820000
    169          1           0       13.830000   23.180000   21.360000
    170          8           0       16.890000   22.920000   26.000000
    171          1           0       17.650000   23.430000   25.740000
    172          1           0       16.510000   23.410000   26.730000
    173          8           0       15.630000   15.040000   17.440000
    174          1           0       14.810000   15.270000   17.000000
    175          1           0       15.370000   14.390000   18.090000
    176          8           0       19.040000   17.570000   27.490000
    177          1           0       19.280000   18.200000   26.820000
    178          1           0       19.130000   18.050000   28.310000
    179          8           0       25.680000   24.450000   18.720000
    180          1           0       26.240000   24.890000   19.350000
    181          1           0       26.010000   23.560000   18.670000
    182          8           0       23.930000   18.600000   25.940000
    183          1           0       23.870000   17.900000   26.590000
    184          1           0       24.470000   18.230000   25.240000
    185          8           0       14.230000   21.730000   24.000000
    186          1           0       13.760000   21.560000   23.190000
    187          1           0       14.400000   22.680000   23.980000
    188          8           0       27.310000   20.720000   20.830000
    189          1           0       27.470000   19.780000   20.920000
    190          1           0       26.920000   20.970000   21.670000
    191          8           0       19.110000   21.900000   27.500000
    192          1           0       18.470000   21.860000   26.780000
    193          1           0       19.070000   22.810000   27.790000
    194          8           0       14.920000   15.730000   24.520000
    195          1           0       15.300000   14.860000   24.580000
    196          1           0       15.210000   16.060000   23.670000
    197          8           0       14.750000   22.400000   15.590000
    198          1           0       13.910000   22.850000   15.500000
    199          1           0       15.390000   23.000000   15.200000
    200          8           0       12.980000   20.590000   21.940000
    201          1           0       12.260000   19.960000   22.020000
    202          1           0       12.860000   20.980000   21.080000
    203          8           0       19.790000   21.200000   12.160000
    204          1           0       20.140000   21.720000   12.870000
    205          1           0       19.110000   20.670000   12.570000
    206          8           0       17.120000   13.060000   22.990000
    207          1           0       17.160000   13.580000   22.190000
[...]
   Y335      34.82765  -0.01689   0.00000  -0.02097  -0.01993  34.80773
   Z335      29.34745  -0.02226   0.00000  -0.01662  -0.01674  29.33070
   X336      54.12176   0.00306   0.00000  -0.00622  -0.00650  54.11526
   Y336      36.16936   0.01158   0.00000   0.00751   0.00859  36.17795
   Z336      29.36634   0.00486   0.00000   0.00415   0.00415  29.37049
   X337      52.72336   0.00029   0.00000  -0.00038  -0.00060  52.72276
   Y337      34.37412   0.00754   0.00000   0.01443   0.01532  34.38944
   Z337      31.08599   0.01653   0.00000   0.01118   0.01103  31.09702
   X338      52.85564   0.01075   0.00000   0.01076   0.01066  52.86630
   Y338      31.97417  -0.00068   0.00000  -0.00299  -0.00327  31.97089
   Z338      44.37077   0.02435   0.00000   0.01470   0.01433  44.38510
   X339      52.68556  -0.00519   0.00000  -0.00602  -0.00612  52.67944
   Y339      31.72850  -0.00037   0.00000   0.00328   0.00315  31.73165
   Z339      42.59443  -0.02391   0.00000  -0.01370  -0.01410  42.58033
   X340      54.57529   0.00003   0.00000   0.00555   0.00546  54.58075
   Y340      31.50173  -0.00383   0.00000  -0.00827  -0.00854  31.49319
   Z340      44.72982   0.00143   0.00000   0.00348   0.00306  44.73288
   X341      20.93817   0.00315   0.00000   0.00462   0.00444  20.94260
   Y341      34.37412   0.01138   0.00000   0.01019   0.00940  34.38352
   Z341      40.09999  -0.00305   0.00000  -0.00325  -0.00330  40.09669
   X342      19.70984  -0.00428   0.00000  -0.00206  -0.00221  19.70763
   Y342      33.22139  -0.00196   0.00000   0.00315   0.00239  33.22378
   Z342      39.43858  -0.00280   0.00000  -0.00225  -0.00239  39.43619
   X343      21.95862   0.00160   0.00000  -0.00125  -0.00140  21.95721
   Y343      33.35367  -0.00222   0.00000   0.00197   0.00112  33.35478
   Z343      41.19603   0.00733   0.00000   0.00838   0.00824  41.20427
   X344      35.39457  -0.01697   0.00000  -0.01649  -0.01727  35.37730
   Y344      54.49970   0.00905   0.00000   0.00031   0.00079  54.50050
   Z344      30.17893   0.00854   0.00000   0.00190   0.00358  30.18251
   X345      36.18826   0.01231   0.00000   0.01430   0.01357  36.20182
   Y345      52.96902  -0.00976   0.00000  -0.00285  -0.00239  52.96664
   Z345      30.70805   0.00519   0.00000   0.00473   0.00628  30.71433
   X346      35.82921   0.00579   0.00000   0.00650   0.00571  35.83492
   Y346      54.65088   0.00168   0.00000   0.00276   0.00341  54.65429
   Z346      28.44038  -0.01108   0.00000  -0.00687  -0.00518  28.43520
   X347      27.89236  -0.02218   0.00000  -0.01658  -0.01723  27.87513
   Y347      51.70291   0.00070   0.00000   0.00574   0.00470  51.70761
   Z347      45.14556  -0.00526   0.00000  -0.00829  -0.00683  45.13873
   X348      29.04509   0.00612   0.00000   0.00154   0.00091  29.04600
   Y348      50.83363  -0.00396   0.00000  -0.00189  -0.00281  50.83083
   Z348      44.04952  -0.00442   0.00000  -0.00300  -0.00162  44.04789
   X349      28.95060   0.01124   0.00000   0.00830   0.00763  28.95823
   Y349      52.59108   0.00091   0.00000  -0.00495  -0.00607  52.58501
   Z349      46.29829   0.00740   0.00000   0.00282   0.00435  46.30264
   X350      47.46992   0.01104   0.00000   0.00598   0.00602  47.47594
   Y350      27.38213  -0.00684   0.00000  -0.00217  -0.00308  27.37905
   Z350      49.77539   0.00187   0.00000  -0.00051  -0.00127  49.77411
   X351      48.62265  -0.00182   0.00000  -0.00270  -0.00270  48.61995
   Y351      28.74273   0.00292   0.00000   0.00538   0.00447  28.74721
   Z351      50.13443  -0.00131   0.00000  -0.00174  -0.00238  50.13205
   X352      45.95814  -0.01173   0.00000  -0.00788  -0.00787  45.95027
   Y352      28.21361   0.00558   0.00000   0.00251   0.00161  28.21522
   Z352      49.20847  -0.00806   0.00000  -0.00906  -0.00974  49.19873
   X353      39.89212  -0.01038   0.00000  -0.00742  -0.00769  39.88442
   Y353      35.16780  -0.00951   0.00000  -0.00649  -0.00503  35.16278
   Z353      20.52243   0.00175   0.00000   0.00234   0.00229  20.52472
   X354      41.59287   0.00871   0.00000   0.00522   0.00495  41.59782
   Y354      34.90324  -0.00157   0.00000  -0.00306  -0.00149  34.90175
   Z354      19.97441   0.00035   0.00000   0.00391   0.00383  19.97824
   X355      39.79763  -0.00169   0.00000  -0.00298  -0.00331  39.79432
   Y355      36.94415   0.01224   0.00000   0.00724   0.00868  36.95282
   Z355      20.86258   0.00489   0.00000   0.00630   0.00641  20.86899
   X356      55.63354   0.00139   0.00000   0.00124   0.00101  55.63455
   Y356      35.88590  -0.01263   0.00000  -0.01202  -0.01176  35.87414
   Z356      39.04174   0.00356   0.00000  -0.00019  -0.00023  39.04152
   X357      54.93434   0.00122   0.00000   0.00604   0.00576  54.94010
   Y357      37.51106   0.00844   0.00000   0.00448   0.00477  37.51583
   Z357      38.60710   0.00012   0.00000   0.00391   0.00402  38.61113
   X358      56.89965   0.00523   0.00000   0.00747   0.00724  56.90690
   Y358      35.60244   0.00284   0.00000   0.00424   0.00465  35.60709
   Z358      37.77563  -0.00294   0.00000  -0.00237  -0.00244  37.77319
   X359      26.36168  -0.00116   0.00000  -0.00276  -0.00297  26.35871
   Y359      33.37256  -0.00598   0.00000  -0.00244  -0.00167  33.37090
   Z359      24.13180  -0.01575   0.00000  -0.00860  -0.00876  24.12305
   X360      27.04198   0.00534   0.00000   0.00891   0.00874  27.05072
   Y360      31.82299   0.00088   0.00000   0.00233   0.00306  31.82605
   Z360      24.79321  -0.00084   0.00000  -0.00354  -0.00384  24.78937
   X361      26.15381  -0.00203   0.00000  -0.00171  -0.00195  26.15186
   Y361      34.43081   0.00656   0.00000   0.00054   0.00118  34.43199
   Z361      25.56799   0.01736   0.00000   0.01398   0.01392  25.58191
   X362      52.87454  -0.00050   0.00000   0.00576   0.00552  52.88006
   Y362      36.86856   0.02476   0.00000   0.02177   0.02133  36.88989
   Z362      46.05263  -0.00180   0.00000  -0.00031  -0.00025  46.05238
   X363      52.55328  -0.00238   0.00000  -0.00371  -0.00395  52.54934
   Y363      37.00084  -0.00109   0.00000  -0.00044  -0.00104  36.99979
   Z363      47.82897   0.00504   0.00000   0.00430   0.00437  47.83334
   X364      53.40366  -0.00233   0.00000  -0.01074  -0.01093  53.39273
   Y364      35.16780  -0.01591   0.00000  -0.00601  -0.00641  35.16139
   Z364      45.80696  -0.00597   0.00000  -0.00898  -0.00907  45.79789
   X365      51.28717  -0.00707   0.00000  -0.00301  -0.00311  51.28406
   Y365      29.70649  -0.02295   0.00000  -0.02213  -0.02105  29.68544
   Z365      28.47817   0.00300   0.00000   0.01199   0.01142  28.48960
   X366      52.72336   0.00058   0.00000  -0.00379  -0.00389  52.71947
   Y366      29.68760   0.00469   0.00000   0.00430   0.00551  29.69311
   Z366      27.36323   0.00028   0.00000   0.00252   0.00195  27.36519
   X367      51.41945   0.00398   0.00000   0.00260   0.00246  51.42191
   Y367      31.27497   0.01643   0.00000   0.01129   0.01230  31.28726
   Z367      29.34745  -0.00197   0.00000  -0.01057  -0.01100  29.33644
   X368      50.90922  -0.01159   0.00000  -0.00496  -0.00539  50.90383
   Y368      44.14400  -0.01174   0.00000  -0.01553  -0.01613  44.12787
   Z368      47.31874  -0.00783   0.00000  -0.00500  -0.00429  47.31446
   X369      52.47769   0.00825   0.00000   0.00429   0.00385  52.48154
   Y369      44.40856   0.00281   0.00000   0.00340   0.00292  44.41148
   Z369      46.46837  -0.00611   0.00000  -0.00676  -0.00603  46.46234
   X370      51.28717   0.00220   0.00000  -0.00011  -0.00055  51.28662
   Y370      44.40856   0.00408   0.00000   0.00526   0.00452  44.41308
   Z370      49.05729   0.01231   0.00000   0.00664   0.00738  49.06467
   X371      44.38967  -0.00167   0.00000  -0.00571  -0.00609  44.38358
   Y371      38.87167  -0.00994   0.00000  -0.00812  -0.00662  38.86505
   Z371      21.52398   0.00618   0.00000   0.00292   0.00318  21.52716
   X372      45.01328   0.00355   0.00000   0.00465   0.00428  45.01756
   Y372      38.60710  -0.00011   0.00000  -0.00113   0.00054  38.60764
   Z372      19.84212  -0.00426   0.00000  -0.00144  -0.00120  19.84092
   X373      43.65267  -0.00790   0.00000  -0.00861  -0.00903  43.64364
   Y373      40.51573   0.01020   0.00000   0.00493   0.00642  40.52215
   Z373      21.46729  -0.00272   0.00000  -0.00380  -0.00338  21.46390
   X374      43.12355  -0.01004   0.00000  -0.00391  -0.00377  43.11978
   Y374      21.75075   0.01112   0.00000   0.01215   0.01265  21.76340
   Z374      32.44660  -0.00523   0.00000  -0.00121  -0.00246  32.44414
   X375      44.20069   0.00803   0.00000   0.00508   0.00522  44.20591
   Y375      21.86413   0.00112   0.00000   0.00126   0.00166  21.86579
   Z375      33.90169   0.01261   0.00000   0.01166   0.01042  33.91211
   X376      43.91724   0.00086   0.00000  -0.00370  -0.00353  43.91370
   Y376      20.50353  -0.00402   0.00000  -0.00016   0.00046  20.50399
   Z376      31.40725  -0.00625   0.00000  -0.00467  -0.00602  31.40123
   X377      43.57708   0.00005   0.00000   0.00158   0.00080  43.57788
   Y377      54.40522   0.00937   0.00000   0.00537   0.00612  54.41133
   Z377      29.83878  -0.00861   0.00000  -0.00869  -0.00705  29.83173
   X378      45.06997   0.00344   0.00000   0.00230   0.00154  45.07150
   Y378      54.10286  -0.00670   0.00000  -0.00937  -0.00867  54.09419
   Z378      30.82143   0.00227   0.00000  -0.00186  -0.00025  30.82119
   X379      42.38656  -0.00025   0.00000   0.00421   0.00347  42.39002
   Y379      53.17689  -0.00466   0.00000  -0.00168  -0.00102  53.17587
   Z379      30.44349   0.00857   0.00000   0.00967   0.01121  30.45470
   X380      34.92214  -0.02823   0.00000  -0.02176  -0.02154  34.90060
   Y380      19.69095   0.01372   0.00000   0.01160   0.01112  19.70207
   Z380      40.93147  -0.00476   0.00000  -0.00182  -0.00321  40.92825
   X381      36.58510   0.01787   0.00000   0.00987   0.01007  36.59517
   Y381      20.39014  -0.00236   0.00000  -0.00805  -0.00848  20.38167
   Z381      40.95037   0.00166   0.00000   0.00276   0.00142  40.95178
   X382      35.14891   0.00657   0.00000   0.00440   0.00467  35.15358
   Y382      17.93350  -0.01184   0.00000  -0.00299  -0.00349  17.93001
   Z382      41.21493   0.00289   0.00000   0.00287   0.00132  41.21625
   X383      31.42615  -0.00048   0.00000  -0.00008  -0.00055  31.42560
   Y383      42.17869  -0.00044   0.00000  -0.00620  -0.00506  42.17363
   Z383      21.48619   0.00035   0.00000  -0.00127  -0.00067  21.48552
   X384      29.85767  -0.00399   0.00000  -0.00401  -0.00445  29.85322
   Y384      41.27162  -0.00326   0.00000  -0.00532  -0.00421  41.26741
   Z384      21.39170  -0.00217   0.00000  -0.00416  -0.00363  21.38807
   X385      32.69226   0.00404   0.00000   0.00467   0.00423  32.69650
   Y385      40.93147  -0.00503   0.00000  -0.00755  -0.00633  40.92513
   Z385      21.08934   0.00032   0.00000   0.00101   0.00150  21.09084
         Item               Value     Threshold  Converged?
 Maximum Force            0.042049     0.000450     NO 
 RMS     Force            0.010580     0.000300     NO 
 Maximum Displacement     0.033818     0.001800     NO 
 RMS     Displacement     0.008833     0.001200     NO 
 Predicted change in Energy=-7.363926D-02
 GradGradGradGradGradGradGradGradGradGradGradGradGradGradGradGradGradGrad

 Leave Link  103 at Mon May  7 23:19:03 2018, MaxMem= 14763950080 cpu:      2723.5
 (Enter /cm/shared/gaussian/g09.e01/intel64-sandybridge/g09/l9999.exe)
 1\1\GINC-POPLE01\Force\RPBE1PBE\CC-pVDZ\Br1H256O128(1-)\M.PELUSO\07-Ma
 y-2018\0\\#p PBE1PBE/cc-pvDZ force Counterpoise=2 noSymm\\forces on ch
 loride comput - NWATER: 128\\-1,1\Br,20.,20.,20.\O,21.39,22.76,21.2\H,
 21.99,22.95,20.48\H,20.92,21.97,20.93\O,19.27,16.73,19.79\H,19.9,16.58
 ,19.09\H,19.33,17.66,19.98\O,20.66,20.27,23.31\H,20.4,20.17,22.4\H,21.
 47,20.78,23.27\O,17.62,19.76,22.44\H,18.38,19.87,21.87\H,17.49,20.63,2
 2.83\O,20.81,19.29,16.81\H,20.01,19.67,16.46\H,20.63,19.16,17.74\O,17.
 64,20.23,17.29\H,17.37,19.34,17.07\H,18.08,20.15,18.13\O,19.83,22.79,1
 7.63\H,20.06,22.09,18.24\H,20.59,23.37,17.63\O,16.88,17.56,17.74\H,17.
 57,17.71,18.39\H,16.36,16.84,18.1\O,19.26,23.66,22.73\H,19.92,23.23,22
 .18\H,18.63,24.01,22.1\O,23.79,19.85,17.31\H,23.99,20.22,18.17\H,22.85
 ,19.66,17.35\O,17.98,17.05,22.64\H,17.94,18.01,22.67\H,17.16,16.79,22.
 2\O,21.78,18.02,24.32\H,22.36,18.53,24.89\H,21.3,18.68,23.82\O,15.36,1
 8.61,20.42\H,15.93,19.16,20.97\H,14.88,19.23,19.88\O,16.35,22.94,18.05
 \H,17.22,22.56,17.98\H,15.96,22.81,17.19\O,23.93,19.51,21.86\H,23.98,1
 8.57,22.\H,24.05,19.89,22.73\O,22.76,23.48,18.61\H,22.95,22.66,18.16\H
 ,23.61,23.92,18.68\O,24.76,21.06,19.76\H,24.4,20.49,20.44\H,25.68,20.8
 1,19.69\O,17.97,24.7,20.3\H,18.19,24.05,19.64\H,17.68,25.46,19.81\O,20
 .02,15.57,22.16\H,19.81,15.61,21.22\H,19.42,16.19,22.57\O,15.81,22.09,
 20.83\H,16.35,22.74,20.37\H,16.19,22.05,21.71\O,17.12,22.15,23.25\H,17
 .91,22.68,23.14\H,16.7,22.51,24.04\O,23.24,16.61,21.43\H,23.78,15.94,2
 1.85\H,22.69,16.12,20.82\O,18.8,19.08,25.2\H,18.6,18.44,24.52\H,19.31,
 19.76,24.75\O,21.18,21.74,14.67\H,21.74,20.97,14.61\H,21.19,21.97,15.6
 \O,22.67,23.71,23.63\H,22.27,23.57,22.78\H,21.99,23.48,24.26\O,14.52,2
 0.56,18.5\H,15.27,20.38,17.94\H,14.84,21.19,19.14\O,23.55,21.04,24.12\
 H,23.02,21.82,23.94\H,23.68,21.06,25.07\O,25.51,17.32,18.79\H,24.82,17
 .7,19.34\H,25.13,16.51,18.45\O,22.55,15.3,19.09\H,21.98,14.67,19.52\H,
 22.67,14.96,18.2\O,15.6,16.5,21.83\H,15.44,17.32,21.34\H,14.82,15.97,2
 1.66\O,17.52,14.3,20.52\H,16.9,14.97,20.83\H,18.31,14.79,20.31\O,20.1,
 16.27,15.54\H,19.58,15.9,16.25\H,21.,16.27,15.88\O,17.61,22.85,14.82\H
 ,17.46,21.92,14.63\H,18.31,22.85,15.47\O,25.74,22.13,22.53\H,24.81,21.
 96,22.39\H,25.85,22.09,23.48\O,20.29,26.28,20.87\H,19.56,25.7,20.67\H,
 20.14,27.05,20.32\O,18.39,15.09,17.09\H,17.72,15.11,17.77\H,18.02,14.5
 3,16.4\O,20.18,18.54,13.81\H,20.07,17.9,14.51\H,20.52,18.04,13.07\O,24
 .42,18.24,15.21\H,24.12,18.84,15.89\H,25.36,18.43,15.12\O,17.04,16.77,
 14.91\H,17.55,16.37,15.62\H,16.44,17.37,15.36\O,22.65,15.47,24.87\H,22
 .,15.38,25.56\H,22.32,16.18,24.32\O,17.66,20.16,13.73\H,18.25,19.45,13
 .99\H,17.1,19.78,13.06\O,16.04,25.15,22.55\H,16.12,24.9,21.63\H,15.37,
 24.57,22.9\O,16.65,20.1,26.42\H,17.22,19.58,25.85\H,16.5,20.9,25.92\O,
 21.84,13.52,22.88\H,22.49,13.9,23.47\H,21.21,14.23,22.73\O,26.15,20.99
 ,16.01\H,25.87,20.95,15.1\H,25.44,20.56,16.49\O,15.37,19.57,15.19\H,16
 .2,19.73,14.73\H,14.93,20.42,15.19\O,18.48,14.72,24.99\H,18.88,15.26,2
 4.31\H,18.1,13.98,24.53\O,20.49,13.35,20.02\H,19.84,13.33,20.71\H,20.7
 3,12.43,19.88\O,20.9,27.01,16.75\H,20.68,26.13,17.06\H,20.91,26.93,15.
 8\O,19.54,26.7,23.43\H,19.05,27.48,23.2\H,19.88,26.37,22.59\O,21.65,22
 .58,26.2\H,20.87,22.72,26.74\H,22.23,22.05,26.74\O,14.31,18.89,24.4\H,
 14.48,19.81,24.2\H,14.28,18.86,25.36\O,17.76,26.26,17.95\H,17.07,26.93
 ,17.91\H,17.96,26.07,17.04\O,25.24,17.29,23.87\H,26.14,17.14,23.6\H,24
 .8,16.45,23.7\O,22.18,14.4,16.35\H,22.39,13.49,16.58\H,22.66,14.56,15.
 54\O,12.96,23.44,21.07\H,12.59,23.89,21.82\H,13.83,23.18,21.36\O,16.89
 ,22.92,26.\H,17.65,23.43,25.74\H,16.51,23.41,26.73\O,15.63,15.04,17.44
 \H,14.81,15.27,17.\H,15.37,14.39,18.09\O,19.04,17.57,27.49\H,19.28,18.
 2,26.82\H,19.13,18.05,28.31\O,25.68,24.45,18.72\H,26.24,24.89,19.35\H,
 26.01,23.56,18.67\O,23.93,18.6,25.94\H,23.87,17.9,26.59\H,24.47,18.23,
 25.24\O,14.23,21.73,24.\H,13.76,21.56,23.19\H,14.4,22.68,23.98\O,27.31
 ,20.72,20.83\H,27.47,19.78,20.92\H,26.92,20.97,21.67\O,19.11,21.9,27.5
 \H,18.47,21.86,26.78\H,19.07,22.81,27.79\O,14.92,15.73,24.52\H,15.3,14
 .86,24.58\H,15.21,16.06,23.67\O,14.75,22.4,15.59\H,13.91,22.85,15.5\H,
 15.39,23.,15.2\O,12.98,20.59,21.94\H,12.26,19.96,22.02\H,12.86,20.98,2
 1.08\O,19.79,21.2,12.16\H,20.14,21.72,12.87\H,19.11,20.67,12.57\O,17.1
 2,13.06,22.99\H,17.16,13.58,22.19\H,16.88,12.19,22.69\O,15.17,26.14,19
 .49\H,15.65,26.93,19.22\H,15.24,25.55,18.75\O,12.51,17.43,18.38\H,13.,
 18.22,18.16\H,12.49,17.43,19.34\O,27.95,18.41,18.25\H,28.65,17.86,18.6
 \H,27.16,18.12,18.71\O,27.36,16.26,20.96\H,28.18,16.4,20.49\H,26.68,16
 .56,20.35\O,19.49,14.08,13.98\H,18.61,13.84,14.27\H,19.65,14.93,14.38\
 O,25.18,15.,22.49\H,25.68,14.35,22.98\H,25.76,15.26,21.78\O,18.06,11.8
 9,18.58\H,17.96,12.68,19.11\H,17.34,11.32,18.84\O,11.69,21.5,19.26\H,1
 1.91,22.18,19.9\H,12.53,21.25,18.88\O,23.13,17.48,12.67\H,23.4,17.43,1
 3.59\H,22.55,18.24,12.63\O,12.75,18.7,15.6\H,12.24,19.48,15.39\H,13.65
 ,19.01,15.69\O,17.26,26.21,24.73\H,18.15,26.23,24.36\H,16.74,25.74,24.
 07\O,23.03,27.63,22.37\H,22.39,26.95,22.59\H,23.34,27.39,21.5\O,24.72,
 25.09,25.05\H,25.2,24.3,24.79\H,23.94,25.09,24.5\O,19.21,24.31,26.52\H
 ,18.57,24.99,26.71\H,20.03,24.79,26.35\O,23.57,21.14,27.5\H,23.71,20.3
 5,26.98\H,24.39,21.62,27.42\O,21.08,25.81,14.25\H,20.21,25.42,14.23\H,
 21.59,25.31,13.61\O,17.37,17.57,12.26\H,18.05,17.04,11.84\H,17.26,17.1
 8,13.12\O,17.84,26.01,15.04\H,17.26,25.31,14.74\H,17.9,26.61,14.29\O,1
 6.37,16.65,27.1\H,17.27,16.82,26.81\H,15.9,16.41,26.3\O,21.23,26.53,25
 .8\H,21.39,26.15,24.93\H,20.57,27.21,25.65\O,20.02,12.19,15.95\H,20.12
 ,12.56,16.83\H,19.94,12.96,15.38\O,21.14,20.18,28.58\H,21.96,20.44,28.
 17\H,20.47,20.68,28.11\O,16.32,24.47,13.09\H,16.92,23.82,13.46\H,16.14
 ,24.15,12.2\O,28.25,22.97,19.59\H,28.9,22.34,19.27\H,27.79,22.49,20.28
 \O,20.89,15.27,26.77\H,20.47,15.99,27.25\H,20.16,14.7,26.53\O,19.8,28.
 64,19.81\H,19.39,28.24,19.05\H,19.31,29.45,19.95\O,24.34,12.04,19.42\H
 ,24.72,11.57,20.15\H,24.45,12.97,19.64\O,25.52,20.86,13.27\H,24.89,20.
 14,13.26\H,25.,21.63,13.07\O,12.88,15.81,21.33\H,12.52,16.21,22.12\H,1
 2.19,15.23,21.01\O,13.82,15.68,15.81\H,13.52,16.59,15.84\H,13.99,15.51
 ,14.88\O,24.22,27.31,19.55\H,23.98,27.44,18.63\H,25.14,27.07,19.53\O,2
 6.32,14.68,18.07\H,27.28,14.65,18.11\H,26.12,14.62,17.14\O,25.01,26.4,
 16.65\H,25.47,25.92,17.34\H,25.44,26.11,15.84\O,12.38,16.92,23.61\H,12
 .74,16.11,23.97\H,12.91,17.61,24.02\O,28.65,20.85,17.22\H,28.45,20.06,
 17.72\H,27.84,21.05,16.75\O,17.22,13.21,15.14\H,16.97,12.42,14.67\H,16
 .89,13.08,16.03\O,21.21,10.96,22.07\H,21.18,11.85,22.41\H,22.14,10.74,
 22.02\O,19.03,23.84,11.27\H,19.17,23.82,12.22\H,18.26,23.3,11.13\O,16.
 87,14.92,12.39\H,17.24,15.27,13.21\H,17.36,14.11,12.23\O,17.75,19.77,2
 9.01\H,16.97,19.61,28.47\H,18.16,20.53,28.61\O,14.43,13.15,20.49\H,14.
 77,12.79,21.31\H,13.76,13.78,20.76\O,13.27,24.53,23.53\H,12.92,25.37,2
 3.24\H,12.99,24.46,24.45\O,28.,18.43,15.53\H,28.64,19.14,15.54\H,27.9,
 18.19,16.45\O,27.97,16.92,23.48\H,27.88,16.79,22.54\H,28.88,16.67,23.6
 7\O,11.08,18.19,21.22\H,10.43,17.58,20.87\H,11.62,17.65,21.8\O,18.73,2
 8.84,15.97\H,19.15,28.03,16.25\H,18.96,28.92,15.05\O,14.76,27.36,23.89
 \H,15.37,26.9,23.31\H,15.32,27.83,24.5\O,25.12,14.49,26.34\H,25.73,15.
 21,26.53\H,24.32,14.93,26.04\O,21.11,18.61,10.86\H,22.01,18.47,10.57\H
 ,21.06,19.55,11.04\O,29.44,18.99,20.66\H,29.07,19.85,20.43\H,30.11,18.
 84,19.99\O,13.95,17.66,12.77\H,14.31,16.84,13.12\H,13.84,18.22,13.53\O
 ,27.98,19.51,24.37\H,27.81,19.58,25.31\H,28.26,18.61,24.24\O,27.14,15.
 72,15.07\H,27.9,15.71,14.48\H,27.21,16.55,15.53\O,26.94,23.36,25.04\H,
 27.77,23.5,24.59\H,27.14,23.5,25.96\O,23.49,20.57,11.39\H,23.82,20.43,
 10.5\H,23.1,21.44,11.36\O,22.82,11.51,17.17\H,23.39,11.57,17.94\H,23.2
 4,10.85,16.62\O,23.06,28.79,15.79\H,23.85,28.63,16.31\H,22.43,28.14,16
 .11\O,18.48,10.42,21.66\H,19.36,10.79,21.67\H,18.6,9.49,21.81\O,16.63,
 22.32,11.37\H,15.8,21.84,11.32\H,17.3,21.66,11.16\\Version=ES64L-G09Re
 vE.01\HF=-9773.4116852\RMSD=1.162e-09\RMSF=1.058e-02\Dipole=4.0441404,
 0.2790331,-5.2028847\Quadrupole=448.2038015,52.2524145,-500.456216,-13
 49.7983626,-1444.8063781,-1581.6965415\PG=C01 [X(Br1H256O128)]\\@


 QUANTUM MECHANICS IS BOHRING -- M.S. GORDON
 Job cpu time:       6 days 13 hours 43 minutes 32.4 seconds.
 File lengths (MBytes):  RWF=   7285 Int=      0 D2E=      0 Chk=   2411 Scr=      1
 Normal termination of Gaussian 09 at Mon May  7 23:19:27 2018.
