 Entering Gaussian System, Link 0=/cm/shared/gaussian/g09.e01/intel64-sandybridge/g09/g09
 Initial command:
 /cm/shared/gaussian/g09.e01/intel64-sandybridge/g09/l1.exe "/local/scratch/m.peluso/128_wat/Gau-5739.inp" -scrdir="/local/scratch/m.peluso/128_wat/"
 Entering Link 1 = /cm/shared/gaussian/g09.e01/intel64-sandybridge/g09/l1.exe PID=      5740.
  
 Copyright (c) 1988,1990,1992,1993,1995,1998,2003,2009,2015,
            Gaussian, Inc.  All Rights Reserved.
  
 This is part of the Gaussian(R) 09 program.  It is based on
 the Gaussian(R) 03 system (copyright 2003, Gaussian, Inc.),
 the Gaussian(R) 98 system (copyright 1998, Gaussian, Inc.),
 the Gaussian(R) 94 system (copyright 1995, Gaussian, Inc.),
 the Gaussian 92(TM) system (copyright 1992, Gaussian, Inc.),
 the Gaussian 90(TM) system (copyright 1990, Gaussian, Inc.),
 the Gaussian 88(TM) system (copyright 1988, Gaussian, Inc.),
 the Gaussian 86(TM) system (copyright 1986, Carnegie Mellon
 University), and the Gaussian 82(TM) system (copyright 1983,
 Carnegie Mellon University). Gaussian is a federally registered
 trademark of Gaussian, Inc.
  
 This software contains proprietary and confidential information,
 including trade secrets, belonging to Gaussian, Inc.
  
 This software is provided under written license and may be
 used, copied, transmitted, or stored only in accord with that
 written license.
  
 The following legend is applicable only to US Government
 contracts under FAR:
  
                    RESTRICTED RIGHTS LEGEND
  
 Use, reproduction and disclosure by the US Government is
 subject to restrictions as set forth in subparagraphs (a)
 and (c) of the Commercial Computer Software - Restricted
 Rights clause in FAR 52.227-19.
  
 Gaussian, Inc.
 340 Quinnipiac St., Bldg. 40, Wallingford CT 06492
  
  
 ---------------------------------------------------------------
 Warning -- This program may not be used in any manner that
 competes with the business of Gaussian, Inc. or will provide
 assistance to any competitor of Gaussian, Inc.  The licensee
 of this program is prohibited from giving any competitor of
 Gaussian, Inc. access to this program.  By using this program,
 the user acknowledges that Gaussian, Inc. is engaged in the
 business of creating and licensing software in the field of
 computational chemistry and represents and warrants to the
 licensee that it is not a competitor of Gaussian, Inc. and that
 it will not use this program in any manner prohibited above.
 ---------------------------------------------------------------
  

 Cite this work as:
 Gaussian 09, Revision E.01,
 M. J. Frisch, G. W. Trucks, H. B. Schlegel, G. E. Scuseria, 
 M. A. Robb, J. R. Cheeseman, G. Scalmani, V. Barone, B. Mennucci, 
 G. A. Petersson, H. Nakatsuji, M. Caricato, X. Li, H. P. Hratchian, 
 A. F. Izmaylov, J. Bloino, G. Zheng, J. L. Sonnenberg, M. Hada, 
 M. Ehara, K. Toyota, R. Fukuda, J. Hasegawa, M. Ishida, T. Nakajima, 
 Y. Honda, O. Kitao, H. Nakai, T. Vreven, J. A. Montgomery, Jr., 
 J. E. Peralta, F. Ogliaro, M. Bearpark, J. J. Heyd, E. Brothers, 
 K. N. Kudin, V. N. Staroverov, T. Keith, R. Kobayashi, J. Normand, 
 K. Raghavachari, A. Rendell, J. C. Burant, S. S. Iyengar, J. Tomasi, 
 M. Cossi, N. Rega, J. M. Millam, M. Klene, J. E. Knox, J. B. Cross, 
 V. Bakken, C. Adamo, J. Jaramillo, R. Gomperts, R. E. Stratmann, 
 O. Yazyev, A. J. Austin, R. Cammi, C. Pomelli, J. W. Ochterski, 
 R. L. Martin, K. Morokuma, V. G. Zakrzewski, G. A. Voth, 
 P. Salvador, J. J. Dannenberg, S. Dapprich, A. D. Daniels, 
 O. Farkas, J. B. Foresman, J. V. Ortiz, J. Cioslowski, 
 and D. J. Fox, Gaussian, Inc., Wallingford CT, 2013.
 
 ******************************************
 Gaussian 09:  ES64L-G09RevE.01 30-Nov-2015
                15-May-2018 
 ******************************************
 %Mem=110GB
 %NProcShared=64
 Will use up to   64 processors via shared memory.
 %chk=snap29.chk
 ----------------------------------------------
 #p PBE1PBE/cc-pvDZ force Counterpoise=2 noSymm
 ----------------------------------------------
 1/10=7,30=1,38=1,62=2/1,3;
 2/12=2,15=1,17=6,18=5,40=1/2;
 1/10=7,30=1,38=1,53=2,62=2,63=101/22;
 3/5=16,11=2,16=1,25=1,30=1,71=1,74=-13/1,2,3;
 4//1;
 5/5=2,38=5/2;
 6/7=2,8=2,9=2,10=2,28=1/1;
 7/7=1,29=1,30=1,33=-1/1,2,3,16;
 1/10=7,30=1,53=2,62=2,63=101/22;
 3/5=7,6=11,11=2,16=1,25=1,30=1,71=1,74=-13,82=7/1,2,3;
 4//1;
 5/5=2,38=5/2;
 6/7=2,8=2,9=2,10=2,28=1/1;
 7/7=1,29=1,30=1,33=-1/1,2,3,16;
 1/10=7,30=1,53=2,62=2,63=101/22(-5);
 7/9=1,29=1,44=-1/16;
 1/10=7,30=1,62=2/3;
 99//99;
 Leave Link    1 at Tue May 15 15:05:51 2018, MaxMem= 14763950080 cpu:         6.3
 (Enter /cm/shared/gaussian/g09.e01/intel64-sandybridge/g09/l101.exe)
 ---------------------------------------
 forces on chloride comput - NWATER: 128
 ---------------------------------------
 Symbolic Z-matrix:
 Charge = -1 Multiplicity = 1 in supermolecule
 Charge = -1 Multiplicity = 1 in fragment      1.
 Charge =  0 Multiplicity = 1 in fragment      2.
 Br(Fragment=1)        20.       20.       20. 
 O(Fragment=2)         23.11     20.11     19.51 
 H(Fragment=2)         23.39     20.92     19.93 
 H(Fragment=2)         22.2      20.       19.79 
 O(Fragment=2)         16.91     20.42     19.33 
 H(Fragment=2)         16.61     21.19     19.81 
 H(Fragment=2)         17.85     20.38     19.52 
 O(Fragment=2)         19.32     23.04     20.8 
 H(Fragment=2)         20.       23.51     20.32 
 H(Fragment=2)         19.43     22.13     20.55 
 O(Fragment=2)         19.44     20.46     16.83 
 H(Fragment=2)         20.32     20.71     16.56 
 H(Fragment=2)         19.47     20.44     17.79 
 O(Fragment=2)         19.7      17.19     18.22 
 H(Fragment=2)         18.85     16.9      18.56 
 H(Fragment=2)         19.69     18.15     18.33 
 O(Fragment=2)         19.07     20.27     23.28 
 H(Fragment=2)         19.67     20.3      22.54 
 H(Fragment=2)         18.23     20.       22.91 
 O(Fragment=2)         23.23     17.41     18.97 
 H(Fragment=2)         22.91     18.28     19.19 
 H(Fragment=2)         24.18     17.46     19.07 
 O(Fragment=2)         22.26     20.33     16.74 
 H(Fragment=2)         22.64     20.43     17.61 
 H(Fragment=2)         22.85     20.83     16.17 
 O(Fragment=2)         18.89     15.86     21.4 
 H(Fragment=2)         19.18     16.62     20.9 
 H(Fragment=2)         19.15     15.1      20.88 
 O(Fragment=2)         21.35     17.75     16.09 
 H(Fragment=2)         21.38     18.58     16.56 
 H(Fragment=2)         20.73     17.21     16.59 
 O(Fragment=2)         16.71     22.75     20.88 
 H(Fragment=2)         17.62     23.06     20.92 
 H(Fragment=2)         16.32     23.24     20.16 
 O(Fragment=2)         23.02     22.76     20.18 
 H(Fragment=2)         22.51     23.1      19.45 
 H(Fragment=2)         23.22     23.53     20.72 
 O(Fragment=2)         17.23     18.74     16.25 
 H(Fragment=2)         17.79     19.47     16.51 
 H(Fragment=2)         17.73     18.3      15.56 
 O(Fragment=2)         22.21     16.15     21.38 
 H(Fragment=2)         22.       16.37     20.47 
 H(Fragment=2)         22.78     15.38     21.31 
 O(Fragment=2)         22.36     18.01     23.21 
 H(Fragment=2)         22.       17.31     22.66 
 H(Fragment=2)         21.66     18.2      23.84 
 O(Fragment=2)         15.28     18.92     21.04 
 H(Fragment=2)         15.66     19.16     21.89 
 H(Fragment=2)         15.62     19.58     20.44 
 O(Fragment=2)         18.17     22.72     16.07 
 H(Fragment=2)         18.9      23.09     15.57 
 H(Fragment=2)         18.45     21.81     16.25 
 O(Fragment=2)         21.24     23.95     18.31 
 H(Fragment=2)         21.9      23.65     17.68 
 H(Fragment=2)         20.67     24.53     17.8 
 O(Fragment=2)         18.65     23.85     23.37 
 H(Fragment=2)         17.77     24.15     23.17 
 H(Fragment=2)         19.02     23.62     22.52 
 O(Fragment=2)         15.14     21.43     17.57 
 H(Fragment=2)         15.84     21.12     18.15 
 H(Fragment=2)         15.07     22.36     17.75 
 O(Fragment=2)         24.07     21.12     23.09 
 H(Fragment=2)         24.13     21.41     24. 
 H(Fragment=2)         23.65     20.26     23.14 
 O(Fragment=2)         16.52     19.52     23.42 
 H(Fragment=2)         16.45     20.46     23.27 
 H(Fragment=2)         16.98     19.44     24.26 
 O(Fragment=2)         19.57     21.62     25.66 
 H(Fragment=2)         19.42     22.57     25.59 
 H(Fragment=2)         19.3      21.28     24.81 
 O(Fragment=2)         25.39     21.44     20.8 
 H(Fragment=2)         24.72     21.89     20.28 
 H(Fragment=2)         24.95     21.21     21.62 
 O(Fragment=2)         16.68     16.5      18.19 
 H(Fragment=2)         16.63     16.99     17.37 
 H(Fragment=2)         16.01     16.91     18.75 
 O(Fragment=2)         15.62     22.06     23.26 
 H(Fragment=2)         15.77     22.31     22.34 
 H(Fragment=2)         14.83     22.54     23.51 
 O(Fragment=2)         16.02     15.33     21.2 
 H(Fragment=2)         16.75     15.72     20.73 
 H(Fragment=2)         15.89     15.91     21.95 
 O(Fragment=2)         22.21     14.44     19.06 
 H(Fragment=2)         22.49     15.31     18.78 
 H(Fragment=2)         21.26     14.45     18.96 
 O(Fragment=2)         25.91     18.55     19.92 
 H(Fragment=2)         26.15     18.61     19. 
 H(Fragment=2)         25.5      19.39     20.12 
 O(Fragment=2)         17.93     19.26     25.89 
 H(Fragment=2)         17.97     20.1      26.34 
 H(Fragment=2)         18.77     19.2      25.41 
 O(Fragment=2)         23.56     23.2      16.67 
 H(Fragment=2)         23.91     23.25     17.56 
 H(Fragment=2)         24.32     23.02     16.12 
 O(Fragment=2)         17.53     25.36     20.34 
 H(Fragment=2)         17.64     25.15     21.27 
 H(Fragment=2)         18.42     25.53     20.03 
 O(Fragment=2)         19.89     20.52     13.56 
 H(Fragment=2)         19.32     20.16     14.24 
 H(Fragment=2)         19.36     20.48     12.76 
 O(Fragment=2)         18.87     14.88     23.86 
 H(Fragment=2)         19.56     15.47     24.15 
 H(Fragment=2)         18.46     15.33     23.12 
 O(Fragment=2)         21.29     24.56     24.75 
 H(Fragment=2)         20.72     24.02     24.22 
 H(Fragment=2)         20.72     24.91     25.44 
 O(Fragment=2)         24.22     17.7      15.55 
 H(Fragment=2)         24.24     18.63     15.34 
 H(Fragment=2)         23.29     17.5      15.68 
 O(Fragment=2)         15.87     24.1      18.45 
 H(Fragment=2)         16.62     24.7      18.49 
 H(Fragment=2)         15.59     24.13     17.53 
 O(Fragment=2)         18.45     25.39     17.24 
 H(Fragment=2)         18.57     26.21     16.78 
 H(Fragment=2)         18.49     24.72     16.56 
 O(Fragment=2)         14.38     18.36     16.94 
 H(Fragment=2)         13.61     18.68     17.39 
 H(Fragment=2)         14.92     19.14     16.8 
 O(Fragment=2)         20.86     17.48     25.46 
 H(Fragment=2)         21.55     17.01     25.92 
 H(Fragment=2)         20.61     18.19     26.06 
 O(Fragment=2)         15.8      16.76     24.01 
 H(Fragment=2)         15.69     17.58     23.54 
 H(Fragment=2)         15.78     17.       24.94 
 O(Fragment=2)         23.02     15.62     24.55 
 H(Fragment=2)         23.67     15.36     23.9 
 H(Fragment=2)         22.7      16.47     24.26 
 O(Fragment=2)         21.92     18.94     13.37 
 H(Fragment=2)         21.05     19.33     13.42 
 H(Fragment=2)         22.14     18.73     14.28 
 O(Fragment=2)         25.69     17.87     23.53 
 H(Fragment=2)         26.11     18.24     22.76 
 H(Fragment=2)         24.82     17.61     23.23 
 O(Fragment=2)         19.46     13.7      19.15 
 H(Fragment=2)         18.58     13.33     19.25 
 H(Fragment=2)         20.04     13.03     19.5 
 O(Fragment=2)         13.21     17.38     19.67 
 H(Fragment=2)         13.12     16.54     20.12 
 H(Fragment=2)         13.98     17.78     20.06 
 O(Fragment=2)         21.92     22.12     13.79 
 H(Fragment=2)         21.32     21.37     13.86 
 H(Fragment=2)         22.24     22.09     12.89 
 O(Fragment=2)         24.       24.66     23.58 
 H(Fragment=2)         24.06     23.7      23.61 
 H(Fragment=2)         23.12     24.85     23.91 
 O(Fragment=2)         16.3      13.97     17.48 
 H(Fragment=2)         16.51     14.83     17.83 
 H(Fragment=2)         17.08     13.71     16.99 
 O(Fragment=2)         24.16     20.78     14.92 
 H(Fragment=2)         23.7      21.48     14.45 
 H(Fragment=2)         24.41     20.16     14.24 
 O(Fragment=2)         24.99     24.2      18.71 
 H(Fragment=2)         25.67     23.6      19.02 
 H(Fragment=2)         25.48     24.91     18.29 
 O(Fragment=2)         13.02     19.46     22.43 
 H(Fragment=2)         12.33     18.83     22.23 
 H(Fragment=2)         13.58     19.46     21.66 
 O(Fragment=2)         16.05     24.52     15.42 
 H(Fragment=2)         16.73     23.9      15.69 
 H(Fragment=2)         16.22     24.67     14.49 
 O(Fragment=2)         20.       13.99     16.53 
 H(Fragment=2)         19.68     13.82     17.42 
 H(Fragment=2)         20.94     13.82     16.58 
 O(Fragment=2)         26.53     18.43     17.25 
 H(Fragment=2)         27.15     17.74     17.01 
 H(Fragment=2)         25.68     18.1      16.98 
 O(Fragment=2)         20.08     24.1      14.49 
 H(Fragment=2)         20.52     23.3      14.18 
 H(Fragment=2)         20.79     24.73     14.59 
 O(Fragment=2)         26.09     16.1      21.38 
 H(Fragment=2)         26.51     15.61     20.67 
 H(Fragment=2)         25.97     16.98     21.01 
 O(Fragment=2)         21.22     15.8      13.95 
 H(Fragment=2)         21.09     15.7      14.89 
 H(Fragment=2)         20.79     15.05     13.56 
 O(Fragment=2)         20.48     19.63     27.19 
 H(Fragment=2)         20.       19.75     28.01 
 H(Fragment=2)         20.38     20.47     26.74 
 O(Fragment=2)         23.8      19.25     26.08 
 H(Fragment=2)         23.15     19.9      26.36 
 H(Fragment=2)         24.22     19.65     25.32 
 O(Fragment=2)         22.18     27.44     19.67 
 H(Fragment=2)         21.95     26.53     19.48 
 H(Fragment=2)         22.63     27.4      20.52 
 O(Fragment=2)         22.12     25.59     15.58 
 H(Fragment=2)         22.61     26.41     15.55 
 H(Fragment=2)         22.79     24.92     15.75 
 O(Fragment=2)         16.28     25.34     22.87 
 H(Fragment=2)         15.58     24.87     23.31 
 H(Fragment=2)         15.98     26.24     22.82 
 O(Fragment=2)         17.51     16.42     14.32 
 H(Fragment=2)         17.64     15.5      14.56 
 H(Fragment=2)         16.57     16.57     14.46 
 O(Fragment=2)         14.93     16.6      15.03 
 H(Fragment=2)         14.76     17.13     15.81 
 H(Fragment=2)         14.73     15.71     15.3 
 O(Fragment=2)         16.32     23.49     26.25 
 H(Fragment=2)         16.16     22.98     25.45 
 H(Fragment=2)         15.68     23.16     26.87 
 O(Fragment=2)         27.11     20.57     23.41 
 H(Fragment=2)         26.39     19.96     23.56 
 H(Fragment=2)         27.89     20.09     23.69 
 O(Fragment=2)         19.4      27.31     19.49 
 H(Fragment=2)         19.15     27.51     18.59 
 H(Fragment=2)         20.35     27.44     19.51 
 O(Fragment=2)         27.3      21.07     17.25 
 H(Fragment=2)         26.86     20.22     17.3 
 H(Fragment=2)         27.61     21.13     16.35 
 O(Fragment=2)         25.19     15.38     16.61 
 H(Fragment=2)         24.79     16.02     16.01 
 H(Fragment=2)         24.95     14.53     16.24 
 O(Fragment=2)         13.63     25.05     20.08 
 H(Fragment=2)         14.02     24.36     19.55 
 H(Fragment=2)         14.29     25.75     20.09 
 O(Fragment=2)         24.22     22.11     25.75 
 H(Fragment=2)         24.93     22.51     26.24 
 H(Fragment=2)         23.42     22.54     26.08 
 O(Fragment=2)         27.57     23.04     20.01 
 H(Fragment=2)         28.22     23.02     20.71 
 H(Fragment=2)         27.1      22.21     20.09 
 O(Fragment=2)         28.06     20.24     20.7 
 H(Fragment=2)         27.32     20.44     21.27 
 H(Fragment=2)         27.83     20.63     19.86 
 O(Fragment=2)         15.4      26.89     20.05 
 H(Fragment=2)         16.17     26.39     20.34 
 H(Fragment=2)         15.64     27.8      20.19 
 O(Fragment=2)         19.33     12.47     22.37 
 H(Fragment=2)         20.1      12.33     22.92 
 H(Fragment=2)         18.85     13.18     22.79 
 O(Fragment=2)         18.97     16.74     27.69 
 H(Fragment=2)         18.89     17.22     26.87 
 H(Fragment=2)         19.       17.41     28.37 
 O(Fragment=2)         23.       12.28     20.64 
 H(Fragment=2)         23.9      12.21     20.94 
 H(Fragment=2)         22.97     13.11     20.16 
 O(Fragment=2)         15.55     18.16     26.42 
 H(Fragment=2)         14.95     18.84     26.12 
 H(Fragment=2)         16.41     18.59     26.46 
 O(Fragment=2)         24.78     14.39     23.11 
 H(Fragment=2)         25.21     15.05     22.56 
 H(Fragment=2)         24.96     13.56     22.68 
 O(Fragment=2)         21.57     13.07     24.18 
 H(Fragment=2)         22.2      13.75     23.95 
 H(Fragment=2)         21.93     12.26     23.81 
 O(Fragment=2)         22.02     22.83     27.5 
 H(Fragment=2)         21.96     22.3      28.3 
 H(Fragment=2)         21.15     22.79     27.11 
 O(Fragment=2)         16.11     12.62     21.89 
 H(Fragment=2)         16.11     13.57     22. 
 H(Fragment=2)         15.21     12.4      21.66 
 O(Fragment=2)         17.81     26.58     25.22 
 H(Fragment=2)         18.05     26.11     24.42 
 H(Fragment=2)         18.22     26.08     25.92 
 O(Fragment=2)         15.67     21.68     13.44 
 H(Fragment=2)         16.11     22.52     13.58 
 H(Fragment=2)         16.38     21.09     13.18 
 O(Fragment=2)         23.16     27.45     22.2 
 H(Fragment=2)         23.09     26.64     22.71 
 H(Fragment=2)         23.67     28.04     22.75 
 O(Fragment=2)         19.21     24.18     26.66 
 H(Fragment=2)         19.3      24.05     27.6 
 H(Fragment=2)         18.28     24.01     26.48 
 O(Fragment=2)         18.3      27.99     22.12 
 H(Fragment=2)         19.17     28.03     22.51 
 H(Fragment=2)         18.44     27.56     21.27 
 O(Fragment=2)         17.66     24.34     13.01 
 H(Fragment=2)         18.46     24.28     13.53 
 H(Fragment=2)         17.96     24.31     12.1 
 O(Fragment=2)         13.35     14.67     20.72 
 H(Fragment=2)         12.8      14.17     21.32 
 H(Fragment=2)         14.19     14.76     21.17 
 O(Fragment=2)         15.34     14.54     25.19 
 H(Fragment=2)         15.73     15.14     24.56 
 H(Fragment=2)         15.65     14.85     26.04 
 O(Fragment=2)         20.07     17.5      11.8 
 H(Fragment=2)         20.71     18.09     11.39 
 H(Fragment=2)         20.5      17.21     12.6 
 O(Fragment=2)         17.55     19.94     12.37 
 H(Fragment=2)         17.32     19.01     12.3 
 H(Fragment=2)         17.76     20.21     11.47 
 O(Fragment=2)         27.16     15.63     18.64 
 H(Fragment=2)         27.72     16.       17.96 
 H(Fragment=2)         26.36     15.38     18.19 
 O(Fragment=2)         23.05     13.42     16.29 
 H(Fragment=2)         22.76     12.6      15.9 
 H(Fragment=2)         23.32     13.19     17.17 
 O(Fragment=2)         19.18     12.88     25.58 
 H(Fragment=2)         19.03     13.59     24.95 
 H(Fragment=2)         19.97     12.44     25.27 
 O(Fragment=2)         11.33     19.34     19.9 
 H(Fragment=2)         11.96     18.62     19.99 
 H(Fragment=2)         11.43     19.64     19. 
 O(Fragment=2)         17.93     13.54     14.8 
 H(Fragment=2)         17.46     12.71     14.91 
 H(Fragment=2)         18.72     13.43     15.33 
 O(Fragment=2)         26.77     24.96     22.87 
 H(Fragment=2)         25.86     24.92     23.16 
 H(Fragment=2)         27.24     24.42     23.5 
 O(Fragment=2)         13.84     24.05     23.82 
 H(Fragment=2)         13.58     23.92     24.73 
 H(Fragment=2)         13.02     24.24     23.36 
 O(Fragment=2)         13.19     20.4      14.46 
 H(Fragment=2)         14.08     20.64     14.2 
 H(Fragment=2)         12.93     21.09     15.07 
 O(Fragment=2)         13.14     18.85     25.07 
 H(Fragment=2)         13.07     17.89     25.05 
 H(Fragment=2)         12.83     19.13     24.21 
 O(Fragment=2)         26.8      17.92     14.07 
 H(Fragment=2)         26.93     17.11     13.58 
 H(Fragment=2)         26.02     17.76     14.6 
 O(Fragment=2)         11.58     22.09     23.27 
 H(Fragment=2)         11.03     22.05     22.49 
 H(Fragment=2)         12.31     21.5      23.08 
 O(Fragment=2)         17.46     17.08     11.69 
 H(Fragment=2)         18.39     17.07     11.51 
 H(Fragment=2)         17.38     16.79     12.6 
 O(Fragment=2)         17.42     11.9      19.66 
 H(Fragment=2)         17.29     11.81     20.6 
 H(Fragment=2)         16.57     11.68     19.28 
 O(Fragment=2)         23.1      14.16     26.74 
 H(Fragment=2)         23.13     14.96     27.27 
 H(Fragment=2)         22.82     14.46     25.87 
 O(Fragment=2)         23.94     20.29     11.98 
 H(Fragment=2)         24.74     19.93     11.6 
 H(Fragment=2)         23.36     19.54     12.08 
 O(Fragment=2)         11.8      20.       17.23 
 H(Fragment=2)         11.81     20.93     16.97 
 H(Fragment=2)         11.51     19.54     16.44 
 O(Fragment=2)         14.34     26.49     16.17 
 H(Fragment=2)         14.2      26.97     15.35 
 H(Fragment=2)         15.02     25.84     15.95 
 O(Fragment=2)         13.43     13.52     17.94 
 H(Fragment=2)         14.23     13.69     18.44 
 H(Fragment=2)         12.98     12.82     18.42 
 O(Fragment=2)         22.75     16.76     27.62 
 H(Fragment=2)         23.58     17.23     27.74 
 H(Fragment=2)         22.2      17.05     28.34 
 O(Fragment=2)         12.37     16.17     17.22 
 H(Fragment=2)         12.76     15.54     17.83 
 H(Fragment=2)         12.13     16.92     17.77 
 O(Fragment=2)         20.57     28.       23.49 
 H(Fragment=2)         21.37     28.16     22.98 
 H(Fragment=2)         20.88     27.61     24.31 
 O(Fragment=2)         19.08     28.14     16.9 
 H(Fragment=2)         19.82     28.53     16.44 
 H(Fragment=2)         18.33     28.7      16.69 
 O(Fragment=2)         27.9      23.04     24.41 
 H(Fragment=2)         27.49     22.26     24.05 
 H(Fragment=2)         28.14     22.8      25.31 
 O(Fragment=2)         27.18     26.06     20.31 
 H(Fragment=2)         26.58     26.79     20.44 
 H(Fragment=2)         26.98     25.46     21.03 
 O(Fragment=2)         23.69     15.18     12.37 
 H(Fragment=2)         22.92     15.57     12.78 
 H(Fragment=2)         23.41     14.29     12.14 
 O(Fragment=2)         24.95     28.17     19.5 
 H(Fragment=2)         25.38     27.68     18.8 
 H(Fragment=2)         24.01     27.99     19.38 
 O(Fragment=2)         20.24     14.28     27.77 
 H(Fragment=2)         20.48     13.92     26.91 
 H(Fragment=2)         20.17     15.23     27.62 
 O(Fragment=2)         13.16     17.91     13.43 
 H(Fragment=2)         13.08     18.77     13.85 
 H(Fragment=2)         13.95     17.53     13.82 
 O(Fragment=2)         12.31     22.54     15.7 
 H(Fragment=2)         12.5      23.28     16.26 
 H(Fragment=2)         11.47     22.75     15.29 
 O(Fragment=2)         11.75     24.87     21.86 
 H(Fragment=2)         11.72     23.95     22.14 
 H(Fragment=2)         12.39     24.88     21.15 
 O(Fragment=2)         26.42     22.07     13.51 
 H(Fragment=2)         27.08     21.48     13.87 
 H(Fragment=2)         25.78     21.48     13.1 
 O(Fragment=2)         25.58     14.14     25.75 
 H(Fragment=2)         25.42     14.51     24.88 
 H(Fragment=2)         24.77     14.3      26.23 
 O(Fragment=2)         26.25     26.2      17.11 
 H(Fragment=2)         27.21     26.27     17.15 
 H(Fragment=2)         26.07     25.75     16.29 
 O(Fragment=2)         17.14     21.11     28.83 
 H(Fragment=2)         17.68     20.33     28.88 
 H(Fragment=2)         16.25     20.81     29.01 
 O(Fragment=2)         21.41     21.92     11. 
 H(Fragment=2)         20.67     21.86     10.4 
 H(Fragment=2)         21.79     21.04     11.02 
 
 NAtoms=    385 NQM=      385 NQMF=       0 NMMI=      0 NMMIF=      0
                NMic=       0 NMicF=      0.
                    Isotopes and Nuclear Properties:
 (Nuclear quadrupole moments (NQMom) in fm**2, nuclear magnetic moments (NMagM)
  in nuclear magnetons)

  Atom         1           2           3           4           5           6           7           8           9          10
 IAtWgt=          79          16           1           1          16           1           1          16           1           1
 AtmWgt=  78.9183361  15.9949146   1.0078250   1.0078250  15.9949146   1.0078250   1.0078250  15.9949146   1.0078250   1.0078250
 NucSpn=           3           0           1           1           0           1           1           0           1           1
 AtZEff=   0.0000000   0.0000000   0.0000000   0.0000000   0.0000000   0.0000000   0.0000000   0.0000000   0.0000000   0.0000000
 NQMom=   31.3000000   0.0000000   0.0000000   0.0000000   0.0000000   0.0000000   0.0000000   0.0000000   0.0000000   0.0000000
 NMagM=    2.1063990   0.0000000   2.7928460   2.7928460   0.0000000   2.7928460   2.7928460   0.0000000   2.7928460   2.7928460
 AtZNuc=  35.0000000   8.0000000   1.0000000   1.0000000   8.0000000   1.0000000   1.0000000   8.0000000   1.0000000   1.0000000

  Atom        11          12          13          14          15          16          17          18          19          20
 IAtWgt=          16           1           1          16           1           1          16           1           1          16
 AtmWgt=  15.9949146   1.0078250   1.0078250  15.9949146   1.0078250   1.0078250  15.9949146   1.0078250   1.0078250  15.9949146
 NucSpn=           0           1           1           0           1           1           0           1           1           0
 AtZEff=   0.0000000   0.0000000   0.0000000   0.0000000   0.0000000   0.0000000   0.0000000   0.0000000   0.0000000   0.0000000
 NQMom=    0.0000000   0.0000000   0.0000000   0.0000000   0.0000000   0.0000000   0.0000000   0.0000000   0.0000000   0.0000000
 NMagM=    0.0000000   2.7928460   2.7928460   0.0000000   2.7928460   2.7928460   0.0000000   2.7928460   2.7928460   0.0000000
 AtZNuc=   8.0000000   1.0000000   1.0000000   8.0000000   1.0000000   1.0000000   8.0000000   1.0000000   1.0000000   8.0000000

  Atom        21          22          23          24          25          26          27          28          29          30
 IAtWgt=           1           1          16           1           1          16           1           1          16           1
 AtmWgt=   1.0078250   1.0078250  15.9949146   1.0078250   1.0078250  15.9949146   1.0078250   1.0078250  15.9949146   1.0078250
 NucSpn=           1           1           0           1           1           0           1           1           0           1
 AtZEff=   0.0000000   0.0000000   0.0000000   0.0000000   0.0000000   0.0000000   0.0000000   0.0000000   0.0000000   0.0000000
 NQMom=    0.0000000   0.0000000   0.0000000   0.0000000   0.0000000   0.0000000   0.0000000   0.0000000   0.0000000   0.0000000
 NMagM=    2.7928460   2.7928460   0.0000000   2.7928460   2.7928460   0.0000000   2.7928460   2.7928460   0.0000000   2.7928460
 AtZNuc=   1.0000000   1.0000000   8.0000000   1.0000000   1.0000000   8.0000000   1.0000000   1.0000000   8.0000000   1.0000000

  Atom        31          32          33          34          35          36          37          38          39          40
 IAtWgt=           1          16           1           1          16           1           1          16           1           1
 AtmWgt=   1.0078250  15.9949146   1.0078250   1.0078250  15.9949146   1.0078250   1.0078250  15.9949146   1.0078250   1.0078250
 NucSpn=           1           0           1           1           0           1           1           0           1           1
 AtZEff=   0.0000000   0.0000000   0.0000000   0.0000000   0.0000000   0.0000000   0.0000000   0.0000000   0.0000000   0.0000000
 NQMom=    0.0000000   0.0000000   0.0000000   0.0000000   0.0000000   0.0000000   0.0000000   0.0000000   0.0000000   0.0000000
 NMagM=    2.7928460   0.0000000   2.7928460   2.7928460   0.0000000   2.7928460   2.7928460   0.0000000   2.7928460   2.7928460
 AtZNuc=   1.0000000   8.0000000   1.0000000   1.0000000   8.0000000   1.0000000   1.0000000   8.0000000   1.0000000   1.0000000

  Atom        41          42          43          44          45          46          47          48          49          50
 IAtWgt=          16           1           1          16           1           1          16           1           1          16
 AtmWgt=  15.9949146   1.0078250   1.0078250  15.9949146   1.0078250   1.0078250  15.9949146   1.0078250   1.0078250  15.9949146
 NucSpn=           0           1           1           0           1           1           0           1           1           0
 AtZEff=   0.0000000   0.0000000   0.0000000   0.0000000   0.0000000   0.0000000   0.0000000   0.0000000   0.0000000   0.0000000
 NQMom=    0.0000000   0.0000000   0.0000000   0.0000000   0.0000000   0.0000000   0.0000000   0.0000000   0.0000000   0.0000000
 NMagM=    0.0000000   2.7928460   2.7928460   0.0000000   2.7928460   2.7928460   0.0000000   2.7928460   2.7928460   0.0000000
 AtZNuc=   8.0000000   1.0000000   1.0000000   8.0000000   1.0000000   1.0000000   8.0000000   1.0000000   1.0000000   8.0000000

  Atom        51          52          53          54          55          56          57          58          59          60
 IAtWgt=           1           1          16           1           1          16           1           1          16           1
 AtmWgt=   1.0078250   1.0078250  15.9949146   1.0078250   1.0078250  15.9949146   1.0078250   1.0078250  15.9949146   1.0078250
 NucSpn=           1           1           0           1           1           0           1           1           0           1
 AtZEff=   0.0000000   0.0000000   0.0000000   0.0000000   0.0000000   0.0000000   0.0000000   0.0000000   0.0000000   0.0000000
 NQMom=    0.0000000   0.0000000   0.0000000   0.0000000   0.0000000   0.0000000   0.0000000   0.0000000   0.0000000   0.0000000
 NMagM=    2.7928460   2.7928460   0.0000000   2.7928460   2.7928460   0.0000000   2.7928460   2.7928460   0.0000000   2.7928460
 AtZNuc=   1.0000000   1.0000000   8.0000000   1.0000000   1.0000000   8.0000000   1.0000000   1.0000000   8.0000000   1.0000000

  Atom        61          62          63          64          65          66          67          68          69          70
 IAtWgt=           1          16           1           1          16           1           1          16           1           1
 AtmWgt=   1.0078250  15.9949146   1.0078250   1.0078250  15.9949146   1.0078250   1.0078250  15.9949146   1.0078250   1.0078250
 NucSpn=           1           0           1           1           0           1           1           0           1           1
 AtZEff=   0.0000000   0.0000000   0.0000000   0.0000000   0.0000000   0.0000000   0.0000000   0.0000000   0.0000000   0.0000000
 NQMom=    0.0000000   0.0000000   0.0000000   0.0000000   0.0000000   0.0000000   0.0000000   0.0000000   0.0000000   0.0000000
 NMagM=    2.7928460   0.0000000   2.7928460   2.7928460   0.0000000   2.7928460   2.7928460   0.0000000   2.7928460   2.7928460
 AtZNuc=   1.0000000   8.0000000   1.0000000   1.0000000   8.0000000   1.0000000   1.0000000   8.0000000   1.0000000   1.0000000

  Atom        71          72          73          74          75          76          77          78          79          80
 IAtWgt=          16           1           1          16           1           1          16           1           1          16
 AtmWgt=  15.9949146   1.0078250   1.0078250  15.9949146   1.0078250   1.0078250  15.9949146   1.0078250   1.0078250  15.9949146
 NucSpn=           0           1           1           0           1           1           0           1           1           0
 AtZEff=   0.0000000   0.0000000   0.0000000   0.0000000   0.0000000   0.0000000   0.0000000   0.0000000   0.0000000   0.0000000
 NQMom=    0.0000000   0.0000000   0.0000000   0.0000000   0.0000000   0.0000000   0.0000000   0.0000000   0.0000000   0.0000000
 NMagM=    0.0000000   2.7928460   2.7928460   0.0000000   2.7928460   2.7928460   0.0000000   2.7928460   2.7928460   0.0000000
 AtZNuc=   8.0000000   1.0000000   1.0000000   8.0000000   1.0000000   1.0000000   8.0000000   1.0000000   1.0000000   8.0000000

  Atom        81          82          83          84          85          86          87          88          89          90
 IAtWgt=           1           1          16           1           1          16           1           1          16           1
 AtmWgt=   1.0078250   1.0078250  15.9949146   1.0078250   1.0078250  15.9949146   1.0078250   1.0078250  15.9949146   1.0078250
 NucSpn=           1           1           0           1           1           0           1           1           0           1
 AtZEff=   0.0000000   0.0000000   0.0000000   0.0000000   0.0000000   0.0000000   0.0000000   0.0000000   0.0000000   0.0000000
 NQMom=    0.0000000   0.0000000   0.0000000   0.0000000   0.0000000   0.0000000   0.0000000   0.0000000   0.0000000   0.0000000
 NMagM=    2.7928460   2.7928460   0.0000000   2.7928460   2.7928460   0.0000000   2.7928460   2.7928460   0.0000000   2.7928460
 AtZNuc=   1.0000000   1.0000000   8.0000000   1.0000000   1.0000000   8.0000000   1.0000000   1.0000000   8.0000000   1.0000000

  Atom        91          92          93          94          95          96          97          98          99         100
 IAtWgt=           1          16           1           1          16           1           1          16           1           1
 AtmWgt=   1.0078250  15.9949146   1.0078250   1.0078250  15.9949146   1.0078250   1.0078250  15.9949146   1.0078250   1.0078250
 NucSpn=           1           0           1           1           0           1           1           0           1           1
 AtZEff=   0.0000000   0.0000000   0.0000000   0.0000000   0.0000000   0.0000000   0.0000000   0.0000000   0.0000000   0.0000000
 NQMom=    0.0000000   0.0000000   0.0000000   0.0000000   0.0000000   0.0000000   0.0000000   0.0000000   0.0000000   0.0000000
 NMagM=    2.7928460   0.0000000   2.7928460   2.7928460   0.0000000   2.7928460   2.7928460   0.0000000   2.7928460   2.7928460
 AtZNuc=   1.0000000   8.0000000   1.0000000   1.0000000   8.0000000   1.0000000   1.0000000   8.0000000   1.0000000   1.0000000

  Atom       101         102         103         104         105         106         107         108         109         110
 IAtWgt=          16           1           1          16           1           1          16           1           1          16
 AtmWgt=  15.9949146   1.0078250   1.0078250  15.9949146   1.0078250   1.0078250  15.9949146   1.0078250   1.0078250  15.9949146
 NucSpn=           0           1           1           0           1           1           0           1           1           0
 AtZEff=   0.0000000   0.0000000   0.0000000   0.0000000   0.0000000   0.0000000   0.0000000   0.0000000   0.0000000   0.0000000
 NQMom=    0.0000000   0.0000000   0.0000000   0.0000000   0.0000000   0.0000000   0.0000000   0.0000000   0.0000000   0.0000000
 NMagM=    0.0000000   2.7928460   2.7928460   0.0000000   2.7928460   2.7928460   0.0000000   2.7928460   2.7928460   0.0000000
 AtZNuc=   8.0000000   1.0000000   1.0000000   8.0000000   1.0000000   1.0000000   8.0000000   1.0000000   1.0000000   8.0000000

  Atom       111         112         113         114         115         116         117         118         119         120
 IAtWgt=           1           1          16           1           1          16           1           1          16           1
 AtmWgt=   1.0078250   1.0078250  15.9949146   1.0078250   1.0078250  15.9949146   1.0078250   1.0078250  15.9949146   1.0078250
 NucSpn=           1           1           0           1           1           0           1           1           0           1
 AtZEff=   0.0000000   0.0000000   0.0000000   0.0000000   0.0000000   0.0000000   0.0000000   0.0000000   0.0000000   0.0000000
 NQMom=    0.0000000   0.0000000   0.0000000   0.0000000   0.0000000   0.0000000   0.0000000   0.0000000   0.0000000   0.0000000
 NMagM=    2.7928460   2.7928460   0.0000000   2.7928460   2.7928460   0.0000000   2.7928460   2.7928460   0.0000000   2.7928460
 AtZNuc=   1.0000000   1.0000000   8.0000000   1.0000000   1.0000000   8.0000000   1.0000000   1.0000000   8.0000000   1.0000000

  Atom       121         122         123         124         125         126         127         128         129         130
 IAtWgt=           1          16           1           1          16           1           1          16           1           1
 AtmWgt=   1.0078250  15.9949146   1.0078250   1.0078250  15.9949146   1.0078250   1.0078250  15.9949146   1.0078250   1.0078250
 NucSpn=           1           0           1           1           0           1           1           0           1           1
 AtZEff=   0.0000000   0.0000000   0.0000000   0.0000000   0.0000000   0.0000000   0.0000000   0.0000000   0.0000000   0.0000000
 NQMom=    0.0000000   0.0000000   0.0000000   0.0000000   0.0000000   0.0000000   0.0000000   0.0000000   0.0000000   0.0000000
 NMagM=    2.7928460   0.0000000   2.7928460   2.7928460   0.0000000   2.7928460   2.7928460   0.0000000   2.7928460   2.7928460
 AtZNuc=   1.0000000   8.0000000   1.0000000   1.0000000   8.0000000   1.0000000   1.0000000   8.0000000   1.0000000   1.0000000

  Atom       131         132         133         134         135         136         137         138         139         140
 IAtWgt=          16           1           1          16           1           1          16           1           1          16
 AtmWgt=  15.9949146   1.0078250   1.0078250  15.9949146   1.0078250   1.0078250  15.9949146   1.0078250   1.0078250  15.9949146
 NucSpn=           0           1           1           0           1           1           0           1           1           0
 AtZEff=   0.0000000   0.0000000   0.0000000   0.0000000   0.0000000   0.0000000   0.0000000   0.0000000   0.0000000   0.0000000
 NQMom=    0.0000000   0.0000000   0.0000000   0.0000000   0.0000000   0.0000000   0.0000000   0.0000000   0.0000000   0.0000000
 NMagM=    0.0000000   2.7928460   2.7928460   0.0000000   2.7928460   2.7928460   0.0000000   2.7928460   2.7928460   0.0000000
 AtZNuc=   8.0000000   1.0000000   1.0000000   8.0000000   1.0000000   1.0000000   8.0000000   1.0000000   1.0000000   8.0000000

  Atom       141         142         143         144         145         146         147         148         149         150
 IAtWgt=           1           1          16           1           1          16           1           1          16           1
 AtmWgt=   1.0078250   1.0078250  15.9949146   1.0078250   1.0078250  15.9949146   1.0078250   1.0078250  15.9949146   1.0078250
 NucSpn=           1           1           0           1           1           0           1           1           0           1
 AtZEff=   0.0000000   0.0000000   0.0000000   0.0000000   0.0000000   0.0000000   0.0000000   0.0000000   0.0000000   0.0000000
 NQMom=    0.0000000   0.0000000   0.0000000   0.0000000   0.0000000   0.0000000   0.0000000   0.0000000   0.0000000   0.0000000
 NMagM=    2.7928460   2.7928460   0.0000000   2.7928460   2.7928460   0.0000000   2.7928460   2.7928460   0.0000000   2.7928460
 AtZNuc=   1.0000000   1.0000000   8.0000000   1.0000000   1.0000000   8.0000000   1.0000000   1.0000000   8.0000000   1.0000000

  Atom       151         152         153         154         155         156         157         158         159         160
 IAtWgt=           1          16           1           1          16           1           1          16           1           1
 AtmWgt=   1.0078250  15.9949146   1.0078250   1.0078250  15.9949146   1.0078250   1.0078250  15.9949146   1.0078250   1.0078250
 NucSpn=           1           0           1           1           0           1           1           0           1           1
 AtZEff=   0.0000000   0.0000000   0.0000000   0.0000000   0.0000000   0.0000000   0.0000000   0.0000000   0.0000000   0.0000000
 NQMom=    0.0000000   0.0000000   0.0000000   0.0000000   0.0000000   0.0000000   0.0000000   0.0000000   0.0000000   0.0000000
 NMagM=    2.7928460   0.0000000   2.7928460   2.7928460   0.0000000   2.7928460   2.7928460   0.0000000   2.7928460   2.7928460
 AtZNuc=   1.0000000   8.0000000   1.0000000   1.0000000   8.0000000   1.0000000   1.0000000   8.0000000   1.0000000   1.0000000

  Atom       161         162         163         164         165         166         167         168         169         170
 IAtWgt=          16           1           1          16           1           1          16           1           1          16
 AtmWgt=  15.9949146   1.0078250   1.0078250  15.9949146   1.0078250   1.0078250  15.9949146   1.0078250   1.0078250  15.9949146
 NucSpn=           0           1           1           0           1           1           0           1           1           0
 AtZEff=   0.0000000   0.0000000   0.0000000   0.0000000   0.0000000   0.0000000   0.0000000   0.0000000   0.0000000   0.0000000
 NQMom=    0.0000000   0.0000000   0.0000000   0.0000000   0.0000000   0.0000000   0.0000000   0.0000000   0.0000000   0.0000000
 NMagM=    0.0000000   2.7928460   2.7928460   0.0000000   2.7928460   2.7928460   0.0000000   2.7928460   2.7928460   0.0000000
 AtZNuc=   8.0000000   1.0000000   1.0000000   8.0000000   1.0000000   1.0000000   8.0000000   1.0000000   1.0000000   8.0000000

  Atom       171         172         173         174         175         176         177         178         179         180
 IAtWgt=           1           1          16           1           1          16           1           1          16           1
 AtmWgt=   1.0078250   1.0078250  15.9949146   1.0078250   1.0078250  15.9949146   1.0078250   1.0078250  15.9949146   1.0078250
 NucSpn=           1           1           0           1           1           0           1           1           0           1
 AtZEff=   0.0000000   0.0000000   0.0000000   0.0000000   0.0000000   0.0000000   0.0000000   0.0000000   0.0000000   0.0000000
 NQMom=    0.0000000   0.0000000   0.0000000   0.0000000   0.0000000   0.0000000   0.0000000   0.0000000   0.0000000   0.0000000
 NMagM=    2.7928460   2.7928460   0.0000000   2.7928460   2.7928460   0.0000000   2.7928460   2.7928460   0.0000000   2.7928460
 AtZNuc=   1.0000000   1.0000000   8.0000000   1.0000000   1.0000000   8.0000000   1.0000000   1.0000000   8.0000000   1.0000000

  Atom       181         182         183         184         185         186         187         188         189         190
 IAtWgt=           1          16           1           1          16           1           1          16           1           1
 AtmWgt=   1.0078250  15.9949146   1.0078250   1.0078250  15.9949146   1.0078250   1.0078250  15.9949146   1.0078250   1.0078250
 NucSpn=           1           0           1           1           0           1           1           0           1           1
 AtZEff=   0.0000000   0.0000000   0.0000000   0.0000000   0.0000000   0.0000000   0.0000000   0.0000000   0.0000000   0.0000000
 NQMom=    0.0000000   0.0000000   0.0000000   0.0000000   0.0000000   0.0000000   0.0000000   0.0000000   0.0000000   0.0000000
 NMagM=    2.7928460   0.0000000   2.7928460   2.7928460   0.0000000   2.7928460   2.7928460   0.0000000   2.7928460   2.7928460
 AtZNuc=   1.0000000   8.0000000   1.0000000   1.0000000   8.0000000   1.0000000   1.0000000   8.0000000   1.0000000   1.0000000

  Atom       191         192         193         194         195         196         197         198         199         200
 IAtWgt=          16           1           1          16           1           1          16           1           1          16
 AtmWgt=  15.9949146   1.0078250   1.0078250  15.9949146   1.0078250   1.0078250  15.9949146   1.0078250   1.0078250  15.9949146
 NucSpn=           0           1           1           0           1           1           0           1           1           0
 AtZEff=   0.0000000   0.0000000   0.0000000   0.0000000   0.0000000   0.0000000   0.0000000   0.0000000   0.0000000   0.0000000
 NQMom=    0.0000000   0.0000000   0.0000000   0.0000000   0.0000000   0.0000000   0.0000000   0.0000000   0.0000000   0.0000000
 NMagM=    0.0000000   2.7928460   2.7928460   0.0000000   2.7928460   2.7928460   0.0000000   2.7928460   2.7928460   0.0000000
 AtZNuc=   8.0000000   1.0000000   1.0000000   8.0000000   1.0000000   1.0000000   8.0000000   1.0000000   1.0000000   8.0000000

  Atom       201         202         203         204         205         206         207         208         209         210
 IAtWgt=           1           1          16           1           1          16           1           1          16           1
 AtmWgt=   1.0078250   1.0078250  15.9949146   1.0078250   1.0078250  15.9949146   1.0078250   1.0078250  15.9949146   1.0078250
 NucSpn=           1           1           0           1           1           0           1           1           0           1
 AtZEff=   0.0000000   0.0000000   0.0000000   0.0000000   0.0000000   0.0000000   0.0000000   0.0000000   0.0000000   0.0000000
 NQMom=    0.0000000   0.0000000   0.0000000   0.0000000   0.0000000   0.0000000   0.0000000   0.0000000   0.0000000   0.0000000
 NMagM=    2.7928460   2.7928460   0.0000000   2.7928460   2.7928460   0.0000000   2.7928460   2.7928460   0.0000000   2.7928460
 AtZNuc=   1.0000000   1.0000000   8.0000000   1.0000000   1.0000000   8.0000000   1.0000000   1.0000000   8.0000000   1.0000000

  Atom       211         212         213         214         215         216         217         218         219         220
 IAtWgt=           1          16           1           1          16           1           1          16           1           1
 AtmWgt=   1.0078250  15.9949146   1.0078250   1.0078250  15.9949146   1.0078250   1.0078250  15.9949146   1.0078250   1.0078250
 NucSpn=           1           0           1           1           0           1           1           0           1           1
 AtZEff=   0.0000000   0.0000000   0.0000000   0.0000000   0.0000000   0.0000000   0.0000000   0.0000000   0.0000000   0.0000000
 NQMom=    0.0000000   0.0000000   0.0000000   0.0000000   0.0000000   0.0000000   0.0000000   0.0000000   0.0000000   0.0000000
 NMagM=    2.7928460   0.0000000   2.7928460   2.7928460   0.0000000   2.7928460   2.7928460   0.0000000   2.7928460   2.7928460
 AtZNuc=   1.0000000   8.0000000   1.0000000   1.0000000   8.0000000   1.0000000   1.0000000   8.0000000   1.0000000   1.0000000

  Atom       221         222         223         224         225         226         227         228         229         230
 IAtWgt=          16           1           1          16           1           1          16           1           1          16
 AtmWgt=  15.9949146   1.0078250   1.0078250  15.9949146   1.0078250   1.0078250  15.9949146   1.0078250   1.0078250  15.9949146
 NucSpn=           0           1           1           0           1           1           0           1           1           0
 AtZEff=   0.0000000   0.0000000   0.0000000   0.0000000   0.0000000   0.0000000   0.0000000   0.0000000   0.0000000   0.0000000
 NQMom=    0.0000000   0.0000000   0.0000000   0.0000000   0.0000000   0.0000000   0.0000000   0.0000000   0.0000000   0.0000000
 NMagM=    0.0000000   2.7928460   2.7928460   0.0000000   2.7928460   2.7928460   0.0000000   2.7928460   2.7928460   0.0000000
 AtZNuc=   8.0000000   1.0000000   1.0000000   8.0000000   1.0000000   1.0000000   8.0000000   1.0000000   1.0000000   8.0000000

  Atom       231         232         233         234         235         236         237         238         239         240
 IAtWgt=           1           1          16           1           1          16           1           1          16           1
 AtmWgt=   1.0078250   1.0078250  15.9949146   1.0078250   1.0078250  15.9949146   1.0078250   1.0078250  15.9949146   1.0078250
 NucSpn=           1           1           0           1           1           0           1           1           0           1
 AtZEff=   0.0000000   0.0000000   0.0000000   0.0000000   0.0000000   0.0000000   0.0000000   0.0000000   0.0000000   0.0000000
 NQMom=    0.0000000   0.0000000   0.0000000   0.0000000   0.0000000   0.0000000   0.0000000   0.0000000   0.0000000   0.0000000
 NMagM=    2.7928460   2.7928460   0.0000000   2.7928460   2.7928460   0.0000000   2.7928460   2.7928460   0.0000000   2.7928460
 AtZNuc=   1.0000000   1.0000000   8.0000000   1.0000000   1.0000000   8.0000000   1.0000000   1.0000000   8.0000000   1.0000000

  Atom       241         242         243         244         245         246         247         248         249         250
 IAtWgt=           1          16           1           1          16           1           1          16           1           1
 AtmWgt=   1.0078250  15.9949146   1.0078250   1.0078250  15.9949146   1.0078250   1.0078250  15.9949146   1.0078250   1.0078250
 NucSpn=           1           0           1           1           0           1           1           0           1           1
 AtZEff=   0.0000000   0.0000000   0.0000000   0.0000000   0.0000000   0.0000000   0.0000000   0.0000000   0.0000000   0.0000000
 NQMom=    0.0000000   0.0000000   0.0000000   0.0000000   0.0000000   0.0000000   0.0000000   0.0000000   0.0000000   0.0000000
 NMagM=    2.7928460   0.0000000   2.7928460   2.7928460   0.0000000   2.7928460   2.7928460   0.0000000   2.7928460   2.7928460
 AtZNuc=   1.0000000   8.0000000   1.0000000   1.0000000   8.0000000   1.0000000   1.0000000   8.0000000   1.0000000   1.0000000

  Atom       251         252         253         254         255         256         257         258         259         260
 IAtWgt=          16           1           1          16           1           1          16           1           1          16
 AtmWgt=  15.9949146   1.0078250   1.0078250  15.9949146   1.0078250   1.0078250  15.9949146   1.0078250   1.0078250  15.9949146
 NucSpn=           0           1           1           0           1           1           0           1           1           0
 AtZEff=   0.0000000   0.0000000   0.0000000   0.0000000   0.0000000   0.0000000   0.0000000   0.0000000   0.0000000   0.0000000
 NQMom=    0.0000000   0.0000000   0.0000000   0.0000000   0.0000000   0.0000000   0.0000000   0.0000000   0.0000000   0.0000000
 NMagM=    0.0000000   2.7928460   2.7928460   0.0000000   2.7928460   2.7928460   0.0000000   2.7928460   2.7928460   0.0000000
 AtZNuc=   8.0000000   1.0000000   1.0000000   8.0000000   1.0000000   1.0000000   8.0000000   1.0000000   1.0000000   8.0000000

  Atom       261         262         263         264         265         266         267         268         269         270
 IAtWgt=           1           1          16           1           1          16           1           1          16           1
 AtmWgt=   1.0078250   1.0078250  15.9949146   1.0078250   1.0078250  15.9949146   1.0078250   1.0078250  15.9949146   1.0078250
 NucSpn=           1           1           0           1           1           0           1           1           0           1
 AtZEff=   0.0000000   0.0000000   0.0000000   0.0000000   0.0000000   0.0000000   0.0000000   0.0000000   0.0000000   0.0000000
 NQMom=    0.0000000   0.0000000   0.0000000   0.0000000   0.0000000   0.0000000   0.0000000   0.0000000   0.0000000   0.0000000
 NMagM=    2.7928460   2.7928460   0.0000000   2.7928460   2.7928460   0.0000000   2.7928460   2.7928460   0.0000000   2.7928460
 AtZNuc=   1.0000000   1.0000000   8.0000000   1.0000000   1.0000000   8.0000000   1.0000000   1.0000000   8.0000000   1.0000000

  Atom       271         272         273         274         275         276         277         278         279         280
 IAtWgt=           1          16           1           1          16           1           1          16           1           1
 AtmWgt=   1.0078250  15.9949146   1.0078250   1.0078250  15.9949146   1.0078250   1.0078250  15.9949146   1.0078250   1.0078250
 NucSpn=           1           0           1           1           0           1           1           0           1           1
 AtZEff=   0.0000000   0.0000000   0.0000000   0.0000000   0.0000000   0.0000000   0.0000000   0.0000000   0.0000000   0.0000000
 NQMom=    0.0000000   0.0000000   0.0000000   0.0000000   0.0000000   0.0000000   0.0000000   0.0000000   0.0000000   0.0000000
 NMagM=    2.7928460   0.0000000   2.7928460   2.7928460   0.0000000   2.7928460   2.7928460   0.0000000   2.7928460   2.7928460
 AtZNuc=   1.0000000   8.0000000   1.0000000   1.0000000   8.0000000   1.0000000   1.0000000   8.0000000   1.0000000   1.0000000

  Atom       281         282         283         284         285         286         287         288         289         290
 IAtWgt=          16           1           1          16           1           1          16           1           1          16
 AtmWgt=  15.9949146   1.0078250   1.0078250  15.9949146   1.0078250   1.0078250  15.9949146   1.0078250   1.0078250  15.9949146
 NucSpn=           0           1           1           0           1           1           0           1           1           0
 AtZEff=   0.0000000   0.0000000   0.0000000   0.0000000   0.0000000   0.0000000   0.0000000   0.0000000   0.0000000   0.0000000
 NQMom=    0.0000000   0.0000000   0.0000000   0.0000000   0.0000000   0.0000000   0.0000000   0.0000000   0.0000000   0.0000000
 NMagM=    0.0000000   2.7928460   2.7928460   0.0000000   2.7928460   2.7928460   0.0000000   2.7928460   2.7928460   0.0000000
 AtZNuc=   8.0000000   1.0000000   1.0000000   8.0000000   1.0000000   1.0000000   8.0000000   1.0000000   1.0000000   8.0000000

  Atom       291         292         293         294         295         296         297         298         299         300
 IAtWgt=           1           1          16           1           1          16           1           1          16           1
 AtmWgt=   1.0078250   1.0078250  15.9949146   1.0078250   1.0078250  15.9949146   1.0078250   1.0078250  15.9949146   1.0078250
 NucSpn=           1           1           0           1           1           0           1           1           0           1
 AtZEff=   0.0000000   0.0000000   0.0000000   0.0000000   0.0000000   0.0000000   0.0000000   0.0000000   0.0000000   0.0000000
 NQMom=    0.0000000   0.0000000   0.0000000   0.0000000   0.0000000   0.0000000   0.0000000   0.0000000   0.0000000   0.0000000
 NMagM=    2.7928460   2.7928460   0.0000000   2.7928460   2.7928460   0.0000000   2.7928460   2.7928460   0.0000000   2.7928460
 AtZNuc=   1.0000000   1.0000000   8.0000000   1.0000000   1.0000000   8.0000000   1.0000000   1.0000000   8.0000000   1.0000000

  Atom       301         302         303         304         305         306         307         308         309         310
 IAtWgt=           1          16           1           1          16           1           1          16           1           1
 AtmWgt=   1.0078250  15.9949146   1.0078250   1.0078250  15.9949146   1.0078250   1.0078250  15.9949146   1.0078250   1.0078250
 NucSpn=           1           0           1           1           0           1           1           0           1           1
 AtZEff=   0.0000000   0.0000000   0.0000000   0.0000000   0.0000000   0.0000000   0.0000000   0.0000000   0.0000000   0.0000000
 NQMom=    0.0000000   0.0000000   0.0000000   0.0000000   0.0000000   0.0000000   0.0000000   0.0000000   0.0000000   0.0000000
 NMagM=    2.7928460   0.0000000   2.7928460   2.7928460   0.0000000   2.7928460   2.7928460   0.0000000   2.7928460   2.7928460
 AtZNuc=   1.0000000   8.0000000   1.0000000   1.0000000   8.0000000   1.0000000   1.0000000   8.0000000   1.0000000   1.0000000

  Atom       311         312         313         314         315         316         317         318         319         320
 IAtWgt=          16           1           1          16           1           1          16           1           1          16
 AtmWgt=  15.9949146   1.0078250   1.0078250  15.9949146   1.0078250   1.0078250  15.9949146   1.0078250   1.0078250  15.9949146
 NucSpn=           0           1           1           0           1           1           0           1           1           0
 AtZEff=   0.0000000   0.0000000   0.0000000   0.0000000   0.0000000   0.0000000   0.0000000   0.0000000   0.0000000   0.0000000
 NQMom=    0.0000000   0.0000000   0.0000000   0.0000000   0.0000000   0.0000000   0.0000000   0.0000000   0.0000000   0.0000000
 NMagM=    0.0000000   2.7928460   2.7928460   0.0000000   2.7928460   2.7928460   0.0000000   2.7928460   2.7928460   0.0000000
 AtZNuc=   8.0000000   1.0000000   1.0000000   8.0000000   1.0000000   1.0000000   8.0000000   1.0000000   1.0000000   8.0000000

  Atom       321         322         323         324         325         326         327         328         329         330
 IAtWgt=           1           1          16           1           1          16           1           1          16           1
 AtmWgt=   1.0078250   1.0078250  15.9949146   1.0078250   1.0078250  15.9949146   1.0078250   1.0078250  15.9949146   1.0078250
 NucSpn=           1           1           0           1           1           0           1           1           0           1
 AtZEff=   0.0000000   0.0000000   0.0000000   0.0000000   0.0000000   0.0000000   0.0000000   0.0000000   0.0000000   0.0000000
 NQMom=    0.0000000   0.0000000   0.0000000   0.0000000   0.0000000   0.0000000   0.0000000   0.0000000   0.0000000   0.0000000
 NMagM=    2.7928460   2.7928460   0.0000000   2.7928460   2.7928460   0.0000000   2.7928460   2.7928460   0.0000000   2.7928460
 AtZNuc=   1.0000000   1.0000000   8.0000000   1.0000000   1.0000000   8.0000000   1.0000000   1.0000000   8.0000000   1.0000000

  Atom       331         332         333         334         335         336         337         338         339         340
 IAtWgt=           1          16           1           1          16           1           1          16           1           1
 AtmWgt=   1.0078250  15.9949146   1.0078250   1.0078250  15.9949146   1.0078250   1.0078250  15.9949146   1.0078250   1.0078250
 NucSpn=           1           0           1           1           0           1           1           0           1           1
 AtZEff=   0.0000000   0.0000000   0.0000000   0.0000000   0.0000000   0.0000000   0.0000000   0.0000000   0.0000000   0.0000000
 NQMom=    0.0000000   0.0000000   0.0000000   0.0000000   0.0000000   0.0000000   0.0000000   0.0000000   0.0000000   0.0000000
 NMagM=    2.7928460   0.0000000   2.7928460   2.7928460   0.0000000   2.7928460   2.7928460   0.0000000   2.7928460   2.7928460
 AtZNuc=   1.0000000   8.0000000   1.0000000   1.0000000   8.0000000   1.0000000   1.0000000   8.0000000   1.0000000   1.0000000

  Atom       341         342         343         344         345         346         347         348         349         350
 IAtWgt=          16           1           1          16           1           1          16           1           1          16
 AtmWgt=  15.9949146   1.0078250   1.0078250  15.9949146   1.0078250   1.0078250  15.9949146   1.0078250   1.0078250  15.9949146
 NucSpn=           0           1           1           0           1           1           0           1           1           0
 AtZEff=   0.0000000   0.0000000   0.0000000   0.0000000   0.0000000   0.0000000   0.0000000   0.0000000   0.0000000   0.0000000
 NQMom=    0.0000000   0.0000000   0.0000000   0.0000000   0.0000000   0.0000000   0.0000000   0.0000000   0.0000000   0.0000000
 NMagM=    0.0000000   2.7928460   2.7928460   0.0000000   2.7928460   2.7928460   0.0000000   2.7928460   2.7928460   0.0000000
 AtZNuc=   8.0000000   1.0000000   1.0000000   8.0000000   1.0000000   1.0000000   8.0000000   1.0000000   1.0000000   8.0000000

  Atom       351         352         353         354         355         356         357         358         359         360
 IAtWgt=           1           1          16           1           1          16           1           1          16           1
 AtmWgt=   1.0078250   1.0078250  15.9949146   1.0078250   1.0078250  15.9949146   1.0078250   1.0078250  15.9949146   1.0078250
 NucSpn=           1           1           0           1           1           0           1           1           0           1
 AtZEff=   0.0000000   0.0000000   0.0000000   0.0000000   0.0000000   0.0000000   0.0000000   0.0000000   0.0000000   0.0000000
 NQMom=    0.0000000   0.0000000   0.0000000   0.0000000   0.0000000   0.0000000   0.0000000   0.0000000   0.0000000   0.0000000
 NMagM=    2.7928460   2.7928460   0.0000000   2.7928460   2.7928460   0.0000000   2.7928460   2.7928460   0.0000000   2.7928460
 AtZNuc=   1.0000000   1.0000000   8.0000000   1.0000000   1.0000000   8.0000000   1.0000000   1.0000000   8.0000000   1.0000000

  Atom       361         362         363         364         365         366         367         368         369         370
 IAtWgt=           1          16           1           1          16           1           1          16           1           1
 AtmWgt=   1.0078250  15.9949146   1.0078250   1.0078250  15.9949146   1.0078250   1.0078250  15.9949146   1.0078250   1.0078250
 NucSpn=           1           0           1           1           0           1           1           0           1           1
 AtZEff=   0.0000000   0.0000000   0.0000000   0.0000000   0.0000000   0.0000000   0.0000000   0.0000000   0.0000000   0.0000000
 NQMom=    0.0000000   0.0000000   0.0000000   0.0000000   0.0000000   0.0000000   0.0000000   0.0000000   0.0000000   0.0000000
 NMagM=    2.7928460   0.0000000   2.7928460   2.7928460   0.0000000   2.7928460   2.7928460   0.0000000   2.7928460   2.7928460
 AtZNuc=   1.0000000   8.0000000   1.0000000   1.0000000   8.0000000   1.0000000   1.0000000   8.0000000   1.0000000   1.0000000

  Atom       371         372         373         374         375         376         377         378         379         380
 IAtWgt=          16           1           1          16           1           1          16           1           1          16
 AtmWgt=  15.9949146   1.0078250   1.0078250  15.9949146   1.0078250   1.0078250  15.9949146   1.0078250   1.0078250  15.9949146
 NucSpn=           0           1           1           0           1           1           0           1           1           0
 AtZEff=   0.0000000   0.0000000   0.0000000   0.0000000   0.0000000   0.0000000   0.0000000   0.0000000   0.0000000   0.0000000
 NQMom=    0.0000000   0.0000000   0.0000000   0.0000000   0.0000000   0.0000000   0.0000000   0.0000000   0.0000000   0.0000000
 NMagM=    0.0000000   2.7928460   2.7928460   0.0000000   2.7928460   2.7928460   0.0000000   2.7928460   2.7928460   0.0000000
 AtZNuc=   8.0000000   1.0000000   1.0000000   8.0000000   1.0000000   1.0000000   8.0000000   1.0000000   1.0000000   8.0000000

  Atom       381         382         383         384         385
 IAtWgt=           1           1          16           1           1
 AtmWgt=   1.0078250   1.0078250  15.9949146   1.0078250   1.0078250
 NucSpn=           1           1           0           1           1
 AtZEff=   0.0000000   0.0000000   0.0000000   0.0000000   0.0000000
 NQMom=    0.0000000   0.0000000   0.0000000   0.0000000   0.0000000
 NMagM=    2.7928460   2.7928460   0.0000000   2.7928460   2.7928460
 AtZNuc=   1.0000000   1.0000000   8.0000000   1.0000000   1.0000000
 Leave Link  101 at Tue May 15 15:05:52 2018, MaxMem= 14763950080 cpu:        33.3
 (Enter /cm/shared/gaussian/g09.e01/intel64-sandybridge/g09/l103.exe)

 GradGradGradGradGradGradGradGradGradGradGradGradGradGradGradGradGradGrad
 Berny optimization.
 Initialization pass.
 Trust Radius=3.00D-01 FncErr=1.00D-07 GrdErr=1.00D-07
 Number of steps in this run=      2 maximum allowed number of steps=      2.
 GradGradGradGradGradGradGradGradGradGradGradGradGradGradGradGradGradGrad

 Leave Link  103 at Tue May 15 15:05:52 2018, MaxMem= 14763950080 cpu:         3.7
 (Enter /cm/shared/gaussian/g09.e01/intel64-sandybridge/g09/l202.exe)
 Symmetry turned off by external request.
 Stoichiometry    BrH256O128(1-)
 Framework group  C1[X(BrH256O128)]
 Deg. of freedom  1149
 Full point group                 C1      NOp   1
                          Input orientation:                          
 ---------------------------------------------------------------------
 Center     Atomic      Atomic             Coordinates (Angstroms)
 Number     Number       Type             X           Y           Z
 ---------------------------------------------------------------------
      1         35           0       20.000000   20.000000   20.000000
      2          8           0       23.110000   20.110000   19.510000
      3          1           0       23.390000   20.920000   19.930000
      4          1           0       22.200000   20.000000   19.790000
      5          8           0       16.910000   20.420000   19.330000
      6          1           0       16.610000   21.190000   19.810000
      7          1           0       17.850000   20.380000   19.520000
      8          8           0       19.320000   23.040000   20.800000
      9          1           0       20.000000   23.510000   20.320000
     10          1           0       19.430000   22.130000   20.550000
     11          8           0       19.440000   20.460000   16.830000
     12          1           0       20.320000   20.710000   16.560000
     13          1           0       19.470000   20.440000   17.790000
     14          8           0       19.700000   17.190000   18.220000
     15          1           0       18.850000   16.900000   18.560000
     16          1           0       19.690000   18.150000   18.330000
     17          8           0       19.070000   20.270000   23.280000
     18          1           0       19.670000   20.300000   22.540000
     19          1           0       18.230000   20.000000   22.910000
     20          8           0       23.230000   17.410000   18.970000
     21          1           0       22.910000   18.280000   19.190000
     22          1           0       24.180000   17.460000   19.070000
     23          8           0       22.260000   20.330000   16.740000
     24          1           0       22.640000   20.430000   17.610000
     25          1           0       22.850000   20.830000   16.170000
     26          8           0       18.890000   15.860000   21.400000
     27          1           0       19.180000   16.620000   20.900000
     28          1           0       19.150000   15.100000   20.880000
     29          8           0       21.350000   17.750000   16.090000
     30          1           0       21.380000   18.580000   16.560000
     31          1           0       20.730000   17.210000   16.590000
     32          8           0       16.710000   22.750000   20.880000
     33          1           0       17.620000   23.060000   20.920000
     34          1           0       16.320000   23.240000   20.160000
     35          8           0       23.020000   22.760000   20.180000
     36          1           0       22.510000   23.100000   19.450000
     37          1           0       23.220000   23.530000   20.720000
     38          8           0       17.230000   18.740000   16.250000
     39          1           0       17.790000   19.470000   16.510000
     40          1           0       17.730000   18.300000   15.560000
     41          8           0       22.210000   16.150000   21.380000
     42          1           0       22.000000   16.370000   20.470000
     43          1           0       22.780000   15.380000   21.310000
     44          8           0       22.360000   18.010000   23.210000
     45          1           0       22.000000   17.310000   22.660000
     46          1           0       21.660000   18.200000   23.840000
     47          8           0       15.280000   18.920000   21.040000
     48          1           0       15.660000   19.160000   21.890000
     49          1           0       15.620000   19.580000   20.440000
     50          8           0       18.170000   22.720000   16.070000
     51          1           0       18.900000   23.090000   15.570000
     52          1           0       18.450000   21.810000   16.250000
     53          8           0       21.240000   23.950000   18.310000
     54          1           0       21.900000   23.650000   17.680000
     55          1           0       20.670000   24.530000   17.800000
     56          8           0       18.650000   23.850000   23.370000
     57          1           0       17.770000   24.150000   23.170000
     58          1           0       19.020000   23.620000   22.520000
     59          8           0       15.140000   21.430000   17.570000
     60          1           0       15.840000   21.120000   18.150000
     61          1           0       15.070000   22.360000   17.750000
     62          8           0       24.070000   21.120000   23.090000
     63          1           0       24.130000   21.410000   24.000000
     64          1           0       23.650000   20.260000   23.140000
     65          8           0       16.520000   19.520000   23.420000
     66          1           0       16.450000   20.460000   23.270000
     67          1           0       16.980000   19.440000   24.260000
     68          8           0       19.570000   21.620000   25.660000
     69          1           0       19.420000   22.570000   25.590000
     70          1           0       19.300000   21.280000   24.810000
     71          8           0       25.390000   21.440000   20.800000
     72          1           0       24.720000   21.890000   20.280000
     73          1           0       24.950000   21.210000   21.620000
     74          8           0       16.680000   16.500000   18.190000
     75          1           0       16.630000   16.990000   17.370000
     76          1           0       16.010000   16.910000   18.750000
     77          8           0       15.620000   22.060000   23.260000
     78          1           0       15.770000   22.310000   22.340000
     79          1           0       14.830000   22.540000   23.510000
     80          8           0       16.020000   15.330000   21.200000
     81          1           0       16.750000   15.720000   20.730000
     82          1           0       15.890000   15.910000   21.950000
     83          8           0       22.210000   14.440000   19.060000
     84          1           0       22.490000   15.310000   18.780000
     85          1           0       21.260000   14.450000   18.960000
     86          8           0       25.910000   18.550000   19.920000
     87          1           0       26.150000   18.610000   19.000000
     88          1           0       25.500000   19.390000   20.120000
     89          8           0       17.930000   19.260000   25.890000
     90          1           0       17.970000   20.100000   26.340000
     91          1           0       18.770000   19.200000   25.410000
     92          8           0       23.560000   23.200000   16.670000
     93          1           0       23.910000   23.250000   17.560000
     94          1           0       24.320000   23.020000   16.120000
     95          8           0       17.530000   25.360000   20.340000
     96          1           0       17.640000   25.150000   21.270000
     97          1           0       18.420000   25.530000   20.030000
     98          8           0       19.890000   20.520000   13.560000
     99          1           0       19.320000   20.160000   14.240000
    100          1           0       19.360000   20.480000   12.760000
    101          8           0       18.870000   14.880000   23.860000
    102          1           0       19.560000   15.470000   24.150000
    103          1           0       18.460000   15.330000   23.120000
    104          8           0       21.290000   24.560000   24.750000
    105          1           0       20.720000   24.020000   24.220000
    106          1           0       20.720000   24.910000   25.440000
    107          8           0       24.220000   17.700000   15.550000
    108          1           0       24.240000   18.630000   15.340000
    109          1           0       23.290000   17.500000   15.680000
    110          8           0       15.870000   24.100000   18.450000
    111          1           0       16.620000   24.700000   18.490000
    112          1           0       15.590000   24.130000   17.530000
    113          8           0       18.450000   25.390000   17.240000
    114          1           0       18.570000   26.210000   16.780000
    115          1           0       18.490000   24.720000   16.560000
    116          8           0       14.380000   18.360000   16.940000
    117          1           0       13.610000   18.680000   17.390000
    118          1           0       14.920000   19.140000   16.800000
    119          8           0       20.860000   17.480000   25.460000
    120          1           0       21.550000   17.010000   25.920000
    121          1           0       20.610000   18.190000   26.060000
    122          8           0       15.800000   16.760000   24.010000
    123          1           0       15.690000   17.580000   23.540000
    124          1           0       15.780000   17.000000   24.940000
    125          8           0       23.020000   15.620000   24.550000
    126          1           0       23.670000   15.360000   23.900000
    127          1           0       22.700000   16.470000   24.260000
    128          8           0       21.920000   18.940000   13.370000
    129          1           0       21.050000   19.330000   13.420000
    130          1           0       22.140000   18.730000   14.280000
    131          8           0       25.690000   17.870000   23.530000
    132          1           0       26.110000   18.240000   22.760000
    133          1           0       24.820000   17.610000   23.230000
    134          8           0       19.460000   13.700000   19.150000
    135          1           0       18.580000   13.330000   19.250000
    136          1           0       20.040000   13.030000   19.500000
    137          8           0       13.210000   17.380000   19.670000
    138          1           0       13.120000   16.540000   20.120000
    139          1           0       13.980000   17.780000   20.060000
    140          8           0       21.920000   22.120000   13.790000
    141          1           0       21.320000   21.370000   13.860000
    142          1           0       22.240000   22.090000   12.890000
    143          8           0       24.000000   24.660000   23.580000
    144          1           0       24.060000   23.700000   23.610000
    145          1           0       23.120000   24.850000   23.910000
    146          8           0       16.300000   13.970000   17.480000
    147          1           0       16.510000   14.830000   17.830000
    148          1           0       17.080000   13.710000   16.990000
    149          8           0       24.160000   20.780000   14.920000
    150          1           0       23.700000   21.480000   14.450000
    151          1           0       24.410000   20.160000   14.240000
    152          8           0       24.990000   24.200000   18.710000
    153          1           0       25.670000   23.600000   19.020000
    154          1           0       25.480000   24.910000   18.290000
    155          8           0       13.020000   19.460000   22.430000
    156          1           0       12.330000   18.830000   22.230000
    157          1           0       13.580000   19.460000   21.660000
    158          8           0       16.050000   24.520000   15.420000
    159          1           0       16.730000   23.900000   15.690000
    160          1           0       16.220000   24.670000   14.490000
    161          8           0       20.000000   13.990000   16.530000
    162          1           0       19.680000   13.820000   17.420000
    163          1           0       20.940000   13.820000   16.580000
    164          8           0       26.530000   18.430000   17.250000
    165          1           0       27.150000   17.740000   17.010000
    166          1           0       25.680000   18.100000   16.980000
    167          8           0       20.080000   24.100000   14.490000
    168          1           0       20.520000   23.300000   14.180000
    169          1           0       20.790000   24.730000   14.590000
    170          8           0       26.090000   16.100000   21.380000
    171          1           0       26.510000   15.610000   20.670000
    172          1           0       25.970000   16.980000   21.010000
    173          8           0       21.220000   15.800000   13.950000
    174          1           0       21.090000   15.700000   14.890000
    175          1           0       20.790000   15.050000   13.560000
    176          8           0       20.480000   19.630000   27.190000
    177          1           0       20.000000   19.750000   28.010000
    178          1           0       20.380000   20.470000   26.740000
    179          8           0       23.800000   19.250000   26.080000
    180          1           0       23.150000   19.900000   26.360000
    181          1           0       24.220000   19.650000   25.320000
    182          8           0       22.180000   27.440000   19.670000
    183          1           0       21.950000   26.530000   19.480000
    184          1           0       22.630000   27.400000   20.520000
    185          8           0       22.120000   25.590000   15.580000
    186          1           0       22.610000   26.410000   15.550000
    187          1           0       22.790000   24.920000   15.750000
    188          8           0       16.280000   25.340000   22.870000
    189          1           0       15.580000   24.870000   23.310000
    190          1           0       15.980000   26.240000   22.820000
    191          8           0       17.510000   16.420000   14.320000
    192          1           0       17.640000   15.500000   14.560000
    193          1           0       16.570000   16.570000   14.460000
    194          8           0       14.930000   16.600000   15.030000
    195          1           0       14.760000   17.130000   15.810000
    196          1           0       14.730000   15.710000   15.300000
    197          8           0       16.320000   23.490000   26.250000
    198          1           0       16.160000   22.980000   25.450000
    199          1           0       15.680000   23.160000   26.870000
    200          8           0       27.110000   20.570000   23.410000
    201          1           0       26.390000   19.960000   23.560000
    202          1           0       27.890000   20.090000   23.690000
    203          8           0       19.400000   27.310000   19.490000
    204          1           0       19.150000   27.510000   18.590000
    205          1           0       20.350000   27.440000   19.510000
    206          8           0       27.300000   21.070000   17.250000
    207          1           0       26.860000   20.220000   17.300000
[...]
   Z335      52.19424  -0.00906   0.00000  -0.00407  -0.00444  52.18980
   X336      44.55974   0.00390   0.00000   0.00200   0.00257  44.56231
   Y336      32.55998   0.00621   0.00000   0.00893   0.00843  32.56841
   Z336      52.42100  -0.00556   0.00000  -0.01014  -0.01053  52.41047
   X337      41.95192  -0.00847   0.00000  -0.00691  -0.00629  41.94563
   Y337      32.21983   0.00183   0.00000  -0.00065  -0.00128  32.21855
   Z337      53.55484   0.01140   0.00000   0.00959   0.00927  53.56411
   X338      23.37591  -0.00708   0.00000  -0.00825  -0.00829  23.36763
   Y338      30.55687   0.00275   0.00000   0.00090   0.00028  30.55715
   Z338      32.54108  -0.01147   0.00000  -0.00926  -0.00900  32.53208
   X339      24.11291   0.00235   0.00000  -0.00041  -0.00036  24.11255
   Y339      29.36634  -0.00738   0.00000  -0.00599  -0.00662  29.35972
   Z339      33.69382   0.00343   0.00000  -0.00264  -0.00244  33.69137
   X340      22.92238   0.00336   0.00000   0.00627   0.00622  22.92860
   Y340      31.97417   0.00007   0.00000  -0.00118  -0.00185  31.97231
   Z340      33.58043   0.00482   0.00000   0.00541   0.00573  33.58617
   X341      38.87167   0.00280   0.00000   0.00796   0.00749  38.87916
   Y341      52.91233   0.00403   0.00000   0.00784   0.00741  52.91974
   Z341      44.38967   0.00150   0.00000   0.00167   0.00216  44.39183
   X342      40.38345   0.00716   0.00000   0.01084   0.01033  40.39377
   Y342      53.21469  -0.00222   0.00000  -0.00463  -0.00498  53.20971
   Z342      43.42591  -0.00348   0.00000  -0.00406  -0.00361  43.42229
   X343      39.45748  -0.00235   0.00000  -0.00384  -0.00423  39.45325
   Y343      52.17534  -0.00333   0.00000  -0.00466  -0.00513  52.17021
   Z343      45.93924   0.00305   0.00000   0.00290   0.00335  45.94259
   X344      36.05597  -0.00560   0.00000  -0.00448  -0.00539  36.05059
   Y344      53.17689  -0.00879   0.00000  -0.00723  -0.00736  53.16954
   Z344      31.93637   0.00008   0.00000  -0.00769  -0.00709  31.92928
   X345      37.45437   0.00837   0.00000   0.00704   0.00608  37.46045
   Y345      53.91389   0.00466   0.00000   0.00367   0.00363  53.91751
   Z345      31.06710  -0.00434   0.00000  -0.00268  -0.00210  31.06499
   X346      34.63868  -0.00564   0.00000  -0.00492  -0.00588  34.63280
   Y346      54.23514   0.00477   0.00000   0.00502   0.00485  54.23999
   Z346      31.53953  -0.00104   0.00000  -0.00086  -0.00018  31.53935
   X347      52.72336   0.00917   0.00000   0.00298   0.00292  52.72628
   Y347      43.53929   0.01907   0.00000   0.00945   0.00947  43.54876
   Z347      46.12821   0.01121   0.00000   0.00763   0.00733  46.13555
   X348      51.94857  -0.01044   0.00000  -0.00596  -0.00598  51.94259
   Y348      42.06530  -0.02174   0.00000  -0.01426  -0.01424  42.05106
   Z348      45.44791  -0.01027   0.00000  -0.00744  -0.00776  45.44015
   X349      53.17689   0.00037   0.00000   0.00145   0.00147  53.17836
   Y349      43.08576  -0.00011   0.00000  -0.00021  -0.00023  43.08553
   Z349      47.82897   0.00027   0.00000   0.00295   0.00262  47.83159
   X350      51.36276   0.01058   0.00000   0.00434   0.00380  51.36655
   Y350      49.24626   0.00280   0.00000   0.00240   0.00263  49.24890
   Z350      38.38034  -0.02046   0.00000  -0.01616  -0.01622  38.36412
   X351      50.22892  -0.01035   0.00000  -0.00849  -0.00908  50.21985
   Y351      50.62576   0.00914   0.00000   0.00637   0.00655  50.63231
   Z351      38.62600   0.00426   0.00000   0.00400   0.00403  38.63003
   X352      50.98481  -0.00150   0.00000   0.00348   0.00303  50.98784
   Y352      48.11243  -0.00887   0.00000  -0.00394  -0.00377  48.10866
   Z352      39.74094   0.01304   0.00000   0.00669   0.00661  39.74755
   X353      44.76761   0.01523   0.00000   0.00929   0.00902  44.77663
   Y353      28.68604  -0.00100   0.00000   0.00096   0.00145  28.68749
   Z353      23.37591  -0.00657   0.00000  -0.00309  -0.00362  23.37230
   X354      43.31252  -0.01270   0.00000  -0.00647  -0.00674  43.30578
   Y354      29.42304   0.00441   0.00000   0.00116   0.00157  29.42461
   Z354      24.15070   0.01040   0.00000   0.01094   0.01048  24.16118
   X355      44.23849  -0.00245   0.00000  -0.00190  -0.00212  44.23637
   Y355      27.00419  -0.00153   0.00000  -0.00021   0.00028  27.00446
   Z355      22.94128   0.00017   0.00000   0.00089   0.00032  22.94159
   X356      47.14867   0.00471   0.00000   0.00644   0.00570  47.15437
   Y356      53.23359   0.00847   0.00000   0.00536   0.00548  53.23907
   Z356      36.84966   0.00946   0.00000   0.00436   0.00458  36.85424
   X357      47.96125   0.00314   0.00000   0.00224   0.00150  47.96275
   Y357      52.30762  -0.00760   0.00000  -0.00671  -0.00651  52.30111
   Z357      35.52685  -0.00908   0.00000  -0.00661  -0.00645  35.52040
   X358      45.37232  -0.00358   0.00000   0.00113   0.00040  45.37272
   Y358      52.89343  -0.00292   0.00000  -0.00270  -0.00263  52.89081
   Z358      36.62289  -0.00436   0.00000  -0.00545  -0.00518  36.61771
   X359      38.24806   0.00743   0.00000   0.01400   0.01478  38.26284
   Y359      26.98529   0.00440   0.00000   0.00513   0.00439  26.98968
   Z359      52.47769   0.01210   0.00000   0.01500   0.01463  52.49233
   X360      38.70159  -0.00442   0.00000  -0.01019  -0.00944  38.69215
   Y360      26.30499  -0.00380   0.00000  -0.00420  -0.00487  26.30012
   Z360      50.85253  -0.00194   0.00000   0.00368   0.00327  50.85580
   X361      38.11578  -0.00479   0.00000  -0.00927  -0.00857  38.10720
   Y361      28.78053  -0.00193   0.00000  -0.00114  -0.00188  28.77865
   Z361      52.19424  -0.00145   0.00000  -0.00203  -0.00233  52.19190
   X362      24.86880  -0.00774   0.00000  -0.00423  -0.00463  24.86417
   Y362      33.84500  -0.00548   0.00000  -0.00069  -0.00101  33.84399
   Z362      25.37902  -0.01710   0.00000  -0.01949  -0.01917  25.35985
   X363      24.71762  -0.00194   0.00000  -0.00362  -0.00406  24.71356
   Y363      35.47016   0.00742   0.00000   0.00243   0.00208  35.47224
   Z363      26.17271   0.00576   0.00000   0.00356   0.00394  26.17665
   X364      26.36168   0.00117   0.00000  -0.00615  -0.00650  26.35518
   Y364      33.12690  -0.00481   0.00000  -0.00592  -0.00621  33.12069
   Z364      26.11602   0.00521   0.00000   0.00409   0.00433  26.12035
   X365      23.26253  -0.00634   0.00000  -0.01007  -0.01065  23.25188
   Y365      42.59443  -0.01082   0.00000  -0.00341  -0.00393  42.59049
   Z365      29.66870   0.00029   0.00000   0.00839   0.00906  29.67776
   X366      23.62158   0.00634   0.00000   0.00742   0.00682  23.62840
   Y366      43.99282   0.01671   0.00000   0.01568   0.01513  44.00795
   Z366      30.72695   0.01098   0.00000   0.00786   0.00857  30.73552
   X367      21.67516  -0.00589   0.00000  -0.00607  -0.00670  21.66846
   Y367      42.99127   0.00299   0.00000   0.00515   0.00459  42.99586
   Z367      28.89391  -0.00455   0.00000  -0.00630  -0.00556  28.88836
   X368      22.20428  -0.01996   0.00000  -0.00828  -0.00863  22.19565
   Y368      46.99749  -0.00075   0.00000  -0.00158  -0.00255  46.99494
   Z368      41.30941   0.03148   0.00000   0.02566   0.02652  41.33593
   X369      22.14759  -0.00398   0.00000  -0.00769  -0.00796  22.13963
   Y369      45.25894  -0.00733   0.00000  -0.01129  -0.01227  45.24667
   Z369      41.83854  -0.00159   0.00000  -0.00281  -0.00201  41.83653
   X370      23.41371   0.02095   0.00000   0.01165   0.01125  23.42496
   Y370      47.01639   0.00299   0.00000   0.00660   0.00573  47.02212
   Z370      39.96771  -0.02010   0.00000  -0.00786  -0.00705  39.96066
   X371      49.92656  -0.00272   0.00000   0.00151   0.00082  49.92738
   Y371      41.70626   0.01123   0.00000   0.00762   0.00824  41.71449
   Z371      25.53020  -0.00397   0.00000  -0.00413  -0.00439  25.52581
   X372      51.17378   0.00424   0.00000   0.00103   0.00040  51.17419
   Y372      40.59132  -0.00830   0.00000  -0.00728  -0.00664  40.58467
   Z372      26.21050   0.00278   0.00000   0.00150   0.00115  26.21165
   X373      48.71714  -0.00215   0.00000  -0.00165  -0.00233  48.71481
   Y373      40.59132  -0.00151   0.00000   0.00032   0.00092  40.59224
   Z373      24.75541   0.00050   0.00000   0.00228   0.00201  24.75743
   X374      48.33919   0.03098   0.00000   0.02658   0.02724  48.36643
   Y374      26.72073  -0.00288   0.00000   0.00365   0.00342  26.72415
   Z374      48.66045  -0.00263   0.00000   0.00450   0.00378  48.66422
   X375      48.03684  -0.00074   0.00000   0.00158   0.00215  48.03899
   Y375      27.41993   0.00024   0.00000  -0.00208  -0.00226  27.41766
   Z375      47.01639  -0.00167   0.00000   0.00119   0.00050  47.01689
   X376      46.80852  -0.01929   0.00000  -0.01057  -0.00989  46.79862
   Y376      27.02308  -0.00396   0.00000  -0.01262  -0.01294  27.01014
   Z376      49.56752   0.00698   0.00000   0.00125   0.00059  49.56811
   X377      49.60531  -0.00538   0.00000  -0.00509  -0.00584  49.59947
   Y377      49.51082   0.00783   0.00000   0.00604   0.00641  49.51723
   Z377      32.33321   0.01055   0.00000   0.00500   0.00501  32.33823
   X378      51.41945   0.00279   0.00000   0.00053  -0.00023  51.41922
   Y378      49.64311  -0.00261   0.00000  -0.00476  -0.00432  49.63878
   Z378      32.40880   0.00447   0.00000   0.00878   0.00874  32.41754
   X379      49.26516   0.00021   0.00000   0.00257   0.00180  49.26696
   Y379      48.66045  -0.00572   0.00000  -0.00336  -0.00295  48.65750
   Z379      30.78364  -0.01212   0.00000  -0.00854  -0.00855  30.77509
   X380      32.38991   0.00362   0.00000   0.00273   0.00309  32.39299
   Y380      39.89212   0.01960   0.00000   0.01359   0.01256  39.90468
   Z380      54.48080  -0.00765   0.00000  -0.00980  -0.00953  54.47128
   X381      33.41036   0.00303   0.00000  -0.00229  -0.00187  33.40849
   Y381      38.41813  -0.01502   0.00000  -0.00991  -0.01090  38.40723
   Z381      54.57529   0.00311   0.00000   0.00384   0.00403  54.57932
   X382      30.70805  -0.00709   0.00000  -0.00238  -0.00198  30.70607
   Y382      39.32520  -0.00706   0.00000  -0.00501  -0.00611  39.31909
   Z382      54.82096   0.00159   0.00000  -0.00003   0.00028  54.82123
   X383      40.45904   0.00377   0.00000   0.00243   0.00159  40.46063
   Y383      41.42280   0.00593   0.00000   0.00141   0.00183  41.42463
   Z383      20.78699   0.00727   0.00000   0.00571   0.00576  20.79275
   X384      39.06064  -0.00642   0.00000  -0.00274  -0.00361  39.05702
   Y384      41.30941  -0.00132   0.00000  -0.00121  -0.00080  41.30861
   Z384      19.65315  -0.00637   0.00000  -0.00455  -0.00446  19.64869
   X385      41.17713   0.00545   0.00000   0.00778   0.00701  41.18414
   Y385      39.75984  -0.00638   0.00000  -0.00464  -0.00420  39.75564
   Z385      20.82478  -0.00339   0.00000  -0.00569  -0.00572  20.81906
         Item               Value     Threshold  Converged?
 Maximum Force            0.033230     0.000450     NO 
 RMS     Force            0.010520     0.000300     NO 
 Maximum Displacement     0.029318     0.001800     NO 
 RMS     Displacement     0.008817     0.001200     NO 
 Predicted change in Energy=-7.324069D-02
 GradGradGradGradGradGradGradGradGradGradGradGradGradGradGradGradGradGrad

 Leave Link  103 at Tue May 15 17:43:49 2018, MaxMem= 14763950080 cpu:      2886.1
 (Enter /cm/shared/gaussian/g09.e01/intel64-sandybridge/g09/l9999.exe)
 1\1\GINC-POPLE04\Force\RPBE1PBE\CC-pVDZ\Br1H256O128(1-)\M.PELUSO\15-Ma
 y-2018\0\\#p PBE1PBE/cc-pvDZ force Counterpoise=2 noSymm\\forces on ch
 loride comput - NWATER: 128\\-1,1\Br,20.,20.,20.\O,23.11,20.11,19.51\H
 ,23.39,20.92,19.93\H,22.2,20.,19.79\O,16.91,20.42,19.33\H,16.61,21.19,
 19.81\H,17.85,20.38,19.52\O,19.32,23.04,20.8\H,20.,23.51,20.32\H,19.43
 ,22.13,20.55\O,19.44,20.46,16.83\H,20.32,20.71,16.56\H,19.47,20.44,17.
 79\O,19.7,17.19,18.22\H,18.85,16.9,18.56\H,19.69,18.15,18.33\O,19.07,2
 0.27,23.28\H,19.67,20.3,22.54\H,18.23,20.,22.91\O,23.23,17.41,18.97\H,
 22.91,18.28,19.19\H,24.18,17.46,19.07\O,22.26,20.33,16.74\H,22.64,20.4
 3,17.61\H,22.85,20.83,16.17\O,18.89,15.86,21.4\H,19.18,16.62,20.9\H,19
 .15,15.1,20.88\O,21.35,17.75,16.09\H,21.38,18.58,16.56\H,20.73,17.21,1
 6.59\O,16.71,22.75,20.88\H,17.62,23.06,20.92\H,16.32,23.24,20.16\O,23.
 02,22.76,20.18\H,22.51,23.1,19.45\H,23.22,23.53,20.72\O,17.23,18.74,16
 .25\H,17.79,19.47,16.51\H,17.73,18.3,15.56\O,22.21,16.15,21.38\H,22.,1
 6.37,20.47\H,22.78,15.38,21.31\O,22.36,18.01,23.21\H,22.,17.31,22.66\H
 ,21.66,18.2,23.84\O,15.28,18.92,21.04\H,15.66,19.16,21.89\H,15.62,19.5
 8,20.44\O,18.17,22.72,16.07\H,18.9,23.09,15.57\H,18.45,21.81,16.25\O,2
 1.24,23.95,18.31\H,21.9,23.65,17.68\H,20.67,24.53,17.8\O,18.65,23.85,2
 3.37\H,17.77,24.15,23.17\H,19.02,23.62,22.52\O,15.14,21.43,17.57\H,15.
 84,21.12,18.15\H,15.07,22.36,17.75\O,24.07,21.12,23.09\H,24.13,21.41,2
 4.\H,23.65,20.26,23.14\O,16.52,19.52,23.42\H,16.45,20.46,23.27\H,16.98
 ,19.44,24.26\O,19.57,21.62,25.66\H,19.42,22.57,25.59\H,19.3,21.28,24.8
 1\O,25.39,21.44,20.8\H,24.72,21.89,20.28\H,24.95,21.21,21.62\O,16.68,1
 6.5,18.19\H,16.63,16.99,17.37\H,16.01,16.91,18.75\O,15.62,22.06,23.26\
 H,15.77,22.31,22.34\H,14.83,22.54,23.51\O,16.02,15.33,21.2\H,16.75,15.
 72,20.73\H,15.89,15.91,21.95\O,22.21,14.44,19.06\H,22.49,15.31,18.78\H
 ,21.26,14.45,18.96\O,25.91,18.55,19.92\H,26.15,18.61,19.\H,25.5,19.39,
 20.12\O,17.93,19.26,25.89\H,17.97,20.1,26.34\H,18.77,19.2,25.41\O,23.5
 6,23.2,16.67\H,23.91,23.25,17.56\H,24.32,23.02,16.12\O,17.53,25.36,20.
 34\H,17.64,25.15,21.27\H,18.42,25.53,20.03\O,19.89,20.52,13.56\H,19.32
 ,20.16,14.24\H,19.36,20.48,12.76\O,18.87,14.88,23.86\H,19.56,15.47,24.
 15\H,18.46,15.33,23.12\O,21.29,24.56,24.75\H,20.72,24.02,24.22\H,20.72
 ,24.91,25.44\O,24.22,17.7,15.55\H,24.24,18.63,15.34\H,23.29,17.5,15.68
 \O,15.87,24.1,18.45\H,16.62,24.7,18.49\H,15.59,24.13,17.53\O,18.45,25.
 39,17.24\H,18.57,26.21,16.78\H,18.49,24.72,16.56\O,14.38,18.36,16.94\H
 ,13.61,18.68,17.39\H,14.92,19.14,16.8\O,20.86,17.48,25.46\H,21.55,17.0
 1,25.92\H,20.61,18.19,26.06\O,15.8,16.76,24.01\H,15.69,17.58,23.54\H,1
 5.78,17.,24.94\O,23.02,15.62,24.55\H,23.67,15.36,23.9\H,22.7,16.47,24.
 26\O,21.92,18.94,13.37\H,21.05,19.33,13.42\H,22.14,18.73,14.28\O,25.69
 ,17.87,23.53\H,26.11,18.24,22.76\H,24.82,17.61,23.23\O,19.46,13.7,19.1
 5\H,18.58,13.33,19.25\H,20.04,13.03,19.5\O,13.21,17.38,19.67\H,13.12,1
 6.54,20.12\H,13.98,17.78,20.06\O,21.92,22.12,13.79\H,21.32,21.37,13.86
 \H,22.24,22.09,12.89\O,24.,24.66,23.58\H,24.06,23.7,23.61\H,23.12,24.8
 5,23.91\O,16.3,13.97,17.48\H,16.51,14.83,17.83\H,17.08,13.71,16.99\O,2
 4.16,20.78,14.92\H,23.7,21.48,14.45\H,24.41,20.16,14.24\O,24.99,24.2,1
 8.71\H,25.67,23.6,19.02\H,25.48,24.91,18.29\O,13.02,19.46,22.43\H,12.3
 3,18.83,22.23\H,13.58,19.46,21.66\O,16.05,24.52,15.42\H,16.73,23.9,15.
 69\H,16.22,24.67,14.49\O,20.,13.99,16.53\H,19.68,13.82,17.42\H,20.94,1
 3.82,16.58\O,26.53,18.43,17.25\H,27.15,17.74,17.01\H,25.68,18.1,16.98\
 O,20.08,24.1,14.49\H,20.52,23.3,14.18\H,20.79,24.73,14.59\O,26.09,16.1
 ,21.38\H,26.51,15.61,20.67\H,25.97,16.98,21.01\O,21.22,15.8,13.95\H,21
 .09,15.7,14.89\H,20.79,15.05,13.56\O,20.48,19.63,27.19\H,20.,19.75,28.
 01\H,20.38,20.47,26.74\O,23.8,19.25,26.08\H,23.15,19.9,26.36\H,24.22,1
 9.65,25.32\O,22.18,27.44,19.67\H,21.95,26.53,19.48\H,22.63,27.4,20.52\
 O,22.12,25.59,15.58\H,22.61,26.41,15.55\H,22.79,24.92,15.75\O,16.28,25
 .34,22.87\H,15.58,24.87,23.31\H,15.98,26.24,22.82\O,17.51,16.42,14.32\
 H,17.64,15.5,14.56\H,16.57,16.57,14.46\O,14.93,16.6,15.03\H,14.76,17.1
 3,15.81\H,14.73,15.71,15.3\O,16.32,23.49,26.25\H,16.16,22.98,25.45\H,1
 5.68,23.16,26.87\O,27.11,20.57,23.41\H,26.39,19.96,23.56\H,27.89,20.09
 ,23.69\O,19.4,27.31,19.49\H,19.15,27.51,18.59\H,20.35,27.44,19.51\O,27
 .3,21.07,17.25\H,26.86,20.22,17.3\H,27.61,21.13,16.35\O,25.19,15.38,16
 .61\H,24.79,16.02,16.01\H,24.95,14.53,16.24\O,13.63,25.05,20.08\H,14.0
 2,24.36,19.55\H,14.29,25.75,20.09\O,24.22,22.11,25.75\H,24.93,22.51,26
 .24\H,23.42,22.54,26.08\O,27.57,23.04,20.01\H,28.22,23.02,20.71\H,27.1
 ,22.21,20.09\O,28.06,20.24,20.7\H,27.32,20.44,21.27\H,27.83,20.63,19.8
 6\O,15.4,26.89,20.05\H,16.17,26.39,20.34\H,15.64,27.8,20.19\O,19.33,12
 .47,22.37\H,20.1,12.33,22.92\H,18.85,13.18,22.79\O,18.97,16.74,27.69\H
 ,18.89,17.22,26.87\H,19.,17.41,28.37\O,23.,12.28,20.64\H,23.9,12.21,20
 .94\H,22.97,13.11,20.16\O,15.55,18.16,26.42\H,14.95,18.84,26.12\H,16.4
 1,18.59,26.46\O,24.78,14.39,23.11\H,25.21,15.05,22.56\H,24.96,13.56,22
 .68\O,21.57,13.07,24.18\H,22.2,13.75,23.95\H,21.93,12.26,23.81\O,22.02
 ,22.83,27.5\H,21.96,22.3,28.3\H,21.15,22.79,27.11\O,16.11,12.62,21.89\
 H,16.11,13.57,22.\H,15.21,12.4,21.66\O,17.81,26.58,25.22\H,18.05,26.11
 ,24.42\H,18.22,26.08,25.92\O,15.67,21.68,13.44\H,16.11,22.52,13.58\H,1
 6.38,21.09,13.18\O,23.16,27.45,22.2\H,23.09,26.64,22.71\H,23.67,28.04,
 22.75\O,19.21,24.18,26.66\H,19.3,24.05,27.6\H,18.28,24.01,26.48\O,18.3
 ,27.99,22.12\H,19.17,28.03,22.51\H,18.44,27.56,21.27\O,17.66,24.34,13.
 01\H,18.46,24.28,13.53\H,17.96,24.31,12.1\O,13.35,14.67,20.72\H,12.8,1
 4.17,21.32\H,14.19,14.76,21.17\O,15.34,14.54,25.19\H,15.73,15.14,24.56
 \H,15.65,14.85,26.04\O,20.07,17.5,11.8\H,20.71,18.09,11.39\H,20.5,17.2
 1,12.6\O,17.55,19.94,12.37\H,17.32,19.01,12.3\H,17.76,20.21,11.47\O,27
 .16,15.63,18.64\H,27.72,16.,17.96\H,26.36,15.38,18.19\O,23.05,13.42,16
 .29\H,22.76,12.6,15.9\H,23.32,13.19,17.17\O,19.18,12.88,25.58\H,19.03,
 13.59,24.95\H,19.97,12.44,25.27\O,11.33,19.34,19.9\H,11.96,18.62,19.99
 \H,11.43,19.64,19.\O,17.93,13.54,14.8\H,17.46,12.71,14.91\H,18.72,13.4
 3,15.33\O,26.77,24.96,22.87\H,25.86,24.92,23.16\H,27.24,24.42,23.5\O,1
 3.84,24.05,23.82\H,13.58,23.92,24.73\H,13.02,24.24,23.36\O,13.19,20.4,
 14.46\H,14.08,20.64,14.2\H,12.93,21.09,15.07\O,13.14,18.85,25.07\H,13.
 07,17.89,25.05\H,12.83,19.13,24.21\O,26.8,17.92,14.07\H,26.93,17.11,13
 .58\H,26.02,17.76,14.6\O,11.58,22.09,23.27\H,11.03,22.05,22.49\H,12.31
 ,21.5,23.08\O,17.46,17.08,11.69\H,18.39,17.07,11.51\H,17.38,16.79,12.6
 \O,17.42,11.9,19.66\H,17.29,11.81,20.6\H,16.57,11.68,19.28\O,23.1,14.1
 6,26.74\H,23.13,14.96,27.27\H,22.82,14.46,25.87\O,23.94,20.29,11.98\H,
 24.74,19.93,11.6\H,23.36,19.54,12.08\O,11.8,20.,17.23\H,11.81,20.93,16
 .97\H,11.51,19.54,16.44\O,14.34,26.49,16.17\H,14.2,26.97,15.35\H,15.02
 ,25.84,15.95\O,13.43,13.52,17.94\H,14.23,13.69,18.44\H,12.98,12.82,18.
 42\O,22.75,16.76,27.62\H,23.58,17.23,27.74\H,22.2,17.05,28.34\O,12.37,
 16.17,17.22\H,12.76,15.54,17.83\H,12.13,16.92,17.77\O,20.57,28.,23.49\
 H,21.37,28.16,22.98\H,20.88,27.61,24.31\O,19.08,28.14,16.9\H,19.82,28.
 53,16.44\H,18.33,28.7,16.69\O,27.9,23.04,24.41\H,27.49,22.26,24.05\H,2
 8.14,22.8,25.31\O,27.18,26.06,20.31\H,26.58,26.79,20.44\H,26.98,25.46,
 21.03\O,23.69,15.18,12.37\H,22.92,15.57,12.78\H,23.41,14.29,12.14\O,24
 .95,28.17,19.5\H,25.38,27.68,18.8\H,24.01,27.99,19.38\O,20.24,14.28,27
 .77\H,20.48,13.92,26.91\H,20.17,15.23,27.62\O,13.16,17.91,13.43\H,13.0
 8,18.77,13.85\H,13.95,17.53,13.82\O,12.31,22.54,15.7\H,12.5,23.28,16.2
 6\H,11.47,22.75,15.29\O,11.75,24.87,21.86\H,11.72,23.95,22.14\H,12.39,
 24.88,21.15\O,26.42,22.07,13.51\H,27.08,21.48,13.87\H,25.78,21.48,13.1
 \O,25.58,14.14,25.75\H,25.42,14.51,24.88\H,24.77,14.3,26.23\O,26.25,26
 .2,17.11\H,27.21,26.27,17.15\H,26.07,25.75,16.29\O,17.14,21.11,28.83\H
 ,17.68,20.33,28.88\H,16.25,20.81,29.01\O,21.41,21.92,11.\H,20.67,21.86
 ,10.4\H,21.79,21.04,11.02\\Version=ES64L-G09RevE.01\HF=-9773.4442849\R
 MSD=1.212e-09\RMSF=1.052e-02\Dipole=7.510653,6.8310911,-4.8378255\Quad
 rupole=226.6641458,260.6527093,-487.3168551,-891.6754079,-1416.9223161
 ,-1272.4305162\PG=C01 [X(Br1H256O128)]\\@


 BE NOT THE FIRST BY WHOM THE NEW ARE TRIED,
 NOR YET THE THE LAST TO LAY THE OLD ASIDE.

                          -- ALEXANDER POPE
 Job cpu time:       6 days 21 hours 41 minutes 19.2 seconds.
 File lengths (MBytes):  RWF=   7285 Int=      0 D2E=      0 Chk=   2411 Scr=      1
 Normal termination of Gaussian 09 at Tue May 15 17:44:17 2018.
