 Entering Gaussian System, Link 0=/cm/shared/gaussian/g09.e01/intel64-sandybridge/g09/g09
 Initial command:
 /cm/shared/gaussian/g09.e01/intel64-sandybridge/g09/l1.exe "/local/scratch/m.peluso/128_wat/370/Gau-38637.inp" -scrdir="/local/scratch/m.peluso/128_wat/370/"
 Entering Link 1 = /cm/shared/gaussian/g09.e01/intel64-sandybridge/g09/l1.exe PID=     38638.
  
 Copyright (c) 1988,1990,1992,1993,1995,1998,2003,2009,2015,
            Gaussian, Inc.  All Rights Reserved.
  
 This is part of the Gaussian(R) 09 program.  It is based on
 the Gaussian(R) 03 system (copyright 2003, Gaussian, Inc.),
 the Gaussian(R) 98 system (copyright 1998, Gaussian, Inc.),
 the Gaussian(R) 94 system (copyright 1995, Gaussian, Inc.),
 the Gaussian 92(TM) system (copyright 1992, Gaussian, Inc.),
 the Gaussian 90(TM) system (copyright 1990, Gaussian, Inc.),
 the Gaussian 88(TM) system (copyright 1988, Gaussian, Inc.),
 the Gaussian 86(TM) system (copyright 1986, Carnegie Mellon
 University), and the Gaussian 82(TM) system (copyright 1983,
 Carnegie Mellon University). Gaussian is a federally registered
 trademark of Gaussian, Inc.
  
 This software contains proprietary and confidential information,
 including trade secrets, belonging to Gaussian, Inc.
  
 This software is provided under written license and may be
 used, copied, transmitted, or stored only in accord with that
 written license.
  
 The following legend is applicable only to US Government
 contracts under FAR:
  
                    RESTRICTED RIGHTS LEGEND
  
 Use, reproduction and disclosure by the US Government is
 subject to restrictions as set forth in subparagraphs (a)
 and (c) of the Commercial Computer Software - Restricted
 Rights clause in FAR 52.227-19.
  
 Gaussian, Inc.
 340 Quinnipiac St., Bldg. 40, Wallingford CT 06492
  
  
 ---------------------------------------------------------------
 Warning -- This program may not be used in any manner that
 competes with the business of Gaussian, Inc. or will provide
 assistance to any competitor of Gaussian, Inc.  The licensee
 of this program is prohibited from giving any competitor of
 Gaussian, Inc. access to this program.  By using this program,
 the user acknowledges that Gaussian, Inc. is engaged in the
 business of creating and licensing software in the field of
 computational chemistry and represents and warrants to the
 licensee that it is not a competitor of Gaussian, Inc. and that
 it will not use this program in any manner prohibited above.
 ---------------------------------------------------------------
  

 Cite this work as:
 Gaussian 09, Revision E.01,
 M. J. Frisch, G. W. Trucks, H. B. Schlegel, G. E. Scuseria, 
 M. A. Robb, J. R. Cheeseman, G. Scalmani, V. Barone, B. Mennucci, 
 G. A. Petersson, H. Nakatsuji, M. Caricato, X. Li, H. P. Hratchian, 
 A. F. Izmaylov, J. Bloino, G. Zheng, J. L. Sonnenberg, M. Hada, 
 M. Ehara, K. Toyota, R. Fukuda, J. Hasegawa, M. Ishida, T. Nakajima, 
 Y. Honda, O. Kitao, H. Nakai, T. Vreven, J. A. Montgomery, Jr., 
 J. E. Peralta, F. Ogliaro, M. Bearpark, J. J. Heyd, E. Brothers, 
 K. N. Kudin, V. N. Staroverov, T. Keith, R. Kobayashi, J. Normand, 
 K. Raghavachari, A. Rendell, J. C. Burant, S. S. Iyengar, J. Tomasi, 
 M. Cossi, N. Rega, J. M. Millam, M. Klene, J. E. Knox, J. B. Cross, 
 V. Bakken, C. Adamo, J. Jaramillo, R. Gomperts, R. E. Stratmann, 
 O. Yazyev, A. J. Austin, R. Cammi, C. Pomelli, J. W. Ochterski, 
 R. L. Martin, K. Morokuma, V. G. Zakrzewski, G. A. Voth, 
 P. Salvador, J. J. Dannenberg, S. Dapprich, A. D. Daniels, 
 O. Farkas, J. B. Foresman, J. V. Ortiz, J. Cioslowski, 
 and D. J. Fox, Gaussian, Inc., Wallingford CT, 2013.
 
 ******************************************
 Gaussian 09:  ES64L-G09RevE.01 30-Nov-2015
                10-May-2018 
 ******************************************
 %Mem=110GB
 %NProcShared=64
 Will use up to   64 processors via shared memory.
 %chk=snap77.chk
 ----------------------------------------------
 #p PBE1PBE/cc-pvDZ force Counterpoise=2 noSymm
 ----------------------------------------------
 1/10=7,30=1,38=1,62=2/1,3;
 2/12=2,15=1,17=6,18=5,40=1/2;
 1/10=7,30=1,38=1,53=2,62=2,63=101/22;
 3/5=16,11=2,16=1,25=1,30=1,71=1,74=-13/1,2,3;
 4//1;
 5/5=2,38=5/2;
 6/7=2,8=2,9=2,10=2,28=1/1;
 7/7=1,29=1,30=1,33=-1/1,2,3,16;
 1/10=7,30=1,53=2,62=2,63=101/22;
 3/5=7,6=11,11=2,16=1,25=1,30=1,71=1,74=-13,82=7/1,2,3;
 4//1;
 5/5=2,38=5/2;
 6/7=2,8=2,9=2,10=2,28=1/1;
 7/7=1,29=1,30=1,33=-1/1,2,3,16;
 1/10=7,30=1,53=2,62=2,63=101/22(-5);
 7/9=1,29=1,44=-1/16;
 1/10=7,30=1,62=2/3;
 99//99;
 Leave Link    1 at Thu May 10 11:07:39 2018, MaxMem= 14763950080 cpu:         7.5
 (Enter /cm/shared/gaussian/g09.e01/intel64-sandybridge/g09/l101.exe)
 ---------------------------------------
 forces on chloride comput - NWATER: 128
 ---------------------------------------
 Symbolic Z-matrix:
 Charge = -1 Multiplicity = 1 in supermolecule
 Charge = -1 Multiplicity = 1 in fragment      1.
 Charge =  0 Multiplicity = 1 in fragment      2.
 Br(Fragment=1)        20.       20.       20. 
 O(Fragment=2)         21.79     17.95     22. 
 H(Fragment=2)         21.33     18.5      21.36 
 H(Fragment=2)         22.58     17.66     21.54 
 O(Fragment=2)         20.85     17.09     19.31 
 H(Fragment=2)         19.98     17.17     19.72 
 H(Fragment=2)         21.01     17.95     18.93 
 O(Fragment=2)         18.99     18.72     23.04 
 H(Fragment=2)         18.82     19.36     22.35 
 H(Fragment=2)         19.87     18.4      22.86 
 O(Fragment=2)         17.74     18.34     17.66 
 H(Fragment=2)         17.15     17.73     18.09 
 H(Fragment=2)         18.52     18.36     18.22 
 O(Fragment=2)         18.01     22.56     20.86 
 H(Fragment=2)         18.87     22.44     21.25 
 H(Fragment=2)         17.61     21.68     20.87 
 O(Fragment=2)         17.21     21.74     18.45 
 H(Fragment=2)         17.59     20.87     18.3 
 H(Fragment=2)         17.78     22.13     19.12 
 O(Fragment=2)         21.9      23.31     20.78 
 H(Fragment=2)         22.61     23.65     20.24 
 H(Fragment=2)         21.3      22.9      20.16 
 O(Fragment=2)         23.66     21.17     18.47 
 H(Fragment=2)         23.47     20.96     17.55 
 H(Fragment=2)         22.88     20.88     18.94 
 O(Fragment=2)         24.01     18.37     20.28 
 H(Fragment=2)         23.46     18.93     19.73 
 H(Fragment=2)         24.69     18.96     20.61 
 O(Fragment=2)         20.23     22.73     22.99 
 H(Fragment=2)         20.79     22.79     22.22 
 H(Fragment=2)         20.75     22.22     23.62 
 O(Fragment=2)         23.86     21.32     22.07 
 H(Fragment=2)         23.02     21.31     21.61 
 H(Fragment=2)         23.78     22.03     22.7 
 O(Fragment=2)         20.36     23.44     18.47 
 H(Fragment=2)         19.93     23.1      17.68 
 H(Fragment=2)         20.22     24.39     18.43 
 O(Fragment=2)         21.67     21.23     16.26 
 H(Fragment=2)         22.38     21.87     16.25 
 H(Fragment=2)         20.94     21.69     16.66 
 O(Fragment=2)         19.94     17.67     15.39 
 H(Fragment=2)         20.17     17.93     16.28 
 H(Fragment=2)         20.45     18.24     14.82 
 O(Fragment=2)         17.83     20.34     15.58 
 H(Fragment=2)         17.72     19.66     16.25 
 H(Fragment=2)         18.33     19.91     14.89 
 O(Fragment=2)         22.44     17.71     17.1 
 H(Fragment=2)         22.11     16.9      17.48 
 H(Fragment=2)         23.12     17.43     16.49 
 O(Fragment=2)         19.19     22.67     16.24 
 H(Fragment=2)         19.14     22.94     15.33 
 H(Fragment=2)         18.42     22.12     16.38 
 O(Fragment=2)         18.51     15.7      19.97 
 H(Fragment=2)         17.57     15.57     19.92 
 H(Fragment=2)         18.86     14.86     20.25 
 O(Fragment=2)         14.77     21.45     20.05 
 H(Fragment=2)         15.6      21.56     19.58 
 H(Fragment=2)         14.39     22.33     20.08 
 O(Fragment=2)         16.22     17.26     22.09 
 H(Fragment=2)         15.66     17.02     22.83 
 H(Fragment=2)         17.11     17.24     22.45 
 O(Fragment=2)         21.79     14.57     19.74 
 H(Fragment=2)         21.53     15.48     19.61 
 H(Fragment=2)         22.56     14.46     19.18 
 O(Fragment=2)         23.78     18.06     24.11 
 H(Fragment=2)         23.1      18.24     23.46 
 H(Fragment=2)         23.42     18.4      24.93 
 O(Fragment=2)         15.71     20.38     22.58 
 H(Fragment=2)         15.27     21.02     22.02 
 H(Fragment=2)         15.18     19.59     22.51 
 O(Fragment=2)         15.72     16.86     19.39 
 H(Fragment=2)         15.92     16.98     20.32 
 H(Fragment=2)         15.25     17.66     19.15 
 O(Fragment=2)         24.12     19.76     15.75 
 H(Fragment=2)         23.25     20.09     15.94 
 H(Fragment=2)         24.04     18.81     15.8 
 O(Fragment=2)         19.57     14.65     17.44 
 H(Fragment=2)         20.16     14.41     18.16 
 H(Fragment=2)         19.03     15.35     17.8 
 O(Fragment=2)         21.48     25.78     19.85 
 H(Fragment=2)         22.34     26.21     19.89 
 H(Fragment=2)         21.54     25.08     20.5 
 O(Fragment=2)         16.43     19.8      25.11 
 H(Fragment=2)         15.57     20.22     25.17 
 H(Fragment=2)         16.74     20.01     24.23 
 O(Fragment=2)         18.38     24.78     23.49 
 H(Fragment=2)         17.66     24.27     23.88 
 H(Fragment=2)         19.05     24.13     23.29 
 O(Fragment=2)         24.18     23.91     19.11 
 H(Fragment=2)         24.95     23.86     19.67 
 H(Fragment=2)         24.19     23.1      18.6 
 O(Fragment=2)         17.61     16.88     24.86 
 H(Fragment=2)         18.31     16.34     25.23 
 H(Fragment=2)         18.06     17.62     24.46 
 O(Fragment=2)         16.54     25.26     19.52 
 H(Fragment=2)         17.07     24.53     19.19 
 H(Fragment=2)         16.46     25.86     18.78 
 O(Fragment=2)         14.63     19.05     18.25 
 H(Fragment=2)         14.42     19.63     18.98 
 H(Fragment=2)         13.81     18.57     18.08 
 O(Fragment=2)         19.31     20.01     26.3 
 H(Fragment=2)         18.7      19.92     25.57 
 H(Fragment=2)         18.77     20.35     27.02 
 O(Fragment=2)         23.32     23.43     23.79 
 H(Fragment=2)         22.75     22.82     24.25 
 H(Fragment=2)         23.12     24.28     24.19 
 O(Fragment=2)         26.39     20.09     21.47 
 H(Fragment=2)         25.68     20.72     21.31 
 H(Fragment=2)         26.24     19.79     22.37 
 O(Fragment=2)         22.68     14.94     23.66 
 H(Fragment=2)         22.58     15.74     23.14 
 H(Fragment=2)         22.37     15.18     24.53 
 O(Fragment=2)         22.16     18.68     26.09 
 H(Fragment=2)         21.94     19.49     25.63 
 H(Fragment=2)         21.32     18.26     26.26 
 O(Fragment=2)         26.34     21.93     17.94 
 H(Fragment=2)         25.53     21.43     18.01 
 H(Fragment=2)         27.03     21.28     17.89 
 O(Fragment=2)         21.64     19.42     13.86 
 H(Fragment=2)         21.71     20.32     14.19 
 H(Fragment=2)         21.52     19.52     12.92 
 O(Fragment=2)         15.54     17.3      15.94 
 H(Fragment=2)         15.37     17.93     16.64 
 H(Fragment=2)         14.67     17.07     15.61 
 O(Fragment=2)         21.52     15.39     15.14 
 H(Fragment=2)         20.81     15.77     15.67 
 H(Fragment=2)         22.11     15.       15.79 
 O(Fragment=2)         19.97     25.69     16.89 
 H(Fragment=2)         19.74     25.01     16.26 
 H(Fragment=2)         19.86     26.51     16.41 
 O(Fragment=2)         17.49     16.96     14.24 
 H(Fragment=2)         18.29     16.99     14.77 
 H(Fragment=2)         16.78     17.09     14.87 
 O(Fragment=2)         26.32     16.62     19.13 
 H(Fragment=2)         25.56     16.92     19.63 
 H(Fragment=2)         26.59     15.81     19.56 
 O(Fragment=2)         23.       25.74     17.13 
 H(Fragment=2)         23.51     25.23     17.76 
 H(Fragment=2)         22.12     25.37     17.18 
 O(Fragment=2)         22.23     21.61     25.81 
 H(Fragment=2)         21.66     21.02     26.3 
 H(Fragment=2)         22.9      21.87     26.44 
 O(Fragment=2)         23.38     23.06     15.43 
 H(Fragment=2)         23.93     22.96     14.65 
 H(Fragment=2)         22.72     23.7      15.17 
 O(Fragment=2)         14.86     21.51     14.71 
 H(Fragment=2)         15.2      20.71     14.31 
 H(Fragment=2)         15.14     21.46     15.62 
 O(Fragment=2)         18.17     20.95     13.02 
 H(Fragment=2)         17.84     21.4      13.8 
 H(Fragment=2)         17.49     20.32     12.81 
 O(Fragment=2)         19.9      13.79     23.4 
 H(Fragment=2)         20.2      13.09     22.81 
 H(Fragment=2)         20.69     14.28     23.61 
 O(Fragment=2)         19.59     13.03     20.17 
 H(Fragment=2)         19.45     12.09     20.09 
 H(Fragment=2)         20.51     13.17     19.94 
 O(Fragment=2)         17.75     26.75     21.87 
 H(Fragment=2)         17.14     26.22     21.36 
 H(Fragment=2)         18.15     26.13     22.48 
 O(Fragment=2)         23.17     14.52     17.26 
 H(Fragment=2)         23.3      13.62     16.97 
 H(Fragment=2)         23.7      15.05     16.66 
 O(Fragment=2)         13.79     24.04     20.21 
 H(Fragment=2)         14.59     24.43     19.84 
 H(Fragment=2)         13.62     24.54     21. 
 O(Fragment=2)         19.94     28.02     20.19 
 H(Fragment=2)         19.14     27.97     20.7 
 H(Fragment=2)         20.11     27.12     19.91 
 O(Fragment=2)         20.08     16.56     26.24 
 H(Fragment=2)         20.81     16.02     26.55 
 H(Fragment=2)         19.83     17.08     27. 
 O(Fragment=2)         25.41     21.7      25.34 
 H(Fragment=2)         25.25     20.97     24.75 
 H(Fragment=2)         25.22     21.35     26.21 
 O(Fragment=2)         18.62     22.99     26.83 
 H(Fragment=2)         18.1      23.36     26.11 
 H(Fragment=2)         17.96     22.66     27.44 
 O(Fragment=2)         17.27     18.86     27.66 
 H(Fragment=2)         16.38     18.81     27.99 
 H(Fragment=2)         17.18     19.08     26.73 
 O(Fragment=2)         12.71     20.04     22.58 
 H(Fragment=2)         11.97     19.54     22.24 
 H(Fragment=2)         12.88     20.71     21.91 
 O(Fragment=2)         20.91     26.54     24.4 
 H(Fragment=2)         20.57     27.21     24.99 
 H(Fragment=2)         20.28     26.5      23.68 
 O(Fragment=2)         18.27     24.54     13.96 
 H(Fragment=2)         18.84     23.84     13.63 
 H(Fragment=2)         18.4      25.27     13.36 
 O(Fragment=2)         26.29     18.74     24.98 
 H(Fragment=2)         26.02     18.95     25.88 
 H(Fragment=2)         25.62     18.14     24.66 
 O(Fragment=2)         17.14     13.96     25.19 
 H(Fragment=2)         17.22     14.79     24.71 
 H(Fragment=2)         16.76     14.2      26.04 
 O(Fragment=2)         13.51     14.55     19.5 
 H(Fragment=2)         13.73     13.95     20.21 
 H(Fragment=2)         14.28     15.09     19.39 
 O(Fragment=2)         25.26     16.26     16.02 
 H(Fragment=2)         25.83     17.       16.22 
 H(Fragment=2)         25.86     15.53     15.89 
 O(Fragment=2)         26.7      22.97     22.87 
 H(Fragment=2)         27.3      22.25     23.06 
 H(Fragment=2)         26.04     22.92     23.56 
 O(Fragment=2)         26.1      20.52     14. 
 H(Fragment=2)         25.48     20.78     13.32 
 H(Fragment=2)         25.54     20.16     14.7 
 O(Fragment=2)         15.67     19.16     13.13 
 H(Fragment=2)         16.28     18.5      13.43 
 H(Fragment=2)         14.93     18.66     12.77 
 O(Fragment=2)         23.3      15.82     26.26 
 H(Fragment=2)         23.8      16.22     25.55 
 H(Fragment=2)         23.75     14.99     26.44 
 O(Fragment=2)         21.57     24.68     14.03 
 H(Fragment=2)         21.96     25.42     13.56 
 H(Fragment=2)         21.36     24.04     13.35 
 O(Fragment=2)         26.01     24.86     21.23 
 H(Fragment=2)         26.31     24.15     21.8 
 H(Fragment=2)         25.7      25.54     21.82 
 O(Fragment=2)         15.22     16.59     26.36 
 H(Fragment=2)         15.92     16.69     25.72 
 H(Fragment=2)         15.36     17.31     26.98 
 O(Fragment=2)         14.48     15.76     23.55 
 H(Fragment=2)         13.76     15.63     22.93 
 H(Fragment=2)         14.28     15.16     24.27 
 O(Fragment=2)         27.74     23.49     19.79 
 H(Fragment=2)         27.1      23.96     20.33 
 H(Fragment=2)         27.23     23.14     19.06 
 O(Fragment=2)         20.01     22.94     12.41 
 H(Fragment=2)         20.71     22.68     11.81 
 H(Fragment=2)         19.38     22.22     12.38 
 O(Fragment=2)         24.55     19.5      27.28 
 H(Fragment=2)         23.69     19.18     27.02 
 H(Fragment=2)         24.37     20.14     27.97 
 O(Fragment=2)         17.26     12.4      16.98 
 H(Fragment=2)         17.25     11.76     16.27 
 H(Fragment=2)         17.93     13.03     16.72 
 O(Fragment=2)         12.9      17.83     24.91 
 H(Fragment=2)         13.5      17.94     24.18 
 H(Fragment=2)         13.41     17.4      25.59 
 O(Fragment=2)         14.15     25.22     22.98 
 H(Fragment=2)         14.73     24.82     23.62 
 H(Fragment=2)         13.6      25.81     23.49 
 O(Fragment=2)         27.65     19.56     17.05 
 H(Fragment=2)         27.64     18.84     17.69 
 H(Fragment=2)         27.51     19.13     16.21 
 O(Fragment=2)         20.25     13.19     14.26 
 H(Fragment=2)         19.39     13.06     14.66 
 H(Fragment=2)         20.48     14.1      14.48 
 O(Fragment=2)         15.23     24.05     14.03 
 H(Fragment=2)         16.03     24.53     14.27 
 H(Fragment=2)         15.49     23.13     14.05 
 O(Fragment=2)         23.92     16.19     12.79 
 H(Fragment=2)         24.04     15.27     13.04 
 H(Fragment=2)         23.49     16.59     13.54 
 O(Fragment=2)         16.84     27.25     17.7 
 H(Fragment=2)         17.78     27.4      17.56 
 H(Fragment=2)         16.51     27.02     16.83 
 O(Fragment=2)         24.06     27.55     19.75 
 H(Fragment=2)         24.47     28.13     19.1 
 H(Fragment=2)         24.52     26.72     19.64 
 O(Fragment=2)         15.58     24.46     25.23 
 H(Fragment=2)         15.57     24.03     26.09 
 H(Fragment=2)         15.45     25.39     25.44 
 O(Fragment=2)         16.97     14.1      14.12 
 H(Fragment=2)         17.12     15.05     14.12 
 H(Fragment=2)         16.37     13.96     14.85 
 O(Fragment=2)         22.24     11.9      23.09 
 H(Fragment=2)         22.87     11.24     22.78 
 H(Fragment=2)         22.62     12.74     22.82 
 O(Fragment=2)         19.59     13.32     26.06 
 H(Fragment=2)         18.66     13.12     26.17 
 H(Fragment=2)         19.68     13.53     25.13 
 O(Fragment=2)         14.17     13.49     21.72 
 H(Fragment=2)         14.62     14.13     22.28 
 H(Fragment=2)         13.43     13.19     22.24 
 O(Fragment=2)         20.64     25.04     27.11 
 H(Fragment=2)         20.44     25.44     26.26 
 H(Fragment=2)         20.13     24.23     27.13 
 O(Fragment=2)         28.85     18.99     21.88 
 H(Fragment=2)         28.74     19.19     22.81 
 H(Fragment=2)         28.15     19.46     21.44 
 O(Fragment=2)         12.05     17.99     18.49 
 H(Fragment=2)         11.17     18.21     18.18 
 H(Fragment=2)         12.05     17.03     18.54 
 O(Fragment=2)         13.84     21.91     25.49 
 H(Fragment=2)         13.34     21.41     24.84 
 H(Fragment=2)         13.35     22.72     25.59 
 O(Fragment=2)         19.28     16.67     11.63 
 H(Fragment=2)         20.06     16.14     11.49 
 H(Fragment=2)         18.98     16.44     12.51 
 O(Fragment=2)         14.64     14.27     15.96 
 H(Fragment=2)         14.65     14.2      16.92 
 H(Fragment=2)         14.12     15.05     15.78 
 O(Fragment=2)         17.87     11.8      23.64 
 H(Fragment=2)         18.62     12.29     23.3 
 H(Fragment=2)         17.52     12.35     24.34 
 O(Fragment=2)         23.48     21.15     12.32 
 H(Fragment=2)         22.91     21.6      11.69 
 H(Fragment=2)         23.32     20.22     12.17 
 O(Fragment=2)         22.47     28.56     17.84 
 H(Fragment=2)         22.52     28.28     18.76 
 H(Fragment=2)         22.51     27.74     17.34 
 O(Fragment=2)         27.12     16.35     23.32 
 H(Fragment=2)         27.75     16.       23.94 
 H(Fragment=2)         27.63     16.88     22.72 
 O(Fragment=2)         23.24     27.1      25.4 
 H(Fragment=2)         22.5      26.67     24.97 
 H(Fragment=2)         22.97     27.19     26.31 
 O(Fragment=2)         24.83     26.2      15.1 
 H(Fragment=2)         25.35     25.67     15.71 
 H(Fragment=2)         23.99     26.32     15.55 
 O(Fragment=2)         25.53     23.45     13.87 
 H(Fragment=2)         25.98     22.68     14.22 
 H(Fragment=2)         25.63     24.12     14.55 
 O(Fragment=2)         25.99     24.3      25.93 
 H(Fragment=2)         26.82     24.63     25.58 
 H(Fragment=2)         25.89     23.44     25.54 
 O(Fragment=2)         19.95     22.98     29.18 
 H(Fragment=2)         19.55     22.91     28.31 
 H(Fragment=2)         20.29     23.88     29.21 
 O(Fragment=2)         26.63     25.06     16.98 
 H(Fragment=2)         27.19     24.39     17.37 
 H(Fragment=2)         27.21     25.8      16.82 
 O(Fragment=2)         20.74     18.96     11.11 
 H(Fragment=2)         21.53     18.75     10.62 
 H(Fragment=2)         20.37     18.11     11.35 
 O(Fragment=2)         18.89     10.65     18.55 
 H(Fragment=2)         18.6      9.89      18.05 
 H(Fragment=2)         18.66     11.4      18. 
 O(Fragment=2)         15.94     27.33     24.82 
 H(Fragment=2)         16.31     28.2      24.95 
 H(Fragment=2)         16.22     27.07     23.94 
 O(Fragment=2)         19.4      18.16     29.19 
 H(Fragment=2)         19.56     18.94     29.72 
 H(Fragment=2)         18.6      18.36     28.7 
 O(Fragment=2)         29.12     17.77     19.16 
 H(Fragment=2)         29.84     17.2      19.42 
 H(Fragment=2)         28.44     17.17     18.86 
 O(Fragment=2)         28.25     20.47     24.29 
 H(Fragment=2)         27.76     19.69     24.53 
 H(Fragment=2)         28.14     21.06     25.03 
 O(Fragment=2)         25.66     14.14     25.4 
 H(Fragment=2)         26.57     13.84     25.39 
 H(Fragment=2)         25.53     14.53     24.54 
 O(Fragment=2)         25.41     26.38     23.41 
 H(Fragment=2)         24.7      26.62     24.01 
 H(Fragment=2)         25.98     25.82     23.94 
 O(Fragment=2)         11.03     23.97     20.7 
 H(Fragment=2)         10.55     24.68     20.27 
 H(Fragment=2)         11.92     24.03     20.34 
 O(Fragment=2)         21.98     16.28     28.64 
 H(Fragment=2)         21.67     17.16     28.43 
 H(Fragment=2)         22.85     16.23     28.25 
 O(Fragment=2)         22.89     12.08     16.12 
 H(Fragment=2)         22.97     11.33     15.53 
 H(Fragment=2)         22.36     11.75     16.85 
 O(Fragment=2)         15.47     23.       27.72 
 H(Fragment=2)         14.94     22.35     27.27 
 H(Fragment=2)         14.85     23.68     27.98 
 O(Fragment=2)         22.93     29.23     21.54 
 H(Fragment=2)         22.74     29.77     20.77 
 H(Fragment=2)         23.35     28.45     21.19 
 O(Fragment=2)         27.36     14.49     20.45 
 H(Fragment=2)         27.07     13.86     21.1 
 H(Fragment=2)         28.11     14.92     20.86 
 O(Fragment=2)         22.13     20.29     28.98 
 H(Fragment=2)         21.67     19.89     29.73 
 H(Fragment=2)         22.39     21.15     29.3 
 O(Fragment=2)         16.52     29.24     21.38 
 H(Fragment=2)         15.7      28.78     21.19 
 H(Fragment=2)         17.08     28.58     21.8 
 O(Fragment=2)         27.35     18.04     14.73 
 H(Fragment=2)         27.35     18.58     13.95 
 H(Fragment=2)         27.44     17.14     14.4 
 O(Fragment=2)         23.99     22.75     27.89 
 H(Fragment=2)         24.88     23.03     27.67 
 H(Fragment=2)         23.73     23.33     28.61 
 O(Fragment=2)         19.38     28.88     16.94 
 H(Fragment=2)         18.9      29.65     17.23 
 H(Fragment=2)         20.2      28.9      17.44 
 O(Fragment=2)         11.86     15.25     22.46 
 H(Fragment=2)         11.77     14.31     22.27 
 H(Fragment=2)         11.87     15.67     21.6 
 
 NAtoms=    385 NQM=      385 NQMF=       0 NMMI=      0 NMMIF=      0
                NMic=       0 NMicF=      0.
                    Isotopes and Nuclear Properties:
 (Nuclear quadrupole moments (NQMom) in fm**2, nuclear magnetic moments (NMagM)
  in nuclear magnetons)

  Atom         1           2           3           4           5           6           7           8           9          10
 IAtWgt=          79          16           1           1          16           1           1          16           1           1
 AtmWgt=  78.9183361  15.9949146   1.0078250   1.0078250  15.9949146   1.0078250   1.0078250  15.9949146   1.0078250   1.0078250
 NucSpn=           3           0           1           1           0           1           1           0           1           1
 AtZEff=   0.0000000   0.0000000   0.0000000   0.0000000   0.0000000   0.0000000   0.0000000   0.0000000   0.0000000   0.0000000
 NQMom=   31.3000000   0.0000000   0.0000000   0.0000000   0.0000000   0.0000000   0.0000000   0.0000000   0.0000000   0.0000000
 NMagM=    2.1063990   0.0000000   2.7928460   2.7928460   0.0000000   2.7928460   2.7928460   0.0000000   2.7928460   2.7928460
 AtZNuc=  35.0000000   8.0000000   1.0000000   1.0000000   8.0000000   1.0000000   1.0000000   8.0000000   1.0000000   1.0000000

  Atom        11          12          13          14          15          16          17          18          19          20
 IAtWgt=          16           1           1          16           1           1          16           1           1          16
 AtmWgt=  15.9949146   1.0078250   1.0078250  15.9949146   1.0078250   1.0078250  15.9949146   1.0078250   1.0078250  15.9949146
 NucSpn=           0           1           1           0           1           1           0           1           1           0
 AtZEff=   0.0000000   0.0000000   0.0000000   0.0000000   0.0000000   0.0000000   0.0000000   0.0000000   0.0000000   0.0000000
 NQMom=    0.0000000   0.0000000   0.0000000   0.0000000   0.0000000   0.0000000   0.0000000   0.0000000   0.0000000   0.0000000
 NMagM=    0.0000000   2.7928460   2.7928460   0.0000000   2.7928460   2.7928460   0.0000000   2.7928460   2.7928460   0.0000000
 AtZNuc=   8.0000000   1.0000000   1.0000000   8.0000000   1.0000000   1.0000000   8.0000000   1.0000000   1.0000000   8.0000000

  Atom        21          22          23          24          25          26          27          28          29          30
 IAtWgt=           1           1          16           1           1          16           1           1          16           1
 AtmWgt=   1.0078250   1.0078250  15.9949146   1.0078250   1.0078250  15.9949146   1.0078250   1.0078250  15.9949146   1.0078250
 NucSpn=           1           1           0           1           1           0           1           1           0           1
 AtZEff=   0.0000000   0.0000000   0.0000000   0.0000000   0.0000000   0.0000000   0.0000000   0.0000000   0.0000000   0.0000000
 NQMom=    0.0000000   0.0000000   0.0000000   0.0000000   0.0000000   0.0000000   0.0000000   0.0000000   0.0000000   0.0000000
 NMagM=    2.7928460   2.7928460   0.0000000   2.7928460   2.7928460   0.0000000   2.7928460   2.7928460   0.0000000   2.7928460
 AtZNuc=   1.0000000   1.0000000   8.0000000   1.0000000   1.0000000   8.0000000   1.0000000   1.0000000   8.0000000   1.0000000

  Atom        31          32          33          34          35          36          37          38          39          40
 IAtWgt=           1          16           1           1          16           1           1          16           1           1
 AtmWgt=   1.0078250  15.9949146   1.0078250   1.0078250  15.9949146   1.0078250   1.0078250  15.9949146   1.0078250   1.0078250
 NucSpn=           1           0           1           1           0           1           1           0           1           1
 AtZEff=   0.0000000   0.0000000   0.0000000   0.0000000   0.0000000   0.0000000   0.0000000   0.0000000   0.0000000   0.0000000
 NQMom=    0.0000000   0.0000000   0.0000000   0.0000000   0.0000000   0.0000000   0.0000000   0.0000000   0.0000000   0.0000000
 NMagM=    2.7928460   0.0000000   2.7928460   2.7928460   0.0000000   2.7928460   2.7928460   0.0000000   2.7928460   2.7928460
 AtZNuc=   1.0000000   8.0000000   1.0000000   1.0000000   8.0000000   1.0000000   1.0000000   8.0000000   1.0000000   1.0000000

  Atom        41          42          43          44          45          46          47          48          49          50
 IAtWgt=          16           1           1          16           1           1          16           1           1          16
 AtmWgt=  15.9949146   1.0078250   1.0078250  15.9949146   1.0078250   1.0078250  15.9949146   1.0078250   1.0078250  15.9949146
 NucSpn=           0           1           1           0           1           1           0           1           1           0
 AtZEff=   0.0000000   0.0000000   0.0000000   0.0000000   0.0000000   0.0000000   0.0000000   0.0000000   0.0000000   0.0000000
 NQMom=    0.0000000   0.0000000   0.0000000   0.0000000   0.0000000   0.0000000   0.0000000   0.0000000   0.0000000   0.0000000
 NMagM=    0.0000000   2.7928460   2.7928460   0.0000000   2.7928460   2.7928460   0.0000000   2.7928460   2.7928460   0.0000000
 AtZNuc=   8.0000000   1.0000000   1.0000000   8.0000000   1.0000000   1.0000000   8.0000000   1.0000000   1.0000000   8.0000000

  Atom        51          52          53          54          55          56          57          58          59          60
 IAtWgt=           1           1          16           1           1          16           1           1          16           1
 AtmWgt=   1.0078250   1.0078250  15.9949146   1.0078250   1.0078250  15.9949146   1.0078250   1.0078250  15.9949146   1.0078250
 NucSpn=           1           1           0           1           1           0           1           1           0           1
 AtZEff=   0.0000000   0.0000000   0.0000000   0.0000000   0.0000000   0.0000000   0.0000000   0.0000000   0.0000000   0.0000000
 NQMom=    0.0000000   0.0000000   0.0000000   0.0000000   0.0000000   0.0000000   0.0000000   0.0000000   0.0000000   0.0000000
 NMagM=    2.7928460   2.7928460   0.0000000   2.7928460   2.7928460   0.0000000   2.7928460   2.7928460   0.0000000   2.7928460
 AtZNuc=   1.0000000   1.0000000   8.0000000   1.0000000   1.0000000   8.0000000   1.0000000   1.0000000   8.0000000   1.0000000

  Atom        61          62          63          64          65          66          67          68          69          70
 IAtWgt=           1          16           1           1          16           1           1          16           1           1
 AtmWgt=   1.0078250  15.9949146   1.0078250   1.0078250  15.9949146   1.0078250   1.0078250  15.9949146   1.0078250   1.0078250
 NucSpn=           1           0           1           1           0           1           1           0           1           1
 AtZEff=   0.0000000   0.0000000   0.0000000   0.0000000   0.0000000   0.0000000   0.0000000   0.0000000   0.0000000   0.0000000
 NQMom=    0.0000000   0.0000000   0.0000000   0.0000000   0.0000000   0.0000000   0.0000000   0.0000000   0.0000000   0.0000000
 NMagM=    2.7928460   0.0000000   2.7928460   2.7928460   0.0000000   2.7928460   2.7928460   0.0000000   2.7928460   2.7928460
 AtZNuc=   1.0000000   8.0000000   1.0000000   1.0000000   8.0000000   1.0000000   1.0000000   8.0000000   1.0000000   1.0000000

  Atom        71          72          73          74          75          76          77          78          79          80
 IAtWgt=          16           1           1          16           1           1          16           1           1          16
 AtmWgt=  15.9949146   1.0078250   1.0078250  15.9949146   1.0078250   1.0078250  15.9949146   1.0078250   1.0078250  15.9949146
 NucSpn=           0           1           1           0           1           1           0           1           1           0
 AtZEff=   0.0000000   0.0000000   0.0000000   0.0000000   0.0000000   0.0000000   0.0000000   0.0000000   0.0000000   0.0000000
 NQMom=    0.0000000   0.0000000   0.0000000   0.0000000   0.0000000   0.0000000   0.0000000   0.0000000   0.0000000   0.0000000
 NMagM=    0.0000000   2.7928460   2.7928460   0.0000000   2.7928460   2.7928460   0.0000000   2.7928460   2.7928460   0.0000000
 AtZNuc=   8.0000000   1.0000000   1.0000000   8.0000000   1.0000000   1.0000000   8.0000000   1.0000000   1.0000000   8.0000000

  Atom        81          82          83          84          85          86          87          88          89          90
 IAtWgt=           1           1          16           1           1          16           1           1          16           1
 AtmWgt=   1.0078250   1.0078250  15.9949146   1.0078250   1.0078250  15.9949146   1.0078250   1.0078250  15.9949146   1.0078250
 NucSpn=           1           1           0           1           1           0           1           1           0           1
 AtZEff=   0.0000000   0.0000000   0.0000000   0.0000000   0.0000000   0.0000000   0.0000000   0.0000000   0.0000000   0.0000000
 NQMom=    0.0000000   0.0000000   0.0000000   0.0000000   0.0000000   0.0000000   0.0000000   0.0000000   0.0000000   0.0000000
 NMagM=    2.7928460   2.7928460   0.0000000   2.7928460   2.7928460   0.0000000   2.7928460   2.7928460   0.0000000   2.7928460
 AtZNuc=   1.0000000   1.0000000   8.0000000   1.0000000   1.0000000   8.0000000   1.0000000   1.0000000   8.0000000   1.0000000

  Atom        91          92          93          94          95          96          97          98          99         100
 IAtWgt=           1          16           1           1          16           1           1          16           1           1
 AtmWgt=   1.0078250  15.9949146   1.0078250   1.0078250  15.9949146   1.0078250   1.0078250  15.9949146   1.0078250   1.0078250
 NucSpn=           1           0           1           1           0           1           1           0           1           1
 AtZEff=   0.0000000   0.0000000   0.0000000   0.0000000   0.0000000   0.0000000   0.0000000   0.0000000   0.0000000   0.0000000
 NQMom=    0.0000000   0.0000000   0.0000000   0.0000000   0.0000000   0.0000000   0.0000000   0.0000000   0.0000000   0.0000000
 NMagM=    2.7928460   0.0000000   2.7928460   2.7928460   0.0000000   2.7928460   2.7928460   0.0000000   2.7928460   2.7928460
 AtZNuc=   1.0000000   8.0000000   1.0000000   1.0000000   8.0000000   1.0000000   1.0000000   8.0000000   1.0000000   1.0000000

  Atom       101         102         103         104         105         106         107         108         109         110
 IAtWgt=          16           1           1          16           1           1          16           1           1          16
 AtmWgt=  15.9949146   1.0078250   1.0078250  15.9949146   1.0078250   1.0078250  15.9949146   1.0078250   1.0078250  15.9949146
 NucSpn=           0           1           1           0           1           1           0           1           1           0
 AtZEff=   0.0000000   0.0000000   0.0000000   0.0000000   0.0000000   0.0000000   0.0000000   0.0000000   0.0000000   0.0000000
 NQMom=    0.0000000   0.0000000   0.0000000   0.0000000   0.0000000   0.0000000   0.0000000   0.0000000   0.0000000   0.0000000
 NMagM=    0.0000000   2.7928460   2.7928460   0.0000000   2.7928460   2.7928460   0.0000000   2.7928460   2.7928460   0.0000000
 AtZNuc=   8.0000000   1.0000000   1.0000000   8.0000000   1.0000000   1.0000000   8.0000000   1.0000000   1.0000000   8.0000000

  Atom       111         112         113         114         115         116         117         118         119         120
 IAtWgt=           1           1          16           1           1          16           1           1          16           1
 AtmWgt=   1.0078250   1.0078250  15.9949146   1.0078250   1.0078250  15.9949146   1.0078250   1.0078250  15.9949146   1.0078250
 NucSpn=           1           1           0           1           1           0           1           1           0           1
 AtZEff=   0.0000000   0.0000000   0.0000000   0.0000000   0.0000000   0.0000000   0.0000000   0.0000000   0.0000000   0.0000000
 NQMom=    0.0000000   0.0000000   0.0000000   0.0000000   0.0000000   0.0000000   0.0000000   0.0000000   0.0000000   0.0000000
 NMagM=    2.7928460   2.7928460   0.0000000   2.7928460   2.7928460   0.0000000   2.7928460   2.7928460   0.0000000   2.7928460
 AtZNuc=   1.0000000   1.0000000   8.0000000   1.0000000   1.0000000   8.0000000   1.0000000   1.0000000   8.0000000   1.0000000

  Atom       121         122         123         124         125         126         127         128         129         130
 IAtWgt=           1          16           1           1          16           1           1          16           1           1
 AtmWgt=   1.0078250  15.9949146   1.0078250   1.0078250  15.9949146   1.0078250   1.0078250  15.9949146   1.0078250   1.0078250
 NucSpn=           1           0           1           1           0           1           1           0           1           1
 AtZEff=   0.0000000   0.0000000   0.0000000   0.0000000   0.0000000   0.0000000   0.0000000   0.0000000   0.0000000   0.0000000
 NQMom=    0.0000000   0.0000000   0.0000000   0.0000000   0.0000000   0.0000000   0.0000000   0.0000000   0.0000000   0.0000000
 NMagM=    2.7928460   0.0000000   2.7928460   2.7928460   0.0000000   2.7928460   2.7928460   0.0000000   2.7928460   2.7928460
 AtZNuc=   1.0000000   8.0000000   1.0000000   1.0000000   8.0000000   1.0000000   1.0000000   8.0000000   1.0000000   1.0000000

  Atom       131         132         133         134         135         136         137         138         139         140
 IAtWgt=          16           1           1          16           1           1          16           1           1          16
 AtmWgt=  15.9949146   1.0078250   1.0078250  15.9949146   1.0078250   1.0078250  15.9949146   1.0078250   1.0078250  15.9949146
 NucSpn=           0           1           1           0           1           1           0           1           1           0
 AtZEff=   0.0000000   0.0000000   0.0000000   0.0000000   0.0000000   0.0000000   0.0000000   0.0000000   0.0000000   0.0000000
 NQMom=    0.0000000   0.0000000   0.0000000   0.0000000   0.0000000   0.0000000   0.0000000   0.0000000   0.0000000   0.0000000
 NMagM=    0.0000000   2.7928460   2.7928460   0.0000000   2.7928460   2.7928460   0.0000000   2.7928460   2.7928460   0.0000000
 AtZNuc=   8.0000000   1.0000000   1.0000000   8.0000000   1.0000000   1.0000000   8.0000000   1.0000000   1.0000000   8.0000000

  Atom       141         142         143         144         145         146         147         148         149         150
 IAtWgt=           1           1          16           1           1          16           1           1          16           1
 AtmWgt=   1.0078250   1.0078250  15.9949146   1.0078250   1.0078250  15.9949146   1.0078250   1.0078250  15.9949146   1.0078250
 NucSpn=           1           1           0           1           1           0           1           1           0           1
 AtZEff=   0.0000000   0.0000000   0.0000000   0.0000000   0.0000000   0.0000000   0.0000000   0.0000000   0.0000000   0.0000000
 NQMom=    0.0000000   0.0000000   0.0000000   0.0000000   0.0000000   0.0000000   0.0000000   0.0000000   0.0000000   0.0000000
 NMagM=    2.7928460   2.7928460   0.0000000   2.7928460   2.7928460   0.0000000   2.7928460   2.7928460   0.0000000   2.7928460
 AtZNuc=   1.0000000   1.0000000   8.0000000   1.0000000   1.0000000   8.0000000   1.0000000   1.0000000   8.0000000   1.0000000

  Atom       151         152         153         154         155         156         157         158         159         160
 IAtWgt=           1          16           1           1          16           1           1          16           1           1
 AtmWgt=   1.0078250  15.9949146   1.0078250   1.0078250  15.9949146   1.0078250   1.0078250  15.9949146   1.0078250   1.0078250
 NucSpn=           1           0           1           1           0           1           1           0           1           1
 AtZEff=   0.0000000   0.0000000   0.0000000   0.0000000   0.0000000   0.0000000   0.0000000   0.0000000   0.0000000   0.0000000
 NQMom=    0.0000000   0.0000000   0.0000000   0.0000000   0.0000000   0.0000000   0.0000000   0.0000000   0.0000000   0.0000000
 NMagM=    2.7928460   0.0000000   2.7928460   2.7928460   0.0000000   2.7928460   2.7928460   0.0000000   2.7928460   2.7928460
 AtZNuc=   1.0000000   8.0000000   1.0000000   1.0000000   8.0000000   1.0000000   1.0000000   8.0000000   1.0000000   1.0000000

  Atom       161         162         163         164         165         166         167         168         169         170
 IAtWgt=          16           1           1          16           1           1          16           1           1          16
 AtmWgt=  15.9949146   1.0078250   1.0078250  15.9949146   1.0078250   1.0078250  15.9949146   1.0078250   1.0078250  15.9949146
 NucSpn=           0           1           1           0           1           1           0           1           1           0
 AtZEff=   0.0000000   0.0000000   0.0000000   0.0000000   0.0000000   0.0000000   0.0000000   0.0000000   0.0000000   0.0000000
 NQMom=    0.0000000   0.0000000   0.0000000   0.0000000   0.0000000   0.0000000   0.0000000   0.0000000   0.0000000   0.0000000
 NMagM=    0.0000000   2.7928460   2.7928460   0.0000000   2.7928460   2.7928460   0.0000000   2.7928460   2.7928460   0.0000000
 AtZNuc=   8.0000000   1.0000000   1.0000000   8.0000000   1.0000000   1.0000000   8.0000000   1.0000000   1.0000000   8.0000000

  Atom       171         172         173         174         175         176         177         178         179         180
 IAtWgt=           1           1          16           1           1          16           1           1          16           1
 AtmWgt=   1.0078250   1.0078250  15.9949146   1.0078250   1.0078250  15.9949146   1.0078250   1.0078250  15.9949146   1.0078250
 NucSpn=           1           1           0           1           1           0           1           1           0           1
 AtZEff=   0.0000000   0.0000000   0.0000000   0.0000000   0.0000000   0.0000000   0.0000000   0.0000000   0.0000000   0.0000000
 NQMom=    0.0000000   0.0000000   0.0000000   0.0000000   0.0000000   0.0000000   0.0000000   0.0000000   0.0000000   0.0000000
 NMagM=    2.7928460   2.7928460   0.0000000   2.7928460   2.7928460   0.0000000   2.7928460   2.7928460   0.0000000   2.7928460
 AtZNuc=   1.0000000   1.0000000   8.0000000   1.0000000   1.0000000   8.0000000   1.0000000   1.0000000   8.0000000   1.0000000

  Atom       181         182         183         184         185         186         187         188         189         190
 IAtWgt=           1          16           1           1          16           1           1          16           1           1
 AtmWgt=   1.0078250  15.9949146   1.0078250   1.0078250  15.9949146   1.0078250   1.0078250  15.9949146   1.0078250   1.0078250
 NucSpn=           1           0           1           1           0           1           1           0           1           1
 AtZEff=   0.0000000   0.0000000   0.0000000   0.0000000   0.0000000   0.0000000   0.0000000   0.0000000   0.0000000   0.0000000
 NQMom=    0.0000000   0.0000000   0.0000000   0.0000000   0.0000000   0.0000000   0.0000000   0.0000000   0.0000000   0.0000000
 NMagM=    2.7928460   0.0000000   2.7928460   2.7928460   0.0000000   2.7928460   2.7928460   0.0000000   2.7928460   2.7928460
 AtZNuc=   1.0000000   8.0000000   1.0000000   1.0000000   8.0000000   1.0000000   1.0000000   8.0000000   1.0000000   1.0000000

  Atom       191         192         193         194         195         196         197         198         199         200
 IAtWgt=          16           1           1          16           1           1          16           1           1          16
 AtmWgt=  15.9949146   1.0078250   1.0078250  15.9949146   1.0078250   1.0078250  15.9949146   1.0078250   1.0078250  15.9949146
 NucSpn=           0           1           1           0           1           1           0           1           1           0
 AtZEff=   0.0000000   0.0000000   0.0000000   0.0000000   0.0000000   0.0000000   0.0000000   0.0000000   0.0000000   0.0000000
 NQMom=    0.0000000   0.0000000   0.0000000   0.0000000   0.0000000   0.0000000   0.0000000   0.0000000   0.0000000   0.0000000
 NMagM=    0.0000000   2.7928460   2.7928460   0.0000000   2.7928460   2.7928460   0.0000000   2.7928460   2.7928460   0.0000000
 AtZNuc=   8.0000000   1.0000000   1.0000000   8.0000000   1.0000000   1.0000000   8.0000000   1.0000000   1.0000000   8.0000000

  Atom       201         202         203         204         205         206         207         208         209         210
 IAtWgt=           1           1          16           1           1          16           1           1          16           1
 AtmWgt=   1.0078250   1.0078250  15.9949146   1.0078250   1.0078250  15.9949146   1.0078250   1.0078250  15.9949146   1.0078250
 NucSpn=           1           1           0           1           1           0           1           1           0           1
 AtZEff=   0.0000000   0.0000000   0.0000000   0.0000000   0.0000000   0.0000000   0.0000000   0.0000000   0.0000000   0.0000000
 NQMom=    0.0000000   0.0000000   0.0000000   0.0000000   0.0000000   0.0000000   0.0000000   0.0000000   0.0000000   0.0000000
 NMagM=    2.7928460   2.7928460   0.0000000   2.7928460   2.7928460   0.0000000   2.7928460   2.7928460   0.0000000   2.7928460
 AtZNuc=   1.0000000   1.0000000   8.0000000   1.0000000   1.0000000   8.0000000   1.0000000   1.0000000   8.0000000   1.0000000

  Atom       211         212         213         214         215         216         217         218         219         220
 IAtWgt=           1          16           1           1          16           1           1          16           1           1
 AtmWgt=   1.0078250  15.9949146   1.0078250   1.0078250  15.9949146   1.0078250   1.0078250  15.9949146   1.0078250   1.0078250
 NucSpn=           1           0           1           1           0           1           1           0           1           1
 AtZEff=   0.0000000   0.0000000   0.0000000   0.0000000   0.0000000   0.0000000   0.0000000   0.0000000   0.0000000   0.0000000
 NQMom=    0.0000000   0.0000000   0.0000000   0.0000000   0.0000000   0.0000000   0.0000000   0.0000000   0.0000000   0.0000000
 NMagM=    2.7928460   0.0000000   2.7928460   2.7928460   0.0000000   2.7928460   2.7928460   0.0000000   2.7928460   2.7928460
 AtZNuc=   1.0000000   8.0000000   1.0000000   1.0000000   8.0000000   1.0000000   1.0000000   8.0000000   1.0000000   1.0000000

  Atom       221         222         223         224         225         226         227         228         229         230
 IAtWgt=          16           1           1          16           1           1          16           1           1          16
 AtmWgt=  15.9949146   1.0078250   1.0078250  15.9949146   1.0078250   1.0078250  15.9949146   1.0078250   1.0078250  15.9949146
 NucSpn=           0           1           1           0           1           1           0           1           1           0
 AtZEff=   0.0000000   0.0000000   0.0000000   0.0000000   0.0000000   0.0000000   0.0000000   0.0000000   0.0000000   0.0000000
 NQMom=    0.0000000   0.0000000   0.0000000   0.0000000   0.0000000   0.0000000   0.0000000   0.0000000   0.0000000   0.0000000
 NMagM=    0.0000000   2.7928460   2.7928460   0.0000000   2.7928460   2.7928460   0.0000000   2.7928460   2.7928460   0.0000000
 AtZNuc=   8.0000000   1.0000000   1.0000000   8.0000000   1.0000000   1.0000000   8.0000000   1.0000000   1.0000000   8.0000000

  Atom       231         232         233         234         235         236         237         238         239         240
 IAtWgt=           1           1          16           1           1          16           1           1          16           1
 AtmWgt=   1.0078250   1.0078250  15.9949146   1.0078250   1.0078250  15.9949146   1.0078250   1.0078250  15.9949146   1.0078250
 NucSpn=           1           1           0           1           1           0           1           1           0           1
 AtZEff=   0.0000000   0.0000000   0.0000000   0.0000000   0.0000000   0.0000000   0.0000000   0.0000000   0.0000000   0.0000000
 NQMom=    0.0000000   0.0000000   0.0000000   0.0000000   0.0000000   0.0000000   0.0000000   0.0000000   0.0000000   0.0000000
 NMagM=    2.7928460   2.7928460   0.0000000   2.7928460   2.7928460   0.0000000   2.7928460   2.7928460   0.0000000   2.7928460
 AtZNuc=   1.0000000   1.0000000   8.0000000   1.0000000   1.0000000   8.0000000   1.0000000   1.0000000   8.0000000   1.0000000

  Atom       241         242         243         244         245         246         247         248         249         250
 IAtWgt=           1          16           1           1          16           1           1          16           1           1
 AtmWgt=   1.0078250  15.9949146   1.0078250   1.0078250  15.9949146   1.0078250   1.0078250  15.9949146   1.0078250   1.0078250
 NucSpn=           1           0           1           1           0           1           1           0           1           1
 AtZEff=   0.0000000   0.0000000   0.0000000   0.0000000   0.0000000   0.0000000   0.0000000   0.0000000   0.0000000   0.0000000
 NQMom=    0.0000000   0.0000000   0.0000000   0.0000000   0.0000000   0.0000000   0.0000000   0.0000000   0.0000000   0.0000000
 NMagM=    2.7928460   0.0000000   2.7928460   2.7928460   0.0000000   2.7928460   2.7928460   0.0000000   2.7928460   2.7928460
 AtZNuc=   1.0000000   8.0000000   1.0000000   1.0000000   8.0000000   1.0000000   1.0000000   8.0000000   1.0000000   1.0000000

  Atom       251         252         253         254         255         256         257         258         259         260
 IAtWgt=          16           1           1          16           1           1          16           1           1          16
 AtmWgt=  15.9949146   1.0078250   1.0078250  15.9949146   1.0078250   1.0078250  15.9949146   1.0078250   1.0078250  15.9949146
 NucSpn=           0           1           1           0           1           1           0           1           1           0
 AtZEff=   0.0000000   0.0000000   0.0000000   0.0000000   0.0000000   0.0000000   0.0000000   0.0000000   0.0000000   0.0000000
 NQMom=    0.0000000   0.0000000   0.0000000   0.0000000   0.0000000   0.0000000   0.0000000   0.0000000   0.0000000   0.0000000
 NMagM=    0.0000000   2.7928460   2.7928460   0.0000000   2.7928460   2.7928460   0.0000000   2.7928460   2.7928460   0.0000000
 AtZNuc=   8.0000000   1.0000000   1.0000000   8.0000000   1.0000000   1.0000000   8.0000000   1.0000000   1.0000000   8.0000000

  Atom       261         262         263         264         265         266         267         268         269         270
 IAtWgt=           1           1          16           1           1          16           1           1          16           1
 AtmWgt=   1.0078250   1.0078250  15.9949146   1.0078250   1.0078250  15.9949146   1.0078250   1.0078250  15.9949146   1.0078250
 NucSpn=           1           1           0           1           1           0           1           1           0           1
 AtZEff=   0.0000000   0.0000000   0.0000000   0.0000000   0.0000000   0.0000000   0.0000000   0.0000000   0.0000000   0.0000000
 NQMom=    0.0000000   0.0000000   0.0000000   0.0000000   0.0000000   0.0000000   0.0000000   0.0000000   0.0000000   0.0000000
 NMagM=    2.7928460   2.7928460   0.0000000   2.7928460   2.7928460   0.0000000   2.7928460   2.7928460   0.0000000   2.7928460
 AtZNuc=   1.0000000   1.0000000   8.0000000   1.0000000   1.0000000   8.0000000   1.0000000   1.0000000   8.0000000   1.0000000

  Atom       271         272         273         274         275         276         277         278         279         280
 IAtWgt=           1          16           1           1          16           1           1          16           1           1
 AtmWgt=   1.0078250  15.9949146   1.0078250   1.0078250  15.9949146   1.0078250   1.0078250  15.9949146   1.0078250   1.0078250
 NucSpn=           1           0           1           1           0           1           1           0           1           1
 AtZEff=   0.0000000   0.0000000   0.0000000   0.0000000   0.0000000   0.0000000   0.0000000   0.0000000   0.0000000   0.0000000
 NQMom=    0.0000000   0.0000000   0.0000000   0.0000000   0.0000000   0.0000000   0.0000000   0.0000000   0.0000000   0.0000000
 NMagM=    2.7928460   0.0000000   2.7928460   2.7928460   0.0000000   2.7928460   2.7928460   0.0000000   2.7928460   2.7928460
 AtZNuc=   1.0000000   8.0000000   1.0000000   1.0000000   8.0000000   1.0000000   1.0000000   8.0000000   1.0000000   1.0000000

  Atom       281         282         283         284         285         286         287         288         289         290
 IAtWgt=          16           1           1          16           1           1          16           1           1          16
 AtmWgt=  15.9949146   1.0078250   1.0078250  15.9949146   1.0078250   1.0078250  15.9949146   1.0078250   1.0078250  15.9949146
 NucSpn=           0           1           1           0           1           1           0           1           1           0
 AtZEff=   0.0000000   0.0000000   0.0000000   0.0000000   0.0000000   0.0000000   0.0000000   0.0000000   0.0000000   0.0000000
 NQMom=    0.0000000   0.0000000   0.0000000   0.0000000   0.0000000   0.0000000   0.0000000   0.0000000   0.0000000   0.0000000
 NMagM=    0.0000000   2.7928460   2.7928460   0.0000000   2.7928460   2.7928460   0.0000000   2.7928460   2.7928460   0.0000000
 AtZNuc=   8.0000000   1.0000000   1.0000000   8.0000000   1.0000000   1.0000000   8.0000000   1.0000000   1.0000000   8.0000000

  Atom       291         292         293         294         295         296         297         298         299         300
 IAtWgt=           1           1          16           1           1          16           1           1          16           1
 AtmWgt=   1.0078250   1.0078250  15.9949146   1.0078250   1.0078250  15.9949146   1.0078250   1.0078250  15.9949146   1.0078250
 NucSpn=           1           1           0           1           1           0           1           1           0           1
 AtZEff=   0.0000000   0.0000000   0.0000000   0.0000000   0.0000000   0.0000000   0.0000000   0.0000000   0.0000000   0.0000000
 NQMom=    0.0000000   0.0000000   0.0000000   0.0000000   0.0000000   0.0000000   0.0000000   0.0000000   0.0000000   0.0000000
 NMagM=    2.7928460   2.7928460   0.0000000   2.7928460   2.7928460   0.0000000   2.7928460   2.7928460   0.0000000   2.7928460
 AtZNuc=   1.0000000   1.0000000   8.0000000   1.0000000   1.0000000   8.0000000   1.0000000   1.0000000   8.0000000   1.0000000

  Atom       301         302         303         304         305         306         307         308         309         310
 IAtWgt=           1          16           1           1          16           1           1          16           1           1
 AtmWgt=   1.0078250  15.9949146   1.0078250   1.0078250  15.9949146   1.0078250   1.0078250  15.9949146   1.0078250   1.0078250
 NucSpn=           1           0           1           1           0           1           1           0           1           1
 AtZEff=   0.0000000   0.0000000   0.0000000   0.0000000   0.0000000   0.0000000   0.0000000   0.0000000   0.0000000   0.0000000
 NQMom=    0.0000000   0.0000000   0.0000000   0.0000000   0.0000000   0.0000000   0.0000000   0.0000000   0.0000000   0.0000000
 NMagM=    2.7928460   0.0000000   2.7928460   2.7928460   0.0000000   2.7928460   2.7928460   0.0000000   2.7928460   2.7928460
 AtZNuc=   1.0000000   8.0000000   1.0000000   1.0000000   8.0000000   1.0000000   1.0000000   8.0000000   1.0000000   1.0000000

  Atom       311         312         313         314         315         316         317         318         319         320
 IAtWgt=          16           1           1          16           1           1          16           1           1          16
 AtmWgt=  15.9949146   1.0078250   1.0078250  15.9949146   1.0078250   1.0078250  15.9949146   1.0078250   1.0078250  15.9949146
 NucSpn=           0           1           1           0           1           1           0           1           1           0
 AtZEff=   0.0000000   0.0000000   0.0000000   0.0000000   0.0000000   0.0000000   0.0000000   0.0000000   0.0000000   0.0000000
 NQMom=    0.0000000   0.0000000   0.0000000   0.0000000   0.0000000   0.0000000   0.0000000   0.0000000   0.0000000   0.0000000
 NMagM=    0.0000000   2.7928460   2.7928460   0.0000000   2.7928460   2.7928460   0.0000000   2.7928460   2.7928460   0.0000000
 AtZNuc=   8.0000000   1.0000000   1.0000000   8.0000000   1.0000000   1.0000000   8.0000000   1.0000000   1.0000000   8.0000000

  Atom       321         322         323         324         325         326         327         328         329         330
 IAtWgt=           1           1          16           1           1          16           1           1          16           1
 AtmWgt=   1.0078250   1.0078250  15.9949146   1.0078250   1.0078250  15.9949146   1.0078250   1.0078250  15.9949146   1.0078250
 NucSpn=           1           1           0           1           1           0           1           1           0           1
 AtZEff=   0.0000000   0.0000000   0.0000000   0.0000000   0.0000000   0.0000000   0.0000000   0.0000000   0.0000000   0.0000000
 NQMom=    0.0000000   0.0000000   0.0000000   0.0000000   0.0000000   0.0000000   0.0000000   0.0000000   0.0000000   0.0000000
 NMagM=    2.7928460   2.7928460   0.0000000   2.7928460   2.7928460   0.0000000   2.7928460   2.7928460   0.0000000   2.7928460
 AtZNuc=   1.0000000   1.0000000   8.0000000   1.0000000   1.0000000   8.0000000   1.0000000   1.0000000   8.0000000   1.0000000

  Atom       331         332         333         334         335         336         337         338         339         340
 IAtWgt=           1          16           1           1          16           1           1          16           1           1
 AtmWgt=   1.0078250  15.9949146   1.0078250   1.0078250  15.9949146   1.0078250   1.0078250  15.9949146   1.0078250   1.0078250
 NucSpn=           1           0           1           1           0           1           1           0           1           1
 AtZEff=   0.0000000   0.0000000   0.0000000   0.0000000   0.0000000   0.0000000   0.0000000   0.0000000   0.0000000   0.0000000
 NQMom=    0.0000000   0.0000000   0.0000000   0.0000000   0.0000000   0.0000000   0.0000000   0.0000000   0.0000000   0.0000000
 NMagM=    2.7928460   0.0000000   2.7928460   2.7928460   0.0000000   2.7928460   2.7928460   0.0000000   2.7928460   2.7928460
 AtZNuc=   1.0000000   8.0000000   1.0000000   1.0000000   8.0000000   1.0000000   1.0000000   8.0000000   1.0000000   1.0000000

  Atom       341         342         343         344         345         346         347         348         349         350
 IAtWgt=          16           1           1          16           1           1          16           1           1          16
 AtmWgt=  15.9949146   1.0078250   1.0078250  15.9949146   1.0078250   1.0078250  15.9949146   1.0078250   1.0078250  15.9949146
 NucSpn=           0           1           1           0           1           1           0           1           1           0
 AtZEff=   0.0000000   0.0000000   0.0000000   0.0000000   0.0000000   0.0000000   0.0000000   0.0000000   0.0000000   0.0000000
 NQMom=    0.0000000   0.0000000   0.0000000   0.0000000   0.0000000   0.0000000   0.0000000   0.0000000   0.0000000   0.0000000
 NMagM=    0.0000000   2.7928460   2.7928460   0.0000000   2.7928460   2.7928460   0.0000000   2.7928460   2.7928460   0.0000000
 AtZNuc=   8.0000000   1.0000000   1.0000000   8.0000000   1.0000000   1.0000000   8.0000000   1.0000000   1.0000000   8.0000000

  Atom       351         352         353         354         355         356         357         358         359         360
 IAtWgt=           1           1          16           1           1          16           1           1          16           1
 AtmWgt=   1.0078250   1.0078250  15.9949146   1.0078250   1.0078250  15.9949146   1.0078250   1.0078250  15.9949146   1.0078250
 NucSpn=           1           1           0           1           1           0           1           1           0           1
 AtZEff=   0.0000000   0.0000000   0.0000000   0.0000000   0.0000000   0.0000000   0.0000000   0.0000000   0.0000000   0.0000000
 NQMom=    0.0000000   0.0000000   0.0000000   0.0000000   0.0000000   0.0000000   0.0000000   0.0000000   0.0000000   0.0000000
 NMagM=    2.7928460   2.7928460   0.0000000   2.7928460   2.7928460   0.0000000   2.7928460   2.7928460   0.0000000   2.7928460
 AtZNuc=   1.0000000   1.0000000   8.0000000   1.0000000   1.0000000   8.0000000   1.0000000   1.0000000   8.0000000   1.0000000

  Atom       361         362         363         364         365         366         367         368         369         370
 IAtWgt=           1          16           1           1          16           1           1          16           1           1
 AtmWgt=   1.0078250  15.9949146   1.0078250   1.0078250  15.9949146   1.0078250   1.0078250  15.9949146   1.0078250   1.0078250
 NucSpn=           1           0           1           1           0           1           1           0           1           1
 AtZEff=   0.0000000   0.0000000   0.0000000   0.0000000   0.0000000   0.0000000   0.0000000   0.0000000   0.0000000   0.0000000
 NQMom=    0.0000000   0.0000000   0.0000000   0.0000000   0.0000000   0.0000000   0.0000000   0.0000000   0.0000000   0.0000000
 NMagM=    2.7928460   0.0000000   2.7928460   2.7928460   0.0000000   2.7928460   2.7928460   0.0000000   2.7928460   2.7928460
 AtZNuc=   1.0000000   8.0000000   1.0000000   1.0000000   8.0000000   1.0000000   1.0000000   8.0000000   1.0000000   1.0000000

  Atom       371         372         373         374         375         376         377         378         379         380
 IAtWgt=          16           1           1          16           1           1          16           1           1          16
 AtmWgt=  15.9949146   1.0078250   1.0078250  15.9949146   1.0078250   1.0078250  15.9949146   1.0078250   1.0078250  15.9949146
 NucSpn=           0           1           1           0           1           1           0           1           1           0
 AtZEff=   0.0000000   0.0000000   0.0000000   0.0000000   0.0000000   0.0000000   0.0000000   0.0000000   0.0000000   0.0000000
 NQMom=    0.0000000   0.0000000   0.0000000   0.0000000   0.0000000   0.0000000   0.0000000   0.0000000   0.0000000   0.0000000
 NMagM=    0.0000000   2.7928460   2.7928460   0.0000000   2.7928460   2.7928460   0.0000000   2.7928460   2.7928460   0.0000000
 AtZNuc=   8.0000000   1.0000000   1.0000000   8.0000000   1.0000000   1.0000000   8.0000000   1.0000000   1.0000000   8.0000000

  Atom       381         382         383         384         385
 IAtWgt=           1           1          16           1           1
 AtmWgt=   1.0078250   1.0078250  15.9949146   1.0078250   1.0078250
 NucSpn=           1           1           0           1           1
 AtZEff=   0.0000000   0.0000000   0.0000000   0.0000000   0.0000000
 NQMom=    0.0000000   0.0000000   0.0000000   0.0000000   0.0000000
 NMagM=    2.7928460   2.7928460   0.0000000   2.7928460   2.7928460
 AtZNuc=   1.0000000   1.0000000   8.0000000   1.0000000   1.0000000
 Leave Link  101 at Thu May 10 11:07:40 2018, MaxMem= 14763950080 cpu:        64.8
 (Enter /cm/shared/gaussian/g09.e01/intel64-sandybridge/g09/l103.exe)

 GradGradGradGradGradGradGradGradGradGradGradGradGradGradGradGradGradGrad
 Berny optimization.
 Initialization pass.
 Trust Radius=3.00D-01 FncErr=1.00D-07 GrdErr=1.00D-07
 Number of steps in this run=      2 maximum allowed number of steps=      2.
 GradGradGradGradGradGradGradGradGradGradGradGradGradGradGradGradGradGrad

 Leave Link  103 at Thu May 10 11:07:41 2018, MaxMem= 14763950080 cpu:         5.1
 (Enter /cm/shared/gaussian/g09.e01/intel64-sandybridge/g09/l202.exe)
 Symmetry turned off by external request.
 Stoichiometry    BrH256O128(1-)
 Framework group  C1[X(BrH256O128)]
 Deg. of freedom  1149
 Full point group                 C1      NOp   1
                          Input orientation:                          
 ---------------------------------------------------------------------
 Center     Atomic      Atomic             Coordinates (Angstroms)
 Number     Number       Type             X           Y           Z
 ---------------------------------------------------------------------
      1         35           0       20.000000   20.000000   20.000000
      2          8           0       21.790000   17.950000   22.000000
      3          1           0       21.330000   18.500000   21.360000
      4          1           0       22.580000   17.660000   21.540000
      5          8           0       20.850000   17.090000   19.310000
      6          1           0       19.980000   17.170000   19.720000
      7          1           0       21.010000   17.950000   18.930000
      8          8           0       18.990000   18.720000   23.040000
      9          1           0       18.820000   19.360000   22.350000
     10          1           0       19.870000   18.400000   22.860000
     11          8           0       17.740000   18.340000   17.660000
     12          1           0       17.150000   17.730000   18.090000
     13          1           0       18.520000   18.360000   18.220000
     14          8           0       18.010000   22.560000   20.860000
     15          1           0       18.870000   22.440000   21.250000
     16          1           0       17.610000   21.680000   20.870000
     17          8           0       17.210000   21.740000   18.450000
     18          1           0       17.590000   20.870000   18.300000
     19          1           0       17.780000   22.130000   19.120000
     20          8           0       21.900000   23.310000   20.780000
     21          1           0       22.610000   23.650000   20.240000
     22          1           0       21.300000   22.900000   20.160000
     23          8           0       23.660000   21.170000   18.470000
     24          1           0       23.470000   20.960000   17.550000
     25          1           0       22.880000   20.880000   18.940000
     26          8           0       24.010000   18.370000   20.280000
     27          1           0       23.460000   18.930000   19.730000
     28          1           0       24.690000   18.960000   20.610000
     29          8           0       20.230000   22.730000   22.990000
     30          1           0       20.790000   22.790000   22.220000
     31          1           0       20.750000   22.220000   23.620000
     32          8           0       23.860000   21.320000   22.070000
     33          1           0       23.020000   21.310000   21.610000
     34          1           0       23.780000   22.030000   22.700000
     35          8           0       20.360000   23.440000   18.470000
     36          1           0       19.930000   23.100000   17.680000
     37          1           0       20.220000   24.390000   18.430000
     38          8           0       21.670000   21.230000   16.260000
     39          1           0       22.380000   21.870000   16.250000
     40          1           0       20.940000   21.690000   16.660000
     41          8           0       19.940000   17.670000   15.390000
     42          1           0       20.170000   17.930000   16.280000
     43          1           0       20.450000   18.240000   14.820000
     44          8           0       17.830000   20.340000   15.580000
     45          1           0       17.720000   19.660000   16.250000
     46          1           0       18.330000   19.910000   14.890000
     47          8           0       22.440000   17.710000   17.100000
     48          1           0       22.110000   16.900000   17.480000
     49          1           0       23.120000   17.430000   16.490000
     50          8           0       19.190000   22.670000   16.240000
     51          1           0       19.140000   22.940000   15.330000
     52          1           0       18.420000   22.120000   16.380000
     53          8           0       18.510000   15.700000   19.970000
     54          1           0       17.570000   15.570000   19.920000
     55          1           0       18.860000   14.860000   20.250000
     56          8           0       14.770000   21.450000   20.050000
     57          1           0       15.600000   21.560000   19.580000
     58          1           0       14.390000   22.330000   20.080000
     59          8           0       16.220000   17.260000   22.090000
     60          1           0       15.660000   17.020000   22.830000
     61          1           0       17.110000   17.240000   22.450000
     62          8           0       21.790000   14.570000   19.740000
     63          1           0       21.530000   15.480000   19.610000
     64          1           0       22.560000   14.460000   19.180000
     65          8           0       23.780000   18.060000   24.110000
     66          1           0       23.100000   18.240000   23.460000
     67          1           0       23.420000   18.400000   24.930000
     68          8           0       15.710000   20.380000   22.580000
     69          1           0       15.270000   21.020000   22.020000
     70          1           0       15.180000   19.590000   22.510000
     71          8           0       15.720000   16.860000   19.390000
     72          1           0       15.920000   16.980000   20.320000
     73          1           0       15.250000   17.660000   19.150000
     74          8           0       24.120000   19.760000   15.750000
     75          1           0       23.250000   20.090000   15.940000
     76          1           0       24.040000   18.810000   15.800000
     77          8           0       19.570000   14.650000   17.440000
     78          1           0       20.160000   14.410000   18.160000
     79          1           0       19.030000   15.350000   17.800000
     80          8           0       21.480000   25.780000   19.850000
     81          1           0       22.340000   26.210000   19.890000
     82          1           0       21.540000   25.080000   20.500000
     83          8           0       16.430000   19.800000   25.110000
     84          1           0       15.570000   20.220000   25.170000
     85          1           0       16.740000   20.010000   24.230000
     86          8           0       18.380000   24.780000   23.490000
     87          1           0       17.660000   24.270000   23.880000
     88          1           0       19.050000   24.130000   23.290000
     89          8           0       24.180000   23.910000   19.110000
     90          1           0       24.950000   23.860000   19.670000
     91          1           0       24.190000   23.100000   18.600000
     92          8           0       17.610000   16.880000   24.860000
     93          1           0       18.310000   16.340000   25.230000
     94          1           0       18.060000   17.620000   24.460000
     95          8           0       16.540000   25.260000   19.520000
     96          1           0       17.070000   24.530000   19.190000
     97          1           0       16.460000   25.860000   18.780000
     98          8           0       14.630000   19.050000   18.250000
     99          1           0       14.420000   19.630000   18.980000
    100          1           0       13.810000   18.570000   18.080000
    101          8           0       19.310000   20.010000   26.300000
    102          1           0       18.700000   19.920000   25.570000
    103          1           0       18.770000   20.350000   27.020000
    104          8           0       23.320000   23.430000   23.790000
    105          1           0       22.750000   22.820000   24.250000
    106          1           0       23.120000   24.280000   24.190000
    107          8           0       26.390000   20.090000   21.470000
    108          1           0       25.680000   20.720000   21.310000
    109          1           0       26.240000   19.790000   22.370000
    110          8           0       22.680000   14.940000   23.660000
    111          1           0       22.580000   15.740000   23.140000
    112          1           0       22.370000   15.180000   24.530000
    113          8           0       22.160000   18.680000   26.090000
    114          1           0       21.940000   19.490000   25.630000
    115          1           0       21.320000   18.260000   26.260000
    116          8           0       26.340000   21.930000   17.940000
    117          1           0       25.530000   21.430000   18.010000
    118          1           0       27.030000   21.280000   17.890000
    119          8           0       21.640000   19.420000   13.860000
    120          1           0       21.710000   20.320000   14.190000
    121          1           0       21.520000   19.520000   12.920000
    122          8           0       15.540000   17.300000   15.940000
    123          1           0       15.370000   17.930000   16.640000
    124          1           0       14.670000   17.070000   15.610000
    125          8           0       21.520000   15.390000   15.140000
    126          1           0       20.810000   15.770000   15.670000
    127          1           0       22.110000   15.000000   15.790000
    128          8           0       19.970000   25.690000   16.890000
    129          1           0       19.740000   25.010000   16.260000
    130          1           0       19.860000   26.510000   16.410000
    131          8           0       17.490000   16.960000   14.240000
    132          1           0       18.290000   16.990000   14.770000
    133          1           0       16.780000   17.090000   14.870000
    134          8           0       26.320000   16.620000   19.130000
    135          1           0       25.560000   16.920000   19.630000
    136          1           0       26.590000   15.810000   19.560000
    137          8           0       23.000000   25.740000   17.130000
    138          1           0       23.510000   25.230000   17.760000
    139          1           0       22.120000   25.370000   17.180000
    140          8           0       22.230000   21.610000   25.810000
    141          1           0       21.660000   21.020000   26.300000
    142          1           0       22.900000   21.870000   26.440000
    143          8           0       23.380000   23.060000   15.430000
    144          1           0       23.930000   22.960000   14.650000
    145          1           0       22.720000   23.700000   15.170000
    146          8           0       14.860000   21.510000   14.710000
    147          1           0       15.200000   20.710000   14.310000
    148          1           0       15.140000   21.460000   15.620000
    149          8           0       18.170000   20.950000   13.020000
    150          1           0       17.840000   21.400000   13.800000
    151          1           0       17.490000   20.320000   12.810000
    152          8           0       19.900000   13.790000   23.400000
    153          1           0       20.200000   13.090000   22.810000
    154          1           0       20.690000   14.280000   23.610000
    155          8           0       19.590000   13.030000   20.170000
    156          1           0       19.450000   12.090000   20.090000
    157          1           0       20.510000   13.170000   19.940000
    158          8           0       17.750000   26.750000   21.870000
    159          1           0       17.140000   26.220000   21.360000
    160          1           0       18.150000   26.130000   22.480000
    161          8           0       23.170000   14.520000   17.260000
    162          1           0       23.300000   13.620000   16.970000
    163          1           0       23.700000   15.050000   16.660000
    164          8           0       13.790000   24.040000   20.210000
    165          1           0       14.590000   24.430000   19.840000
    166          1           0       13.620000   24.540000   21.000000
    167          8           0       19.940000   28.020000   20.190000
    168          1           0       19.140000   27.970000   20.700000
    169          1           0       20.110000   27.120000   19.910000
    170          8           0       20.080000   16.560000   26.240000
    171          1           0       20.810000   16.020000   26.550000
    172          1           0       19.830000   17.080000   27.000000
    173          8           0       25.410000   21.700000   25.340000
    174          1           0       25.250000   20.970000   24.750000
    175          1           0       25.220000   21.350000   26.210000
    176          8           0       18.620000   22.990000   26.830000
    177          1           0       18.100000   23.360000   26.110000
    178          1           0       17.960000   22.660000   27.440000
    179          8           0       17.270000   18.860000   27.660000
    180          1           0       16.380000   18.810000   27.990000
    181          1           0       17.180000   19.080000   26.730000
    182          8           0       12.710000   20.040000   22.580000
    183          1           0       11.970000   19.540000   22.240000
    184          1           0       12.880000   20.710000   21.910000
    185          8           0       20.910000   26.540000   24.400000
    186          1           0       20.570000   27.210000   24.990000
    187          1           0       20.280000   26.500000   23.680000
    188          8           0       18.270000   24.540000   13.960000
    189          1           0       18.840000   23.840000   13.630000
    190          1           0       18.400000   25.270000   13.360000
    191          8           0       26.290000   18.740000   24.980000
    192          1           0       26.020000   18.950000   25.880000
    193          1           0       25.620000   18.140000   24.660000
    194          8           0       17.140000   13.960000   25.190000
    195          1           0       17.220000   14.790000   24.710000
    196          1           0       16.760000   14.200000   26.040000
    197          8           0       13.510000   14.550000   19.500000
    198          1           0       13.730000   13.950000   20.210000
    199          1           0       14.280000   15.090000   19.390000
    200          8           0       25.260000   16.260000   16.020000
    201          1           0       25.830000   17.000000   16.220000
    202          1           0       25.860000   15.530000   15.890000
    203          8           0       26.700000   22.970000   22.870000
    204          1           0       27.300000   22.250000   23.060000
    205          1           0       26.040000   22.920000   23.560000
    206          8           0       26.100000   20.520000   14.000000
    207          1           0       25.480000   20.780000   13.320000
[...]
   X336      36.96304  -0.00110   0.00000  -0.00180  -0.00133  36.96172
   Y336      35.79141   0.00681   0.00000   0.00561   0.00467  35.79608
   Z336      56.16266   0.00153   0.00000  -0.00087  -0.00075  56.16191
   X337      35.14891  -0.01119   0.00000  -0.00377  -0.00331  35.14560
   Y337      34.69537   0.00504   0.00000   0.00354   0.00265  34.69802
   Z337      54.23514  -0.00890   0.00000  -0.00712  -0.00701  54.22813
   X338      55.02882   0.00171   0.00000   0.00048   0.00065  55.02947
   Y338      33.58043   0.01052   0.00000   0.00447   0.00464  33.58507
   Z338      36.20715  -0.00402   0.00000  -0.00871  -0.00899  36.19817
   X339      56.38943   0.00684   0.00000   0.00496   0.00516  56.39459
   Y339      32.50329  -0.00334   0.00000  -0.00030  -0.00013  32.50316
   Z339      36.69848   0.00335   0.00000   0.00369   0.00335  36.70183
   X340      53.74381  -0.01394   0.00000  -0.01605  -0.01586  53.72795
   Y340      32.44660  -0.00782   0.00000  -0.00585  -0.00568  32.44092
   Z340      35.64023   0.00105   0.00000   0.00662   0.00632  35.64656
   X341      53.38476   0.01790   0.00000   0.01181   0.01206  53.39683
   Y341      38.68269   0.01581   0.00000   0.00916   0.00892  38.69161
   Z341      45.90145  -0.01689   0.00000  -0.00951  -0.00955  45.89190
   X342      52.45880  -0.02054   0.00000  -0.02049  -0.02021  52.43859
   Y342      37.20871  -0.01659   0.00000  -0.00460  -0.00488  37.20382
   Z342      46.35498   0.00827   0.00000   0.00437   0.00429  46.35927
   X343      53.17689  -0.00269   0.00000  -0.00206  -0.00181  53.17509
   Y343      39.79763   0.00493   0.00000   0.00403   0.00372  39.80135
   Z343      47.29985   0.00961   0.00000   0.00714   0.00715  47.30699
   X344      48.49037  -0.00502   0.00000  -0.00509  -0.00460  48.48578
   Y344      26.72073  -0.00225   0.00000   0.00196   0.00154  26.72227
   Z344      47.99904   0.01305   0.00000   0.00746   0.00701  48.00606
   X345      50.21002   0.00436   0.00000   0.00117   0.00167  50.21170
   Y345      26.15381  -0.00111   0.00000  -0.00002  -0.00041  26.15340
   Z345      47.98015   0.00000   0.00000   0.00132   0.00083  47.98098
   X346      48.24471  -0.00231   0.00000  -0.00308  -0.00263  48.24208
   Y346      27.45772   0.00666   0.00000   0.00544   0.00508  27.46281
   Z346      46.37388  -0.01455   0.00000  -0.01025  -0.01066  46.36322
   X347      48.01794   0.00590   0.00000   0.00290   0.00293  48.02087
   Y347      49.85098   0.00124   0.00000   0.00244   0.00216  49.85314
   Z347      44.23849  -0.01032   0.00000  -0.00478  -0.00427  44.23421
   X348      46.67624  -0.00873   0.00000  -0.00539  -0.00535  46.67089
   Y348      50.30451   0.00499   0.00000   0.00639   0.00605  50.31056
   Z348      45.37232   0.01023   0.00000   0.00798   0.00853  45.38085
   X349      49.09508  -0.00029   0.00000  -0.00345  -0.00339  49.09170
   Y349      48.79273  -0.00398   0.00000  -0.00374  -0.00404  48.78869
   Z349      45.24004   0.00606   0.00000   0.00647   0.00691  45.24696
   X350      20.84368  -0.00723   0.00000  -0.00419  -0.00417  20.83951
   Y350      45.29674  -0.00487   0.00000  -0.00153  -0.00207  45.29467
   Z350      39.11733   0.00926   0.00000   0.00712   0.00790  39.12523
   X351      19.93661  -0.00013   0.00000   0.00119   0.00118  19.93779
   Y351      46.63844   0.00388   0.00000   0.00300   0.00249  46.64093
   Z351      38.30475  -0.00332   0.00000  -0.00339  -0.00254  38.30220
   X352      22.52554   0.00638   0.00000   0.00116   0.00117  22.52670
   Y352      45.41012  -0.00090   0.00000  -0.00343  -0.00390  45.40621
   Z352      38.43703  -0.00881   0.00000  -0.01147  -0.01072  38.42631
   X353      41.53618  -0.01088   0.00000  -0.00747  -0.00694  41.52924
   Y353      30.76474  -0.00850   0.00000  -0.00329  -0.00407  30.76067
   Z353      54.12176   0.01226   0.00000   0.01217   0.01201  54.13377
   X354      40.95037  -0.00136   0.00000  -0.00159  -0.00110  40.94926
   Y354      32.42770   0.00895   0.00000   0.00738   0.00660  32.43430
   Z354      53.72491   0.00033   0.00000   0.00406   0.00397  53.72889
   X355      43.18024   0.00777   0.00000  -0.00083  -0.00032  43.17992
   Y355      30.67026   0.00305   0.00000   0.00478   0.00406  30.67431
   Z355      53.38476  -0.01102   0.00000  -0.01284  -0.01303  53.37173
   X356      43.25583   0.00615   0.00000   0.00918   0.00944  43.26527
   Y356      22.82789   0.00409   0.00000  -0.00060  -0.00040  22.82749
   Z356      30.46239   0.00627   0.00000   0.01117   0.01066  30.47304
   X357      43.40701  -0.00089   0.00000  -0.00222  -0.00196  43.40505
   Y357      21.41060  -0.00228   0.00000   0.00171   0.00196  21.41256
   Z357      29.34745  -0.00518   0.00000  -0.00497  -0.00554  29.34191
   X358      42.25428  -0.00741   0.00000  -0.01178  -0.01148  42.24280
   Y358      22.20428  -0.00338   0.00000  -0.00460  -0.00448  22.19981
   Z358      31.84189   0.00102   0.00000  -0.00067  -0.00119  31.84069
   X359      29.23406   0.01945   0.00000   0.01150   0.01178  29.24584
   Y359      43.46370   0.00936   0.00000   0.00817   0.00724  43.47095
   Z359      52.38321   0.00264   0.00000  -0.00642  -0.00586  52.37735
   X360      28.23251  -0.01302   0.00000  -0.00815  -0.00786  28.22465
   Y360      42.23538  -0.01521   0.00000  -0.00989  -0.01080  42.22458
   Z360      51.53283  -0.01271   0.00000  -0.01134  -0.01082  51.52202
   X361      28.06243  -0.00703   0.00000  -0.00528  -0.00501  28.05742
   Y361      44.74871   0.00407   0.00000   0.00121   0.00024  44.74896
   Z361      52.87454   0.00665   0.00000   0.00966   0.01029  52.88482
   X362      43.33142  -0.00711   0.00000  -0.00328  -0.00340  43.32802
   Y362      55.23669   0.01535   0.00000   0.01263   0.01241  55.24911
   Z362      40.70470   0.01738   0.00000   0.01450   0.01530  40.72000
   X363      42.97237  -0.00180   0.00000  -0.00363  -0.00380  42.96857
   Y363      56.25715  -0.00173   0.00000  -0.00350  -0.00365  56.25349
   Z363      39.24961  -0.00389   0.00000  -0.00223  -0.00139  39.24822
   X364      44.12511   0.00632   0.00000   0.00248   0.00237  44.12747
   Y364      53.76271  -0.00917   0.00000  -0.00021  -0.00038  53.76233
   Z364      40.04330  -0.00890   0.00000  -0.00604  -0.00532  40.03798
   X365      51.70291   0.00366   0.00000   0.00866   0.00898  51.71189
   Y365      27.38213   0.00040   0.00000  -0.00619  -0.00618  27.37596
   Z365      38.64490  -0.01365   0.00000  -0.00897  -0.00945  38.63545
   X366      51.15489  -0.00651   0.00000  -0.00784  -0.00748  51.14741
   Y366      26.19160  -0.00715   0.00000  -0.00272  -0.00276  26.18884
   Z366      39.87322   0.01083   0.00000   0.00912   0.00861  39.88183
   X367      53.12020   0.00529   0.00000   0.00276   0.00308  53.12329
   Y367      28.19471   0.00609   0.00000   0.00769   0.00770  28.20241
   Z367      39.41969   0.00590   0.00000   0.00706   0.00660  39.42629
   X368      41.81964  -0.00059   0.00000   0.00300   0.00341  41.82305
   Y368      38.34254  -0.01168   0.00000  -0.00560  -0.00640  38.33614
   Z368      54.76426  -0.00470   0.00000  -0.00439  -0.00425  54.76001
   X369      40.95037   0.00217   0.00000   0.00267   0.00311  40.95348
   Y369      37.58665   0.00058   0.00000   0.00006  -0.00082  37.58583
   Z369      56.18156  -0.00282   0.00000  -0.00421  -0.00409  56.17747
   X370      42.31097  -0.00124   0.00000  -0.00623  -0.00584  42.30513
   Y370      39.96771   0.01262   0.00000   0.01088   0.01006  39.97777
   Z370      55.36898   0.00345   0.00000   0.00055   0.00075  55.36973
   X371      31.21828  -0.00103   0.00000  -0.00176  -0.00188  31.21639
   Y371      55.25559   0.01599   0.00000   0.01467   0.01426  55.26985
   Z371      40.40234   0.00233   0.00000   0.00733   0.00833  40.41068
   X372      29.66870  -0.00032   0.00000   0.00412   0.00401  29.67271
   Y372      54.38632  -0.00601   0.00000  -0.00515  -0.00557  54.38075
   Z372      40.04330  -0.00136   0.00000  -0.00305  -0.00205  40.04125
   X373      32.27652   0.00132   0.00000  -0.00206  -0.00215  32.27437
   Y373      54.00837  -0.01167   0.00000  -0.01143  -0.01185  53.99653
   Z373      41.19603  -0.00091   0.00000  -0.00714  -0.00620  41.18983
   X374      51.68401   0.00131   0.00000   0.00187   0.00189  51.68590
   Y374      34.09066  -0.01846   0.00000  -0.01348  -0.01302  34.07764
   Z374      27.83567   0.01536   0.00000   0.00751   0.00731  27.84298
   X375      51.68401  -0.00651   0.00000  -0.01209  -0.01211  51.67190
   Y375      35.11111   0.01921   0.00000   0.01818   0.01869  35.12981
   Z375      26.36168  -0.01487   0.00000  -0.00378  -0.00393  26.35775
   X376      51.85409   0.00009   0.00000   0.00063   0.00067  51.85476
   Y376      32.38991   0.00014   0.00000  -0.00443  -0.00395  32.38596
   Z376      27.21206  -0.00065   0.00000  -0.00341  -0.00368  27.20838
   X377      45.33453  -0.00520   0.00000   0.00168   0.00197  45.33650
   Y377      42.99127  -0.01439   0.00000  -0.01606  -0.01672  42.97455
   Z377      52.70446   0.00145   0.00000   0.00518   0.00544  52.70991
   X378      47.01639   0.00831   0.00000   0.00298   0.00326  47.01964
   Y378      43.52039   0.00989   0.00000   0.01392   0.01330  43.53370
   Z378      52.28872  -0.00497   0.00000  -0.00745  -0.00718  52.28154
   X379      44.84320  -0.00262   0.00000  -0.00460  -0.00430  44.83890
   Y379      44.08731   0.00505   0.00000   0.00519   0.00446  44.09177
   Z379      54.06506  -0.00025   0.00000  -0.00560  -0.00528  54.05979
   X380      36.62289  -0.00516   0.00000  -0.00127  -0.00153  36.62136
   Y380      54.57529  -0.01616   0.00000  -0.01324  -0.01322  54.56207
   Z380      32.01196  -0.01419   0.00000  -0.01073  -0.00985  32.00211
   X381      35.71582  -0.00491   0.00000  -0.00206  -0.00233  35.71349
   Y381      56.03038   0.00810   0.00000   0.00055   0.00054  56.03092
   Z381      32.55998   0.00650   0.00000   0.00478   0.00574  32.56572
   X382      38.17247   0.01198   0.00000   0.00771   0.00747  38.17994
   Y382      54.61309  -0.00058   0.00000  -0.00348  -0.00346  54.60962
   Z382      32.95682   0.01020   0.00000   0.00798   0.00884  32.96566
   X383      22.41215   0.00269   0.00000   0.00406   0.00442  22.41657
   Y383      28.81832  -0.00001   0.00000   0.00326   0.00262  28.82095
   Z383      42.44325   0.01335   0.00000   0.00795   0.00803  42.45128
   X384      22.24208  -0.00270   0.00000  -0.00507  -0.00468  22.23740
   Y384      27.04198   0.00179   0.00000   0.00517   0.00454  27.04652
   Z384      42.08420  -0.00552   0.00000  -0.00718  -0.00717  42.07703
   X385      22.43105   0.00149   0.00000   0.00271   0.00303  22.43408
   Y385      29.61201  -0.00095   0.00000  -0.00498  -0.00556  29.60645
   Z385      40.81808  -0.01310   0.00000  -0.01084  -0.01072  40.80736
         Item               Value     Threshold  Converged?
 Maximum Force            0.035682     0.000450     NO 
 RMS     Force            0.010316     0.000300     NO 
 Maximum Displacement     0.034008     0.001800     NO 
 RMS     Displacement     0.008839     0.001200     NO 
 Predicted change in Energy=-7.117527D-02
 GradGradGradGradGradGradGradGradGradGradGradGradGradGradGradGradGradGrad

 Leave Link  103 at Thu May 10 13:16:32 2018, MaxMem= 14763950080 cpu:      2896.8
 (Enter /cm/shared/gaussian/g09.e01/intel64-sandybridge/g09/l9999.exe)
 1\1\GINC-POPLE08\Force\RPBE1PBE\CC-pVDZ\Br1H256O128(1-)\M.PELUSO\10-Ma
 y-2018\0\\#p PBE1PBE/cc-pvDZ force Counterpoise=2 noSymm\\forces on ch
 loride comput - NWATER: 128\\-1,1\Br,20.,20.,20.\O,21.79,17.95,22.\H,2
 1.33,18.5,21.36\H,22.58,17.66,21.54\O,20.85,17.09,19.31\H,19.98,17.17,
 19.72\H,21.01,17.95,18.93\O,18.99,18.72,23.04\H,18.82,19.36,22.35\H,19
 .87,18.4,22.86\O,17.74,18.34,17.66\H,17.15,17.73,18.09\H,18.52,18.36,1
 8.22\O,18.01,22.56,20.86\H,18.87,22.44,21.25\H,17.61,21.68,20.87\O,17.
 21,21.74,18.45\H,17.59,20.87,18.3\H,17.78,22.13,19.12\O,21.9,23.31,20.
 78\H,22.61,23.65,20.24\H,21.3,22.9,20.16\O,23.66,21.17,18.47\H,23.47,2
 0.96,17.55\H,22.88,20.88,18.94\O,24.01,18.37,20.28\H,23.46,18.93,19.73
 \H,24.69,18.96,20.61\O,20.23,22.73,22.99\H,20.79,22.79,22.22\H,20.75,2
 2.22,23.62\O,23.86,21.32,22.07\H,23.02,21.31,21.61\H,23.78,22.03,22.7\
 O,20.36,23.44,18.47\H,19.93,23.1,17.68\H,20.22,24.39,18.43\O,21.67,21.
 23,16.26\H,22.38,21.87,16.25\H,20.94,21.69,16.66\O,19.94,17.67,15.39\H
 ,20.17,17.93,16.28\H,20.45,18.24,14.82\O,17.83,20.34,15.58\H,17.72,19.
 66,16.25\H,18.33,19.91,14.89\O,22.44,17.71,17.1\H,22.11,16.9,17.48\H,2
 3.12,17.43,16.49\O,19.19,22.67,16.24\H,19.14,22.94,15.33\H,18.42,22.12
 ,16.38\O,18.51,15.7,19.97\H,17.57,15.57,19.92\H,18.86,14.86,20.25\O,14
 .77,21.45,20.05\H,15.6,21.56,19.58\H,14.39,22.33,20.08\O,16.22,17.26,2
 2.09\H,15.66,17.02,22.83\H,17.11,17.24,22.45\O,21.79,14.57,19.74\H,21.
 53,15.48,19.61\H,22.56,14.46,19.18\O,23.78,18.06,24.11\H,23.1,18.24,23
 .46\H,23.42,18.4,24.93\O,15.71,20.38,22.58\H,15.27,21.02,22.02\H,15.18
 ,19.59,22.51\O,15.72,16.86,19.39\H,15.92,16.98,20.32\H,15.25,17.66,19.
 15\O,24.12,19.76,15.75\H,23.25,20.09,15.94\H,24.04,18.81,15.8\O,19.57,
 14.65,17.44\H,20.16,14.41,18.16\H,19.03,15.35,17.8\O,21.48,25.78,19.85
 \H,22.34,26.21,19.89\H,21.54,25.08,20.5\O,16.43,19.8,25.11\H,15.57,20.
 22,25.17\H,16.74,20.01,24.23\O,18.38,24.78,23.49\H,17.66,24.27,23.88\H
 ,19.05,24.13,23.29\O,24.18,23.91,19.11\H,24.95,23.86,19.67\H,24.19,23.
 1,18.6\O,17.61,16.88,24.86\H,18.31,16.34,25.23\H,18.06,17.62,24.46\O,1
 6.54,25.26,19.52\H,17.07,24.53,19.19\H,16.46,25.86,18.78\O,14.63,19.05
 ,18.25\H,14.42,19.63,18.98\H,13.81,18.57,18.08\O,19.31,20.01,26.3\H,18
 .7,19.92,25.57\H,18.77,20.35,27.02\O,23.32,23.43,23.79\H,22.75,22.82,2
 4.25\H,23.12,24.28,24.19\O,26.39,20.09,21.47\H,25.68,20.72,21.31\H,26.
 24,19.79,22.37\O,22.68,14.94,23.66\H,22.58,15.74,23.14\H,22.37,15.18,2
 4.53\O,22.16,18.68,26.09\H,21.94,19.49,25.63\H,21.32,18.26,26.26\O,26.
 34,21.93,17.94\H,25.53,21.43,18.01\H,27.03,21.28,17.89\O,21.64,19.42,1
 3.86\H,21.71,20.32,14.19\H,21.52,19.52,12.92\O,15.54,17.3,15.94\H,15.3
 7,17.93,16.64\H,14.67,17.07,15.61\O,21.52,15.39,15.14\H,20.81,15.77,15
 .67\H,22.11,15.,15.79\O,19.97,25.69,16.89\H,19.74,25.01,16.26\H,19.86,
 26.51,16.41\O,17.49,16.96,14.24\H,18.29,16.99,14.77\H,16.78,17.09,14.8
 7\O,26.32,16.62,19.13\H,25.56,16.92,19.63\H,26.59,15.81,19.56\O,23.,25
 .74,17.13\H,23.51,25.23,17.76\H,22.12,25.37,17.18\O,22.23,21.61,25.81\
 H,21.66,21.02,26.3\H,22.9,21.87,26.44\O,23.38,23.06,15.43\H,23.93,22.9
 6,14.65\H,22.72,23.7,15.17\O,14.86,21.51,14.71\H,15.2,20.71,14.31\H,15
 .14,21.46,15.62\O,18.17,20.95,13.02\H,17.84,21.4,13.8\H,17.49,20.32,12
 .81\O,19.9,13.79,23.4\H,20.2,13.09,22.81\H,20.69,14.28,23.61\O,19.59,1
 3.03,20.17\H,19.45,12.09,20.09\H,20.51,13.17,19.94\O,17.75,26.75,21.87
 \H,17.14,26.22,21.36\H,18.15,26.13,22.48\O,23.17,14.52,17.26\H,23.3,13
 .62,16.97\H,23.7,15.05,16.66\O,13.79,24.04,20.21\H,14.59,24.43,19.84\H
 ,13.62,24.54,21.\O,19.94,28.02,20.19\H,19.14,27.97,20.7\H,20.11,27.12,
 19.91\O,20.08,16.56,26.24\H,20.81,16.02,26.55\H,19.83,17.08,27.\O,25.4
 1,21.7,25.34\H,25.25,20.97,24.75\H,25.22,21.35,26.21\O,18.62,22.99,26.
 83\H,18.1,23.36,26.11\H,17.96,22.66,27.44\O,17.27,18.86,27.66\H,16.38,
 18.81,27.99\H,17.18,19.08,26.73\O,12.71,20.04,22.58\H,11.97,19.54,22.2
 4\H,12.88,20.71,21.91\O,20.91,26.54,24.4\H,20.57,27.21,24.99\H,20.28,2
 6.5,23.68\O,18.27,24.54,13.96\H,18.84,23.84,13.63\H,18.4,25.27,13.36\O
 ,26.29,18.74,24.98\H,26.02,18.95,25.88\H,25.62,18.14,24.66\O,17.14,13.
 96,25.19\H,17.22,14.79,24.71\H,16.76,14.2,26.04\O,13.51,14.55,19.5\H,1
 3.73,13.95,20.21\H,14.28,15.09,19.39\O,25.26,16.26,16.02\H,25.83,17.,1
 6.22\H,25.86,15.53,15.89\O,26.7,22.97,22.87\H,27.3,22.25,23.06\H,26.04
 ,22.92,23.56\O,26.1,20.52,14.\H,25.48,20.78,13.32\H,25.54,20.16,14.7\O
 ,15.67,19.16,13.13\H,16.28,18.5,13.43\H,14.93,18.66,12.77\O,23.3,15.82
 ,26.26\H,23.8,16.22,25.55\H,23.75,14.99,26.44\O,21.57,24.68,14.03\H,21
 .96,25.42,13.56\H,21.36,24.04,13.35\O,26.01,24.86,21.23\H,26.31,24.15,
 21.8\H,25.7,25.54,21.82\O,15.22,16.59,26.36\H,15.92,16.69,25.72\H,15.3
 6,17.31,26.98\O,14.48,15.76,23.55\H,13.76,15.63,22.93\H,14.28,15.16,24
 .27\O,27.74,23.49,19.79\H,27.1,23.96,20.33\H,27.23,23.14,19.06\O,20.01
 ,22.94,12.41\H,20.71,22.68,11.81\H,19.38,22.22,12.38\O,24.55,19.5,27.2
 8\H,23.69,19.18,27.02\H,24.37,20.14,27.97\O,17.26,12.4,16.98\H,17.25,1
 1.76,16.27\H,17.93,13.03,16.72\O,12.9,17.83,24.91\H,13.5,17.94,24.18\H
 ,13.41,17.4,25.59\O,14.15,25.22,22.98\H,14.73,24.82,23.62\H,13.6,25.81
 ,23.49\O,27.65,19.56,17.05\H,27.64,18.84,17.69\H,27.51,19.13,16.21\O,2
 0.25,13.19,14.26\H,19.39,13.06,14.66\H,20.48,14.1,14.48\O,15.23,24.05,
 14.03\H,16.03,24.53,14.27\H,15.49,23.13,14.05\O,23.92,16.19,12.79\H,24
 .04,15.27,13.04\H,23.49,16.59,13.54\O,16.84,27.25,17.7\H,17.78,27.4,17
 .56\H,16.51,27.02,16.83\O,24.06,27.55,19.75\H,24.47,28.13,19.1\H,24.52
 ,26.72,19.64\O,15.58,24.46,25.23\H,15.57,24.03,26.09\H,15.45,25.39,25.
 44\O,16.97,14.1,14.12\H,17.12,15.05,14.12\H,16.37,13.96,14.85\O,22.24,
 11.9,23.09\H,22.87,11.24,22.78\H,22.62,12.74,22.82\O,19.59,13.32,26.06
 \H,18.66,13.12,26.17\H,19.68,13.53,25.13\O,14.17,13.49,21.72\H,14.62,1
 4.13,22.28\H,13.43,13.19,22.24\O,20.64,25.04,27.11\H,20.44,25.44,26.26
 \H,20.13,24.23,27.13\O,28.85,18.99,21.88\H,28.74,19.19,22.81\H,28.15,1
 9.46,21.44\O,12.05,17.99,18.49\H,11.17,18.21,18.18\H,12.05,17.03,18.54
 \O,13.84,21.91,25.49\H,13.34,21.41,24.84\H,13.35,22.72,25.59\O,19.28,1
 6.67,11.63\H,20.06,16.14,11.49\H,18.98,16.44,12.51\O,14.64,14.27,15.96
 \H,14.65,14.2,16.92\H,14.12,15.05,15.78\O,17.87,11.8,23.64\H,18.62,12.
 29,23.3\H,17.52,12.35,24.34\O,23.48,21.15,12.32\H,22.91,21.6,11.69\H,2
 3.32,20.22,12.17\O,22.47,28.56,17.84\H,22.52,28.28,18.76\H,22.51,27.74
 ,17.34\O,27.12,16.35,23.32\H,27.75,16.,23.94\H,27.63,16.88,22.72\O,23.
 24,27.1,25.4\H,22.5,26.67,24.97\H,22.97,27.19,26.31\O,24.83,26.2,15.1\
 H,25.35,25.67,15.71\H,23.99,26.32,15.55\O,25.53,23.45,13.87\H,25.98,22
 .68,14.22\H,25.63,24.12,14.55\O,25.99,24.3,25.93\H,26.82,24.63,25.58\H
 ,25.89,23.44,25.54\O,19.95,22.98,29.18\H,19.55,22.91,28.31\H,20.29,23.
 88,29.21\O,26.63,25.06,16.98\H,27.19,24.39,17.37\H,27.21,25.8,16.82\O,
 20.74,18.96,11.11\H,21.53,18.75,10.62\H,20.37,18.11,11.35\O,18.89,10.6
 5,18.55\H,18.6,9.89,18.05\H,18.66,11.4,18.\O,15.94,27.33,24.82\H,16.31
 ,28.2,24.95\H,16.22,27.07,23.94\O,19.4,18.16,29.19\H,19.56,18.94,29.72
 \H,18.6,18.36,28.7\O,29.12,17.77,19.16\H,29.84,17.2,19.42\H,28.44,17.1
 7,18.86\O,28.25,20.47,24.29\H,27.76,19.69,24.53\H,28.14,21.06,25.03\O,
 25.66,14.14,25.4\H,26.57,13.84,25.39\H,25.53,14.53,24.54\O,25.41,26.38
 ,23.41\H,24.7,26.62,24.01\H,25.98,25.82,23.94\O,11.03,23.97,20.7\H,10.
 55,24.68,20.27\H,11.92,24.03,20.34\O,21.98,16.28,28.64\H,21.67,17.16,2
 8.43\H,22.85,16.23,28.25\O,22.89,12.08,16.12\H,22.97,11.33,15.53\H,22.
 36,11.75,16.85\O,15.47,23.,27.72\H,14.94,22.35,27.27\H,14.85,23.68,27.
 98\O,22.93,29.23,21.54\H,22.74,29.77,20.77\H,23.35,28.45,21.19\O,27.36
 ,14.49,20.45\H,27.07,13.86,21.1\H,28.11,14.92,20.86\O,22.13,20.29,28.9
 8\H,21.67,19.89,29.73\H,22.39,21.15,29.3\O,16.52,29.24,21.38\H,15.7,28
 .78,21.19\H,17.08,28.58,21.8\O,27.35,18.04,14.73\H,27.35,18.58,13.95\H
 ,27.44,17.14,14.4\O,23.99,22.75,27.89\H,24.88,23.03,27.67\H,23.73,23.3
 3,28.61\O,19.38,28.88,16.94\H,18.9,29.65,17.23\H,20.2,28.9,17.44\O,11.
 86,15.25,22.46\H,11.77,14.31,22.27\H,11.87,15.67,21.6\\Version=ES64L-G
 09RevE.01\HF=-9773.3869673\RMSD=1.517e-09\RMSF=1.032e-02\Dipole=-4.653
 925,-3.6702012,4.230023\Quadrupole=-223.3370079,-239.7039568,463.04096
 48,-1878.8599485,-1519.5249996,-1351.4396525\PG=C01 [X(Br1H256O128)]\\
 @


 SEE YOU NOW,
 YOUR BAIT OF FALSEHOOD TAKES THIS CARP OF TRUTH.
 AND THUS DO WE OF WISDOM AND OF REACH...
 BY INDIRECTIONS FIND DIRECTIONS OUT.    -- HAMLET, II, 1
 Job cpu time:       5 days 15 hours  2 minutes 53.5 seconds.
 File lengths (MBytes):  RWF=   7285 Int=      0 D2E=      0 Chk=   2411 Scr=      1
 Normal termination of Gaussian 09 at Thu May 10 13:16:56 2018.
