 Entering Gaussian System, Link 0=/cm/shared/gaussian/g09.e01/intel64-sandybridge/g09/g09
 Initial command:
 /cm/shared/gaussian/g09.e01/intel64-sandybridge/g09/l1.exe "/local/scratch/m.peluso/128_wat/Gau-56598.inp" -scrdir="/local/scratch/m.peluso/128_wat/"
 Entering Link 1 = /cm/shared/gaussian/g09.e01/intel64-sandybridge/g09/l1.exe PID=     56606.
  
 Copyright (c) 1988,1990,1992,1993,1995,1998,2003,2009,2015,
            Gaussian, Inc.  All Rights Reserved.
  
 This is part of the Gaussian(R) 09 program.  It is based on
 the Gaussian(R) 03 system (copyright 2003, Gaussian, Inc.),
 the Gaussian(R) 98 system (copyright 1998, Gaussian, Inc.),
 the Gaussian(R) 94 system (copyright 1995, Gaussian, Inc.),
 the Gaussian 92(TM) system (copyright 1992, Gaussian, Inc.),
 the Gaussian 90(TM) system (copyright 1990, Gaussian, Inc.),
 the Gaussian 88(TM) system (copyright 1988, Gaussian, Inc.),
 the Gaussian 86(TM) system (copyright 1986, Carnegie Mellon
 University), and the Gaussian 82(TM) system (copyright 1983,
 Carnegie Mellon University). Gaussian is a federally registered
 trademark of Gaussian, Inc.
  
 This software contains proprietary and confidential information,
 including trade secrets, belonging to Gaussian, Inc.
  
 This software is provided under written license and may be
 used, copied, transmitted, or stored only in accord with that
 written license.
  
 The following legend is applicable only to US Government
 contracts under FAR:
  
                    RESTRICTED RIGHTS LEGEND
  
 Use, reproduction and disclosure by the US Government is
 subject to restrictions as set forth in subparagraphs (a)
 and (c) of the Commercial Computer Software - Restricted
 Rights clause in FAR 52.227-19.
  
 Gaussian, Inc.
 340 Quinnipiac St., Bldg. 40, Wallingford CT 06492
  
  
 ---------------------------------------------------------------
 Warning -- This program may not be used in any manner that
 competes with the business of Gaussian, Inc. or will provide
 assistance to any competitor of Gaussian, Inc.  The licensee
 of this program is prohibited from giving any competitor of
 Gaussian, Inc. access to this program.  By using this program,
 the user acknowledges that Gaussian, Inc. is engaged in the
 business of creating and licensing software in the field of
 computational chemistry and represents and warrants to the
 licensee that it is not a competitor of Gaussian, Inc. and that
 it will not use this program in any manner prohibited above.
 ---------------------------------------------------------------
  

 Cite this work as:
 Gaussian 09, Revision E.01,
 M. J. Frisch, G. W. Trucks, H. B. Schlegel, G. E. Scuseria, 
 M. A. Robb, J. R. Cheeseman, G. Scalmani, V. Barone, B. Mennucci, 
 G. A. Petersson, H. Nakatsuji, M. Caricato, X. Li, H. P. Hratchian, 
 A. F. Izmaylov, J. Bloino, G. Zheng, J. L. Sonnenberg, M. Hada, 
 M. Ehara, K. Toyota, R. Fukuda, J. Hasegawa, M. Ishida, T. Nakajima, 
 Y. Honda, O. Kitao, H. Nakai, T. Vreven, J. A. Montgomery, Jr., 
 J. E. Peralta, F. Ogliaro, M. Bearpark, J. J. Heyd, E. Brothers, 
 K. N. Kudin, V. N. Staroverov, T. Keith, R. Kobayashi, J. Normand, 
 K. Raghavachari, A. Rendell, J. C. Burant, S. S. Iyengar, J. Tomasi, 
 M. Cossi, N. Rega, J. M. Millam, M. Klene, J. E. Knox, J. B. Cross, 
 V. Bakken, C. Adamo, J. Jaramillo, R. Gomperts, R. E. Stratmann, 
 O. Yazyev, A. J. Austin, R. Cammi, C. Pomelli, J. W. Ochterski, 
 R. L. Martin, K. Morokuma, V. G. Zakrzewski, G. A. Voth, 
 P. Salvador, J. J. Dannenberg, S. Dapprich, A. D. Daniels, 
 O. Farkas, J. B. Foresman, J. V. Ortiz, J. Cioslowski, 
 and D. J. Fox, Gaussian, Inc., Wallingford CT, 2013.
 
 ******************************************
 Gaussian 09:  ES64L-G09RevE.01 30-Nov-2015
                 6-May-2018 
 ******************************************
 %Mem=110GB
 %NProcShared=64
 Will use up to   64 processors via shared memory.
 %chk=snap17.chk
 ----------------------------------------------
 #p PBE1PBE/cc-pvDZ force Counterpoise=2 noSymm
 ----------------------------------------------
 1/10=7,30=1,38=1,62=2/1,3;
 2/12=2,15=1,17=6,18=5,40=1/2;
 1/10=7,30=1,38=1,53=2,62=2,63=101/22;
 3/5=16,11=2,16=1,25=1,30=1,71=1,74=-13/1,2,3;
 4//1;
 5/5=2,38=5/2;
 6/7=2,8=2,9=2,10=2,28=1/1;
 7/7=1,29=1,30=1,33=-1/1,2,3,16;
 1/10=7,30=1,53=2,62=2,63=101/22;
 3/5=7,6=11,11=2,16=1,25=1,30=1,71=1,74=-13,82=7/1,2,3;
 4//1;
 5/5=2,38=5/2;
 6/7=2,8=2,9=2,10=2,28=1/1;
 7/7=1,29=1,30=1,33=-1/1,2,3,16;
 1/10=7,30=1,53=2,62=2,63=101/22(-5);
 7/9=1,29=1,44=-1/16;
 1/10=7,30=1,62=2/3;
 99//99;
 Leave Link    1 at Sun May  6 22:59:54 2018, MaxMem= 14763950080 cpu:       370.1
 (Enter /cm/shared/gaussian/g09.e01/intel64-sandybridge/g09/l101.exe)
 ---------------------------------------
 forces on chloride comput - NWATER: 128
 ---------------------------------------
 Symbolic Z-matrix:
 Charge = -1 Multiplicity = 1 in supermolecule
 Charge = -1 Multiplicity = 1 in fragment      1.
 Charge =  0 Multiplicity = 1 in fragment      2.
 Br(Fragment=1)        20.       20.       20. 
 O(Fragment=2)         22.32     18.47     21.33 
 H(Fragment=2)         21.53     18.86     20.94 
 H(Fragment=2)         22.88     19.21     21.55 
 O(Fragment=2)         20.88     16.96     19.09 
 H(Fragment=2)         20.99     17.91     19.02 
 H(Fragment=2)         20.5      16.82     19.96 
 O(Fragment=2)         16.98     21.98     20.65 
 H(Fragment=2)         17.77     21.47     20.45 
 H(Fragment=2)         16.28     21.54     20.17 
 O(Fragment=2)         16.81     18.04     18.98 
 H(Fragment=2)         17.52     18.59     19.32 
 H(Fragment=2)         17.04     17.15     19.25 
 O(Fragment=2)         21.76     19.66     16.55 
 H(Fragment=2)         22.43     18.99     16.44 
 H(Fragment=2)         21.51     19.61     17.47 
 O(Fragment=2)         20.71     21.91     23.08 
 H(Fragment=2)         19.81     21.61     23.14 
 H(Fragment=2)         21.13     21.29     22.48 
 O(Fragment=2)         23.24     22.02     19.1 
 H(Fragment=2)         22.85     21.19     19.39 
 H(Fragment=2)         23.51     21.86     18.2 
 O(Fragment=2)         19.61     23.93     18.92 
 H(Fragment=2)         19.9      24.82     18.7 
 H(Fragment=2)         20.42     23.41     18.94 
 O(Fragment=2)         21.84     23.68     21.07 
 H(Fragment=2)         22.29     23.08     20.47 
 H(Fragment=2)         21.78     23.2      21.89 
 O(Fragment=2)         18.38     20.89     23.57 
 H(Fragment=2)         17.74     20.33     23.13 
 H(Fragment=2)         18.98     20.28     23.99 
 O(Fragment=2)         19.12     18.19     15.88 
 H(Fragment=2)         19.42     17.43     15.38 
 H(Fragment=2)         19.92     18.58     16.23 
 O(Fragment=2)         20.4      16.26     22.11 
 H(Fragment=2)         19.72     16.58     22.71 
 H(Fragment=2)         21.14     16.84     22.27 
 O(Fragment=2)         19.61     21.79     15.41 
 H(Fragment=2)         18.91     21.31     14.98 
 H(Fragment=2)         20.17     21.11     15.79 
 O(Fragment=2)         15.42     20.32     22.41 
 H(Fragment=2)         14.63     20.79     22.66 
 H(Fragment=2)         15.99     20.99     22.03 
 O(Fragment=2)         23.74     18.26     17.8 
 H(Fragment=2)         24.16     18.62     18.58 
 H(Fragment=2)         24.42     17.71     17.4 
 O(Fragment=2)         23.26     15.65     20.14 
 H(Fragment=2)         22.73     14.9      19.86 
 H(Fragment=2)         22.89     16.4      19.67 
 O(Fragment=2)         23.63     20.49     22.85 
 H(Fragment=2)         24.49     20.13     22.6 
 H(Fragment=2)         23.68     20.59     23.8 
 O(Fragment=2)         17.76     23.85     16.58 
 H(Fragment=2)         18.28     23.46     15.87 
 H(Fragment=2)         18.26     23.65     17.37 
 O(Fragment=2)         17.27     24.95     20.46 
 H(Fragment=2)         17.23     24.45     21.28 
 H(Fragment=2)         17.94     24.5      19.94 
 O(Fragment=2)         16.6      18.31     23.6 
 H(Fragment=2)         15.9      17.73     23.88 
 H(Fragment=2)         16.19     18.9      22.97 
 O(Fragment=2)         18.98     17.7      24.61 
 H(Fragment=2)         18.13     17.87     24.2 
 H(Fragment=2)         18.78     17.2      25.4 
 O(Fragment=2)         16.34     23.67     23.05 
 H(Fragment=2)         16.88     23.       22.64 
 H(Fragment=2)         16.97     24.27     23.47 
 O(Fragment=2)         19.19     14.37     20.6 
 H(Fragment=2)         19.5      15.07     21.17 
 H(Fragment=2)         19.65     13.59     20.89 
 O(Fragment=2)         17.2      19.87     15.07 
 H(Fragment=2)         17.92     19.29     15.32 
 H(Fragment=2)         16.95     20.31     15.89 
 O(Fragment=2)         21.34     14.83     17.11 
 H(Fragment=2)         20.74     14.88     16.37 
 H(Fragment=2)         21.52     15.75     17.33 
 O(Fragment=2)         21.72     17.49     24.78 
 H(Fragment=2)         21.56     16.55     24.76 
 H(Fragment=2)         20.85     17.88     24.79 
 O(Fragment=2)         20.4      25.99     20.63 
 H(Fragment=2)         21.18     26.46     20.33 
 H(Fragment=2)         20.74     25.18     21.01 
 O(Fragment=2)         16.83     16.29     16.31 
 H(Fragment=2)         16.22     16.61     16.97 
 H(Fragment=2)         17.58     16.89     16.37 
 O(Fragment=2)         14.32     17.92     18.25 
 H(Fragment=2)         13.75     18.24     18.95 
 H(Fragment=2)         15.2      17.94     18.62 
 O(Fragment=2)         14.73     21.22     19.5 
 H(Fragment=2)         13.86     21.62     19.53 
 H(Fragment=2)         14.81     20.88     18.61 
 O(Fragment=2)         23.7      16.47     23.31 
 H(Fragment=2)         23.18     17.08     23.83 
 H(Fragment=2)         23.69     16.83     22.42 
 O(Fragment=2)         15.01     20.35     16.81 
 H(Fragment=2)         14.41     19.94     16.18 
 H(Fragment=2)         15.22     19.64     17.42 
 O(Fragment=2)         21.71     19.35     13.83 
 H(Fragment=2)         21.52     19.51     14.76 
 H(Fragment=2)         22.66     19.3      13.79 
 O(Fragment=2)         25.54     19.73     19.59 
 H(Fragment=2)         25.93     20.47     19.13 
 H(Fragment=2)         25.88     19.79     20.48 
 O(Fragment=2)         23.87     21.55     16.25 
 H(Fragment=2)         23.38     22.24     15.8 
 H(Fragment=2)         23.8      20.79     15.68 
 O(Fragment=2)         25.2      22.89     21.29 
 H(Fragment=2)         25.13     23.63     20.69 
 H(Fragment=2)         25.16     22.12     20.72 
 O(Fragment=2)         21.83     23.41     25.32 
 H(Fragment=2)         22.71     23.37     24.95 
 H(Fragment=2)         21.26     23.03     24.65 
 O(Fragment=2)         17.35     15.38     23.16 
 H(Fragment=2)         17.35     14.43     23.07 
 H(Fragment=2)         17.01     15.7      22.32 
 O(Fragment=2)         18.35     22.13     26.07 
 H(Fragment=2)         19.27     22.08     26.32 
 H(Fragment=2)         18.35     21.95     25.13 
 O(Fragment=2)         23.51     19.78     25.46 
 H(Fragment=2)         24.15     19.11     25.71 
 H(Fragment=2)         22.82     19.3      25.01 
 O(Fragment=2)         15.96     15.8      20.7 
 H(Fragment=2)         16.47     15.07     20.36 
 H(Fragment=2)         15.22     15.38     21.15 
 O(Fragment=2)         24.18     23.45     24. 
 H(Fragment=2)         24.27     23.15     23.09 
 H(Fragment=2)         24.91     24.06     24.12 
 O(Fragment=2)         22.2      23.09     14.61 
 H(Fragment=2)         22.12     23.92     15.09 
 H(Fragment=2)         21.31     22.73     14.61 
 O(Fragment=2)         25.2      24.47     19.1 
 H(Fragment=2)         26.05     24.42     18.66 
 H(Fragment=2)         24.62     23.91     18.58 
 O(Fragment=2)         26.31     17.05     19.98 
 H(Fragment=2)         25.87     17.87     19.74 
 H(Fragment=2)         25.64     16.54     20.43 
 O(Fragment=2)         15.23     23.05     15.86 
 H(Fragment=2)         15.08     22.11     15.91 
 H(Fragment=2)         15.84     23.24     16.57 
 O(Fragment=2)         13.1      18.95     20.56 
 H(Fragment=2)         12.5      18.83     21.29 
 H(Fragment=2)         13.74     19.59     20.88 
 O(Fragment=2)         16.49     19.77     26.2 
 H(Fragment=2)         16.64     19.25     25.41 
 H(Fragment=2)         16.91     19.26     26.9 
 O(Fragment=2)         26.29     19.62     22.15 
 H(Fragment=2)         26.52     20.33     22.75 
 H(Fragment=2)         27.01     18.99     22.24 
 O(Fragment=2)         22.22     13.26     19.08 
 H(Fragment=2)         21.59     13.57     18.42 
 H(Fragment=2)         22.94     12.9      18.56 
 O(Fragment=2)         18.11     24.94     24.34 
 H(Fragment=2)         18.81     25.59     24.24 
 H(Fragment=2)         18.23     24.59     25.22 
 O(Fragment=2)         23.98     13.86     22.75 
 H(Fragment=2)         23.6      14.73     22.67 
 H(Fragment=2)         24.16     13.75     23.68 
 O(Fragment=2)         14.69     25.53     19.45 
 H(Fragment=2)         15.62     25.35     19.59 
 H(Fragment=2)         14.26     24.7      19.66 
 O(Fragment=2)         13.75     24.02     21.67 
 H(Fragment=2)         14.61     23.88     22.07 
 H(Fragment=2)         13.47     24.87     22. 
 O(Fragment=2)         14.84     21.92     25.17 
 H(Fragment=2)         15.32     22.46     24.54 
 H(Fragment=2)         15.44     21.22     25.4 
 O(Fragment=2)         18.96     12.54     17.75 
 H(Fragment=2)         19.07     11.74     18.26 
 H(Fragment=2)         19.07     13.24     18.39 
 O(Fragment=2)         26.73     21.99     18.98 
 H(Fragment=2)         27.2      22.38     19.72 
 H(Fragment=2)         27.05     22.48     18.22 
 O(Fragment=2)         27.14     19.94     16.85 
 H(Fragment=2)         27.87     20.44     17.19 
 H(Fragment=2)         26.39     20.53     16.91 
 O(Fragment=2)         20.41     26.77     17.73 
 H(Fragment=2)         19.49     27.04     17.81 
 H(Fragment=2)         20.83     27.11     18.52 
 O(Fragment=2)         25.98     15.9      17.33 
 H(Fragment=2)         25.87     16.06     18.27 
 H(Fragment=2)         26.91     15.99     17.17 
 O(Fragment=2)         17.44     27.83     19.09 
 H(Fragment=2)         18.17     28.37     19.37 
 H(Fragment=2)         17.69     26.94     19.35 
 O(Fragment=2)         19.68     15.04     14.53 
 H(Fragment=2)         20.24     15.31     13.81 
 H(Fragment=2)         18.89     14.71     14.12 
 O(Fragment=2)         16.45     25.93     15.43 
 H(Fragment=2)         15.85     25.99     16.18 
 H(Fragment=2)         17.09     25.27     15.69 
 O(Fragment=2)         16.12     19.07     12.71 
 H(Fragment=2)         16.63     18.26     12.61 
 H(Fragment=2)         16.41     19.43     13.54 
 O(Fragment=2)         19.4      27.34     23.24 
 H(Fragment=2)         18.89     28.15     23.23 
 H(Fragment=2)         19.32     27.       22.35 
 O(Fragment=2)         21.61     12.5      21.61 
 H(Fragment=2)         21.95     12.75     20.75 
 H(Fragment=2)         21.96     13.16     22.21 
 O(Fragment=2)         16.47     13.37     19.45 
 H(Fragment=2)         17.29     13.02     19.8 
 H(Fragment=2)         16.53     13.25     18.5 
 O(Fragment=2)         13.94     16.56     23.36 
 H(Fragment=2)         13.32     16.05     22.84 
 H(Fragment=2)         13.7      17.47     23.19 
 O(Fragment=2)         20.41     17.67     27.54 
 H(Fragment=2)         20.58     17.02     26.86 
 H(Fragment=2)         21.28     17.92     27.85 
 O(Fragment=2)         22.53     21.06     27.56 
 H(Fragment=2)         22.98     20.57     26.88 
 H(Fragment=2)         23.18     21.69     27.88 
 O(Fragment=2)         24.26     19.82     13.78 
 H(Fragment=2)         24.61     20.41     13.11 
 H(Fragment=2)         24.91     19.12     13.84 
 O(Fragment=2)         18.58     21.56     12.68 
 H(Fragment=2)         17.89     21.93     12.13 
 H(Fragment=2)         18.45     20.61     12.62 
 O(Fragment=2)         14.86     16.83     14.3 
 H(Fragment=2)         15.5      16.58     14.97 
 H(Fragment=2)         14.26     17.42     14.75 
 O(Fragment=2)         22.15     25.64     15.25 
 H(Fragment=2)         23.08     25.77     15.46 
 H(Fragment=2)         21.68     26.18     15.89 
 O(Fragment=2)         24.52     26.82     20.23 
 H(Fragment=2)         24.72     25.97     19.83 
 H(Fragment=2)         24.97     26.79     21.08 
 O(Fragment=2)         27.52     22.12     22.44 
 H(Fragment=2)         28.33     22.51     22.11 
 H(Fragment=2)         26.83     22.69     22.1 
 O(Fragment=2)         21.36     16.91     12.46 
 H(Fragment=2)         21.92     17.03     13.22 
 H(Fragment=2)         21.48     15.99     12.21 
 O(Fragment=2)         12.77     23.1      19.36 
 H(Fragment=2)         13.07     23.35     20.23 
 H(Fragment=2)         11.9      22.71     19.5 
 O(Fragment=2)         25.84     21.49     25.66 
 H(Fragment=2)         25.83     20.55     25.46 
 H(Fragment=2)         24.91     21.73     25.7 
 O(Fragment=2)         26.07     18.16     14.85 
 H(Fragment=2)         26.18     18.87     15.48 
 H(Fragment=2)         26.81     17.57     15.02 
 O(Fragment=2)         13.       21.37     23.42 
 H(Fragment=2)         12.39     22.11     23.36 
 H(Fragment=2)         13.63     21.62     24.1 
 O(Fragment=2)         18.31     15.78     26.31 
 H(Fragment=2)         17.45     15.36     26.33 
 H(Fragment=2)         18.92     15.06     26.17 
 O(Fragment=2)         13.95     14.89     17.63 
 H(Fragment=2)         13.88     15.83     17.5 
 H(Fragment=2)         13.99     14.53     16.74 
 O(Fragment=2)         24.02     15.95     13.9 
 H(Fragment=2)         24.57     16.52     14.44 
 H(Fragment=2)         24.48     15.89     13.06 
 O(Fragment=2)         20.96     21.1      11.44 
 H(Fragment=2)         20.22     21.53     11.87 
 H(Fragment=2)         21.39     20.6      12.13 
 O(Fragment=2)         21.09     24.94     27.4 
 H(Fragment=2)         21.15     24.46     26.57 
 H(Fragment=2)         20.45     24.44     27.91 
 O(Fragment=2)         13.12     24.27     17.03 
 H(Fragment=2)         13.87     23.9      16.56 
 H(Fragment=2)         12.97     23.67     17.76 
 O(Fragment=2)         22.1      27.87     19.57 
 H(Fragment=2)         22.98     27.48     19.59 
 H(Fragment=2)         22.26     28.81     19.64 
 O(Fragment=2)         25.66     15.48     25.15 
 H(Fragment=2)         25.31     16.19     25.68 
 H(Fragment=2)         25.18     15.54     24.32 
 O(Fragment=2)         21.55     15.15     26.29 
 H(Fragment=2)         22.24     14.96     26.92 
 H(Fragment=2)         21.22     14.29     26.03 
 O(Fragment=2)         17.87     18.21     28.01 
 H(Fragment=2)         18.77     17.95     27.81 
 H(Fragment=2)         17.4      17.38     28.11 
 O(Fragment=2)         17.52     12.77     23.12 
 H(Fragment=2)         17.75     12.46     22.24 
 H(Fragment=2)         16.66     12.37     23.29 
 O(Fragment=2)         19.54     28.97     20.19 
 H(Fragment=2)         20.15     29.68     20.37 
 H(Fragment=2)         20.1      28.19     20.13 
 O(Fragment=2)         17.73     20.81     28.67 
 H(Fragment=2)         17.71     21.17     27.78 
 H(Fragment=2)         17.5      19.89     28.56 
 O(Fragment=2)         24.75     13.22     17.3 
 H(Fragment=2)         24.55     12.88     16.42 
 H(Fragment=2)         24.97     14.14     17.15 
 O(Fragment=2)         16.52     12.93     16.12 
 H(Fragment=2)         17.12     12.2      16.2 
 H(Fragment=2)         17.05     13.64     15.75 
 O(Fragment=2)         26.51     14.07     21.74 
 H(Fragment=2)         25.58     14.22     21.88 
 H(Fragment=2)         26.54     13.43     21.02 
 O(Fragment=2)         28.57     17.85     21.58 
 H(Fragment=2)         27.82     17.57     21.05 
 H(Fragment=2)         28.69     17.15     22.22 
 O(Fragment=2)         15.53     23.74     12.98 
 H(Fragment=2)         15.85     24.62     13.19 
 H(Fragment=2)         15.57     23.27     13.82 
 O(Fragment=2)         18.79     26.03     13.1 
 H(Fragment=2)         19.02     25.79     13.99 
 H(Fragment=2)         19.62     26.25     12.68 
 O(Fragment=2)         11.97     18.73     23.06 
 H(Fragment=2)         11.17     18.61     23.57 
 H(Fragment=2)         12.15     19.67     23.13 
 O(Fragment=2)         10.8      18.26     19.23 
 H(Fragment=2)         11.66     18.55     19.53 
 H(Fragment=2)         10.98     17.47     18.71 
 O(Fragment=2)         20.78     12.18     14.98 
 H(Fragment=2)         21.5      12.73     14.67 
 H(Fragment=2)         20.24     12.78     15.51 
 O(Fragment=2)         20.4      21.04     29.3 
 H(Fragment=2)         20.86     21.04     28.46 
 H(Fragment=2)         19.51     20.76     29.09 
 O(Fragment=2)         19.28     13.35     25.39 
 H(Fragment=2)         18.45     13.03     25.02 
 H(Fragment=2)         19.96     12.88     24.91 
 O(Fragment=2)         25.15     26.31     16.13 
 H(Fragment=2)         25.75     27.03     15.94 
 H(Fragment=2)         24.95     26.4      17.06 
 O(Fragment=2)         29.26     18.02     18.57 
 H(Fragment=2)         28.3      18.06     18.58 
 H(Fragment=2)         29.52     18.79     18.08 
 O(Fragment=2)         25.82     25.5      23.27 
 H(Fragment=2)         26.16     26.01     24. 
 H(Fragment=2)         26.47     25.59     22.58 
 O(Fragment=2)         27.19     23.74     16.72 
 H(Fragment=2)         27.48     23.68     15.8 
 H(Fragment=2)         27.05     24.68     16.85 
 O(Fragment=2)         16.97     24.51     27.3 
 H(Fragment=2)         16.96     25.12     28.03 
 H(Fragment=2)         17.7      23.93     27.48 
 O(Fragment=2)         24.08     27.6      23. 
 H(Fragment=2)         24.55     26.78     23.18 
 H(Fragment=2)         23.34     27.58     23.61 
 O(Fragment=2)         13.65     12.88     19.98 
 H(Fragment=2)         12.99     12.97     19.28 
 H(Fragment=2)         14.46     13.21     19.59 
 O(Fragment=2)         23.18     24.27     11.82 
 H(Fragment=2)         22.89     23.8      12.6 
 H(Fragment=2)         24.12     24.11     11.78 
 O(Fragment=2)         25.38     18.36     26.83 
 H(Fragment=2)         26.23     18.71     26.56 
 H(Fragment=2)         25.33     18.55     27.76 
 O(Fragment=2)         23.63     12.97     14.73 
 H(Fragment=2)         23.9      13.89     14.78 
 H(Fragment=2)         23.57     12.79     13.79 
 O(Fragment=2)         13.69     15.19     25.71 
 H(Fragment=2)         13.99     15.44     24.83 
 H(Fragment=2)         14.08     14.33     25.86 
 O(Fragment=2)         24.07     11.27     21.82 
 H(Fragment=2)         23.67     12.1      22.11 
 H(Fragment=2)         24.01     10.7      22.59 
 O(Fragment=2)         12.43     19.71     15.2 
 H(Fragment=2)         11.72     19.61     15.84 
 H(Fragment=2)         12.07     19.36     14.39 
 O(Fragment=2)         20.58     10.21     21.18 
 H(Fragment=2)         20.75     11.13     21.38 
 H(Fragment=2)         21.29     9.73      21.61 
 O(Fragment=2)         18.11     11.15     20.82 
 H(Fragment=2)         18.07     10.59     20.05 
 H(Fragment=2)         18.76     10.73     21.38 
 O(Fragment=2)         14.42     24.04     27. 
 H(Fragment=2)         15.33     24.34     27.09 
 H(Fragment=2)         14.49     23.23     26.51 
 O(Fragment=2)         26.55     12.82     19.34 
 H(Fragment=2)         25.7      12.95     18.92 
 H(Fragment=2)         27.12     12.51     18.63 
 O(Fragment=2)         21.86     28.38     24.57 
 H(Fragment=2)         21.69     28.39     25.51 
 H(Fragment=2)         21.05     28.05     24.18 
 O(Fragment=2)         17.2      16.71     11.92 
 H(Fragment=2)         17.67     15.91     12.16 
 H(Fragment=2)         16.31     16.42     11.73 
 O(Fragment=2)         15.16     27.61     17.19 
 H(Fragment=2)         14.51     27.06     17.64 
 H(Fragment=2)         15.75     27.89     17.89 
 O(Fragment=2)         12.18     20.99     26.34 
 H(Fragment=2)         12.84     21.17     25.67 
 H(Fragment=2)         11.65     20.28     25.98 
 O(Fragment=2)         20.48     18.37     10.38 
 H(Fragment=2)         20.81     17.76     11.04 
 H(Fragment=2)         20.59     19.24     10.78 
 O(Fragment=2)         28.91     21.25     24.62 
 H(Fragment=2)         28.33     21.52     23.91 
 H(Fragment=2)         28.47     20.49     25.01 
 
 NAtoms=    385 NQM=      385 NQMF=       0 NMMI=      0 NMMIF=      0
                NMic=       0 NMicF=      0.
                    Isotopes and Nuclear Properties:
 (Nuclear quadrupole moments (NQMom) in fm**2, nuclear magnetic moments (NMagM)
  in nuclear magnetons)

  Atom         1           2           3           4           5           6           7           8           9          10
 IAtWgt=          79          16           1           1          16           1           1          16           1           1
 AtmWgt=  78.9183361  15.9949146   1.0078250   1.0078250  15.9949146   1.0078250   1.0078250  15.9949146   1.0078250   1.0078250
 NucSpn=           3           0           1           1           0           1           1           0           1           1
 AtZEff=   0.0000000   0.0000000   0.0000000   0.0000000   0.0000000   0.0000000   0.0000000   0.0000000   0.0000000   0.0000000
 NQMom=   31.3000000   0.0000000   0.0000000   0.0000000   0.0000000   0.0000000   0.0000000   0.0000000   0.0000000   0.0000000
 NMagM=    2.1063990   0.0000000   2.7928460   2.7928460   0.0000000   2.7928460   2.7928460   0.0000000   2.7928460   2.7928460
 AtZNuc=  35.0000000   8.0000000   1.0000000   1.0000000   8.0000000   1.0000000   1.0000000   8.0000000   1.0000000   1.0000000

  Atom        11          12          13          14          15          16          17          18          19          20
 IAtWgt=          16           1           1          16           1           1          16           1           1          16
 AtmWgt=  15.9949146   1.0078250   1.0078250  15.9949146   1.0078250   1.0078250  15.9949146   1.0078250   1.0078250  15.9949146
 NucSpn=           0           1           1           0           1           1           0           1           1           0
 AtZEff=   0.0000000   0.0000000   0.0000000   0.0000000   0.0000000   0.0000000   0.0000000   0.0000000   0.0000000   0.0000000
 NQMom=    0.0000000   0.0000000   0.0000000   0.0000000   0.0000000   0.0000000   0.0000000   0.0000000   0.0000000   0.0000000
 NMagM=    0.0000000   2.7928460   2.7928460   0.0000000   2.7928460   2.7928460   0.0000000   2.7928460   2.7928460   0.0000000
 AtZNuc=   8.0000000   1.0000000   1.0000000   8.0000000   1.0000000   1.0000000   8.0000000   1.0000000   1.0000000   8.0000000

  Atom        21          22          23          24          25          26          27          28          29          30
 IAtWgt=           1           1          16           1           1          16           1           1          16           1
 AtmWgt=   1.0078250   1.0078250  15.9949146   1.0078250   1.0078250  15.9949146   1.0078250   1.0078250  15.9949146   1.0078250
 NucSpn=           1           1           0           1           1           0           1           1           0           1
 AtZEff=   0.0000000   0.0000000   0.0000000   0.0000000   0.0000000   0.0000000   0.0000000   0.0000000   0.0000000   0.0000000
 NQMom=    0.0000000   0.0000000   0.0000000   0.0000000   0.0000000   0.0000000   0.0000000   0.0000000   0.0000000   0.0000000
 NMagM=    2.7928460   2.7928460   0.0000000   2.7928460   2.7928460   0.0000000   2.7928460   2.7928460   0.0000000   2.7928460
 AtZNuc=   1.0000000   1.0000000   8.0000000   1.0000000   1.0000000   8.0000000   1.0000000   1.0000000   8.0000000   1.0000000

  Atom        31          32          33          34          35          36          37          38          39          40
 IAtWgt=           1          16           1           1          16           1           1          16           1           1
 AtmWgt=   1.0078250  15.9949146   1.0078250   1.0078250  15.9949146   1.0078250   1.0078250  15.9949146   1.0078250   1.0078250
 NucSpn=           1           0           1           1           0           1           1           0           1           1
 AtZEff=   0.0000000   0.0000000   0.0000000   0.0000000   0.0000000   0.0000000   0.0000000   0.0000000   0.0000000   0.0000000
 NQMom=    0.0000000   0.0000000   0.0000000   0.0000000   0.0000000   0.0000000   0.0000000   0.0000000   0.0000000   0.0000000
 NMagM=    2.7928460   0.0000000   2.7928460   2.7928460   0.0000000   2.7928460   2.7928460   0.0000000   2.7928460   2.7928460
 AtZNuc=   1.0000000   8.0000000   1.0000000   1.0000000   8.0000000   1.0000000   1.0000000   8.0000000   1.0000000   1.0000000

  Atom        41          42          43          44          45          46          47          48          49          50
 IAtWgt=          16           1           1          16           1           1          16           1           1          16
 AtmWgt=  15.9949146   1.0078250   1.0078250  15.9949146   1.0078250   1.0078250  15.9949146   1.0078250   1.0078250  15.9949146
 NucSpn=           0           1           1           0           1           1           0           1           1           0
 AtZEff=   0.0000000   0.0000000   0.0000000   0.0000000   0.0000000   0.0000000   0.0000000   0.0000000   0.0000000   0.0000000
 NQMom=    0.0000000   0.0000000   0.0000000   0.0000000   0.0000000   0.0000000   0.0000000   0.0000000   0.0000000   0.0000000
 NMagM=    0.0000000   2.7928460   2.7928460   0.0000000   2.7928460   2.7928460   0.0000000   2.7928460   2.7928460   0.0000000
 AtZNuc=   8.0000000   1.0000000   1.0000000   8.0000000   1.0000000   1.0000000   8.0000000   1.0000000   1.0000000   8.0000000

  Atom        51          52          53          54          55          56          57          58          59          60
 IAtWgt=           1           1          16           1           1          16           1           1          16           1
 AtmWgt=   1.0078250   1.0078250  15.9949146   1.0078250   1.0078250  15.9949146   1.0078250   1.0078250  15.9949146   1.0078250
 NucSpn=           1           1           0           1           1           0           1           1           0           1
 AtZEff=   0.0000000   0.0000000   0.0000000   0.0000000   0.0000000   0.0000000   0.0000000   0.0000000   0.0000000   0.0000000
 NQMom=    0.0000000   0.0000000   0.0000000   0.0000000   0.0000000   0.0000000   0.0000000   0.0000000   0.0000000   0.0000000
 NMagM=    2.7928460   2.7928460   0.0000000   2.7928460   2.7928460   0.0000000   2.7928460   2.7928460   0.0000000   2.7928460
 AtZNuc=   1.0000000   1.0000000   8.0000000   1.0000000   1.0000000   8.0000000   1.0000000   1.0000000   8.0000000   1.0000000

  Atom        61          62          63          64          65          66          67          68          69          70
 IAtWgt=           1          16           1           1          16           1           1          16           1           1
 AtmWgt=   1.0078250  15.9949146   1.0078250   1.0078250  15.9949146   1.0078250   1.0078250  15.9949146   1.0078250   1.0078250
 NucSpn=           1           0           1           1           0           1           1           0           1           1
 AtZEff=   0.0000000   0.0000000   0.0000000   0.0000000   0.0000000   0.0000000   0.0000000   0.0000000   0.0000000   0.0000000
 NQMom=    0.0000000   0.0000000   0.0000000   0.0000000   0.0000000   0.0000000   0.0000000   0.0000000   0.0000000   0.0000000
 NMagM=    2.7928460   0.0000000   2.7928460   2.7928460   0.0000000   2.7928460   2.7928460   0.0000000   2.7928460   2.7928460
 AtZNuc=   1.0000000   8.0000000   1.0000000   1.0000000   8.0000000   1.0000000   1.0000000   8.0000000   1.0000000   1.0000000

  Atom        71          72          73          74          75          76          77          78          79          80
 IAtWgt=          16           1           1          16           1           1          16           1           1          16
 AtmWgt=  15.9949146   1.0078250   1.0078250  15.9949146   1.0078250   1.0078250  15.9949146   1.0078250   1.0078250  15.9949146
 NucSpn=           0           1           1           0           1           1           0           1           1           0
 AtZEff=   0.0000000   0.0000000   0.0000000   0.0000000   0.0000000   0.0000000   0.0000000   0.0000000   0.0000000   0.0000000
 NQMom=    0.0000000   0.0000000   0.0000000   0.0000000   0.0000000   0.0000000   0.0000000   0.0000000   0.0000000   0.0000000
 NMagM=    0.0000000   2.7928460   2.7928460   0.0000000   2.7928460   2.7928460   0.0000000   2.7928460   2.7928460   0.0000000
 AtZNuc=   8.0000000   1.0000000   1.0000000   8.0000000   1.0000000   1.0000000   8.0000000   1.0000000   1.0000000   8.0000000

  Atom        81          82          83          84          85          86          87          88          89          90
 IAtWgt=           1           1          16           1           1          16           1           1          16           1
 AtmWgt=   1.0078250   1.0078250  15.9949146   1.0078250   1.0078250  15.9949146   1.0078250   1.0078250  15.9949146   1.0078250
 NucSpn=           1           1           0           1           1           0           1           1           0           1
 AtZEff=   0.0000000   0.0000000   0.0000000   0.0000000   0.0000000   0.0000000   0.0000000   0.0000000   0.0000000   0.0000000
 NQMom=    0.0000000   0.0000000   0.0000000   0.0000000   0.0000000   0.0000000   0.0000000   0.0000000   0.0000000   0.0000000
 NMagM=    2.7928460   2.7928460   0.0000000   2.7928460   2.7928460   0.0000000   2.7928460   2.7928460   0.0000000   2.7928460
 AtZNuc=   1.0000000   1.0000000   8.0000000   1.0000000   1.0000000   8.0000000   1.0000000   1.0000000   8.0000000   1.0000000

  Atom        91          92          93          94          95          96          97          98          99         100
 IAtWgt=           1          16           1           1          16           1           1          16           1           1
 AtmWgt=   1.0078250  15.9949146   1.0078250   1.0078250  15.9949146   1.0078250   1.0078250  15.9949146   1.0078250   1.0078250
 NucSpn=           1           0           1           1           0           1           1           0           1           1
 AtZEff=   0.0000000   0.0000000   0.0000000   0.0000000   0.0000000   0.0000000   0.0000000   0.0000000   0.0000000   0.0000000
 NQMom=    0.0000000   0.0000000   0.0000000   0.0000000   0.0000000   0.0000000   0.0000000   0.0000000   0.0000000   0.0000000
 NMagM=    2.7928460   0.0000000   2.7928460   2.7928460   0.0000000   2.7928460   2.7928460   0.0000000   2.7928460   2.7928460
 AtZNuc=   1.0000000   8.0000000   1.0000000   1.0000000   8.0000000   1.0000000   1.0000000   8.0000000   1.0000000   1.0000000

  Atom       101         102         103         104         105         106         107         108         109         110
 IAtWgt=          16           1           1          16           1           1          16           1           1          16
 AtmWgt=  15.9949146   1.0078250   1.0078250  15.9949146   1.0078250   1.0078250  15.9949146   1.0078250   1.0078250  15.9949146
 NucSpn=           0           1           1           0           1           1           0           1           1           0
 AtZEff=   0.0000000   0.0000000   0.0000000   0.0000000   0.0000000   0.0000000   0.0000000   0.0000000   0.0000000   0.0000000
 NQMom=    0.0000000   0.0000000   0.0000000   0.0000000   0.0000000   0.0000000   0.0000000   0.0000000   0.0000000   0.0000000
 NMagM=    0.0000000   2.7928460   2.7928460   0.0000000   2.7928460   2.7928460   0.0000000   2.7928460   2.7928460   0.0000000
 AtZNuc=   8.0000000   1.0000000   1.0000000   8.0000000   1.0000000   1.0000000   8.0000000   1.0000000   1.0000000   8.0000000

  Atom       111         112         113         114         115         116         117         118         119         120
 IAtWgt=           1           1          16           1           1          16           1           1          16           1
 AtmWgt=   1.0078250   1.0078250  15.9949146   1.0078250   1.0078250  15.9949146   1.0078250   1.0078250  15.9949146   1.0078250
 NucSpn=           1           1           0           1           1           0           1           1           0           1
 AtZEff=   0.0000000   0.0000000   0.0000000   0.0000000   0.0000000   0.0000000   0.0000000   0.0000000   0.0000000   0.0000000
 NQMom=    0.0000000   0.0000000   0.0000000   0.0000000   0.0000000   0.0000000   0.0000000   0.0000000   0.0000000   0.0000000
 NMagM=    2.7928460   2.7928460   0.0000000   2.7928460   2.7928460   0.0000000   2.7928460   2.7928460   0.0000000   2.7928460
 AtZNuc=   1.0000000   1.0000000   8.0000000   1.0000000   1.0000000   8.0000000   1.0000000   1.0000000   8.0000000   1.0000000

  Atom       121         122         123         124         125         126         127         128         129         130
 IAtWgt=           1          16           1           1          16           1           1          16           1           1
 AtmWgt=   1.0078250  15.9949146   1.0078250   1.0078250  15.9949146   1.0078250   1.0078250  15.9949146   1.0078250   1.0078250
 NucSpn=           1           0           1           1           0           1           1           0           1           1
 AtZEff=   0.0000000   0.0000000   0.0000000   0.0000000   0.0000000   0.0000000   0.0000000   0.0000000   0.0000000   0.0000000
 NQMom=    0.0000000   0.0000000   0.0000000   0.0000000   0.0000000   0.0000000   0.0000000   0.0000000   0.0000000   0.0000000
 NMagM=    2.7928460   0.0000000   2.7928460   2.7928460   0.0000000   2.7928460   2.7928460   0.0000000   2.7928460   2.7928460
 AtZNuc=   1.0000000   8.0000000   1.0000000   1.0000000   8.0000000   1.0000000   1.0000000   8.0000000   1.0000000   1.0000000

  Atom       131         132         133         134         135         136         137         138         139         140
 IAtWgt=          16           1           1          16           1           1          16           1           1          16
 AtmWgt=  15.9949146   1.0078250   1.0078250  15.9949146   1.0078250   1.0078250  15.9949146   1.0078250   1.0078250  15.9949146
 NucSpn=           0           1           1           0           1           1           0           1           1           0
 AtZEff=   0.0000000   0.0000000   0.0000000   0.0000000   0.0000000   0.0000000   0.0000000   0.0000000   0.0000000   0.0000000
 NQMom=    0.0000000   0.0000000   0.0000000   0.0000000   0.0000000   0.0000000   0.0000000   0.0000000   0.0000000   0.0000000
 NMagM=    0.0000000   2.7928460   2.7928460   0.0000000   2.7928460   2.7928460   0.0000000   2.7928460   2.7928460   0.0000000
 AtZNuc=   8.0000000   1.0000000   1.0000000   8.0000000   1.0000000   1.0000000   8.0000000   1.0000000   1.0000000   8.0000000

  Atom       141         142         143         144         145         146         147         148         149         150
 IAtWgt=           1           1          16           1           1          16           1           1          16           1
 AtmWgt=   1.0078250   1.0078250  15.9949146   1.0078250   1.0078250  15.9949146   1.0078250   1.0078250  15.9949146   1.0078250
 NucSpn=           1           1           0           1           1           0           1           1           0           1
 AtZEff=   0.0000000   0.0000000   0.0000000   0.0000000   0.0000000   0.0000000   0.0000000   0.0000000   0.0000000   0.0000000
 NQMom=    0.0000000   0.0000000   0.0000000   0.0000000   0.0000000   0.0000000   0.0000000   0.0000000   0.0000000   0.0000000
 NMagM=    2.7928460   2.7928460   0.0000000   2.7928460   2.7928460   0.0000000   2.7928460   2.7928460   0.0000000   2.7928460
 AtZNuc=   1.0000000   1.0000000   8.0000000   1.0000000   1.0000000   8.0000000   1.0000000   1.0000000   8.0000000   1.0000000

  Atom       151         152         153         154         155         156         157         158         159         160
 IAtWgt=           1          16           1           1          16           1           1          16           1           1
 AtmWgt=   1.0078250  15.9949146   1.0078250   1.0078250  15.9949146   1.0078250   1.0078250  15.9949146   1.0078250   1.0078250
 NucSpn=           1           0           1           1           0           1           1           0           1           1
 AtZEff=   0.0000000   0.0000000   0.0000000   0.0000000   0.0000000   0.0000000   0.0000000   0.0000000   0.0000000   0.0000000
 NQMom=    0.0000000   0.0000000   0.0000000   0.0000000   0.0000000   0.0000000   0.0000000   0.0000000   0.0000000   0.0000000
 NMagM=    2.7928460   0.0000000   2.7928460   2.7928460   0.0000000   2.7928460   2.7928460   0.0000000   2.7928460   2.7928460
 AtZNuc=   1.0000000   8.0000000   1.0000000   1.0000000   8.0000000   1.0000000   1.0000000   8.0000000   1.0000000   1.0000000

  Atom       161         162         163         164         165         166         167         168         169         170
 IAtWgt=          16           1           1          16           1           1          16           1           1          16
 AtmWgt=  15.9949146   1.0078250   1.0078250  15.9949146   1.0078250   1.0078250  15.9949146   1.0078250   1.0078250  15.9949146
 NucSpn=           0           1           1           0           1           1           0           1           1           0
 AtZEff=   0.0000000   0.0000000   0.0000000   0.0000000   0.0000000   0.0000000   0.0000000   0.0000000   0.0000000   0.0000000
 NQMom=    0.0000000   0.0000000   0.0000000   0.0000000   0.0000000   0.0000000   0.0000000   0.0000000   0.0000000   0.0000000
 NMagM=    0.0000000   2.7928460   2.7928460   0.0000000   2.7928460   2.7928460   0.0000000   2.7928460   2.7928460   0.0000000
 AtZNuc=   8.0000000   1.0000000   1.0000000   8.0000000   1.0000000   1.0000000   8.0000000   1.0000000   1.0000000   8.0000000

  Atom       171         172         173         174         175         176         177         178         179         180
 IAtWgt=           1           1          16           1           1          16           1           1          16           1
 AtmWgt=   1.0078250   1.0078250  15.9949146   1.0078250   1.0078250  15.9949146   1.0078250   1.0078250  15.9949146   1.0078250
 NucSpn=           1           1           0           1           1           0           1           1           0           1
 AtZEff=   0.0000000   0.0000000   0.0000000   0.0000000   0.0000000   0.0000000   0.0000000   0.0000000   0.0000000   0.0000000
 NQMom=    0.0000000   0.0000000   0.0000000   0.0000000   0.0000000   0.0000000   0.0000000   0.0000000   0.0000000   0.0000000
 NMagM=    2.7928460   2.7928460   0.0000000   2.7928460   2.7928460   0.0000000   2.7928460   2.7928460   0.0000000   2.7928460
 AtZNuc=   1.0000000   1.0000000   8.0000000   1.0000000   1.0000000   8.0000000   1.0000000   1.0000000   8.0000000   1.0000000

  Atom       181         182         183         184         185         186         187         188         189         190
 IAtWgt=           1          16           1           1          16           1           1          16           1           1
 AtmWgt=   1.0078250  15.9949146   1.0078250   1.0078250  15.9949146   1.0078250   1.0078250  15.9949146   1.0078250   1.0078250
 NucSpn=           1           0           1           1           0           1           1           0           1           1
 AtZEff=   0.0000000   0.0000000   0.0000000   0.0000000   0.0000000   0.0000000   0.0000000   0.0000000   0.0000000   0.0000000
 NQMom=    0.0000000   0.0000000   0.0000000   0.0000000   0.0000000   0.0000000   0.0000000   0.0000000   0.0000000   0.0000000
 NMagM=    2.7928460   0.0000000   2.7928460   2.7928460   0.0000000   2.7928460   2.7928460   0.0000000   2.7928460   2.7928460
 AtZNuc=   1.0000000   8.0000000   1.0000000   1.0000000   8.0000000   1.0000000   1.0000000   8.0000000   1.0000000   1.0000000

  Atom       191         192         193         194         195         196         197         198         199         200
 IAtWgt=          16           1           1          16           1           1          16           1           1          16
 AtmWgt=  15.9949146   1.0078250   1.0078250  15.9949146   1.0078250   1.0078250  15.9949146   1.0078250   1.0078250  15.9949146
 NucSpn=           0           1           1           0           1           1           0           1           1           0
 AtZEff=   0.0000000   0.0000000   0.0000000   0.0000000   0.0000000   0.0000000   0.0000000   0.0000000   0.0000000   0.0000000
 NQMom=    0.0000000   0.0000000   0.0000000   0.0000000   0.0000000   0.0000000   0.0000000   0.0000000   0.0000000   0.0000000
 NMagM=    0.0000000   2.7928460   2.7928460   0.0000000   2.7928460   2.7928460   0.0000000   2.7928460   2.7928460   0.0000000
 AtZNuc=   8.0000000   1.0000000   1.0000000   8.0000000   1.0000000   1.0000000   8.0000000   1.0000000   1.0000000   8.0000000

  Atom       201         202         203         204         205         206         207         208         209         210
 IAtWgt=           1           1          16           1           1          16           1           1          16           1
 AtmWgt=   1.0078250   1.0078250  15.9949146   1.0078250   1.0078250  15.9949146   1.0078250   1.0078250  15.9949146   1.0078250
 NucSpn=           1           1           0           1           1           0           1           1           0           1
 AtZEff=   0.0000000   0.0000000   0.0000000   0.0000000   0.0000000   0.0000000   0.0000000   0.0000000   0.0000000   0.0000000
 NQMom=    0.0000000   0.0000000   0.0000000   0.0000000   0.0000000   0.0000000   0.0000000   0.0000000   0.0000000   0.0000000
 NMagM=    2.7928460   2.7928460   0.0000000   2.7928460   2.7928460   0.0000000   2.7928460   2.7928460   0.0000000   2.7928460
 AtZNuc=   1.0000000   1.0000000   8.0000000   1.0000000   1.0000000   8.0000000   1.0000000   1.0000000   8.0000000   1.0000000

  Atom       211         212         213         214         215         216         217         218         219         220
 IAtWgt=           1          16           1           1          16           1           1          16           1           1
 AtmWgt=   1.0078250  15.9949146   1.0078250   1.0078250  15.9949146   1.0078250   1.0078250  15.9949146   1.0078250   1.0078250
 NucSpn=           1           0           1           1           0           1           1           0           1           1
 AtZEff=   0.0000000   0.0000000   0.0000000   0.0000000   0.0000000   0.0000000   0.0000000   0.0000000   0.0000000   0.0000000
 NQMom=    0.0000000   0.0000000   0.0000000   0.0000000   0.0000000   0.0000000   0.0000000   0.0000000   0.0000000   0.0000000
 NMagM=    2.7928460   0.0000000   2.7928460   2.7928460   0.0000000   2.7928460   2.7928460   0.0000000   2.7928460   2.7928460
 AtZNuc=   1.0000000   8.0000000   1.0000000   1.0000000   8.0000000   1.0000000   1.0000000   8.0000000   1.0000000   1.0000000

  Atom       221         222         223         224         225         226         227         228         229         230
 IAtWgt=          16           1           1          16           1           1          16           1           1          16
 AtmWgt=  15.9949146   1.0078250   1.0078250  15.9949146   1.0078250   1.0078250  15.9949146   1.0078250   1.0078250  15.9949146
 NucSpn=           0           1           1           0           1           1           0           1           1           0
 AtZEff=   0.0000000   0.0000000   0.0000000   0.0000000   0.0000000   0.0000000   0.0000000   0.0000000   0.0000000   0.0000000
 NQMom=    0.0000000   0.0000000   0.0000000   0.0000000   0.0000000   0.0000000   0.0000000   0.0000000   0.0000000   0.0000000
 NMagM=    0.0000000   2.7928460   2.7928460   0.0000000   2.7928460   2.7928460   0.0000000   2.7928460   2.7928460   0.0000000
 AtZNuc=   8.0000000   1.0000000   1.0000000   8.0000000   1.0000000   1.0000000   8.0000000   1.0000000   1.0000000   8.0000000

  Atom       231         232         233         234         235         236         237         238         239         240
 IAtWgt=           1           1          16           1           1          16           1           1          16           1
 AtmWgt=   1.0078250   1.0078250  15.9949146   1.0078250   1.0078250  15.9949146   1.0078250   1.0078250  15.9949146   1.0078250
 NucSpn=           1           1           0           1           1           0           1           1           0           1
 AtZEff=   0.0000000   0.0000000   0.0000000   0.0000000   0.0000000   0.0000000   0.0000000   0.0000000   0.0000000   0.0000000
 NQMom=    0.0000000   0.0000000   0.0000000   0.0000000   0.0000000   0.0000000   0.0000000   0.0000000   0.0000000   0.0000000
 NMagM=    2.7928460   2.7928460   0.0000000   2.7928460   2.7928460   0.0000000   2.7928460   2.7928460   0.0000000   2.7928460
 AtZNuc=   1.0000000   1.0000000   8.0000000   1.0000000   1.0000000   8.0000000   1.0000000   1.0000000   8.0000000   1.0000000

  Atom       241         242         243         244         245         246         247         248         249         250
 IAtWgt=           1          16           1           1          16           1           1          16           1           1
 AtmWgt=   1.0078250  15.9949146   1.0078250   1.0078250  15.9949146   1.0078250   1.0078250  15.9949146   1.0078250   1.0078250
 NucSpn=           1           0           1           1           0           1           1           0           1           1
 AtZEff=   0.0000000   0.0000000   0.0000000   0.0000000   0.0000000   0.0000000   0.0000000   0.0000000   0.0000000   0.0000000
 NQMom=    0.0000000   0.0000000   0.0000000   0.0000000   0.0000000   0.0000000   0.0000000   0.0000000   0.0000000   0.0000000
 NMagM=    2.7928460   0.0000000   2.7928460   2.7928460   0.0000000   2.7928460   2.7928460   0.0000000   2.7928460   2.7928460
 AtZNuc=   1.0000000   8.0000000   1.0000000   1.0000000   8.0000000   1.0000000   1.0000000   8.0000000   1.0000000   1.0000000

  Atom       251         252         253         254         255         256         257         258         259         260
 IAtWgt=          16           1           1          16           1           1          16           1           1          16
 AtmWgt=  15.9949146   1.0078250   1.0078250  15.9949146   1.0078250   1.0078250  15.9949146   1.0078250   1.0078250  15.9949146
 NucSpn=           0           1           1           0           1           1           0           1           1           0
 AtZEff=   0.0000000   0.0000000   0.0000000   0.0000000   0.0000000   0.0000000   0.0000000   0.0000000   0.0000000   0.0000000
 NQMom=    0.0000000   0.0000000   0.0000000   0.0000000   0.0000000   0.0000000   0.0000000   0.0000000   0.0000000   0.0000000
 NMagM=    0.0000000   2.7928460   2.7928460   0.0000000   2.7928460   2.7928460   0.0000000   2.7928460   2.7928460   0.0000000
 AtZNuc=   8.0000000   1.0000000   1.0000000   8.0000000   1.0000000   1.0000000   8.0000000   1.0000000   1.0000000   8.0000000

  Atom       261         262         263         264         265         266         267         268         269         270
 IAtWgt=           1           1          16           1           1          16           1           1          16           1
 AtmWgt=   1.0078250   1.0078250  15.9949146   1.0078250   1.0078250  15.9949146   1.0078250   1.0078250  15.9949146   1.0078250
 NucSpn=           1           1           0           1           1           0           1           1           0           1
 AtZEff=   0.0000000   0.0000000   0.0000000   0.0000000   0.0000000   0.0000000   0.0000000   0.0000000   0.0000000   0.0000000
 NQMom=    0.0000000   0.0000000   0.0000000   0.0000000   0.0000000   0.0000000   0.0000000   0.0000000   0.0000000   0.0000000
 NMagM=    2.7928460   2.7928460   0.0000000   2.7928460   2.7928460   0.0000000   2.7928460   2.7928460   0.0000000   2.7928460
 AtZNuc=   1.0000000   1.0000000   8.0000000   1.0000000   1.0000000   8.0000000   1.0000000   1.0000000   8.0000000   1.0000000

  Atom       271         272         273         274         275         276         277         278         279         280
 IAtWgt=           1          16           1           1          16           1           1          16           1           1
 AtmWgt=   1.0078250  15.9949146   1.0078250   1.0078250  15.9949146   1.0078250   1.0078250  15.9949146   1.0078250   1.0078250
 NucSpn=           1           0           1           1           0           1           1           0           1           1
 AtZEff=   0.0000000   0.0000000   0.0000000   0.0000000   0.0000000   0.0000000   0.0000000   0.0000000   0.0000000   0.0000000
 NQMom=    0.0000000   0.0000000   0.0000000   0.0000000   0.0000000   0.0000000   0.0000000   0.0000000   0.0000000   0.0000000
 NMagM=    2.7928460   0.0000000   2.7928460   2.7928460   0.0000000   2.7928460   2.7928460   0.0000000   2.7928460   2.7928460
 AtZNuc=   1.0000000   8.0000000   1.0000000   1.0000000   8.0000000   1.0000000   1.0000000   8.0000000   1.0000000   1.0000000

  Atom       281         282         283         284         285         286         287         288         289         290
 IAtWgt=          16           1           1          16           1           1          16           1           1          16
 AtmWgt=  15.9949146   1.0078250   1.0078250  15.9949146   1.0078250   1.0078250  15.9949146   1.0078250   1.0078250  15.9949146
 NucSpn=           0           1           1           0           1           1           0           1           1           0
 AtZEff=   0.0000000   0.0000000   0.0000000   0.0000000   0.0000000   0.0000000   0.0000000   0.0000000   0.0000000   0.0000000
 NQMom=    0.0000000   0.0000000   0.0000000   0.0000000   0.0000000   0.0000000   0.0000000   0.0000000   0.0000000   0.0000000
 NMagM=    0.0000000   2.7928460   2.7928460   0.0000000   2.7928460   2.7928460   0.0000000   2.7928460   2.7928460   0.0000000
 AtZNuc=   8.0000000   1.0000000   1.0000000   8.0000000   1.0000000   1.0000000   8.0000000   1.0000000   1.0000000   8.0000000

  Atom       291         292         293         294         295         296         297         298         299         300
 IAtWgt=           1           1          16           1           1          16           1           1          16           1
 AtmWgt=   1.0078250   1.0078250  15.9949146   1.0078250   1.0078250  15.9949146   1.0078250   1.0078250  15.9949146   1.0078250
 NucSpn=           1           1           0           1           1           0           1           1           0           1
 AtZEff=   0.0000000   0.0000000   0.0000000   0.0000000   0.0000000   0.0000000   0.0000000   0.0000000   0.0000000   0.0000000
 NQMom=    0.0000000   0.0000000   0.0000000   0.0000000   0.0000000   0.0000000   0.0000000   0.0000000   0.0000000   0.0000000
 NMagM=    2.7928460   2.7928460   0.0000000   2.7928460   2.7928460   0.0000000   2.7928460   2.7928460   0.0000000   2.7928460
 AtZNuc=   1.0000000   1.0000000   8.0000000   1.0000000   1.0000000   8.0000000   1.0000000   1.0000000   8.0000000   1.0000000

  Atom       301         302         303         304         305         306         307         308         309         310
 IAtWgt=           1          16           1           1          16           1           1          16           1           1
 AtmWgt=   1.0078250  15.9949146   1.0078250   1.0078250  15.9949146   1.0078250   1.0078250  15.9949146   1.0078250   1.0078250
 NucSpn=           1           0           1           1           0           1           1           0           1           1
 AtZEff=   0.0000000   0.0000000   0.0000000   0.0000000   0.0000000   0.0000000   0.0000000   0.0000000   0.0000000   0.0000000
 NQMom=    0.0000000   0.0000000   0.0000000   0.0000000   0.0000000   0.0000000   0.0000000   0.0000000   0.0000000   0.0000000
 NMagM=    2.7928460   0.0000000   2.7928460   2.7928460   0.0000000   2.7928460   2.7928460   0.0000000   2.7928460   2.7928460
 AtZNuc=   1.0000000   8.0000000   1.0000000   1.0000000   8.0000000   1.0000000   1.0000000   8.0000000   1.0000000   1.0000000

  Atom       311         312         313         314         315         316         317         318         319         320
 IAtWgt=          16           1           1          16           1           1          16           1           1          16
 AtmWgt=  15.9949146   1.0078250   1.0078250  15.9949146   1.0078250   1.0078250  15.9949146   1.0078250   1.0078250  15.9949146
 NucSpn=           0           1           1           0           1           1           0           1           1           0
 AtZEff=   0.0000000   0.0000000   0.0000000   0.0000000   0.0000000   0.0000000   0.0000000   0.0000000   0.0000000   0.0000000
 NQMom=    0.0000000   0.0000000   0.0000000   0.0000000   0.0000000   0.0000000   0.0000000   0.0000000   0.0000000   0.0000000
 NMagM=    0.0000000   2.7928460   2.7928460   0.0000000   2.7928460   2.7928460   0.0000000   2.7928460   2.7928460   0.0000000
 AtZNuc=   8.0000000   1.0000000   1.0000000   8.0000000   1.0000000   1.0000000   8.0000000   1.0000000   1.0000000   8.0000000

  Atom       321         322         323         324         325         326         327         328         329         330
 IAtWgt=           1           1          16           1           1          16           1           1          16           1
 AtmWgt=   1.0078250   1.0078250  15.9949146   1.0078250   1.0078250  15.9949146   1.0078250   1.0078250  15.9949146   1.0078250
 NucSpn=           1           1           0           1           1           0           1           1           0           1
 AtZEff=   0.0000000   0.0000000   0.0000000   0.0000000   0.0000000   0.0000000   0.0000000   0.0000000   0.0000000   0.0000000
 NQMom=    0.0000000   0.0000000   0.0000000   0.0000000   0.0000000   0.0000000   0.0000000   0.0000000   0.0000000   0.0000000
 NMagM=    2.7928460   2.7928460   0.0000000   2.7928460   2.7928460   0.0000000   2.7928460   2.7928460   0.0000000   2.7928460
 AtZNuc=   1.0000000   1.0000000   8.0000000   1.0000000   1.0000000   8.0000000   1.0000000   1.0000000   8.0000000   1.0000000

  Atom       331         332         333         334         335         336         337         338         339         340
 IAtWgt=           1          16           1           1          16           1           1          16           1           1
 AtmWgt=   1.0078250  15.9949146   1.0078250   1.0078250  15.9949146   1.0078250   1.0078250  15.9949146   1.0078250   1.0078250
 NucSpn=           1           0           1           1           0           1           1           0           1           1
 AtZEff=   0.0000000   0.0000000   0.0000000   0.0000000   0.0000000   0.0000000   0.0000000   0.0000000   0.0000000   0.0000000
 NQMom=    0.0000000   0.0000000   0.0000000   0.0000000   0.0000000   0.0000000   0.0000000   0.0000000   0.0000000   0.0000000
 NMagM=    2.7928460   0.0000000   2.7928460   2.7928460   0.0000000   2.7928460   2.7928460   0.0000000   2.7928460   2.7928460
 AtZNuc=   1.0000000   8.0000000   1.0000000   1.0000000   8.0000000   1.0000000   1.0000000   8.0000000   1.0000000   1.0000000

  Atom       341         342         343         344         345         346         347         348         349         350
 IAtWgt=          16           1           1          16           1           1          16           1           1          16
 AtmWgt=  15.9949146   1.0078250   1.0078250  15.9949146   1.0078250   1.0078250  15.9949146   1.0078250   1.0078250  15.9949146
 NucSpn=           0           1           1           0           1           1           0           1           1           0
 AtZEff=   0.0000000   0.0000000   0.0000000   0.0000000   0.0000000   0.0000000   0.0000000   0.0000000   0.0000000   0.0000000
 NQMom=    0.0000000   0.0000000   0.0000000   0.0000000   0.0000000   0.0000000   0.0000000   0.0000000   0.0000000   0.0000000
 NMagM=    0.0000000   2.7928460   2.7928460   0.0000000   2.7928460   2.7928460   0.0000000   2.7928460   2.7928460   0.0000000
 AtZNuc=   8.0000000   1.0000000   1.0000000   8.0000000   1.0000000   1.0000000   8.0000000   1.0000000   1.0000000   8.0000000

  Atom       351         352         353         354         355         356         357         358         359         360
 IAtWgt=           1           1          16           1           1          16           1           1          16           1
 AtmWgt=   1.0078250   1.0078250  15.9949146   1.0078250   1.0078250  15.9949146   1.0078250   1.0078250  15.9949146   1.0078250
 NucSpn=           1           1           0           1           1           0           1           1           0           1
 AtZEff=   0.0000000   0.0000000   0.0000000   0.0000000   0.0000000   0.0000000   0.0000000   0.0000000   0.0000000   0.0000000
 NQMom=    0.0000000   0.0000000   0.0000000   0.0000000   0.0000000   0.0000000   0.0000000   0.0000000   0.0000000   0.0000000
 NMagM=    2.7928460   2.7928460   0.0000000   2.7928460   2.7928460   0.0000000   2.7928460   2.7928460   0.0000000   2.7928460
 AtZNuc=   1.0000000   1.0000000   8.0000000   1.0000000   1.0000000   8.0000000   1.0000000   1.0000000   8.0000000   1.0000000

  Atom       361         362         363         364         365         366         367         368         369         370
 IAtWgt=           1          16           1           1          16           1           1          16           1           1
 AtmWgt=   1.0078250  15.9949146   1.0078250   1.0078250  15.9949146   1.0078250   1.0078250  15.9949146   1.0078250   1.0078250
 NucSpn=           1           0           1           1           0           1           1           0           1           1
 AtZEff=   0.0000000   0.0000000   0.0000000   0.0000000   0.0000000   0.0000000   0.0000000   0.0000000   0.0000000   0.0000000
 NQMom=    0.0000000   0.0000000   0.0000000   0.0000000   0.0000000   0.0000000   0.0000000   0.0000000   0.0000000   0.0000000
 NMagM=    2.7928460   0.0000000   2.7928460   2.7928460   0.0000000   2.7928460   2.7928460   0.0000000   2.7928460   2.7928460
 AtZNuc=   1.0000000   8.0000000   1.0000000   1.0000000   8.0000000   1.0000000   1.0000000   8.0000000   1.0000000   1.0000000

  Atom       371         372         373         374         375         376         377         378         379         380
 IAtWgt=          16           1           1          16           1           1          16           1           1          16
 AtmWgt=  15.9949146   1.0078250   1.0078250  15.9949146   1.0078250   1.0078250  15.9949146   1.0078250   1.0078250  15.9949146
 NucSpn=           0           1           1           0           1           1           0           1           1           0
 AtZEff=   0.0000000   0.0000000   0.0000000   0.0000000   0.0000000   0.0000000   0.0000000   0.0000000   0.0000000   0.0000000
 NQMom=    0.0000000   0.0000000   0.0000000   0.0000000   0.0000000   0.0000000   0.0000000   0.0000000   0.0000000   0.0000000
 NMagM=    0.0000000   2.7928460   2.7928460   0.0000000   2.7928460   2.7928460   0.0000000   2.7928460   2.7928460   0.0000000
 AtZNuc=   8.0000000   1.0000000   1.0000000   8.0000000   1.0000000   1.0000000   8.0000000   1.0000000   1.0000000   8.0000000

  Atom       381         382         383         384         385
 IAtWgt=           1           1          16           1           1
 AtmWgt=   1.0078250   1.0078250  15.9949146   1.0078250   1.0078250
 NucSpn=           1           1           0           1           1
 AtZEff=   0.0000000   0.0000000   0.0000000   0.0000000   0.0000000
 NQMom=    0.0000000   0.0000000   0.0000000   0.0000000   0.0000000
 NMagM=    2.7928460   2.7928460   0.0000000   2.7928460   2.7928460
 AtZNuc=   1.0000000   1.0000000   8.0000000   1.0000000   1.0000000
 Leave Link  101 at Sun May  6 22:59:55 2018, MaxMem= 14763950080 cpu:        63.6
 (Enter /cm/shared/gaussian/g09.e01/intel64-sandybridge/g09/l103.exe)

 GradGradGradGradGradGradGradGradGradGradGradGradGradGradGradGradGradGrad
 Berny optimization.
 Initialization pass.
 Trust Radius=3.00D-01 FncErr=1.00D-07 GrdErr=1.00D-07
 Number of steps in this run=      2 maximum allowed number of steps=      2.
 GradGradGradGradGradGradGradGradGradGradGradGradGradGradGradGradGradGrad

 Leave Link  103 at Sun May  6 22:59:55 2018, MaxMem= 14763950080 cpu:         3.7
 (Enter /cm/shared/gaussian/g09.e01/intel64-sandybridge/g09/l202.exe)
 Symmetry turned off by external request.
 Stoichiometry    BrH256O128(1-)
 Framework group  C1[X(BrH256O128)]
 Deg. of freedom  1149
 Full point group                 C1      NOp   1
                          Input orientation:                          
 ---------------------------------------------------------------------
 Center     Atomic      Atomic             Coordinates (Angstroms)
 Number     Number       Type             X           Y           Z
 ---------------------------------------------------------------------
      1         35           0       20.000000   20.000000   20.000000
      2          8           0       22.320000   18.470000   21.330000
      3          1           0       21.530000   18.860000   20.940000
      4          1           0       22.880000   19.210000   21.550000
      5          8           0       20.880000   16.960000   19.090000
      6          1           0       20.990000   17.910000   19.020000
      7          1           0       20.500000   16.820000   19.960000
      8          8           0       16.980000   21.980000   20.650000
      9          1           0       17.770000   21.470000   20.450000
     10          1           0       16.280000   21.540000   20.170000
     11          8           0       16.810000   18.040000   18.980000
     12          1           0       17.520000   18.590000   19.320000
     13          1           0       17.040000   17.150000   19.250000
     14          8           0       21.760000   19.660000   16.550000
     15          1           0       22.430000   18.990000   16.440000
     16          1           0       21.510000   19.610000   17.470000
     17          8           0       20.710000   21.910000   23.080000
     18          1           0       19.810000   21.610000   23.140000
     19          1           0       21.130000   21.290000   22.480000
     20          8           0       23.240000   22.020000   19.100000
     21          1           0       22.850000   21.190000   19.390000
     22          1           0       23.510000   21.860000   18.200000
     23          8           0       19.610000   23.930000   18.920000
     24          1           0       19.900000   24.820000   18.700000
     25          1           0       20.420000   23.410000   18.940000
     26          8           0       21.840000   23.680000   21.070000
     27          1           0       22.290000   23.080000   20.470000
     28          1           0       21.780000   23.200000   21.890000
     29          8           0       18.380000   20.890000   23.570000
     30          1           0       17.740000   20.330000   23.130000
     31          1           0       18.980000   20.280000   23.990000
     32          8           0       19.120000   18.190000   15.880000
     33          1           0       19.420000   17.430000   15.380000
     34          1           0       19.920000   18.580000   16.230000
     35          8           0       20.400000   16.260000   22.110000
     36          1           0       19.720000   16.580000   22.710000
     37          1           0       21.140000   16.840000   22.270000
     38          8           0       19.610000   21.790000   15.410000
     39          1           0       18.910000   21.310000   14.980000
     40          1           0       20.170000   21.110000   15.790000
     41          8           0       15.420000   20.320000   22.410000
     42          1           0       14.630000   20.790000   22.660000
     43          1           0       15.990000   20.990000   22.030000
     44          8           0       23.740000   18.260000   17.800000
     45          1           0       24.160000   18.620000   18.580000
     46          1           0       24.420000   17.710000   17.400000
     47          8           0       23.260000   15.650000   20.140000
     48          1           0       22.730000   14.900000   19.860000
     49          1           0       22.890000   16.400000   19.670000
     50          8           0       23.630000   20.490000   22.850000
     51          1           0       24.490000   20.130000   22.600000
     52          1           0       23.680000   20.590000   23.800000
     53          8           0       17.760000   23.850000   16.580000
     54          1           0       18.280000   23.460000   15.870000
     55          1           0       18.260000   23.650000   17.370000
     56          8           0       17.270000   24.950000   20.460000
     57          1           0       17.230000   24.450000   21.280000
     58          1           0       17.940000   24.500000   19.940000
     59          8           0       16.600000   18.310000   23.600000
     60          1           0       15.900000   17.730000   23.880000
     61          1           0       16.190000   18.900000   22.970000
     62          8           0       18.980000   17.700000   24.610000
     63          1           0       18.130000   17.870000   24.200000
     64          1           0       18.780000   17.200000   25.400000
     65          8           0       16.340000   23.670000   23.050000
     66          1           0       16.880000   23.000000   22.640000
     67          1           0       16.970000   24.270000   23.470000
     68          8           0       19.190000   14.370000   20.600000
     69          1           0       19.500000   15.070000   21.170000
     70          1           0       19.650000   13.590000   20.890000
     71          8           0       17.200000   19.870000   15.070000
     72          1           0       17.920000   19.290000   15.320000
     73          1           0       16.950000   20.310000   15.890000
     74          8           0       21.340000   14.830000   17.110000
     75          1           0       20.740000   14.880000   16.370000
     76          1           0       21.520000   15.750000   17.330000
     77          8           0       21.720000   17.490000   24.780000
     78          1           0       21.560000   16.550000   24.760000
     79          1           0       20.850000   17.880000   24.790000
     80          8           0       20.400000   25.990000   20.630000
     81          1           0       21.180000   26.460000   20.330000
     82          1           0       20.740000   25.180000   21.010000
     83          8           0       16.830000   16.290000   16.310000
     84          1           0       16.220000   16.610000   16.970000
     85          1           0       17.580000   16.890000   16.370000
     86          8           0       14.320000   17.920000   18.250000
     87          1           0       13.750000   18.240000   18.950000
     88          1           0       15.200000   17.940000   18.620000
     89          8           0       14.730000   21.220000   19.500000
     90          1           0       13.860000   21.620000   19.530000
     91          1           0       14.810000   20.880000   18.610000
     92          8           0       23.700000   16.470000   23.310000
     93          1           0       23.180000   17.080000   23.830000
     94          1           0       23.690000   16.830000   22.420000
     95          8           0       15.010000   20.350000   16.810000
     96          1           0       14.410000   19.940000   16.180000
     97          1           0       15.220000   19.640000   17.420000
     98          8           0       21.710000   19.350000   13.830000
     99          1           0       21.520000   19.510000   14.760000
    100          1           0       22.660000   19.300000   13.790000
    101          8           0       25.540000   19.730000   19.590000
    102          1           0       25.930000   20.470000   19.130000
    103          1           0       25.880000   19.790000   20.480000
    104          8           0       23.870000   21.550000   16.250000
    105          1           0       23.380000   22.240000   15.800000
    106          1           0       23.800000   20.790000   15.680000
    107          8           0       25.200000   22.890000   21.290000
    108          1           0       25.130000   23.630000   20.690000
    109          1           0       25.160000   22.120000   20.720000
    110          8           0       21.830000   23.410000   25.320000
    111          1           0       22.710000   23.370000   24.950000
    112          1           0       21.260000   23.030000   24.650000
    113          8           0       17.350000   15.380000   23.160000
    114          1           0       17.350000   14.430000   23.070000
    115          1           0       17.010000   15.700000   22.320000
    116          8           0       18.350000   22.130000   26.070000
    117          1           0       19.270000   22.080000   26.320000
    118          1           0       18.350000   21.950000   25.130000
    119          8           0       23.510000   19.780000   25.460000
    120          1           0       24.150000   19.110000   25.710000
    121          1           0       22.820000   19.300000   25.010000
    122          8           0       15.960000   15.800000   20.700000
    123          1           0       16.470000   15.070000   20.360000
    124          1           0       15.220000   15.380000   21.150000
    125          8           0       24.180000   23.450000   24.000000
    126          1           0       24.270000   23.150000   23.090000
    127          1           0       24.910000   24.060000   24.120000
    128          8           0       22.200000   23.090000   14.610000
    129          1           0       22.120000   23.920000   15.090000
    130          1           0       21.310000   22.730000   14.610000
    131          8           0       25.200000   24.470000   19.100000
    132          1           0       26.050000   24.420000   18.660000
    133          1           0       24.620000   23.910000   18.580000
    134          8           0       26.310000   17.050000   19.980000
    135          1           0       25.870000   17.870000   19.740000
    136          1           0       25.640000   16.540000   20.430000
    137          8           0       15.230000   23.050000   15.860000
    138          1           0       15.080000   22.110000   15.910000
    139          1           0       15.840000   23.240000   16.570000
    140          8           0       13.100000   18.950000   20.560000
    141          1           0       12.500000   18.830000   21.290000
    142          1           0       13.740000   19.590000   20.880000
    143          8           0       16.490000   19.770000   26.200000
    144          1           0       16.640000   19.250000   25.410000
    145          1           0       16.910000   19.260000   26.900000
    146          8           0       26.290000   19.620000   22.150000
    147          1           0       26.520000   20.330000   22.750000
    148          1           0       27.010000   18.990000   22.240000
    149          8           0       22.220000   13.260000   19.080000
    150          1           0       21.590000   13.570000   18.420000
    151          1           0       22.940000   12.900000   18.560000
    152          8           0       18.110000   24.940000   24.340000
    153          1           0       18.810000   25.590000   24.240000
    154          1           0       18.230000   24.590000   25.220000
    155          8           0       23.980000   13.860000   22.750000
    156          1           0       23.600000   14.730000   22.670000
    157          1           0       24.160000   13.750000   23.680000
    158          8           0       14.690000   25.530000   19.450000
    159          1           0       15.620000   25.350000   19.590000
    160          1           0       14.260000   24.700000   19.660000
    161          8           0       13.750000   24.020000   21.670000
    162          1           0       14.610000   23.880000   22.070000
    163          1           0       13.470000   24.870000   22.000000
    164          8           0       14.840000   21.920000   25.170000
    165          1           0       15.320000   22.460000   24.540000
    166          1           0       15.440000   21.220000   25.400000
    167          8           0       18.960000   12.540000   17.750000
    168          1           0       19.070000   11.740000   18.260000
    169          1           0       19.070000   13.240000   18.390000
    170          8           0       26.730000   21.990000   18.980000
    171          1           0       27.200000   22.380000   19.720000
    172          1           0       27.050000   22.480000   18.220000
    173          8           0       27.140000   19.940000   16.850000
    174          1           0       27.870000   20.440000   17.190000
    175          1           0       26.390000   20.530000   16.910000
    176          8           0       20.410000   26.770000   17.730000
    177          1           0       19.490000   27.040000   17.810000
    178          1           0       20.830000   27.110000   18.520000
    179          8           0       25.980000   15.900000   17.330000
    180          1           0       25.870000   16.060000   18.270000
    181          1           0       26.910000   15.990000   17.170000
    182          8           0       17.440000   27.830000   19.090000
    183          1           0       18.170000   28.370000   19.370000
    184          1           0       17.690000   26.940000   19.350000
    185          8           0       19.680000   15.040000   14.530000
    186          1           0       20.240000   15.310000   13.810000
    187          1           0       18.890000   14.710000   14.120000
    188          8           0       16.450000   25.930000   15.430000
    189          1           0       15.850000   25.990000   16.180000
    190          1           0       17.090000   25.270000   15.690000
    191          8           0       16.120000   19.070000   12.710000
    192          1           0       16.630000   18.260000   12.610000
    193          1           0       16.410000   19.430000   13.540000
    194          8           0       19.400000   27.340000   23.240000
    195          1           0       18.890000   28.150000   23.230000
    196          1           0       19.320000   27.000000   22.350000
    197          8           0       21.610000   12.500000   21.610000
    198          1           0       21.950000   12.750000   20.750000
    199          1           0       21.960000   13.160000   22.210000
    200          8           0       16.470000   13.370000   19.450000
    201          1           0       17.290000   13.020000   19.800000
    202          1           0       16.530000   13.250000   18.500000
    203          8           0       13.940000   16.560000   23.360000
    204          1           0       13.320000   16.050000   22.840000
    205          1           0       13.700000   17.470000   23.190000
    206          8           0       20.410000   17.670000   27.540000
    207          1           0       20.580000   17.020000   26.860000
[...]
   Z335      37.75673   0.00850   0.00000   0.00658   0.00720  37.76393
   X336      24.54754   0.00601   0.00000   0.00736   0.00691  24.55445
   Y336      24.50975   0.00494   0.00000   0.00799   0.00806  24.51781
   Z336      36.43392  -0.00023   0.00000  -0.00167  -0.00107  36.43285
   X337      27.32544   0.00911   0.00000   0.00421   0.00378  27.32922
   Y337      24.96328   0.00387   0.00000   0.00114   0.00117  24.96445
   Z337      37.01973  -0.00561   0.00000  -0.00230  -0.00171  37.01802
   X338      43.80385  -0.00346   0.00000  -0.00219  -0.00192  43.80193
   Y338      45.86365   0.01094   0.00000   0.01021   0.00882  45.87248
   Z338      22.33656  -0.01107   0.00000  -0.00289  -0.00352  22.33305
   X339      43.25583  -0.00701   0.00000  -0.00777  -0.00753  43.24830
   Y339      44.97548  -0.00823   0.00000  -0.00431  -0.00559  44.96989
   Z339      23.81055   0.01340   0.00000   0.00871   0.00814  23.81869
   X340      45.58019   0.00814   0.00000   0.00511   0.00537  45.58557
   Y340      45.56130  -0.00325   0.00000  -0.00262  -0.00407  45.55723
   Z340      22.26097   0.00128   0.00000   0.00208   0.00149  22.26246
   X341      47.96125  -0.00377   0.00000   0.00008  -0.00017  47.96107
   Y341      34.69537  -0.00881   0.00000  -0.00794  -0.00764  34.68773
   Z341      50.70135  -0.01896   0.00000  -0.01238  -0.01226  50.68909
   X342      49.56752   0.00924   0.00000   0.01007   0.00984  49.57735
   Y342      35.35678   0.00015   0.00000  -0.00265  -0.00243  35.35435
   Z342      50.19113   0.00111   0.00000   0.00226   0.00235  50.19348
   X343      47.86676  -0.00242   0.00000  -0.00422  -0.00447  47.86229
   Y343      35.05442   0.00518   0.00000   0.00373   0.00415  35.05857
   Z343      52.45880   0.01639   0.00000   0.00716   0.00725  52.46605
   X344      44.65423  -0.00153   0.00000   0.00085   0.00047  44.65469
   Y344      24.50975  -0.00594   0.00000   0.00147   0.00040  24.51015
   Z344      27.83567   0.00652   0.00000   0.00295   0.00369  27.83936
   X345      45.16445  -0.00270   0.00000  -0.00739  -0.00772  45.15673
   Y345      26.24830   0.01477   0.00000   0.01601   0.01493  26.26323
   Z345      27.93015  -0.00566   0.00000  -0.00972  -0.00909  27.92107
   X346      44.54084   0.00342   0.00000   0.00623   0.00585  44.54669
   Y346      24.16960  -0.00242   0.00000  -0.00315  -0.00432  24.16528
   Z346      26.05932  -0.00539   0.00000  -0.00331  -0.00254  26.05678
   X347      25.87035  -0.00331   0.00000  -0.00025  -0.00066  25.86969
   Y347      28.70494  -0.00008   0.00000  -0.00314  -0.00234  28.70260
   Z347      48.58486   0.00925   0.00000   0.00740   0.00774  48.59260
   X348      26.43727   0.00149   0.00000  -0.00010  -0.00049  26.43678
   Y348      29.17737   0.00825   0.00000   0.01102   0.01171  29.18908
   Z348      46.92190  -0.00486   0.00000   0.00025   0.00057  46.92247
   X349      26.60734   0.00263   0.00000   0.00294   0.00248  26.60982
   Y349      27.07978  -0.00727   0.00000  -0.00864  -0.00784  27.07194
   Z349      48.86832   0.00042   0.00000  -0.00059  -0.00013  48.86819
   X350      45.48571   0.00428   0.00000   0.00566   0.00508  45.49079
   Y350      21.29721  -0.00834   0.00000  -0.01083  -0.01107  21.28614
   Z350      41.23382  -0.00547   0.00000  -0.00655  -0.00559  41.22823
   X351      44.72982   0.00442   0.00000   0.01002   0.00948  44.73930
   Y351      22.86569   0.00004   0.00000  -0.00343  -0.00361  22.86208
   Z351      41.78184  -0.00125   0.00000  -0.00501  -0.00416  41.77768
   X352      45.37232   0.00012   0.00000   0.00117   0.00055  45.37287
   Y352      20.22007  -0.00092   0.00000  -0.00092  -0.00106  20.21901
   Z352      42.68891   0.00365   0.00000   0.00333   0.00435  42.69327
   X353      23.48930   0.01258   0.00000   0.01124   0.01122  23.50052
   Y353      37.24650   0.00179   0.00000  -0.00283  -0.00323  37.24328
   Z353      28.72384   0.01109   0.00000   0.00918   0.00896  28.73280
   X354      22.14759  -0.00292   0.00000  -0.00117  -0.00121  22.14638
   Y354      37.05753  -0.00052   0.00000   0.00013  -0.00015  37.05738
   Z354      29.93326   0.00299   0.00000   0.00293   0.00271  29.93597
   X355      22.80899  -0.00318   0.00000   0.00109   0.00106  22.81006
   Y355      36.58510  -0.00293   0.00000   0.00105   0.00058  36.58567
   Z355      27.19316  -0.01097   0.00000  -0.00627  -0.00645  27.18671
   X356      38.89056  -0.02202   0.00000  -0.02202  -0.02264  38.86792
   Y356      19.29410  -0.02569   0.00000  -0.01884  -0.01896  19.27515
   Z356      40.02440  -0.00603   0.00000  -0.00004   0.00100  40.02540
   X357      39.21182   0.01484   0.00000   0.01750   0.01692  39.22874
   Y357      21.03265   0.01565   0.00000   0.00257   0.00246  21.03512
   Z357      40.40234   0.00475   0.00000  -0.00032   0.00061  40.40295
   X358      40.23227   0.00525   0.00000   0.00304   0.00239  40.23466
   Y358      18.38704   0.00171   0.00000   0.00235   0.00225  18.38928
   Z358      40.83698   0.00118   0.00000  -0.00302  -0.00191  40.83507
   X359      34.22294  -0.01696   0.00000  -0.00987  -0.01044  34.21250
   Y359      21.07045   0.02254   0.00000   0.01508   0.01505  21.08550
   Z359      39.34410   0.00339   0.00000   0.00501   0.00590  39.35000
   X360      34.14735  -0.00131   0.00000  -0.00377  -0.00436  34.14300
   Y360      20.01220  -0.00779   0.00000  -0.00247  -0.00259  20.00961
   Z360      37.88901  -0.00642   0.00000  -0.00118  -0.00022  37.88879
   X361      35.45126   0.01951   0.00000   0.01747   0.01687  35.46813
   Y361      20.27676  -0.01447   0.00000  -0.01197  -0.01197  20.26479
   Z361      40.40234   0.00356   0.00000  -0.00579  -0.00484  40.39750
   X362      27.24985  -0.01977   0.00000  -0.02102  -0.02097  27.22888
   Y362      45.42902   0.01961   0.00000   0.01316   0.01409  45.44310
   Z362      51.02261   0.00893   0.00000   0.00395   0.00324  51.02584
   X363      28.96950   0.00164   0.00000  -0.00469  -0.00462  28.96488
   Y363      45.99593  -0.00717   0.00000  -0.01168  -0.01080  45.98514
   Z363      51.19268  -0.00351   0.00000  -0.00416  -0.00490  51.18778
   X364      27.38213   0.00341   0.00000   0.00022   0.00024  27.38237
   Y364      43.89834  -0.01490   0.00000  -0.00836  -0.00750  43.89083
   Z364      50.09664  -0.00610   0.00000   0.00101   0.00040  50.09704
   X365      50.17223   0.01259   0.00000   0.00780   0.00734  50.17957
   Y365      24.22629  -0.00115   0.00000   0.00111   0.00044  24.22673
   Z365      36.54730   0.00874   0.00000   0.00470   0.00550  36.55280
   X366      48.56596  -0.00905   0.00000  -0.00268  -0.00312  48.56284
   Y366      24.47195  -0.00229   0.00000  -0.00497  -0.00564  24.46631
   Z366      35.75362  -0.01121   0.00000  -0.01149  -0.01071  35.74291
   X367      51.24937  -0.00249   0.00000  -0.00198  -0.00244  51.24693
   Y367      23.64047  -0.00017   0.00000  -0.00019  -0.00098  23.63949
   Z367      35.20560  -0.00073   0.00000  -0.00126  -0.00041  35.20519
   X368      41.30941   0.01477   0.00000   0.00651   0.00684  41.31625
   Y368      53.63043   0.00597   0.00000   0.00338   0.00360  53.63403
   Z368      46.43057  -0.00461   0.00000  -0.00283  -0.00397  46.42660
   X369      40.98816  -0.00185   0.00000  -0.00072  -0.00041  40.98775
   Y369      53.64932  -0.00315   0.00000  -0.00537  -0.00503  53.64429
   Z369      48.20691   0.00885   0.00000   0.00631   0.00517  48.21209
   X370      39.77874  -0.01395   0.00000  -0.00859  -0.00828  39.77046
   Y370      53.00682  -0.00878   0.00000  -0.00895  -0.00873  52.99809
   Z370      45.69358  -0.00811   0.00000  -0.00686  -0.00797  45.68561
   X371      32.50329   0.01206   0.00000   0.00864   0.00850  32.51178
   Y371      31.57732   0.00181   0.00000  -0.00028  -0.00133  31.57599
   Z371      22.52554  -0.00194   0.00000  -0.00622  -0.00601  22.51952
   X372      33.39146   0.00056   0.00000   0.00104   0.00085  33.39231
   Y372      30.06554  -0.00292   0.00000  -0.00352  -0.00457  30.06097
   Z372      22.97907   0.00076   0.00000   0.00096   0.00127  22.98034
   X373      30.82143  -0.01216   0.00000  -0.00845  -0.00861  30.81283
   Y373      31.02930  -0.00310   0.00000  -0.00024  -0.00127  31.02803
   Z373      22.16649   0.00126   0.00000   0.00457   0.00480  22.17129
   X374      28.64825  -0.01066   0.00000  -0.01311  -0.01273  28.63552
   Y374      52.17534   0.00184   0.00000   0.00526   0.00496  52.18030
   Z374      32.48439  -0.00924   0.00000  -0.00052  -0.00165  32.48274
   X375      27.41993  -0.00199   0.00000  -0.00135  -0.00101  27.41892
   Y375      51.13599  -0.00566   0.00000  -0.00745  -0.00766  51.12833
   Z375      33.33477   0.00693   0.00000   0.00996   0.00889  33.34366
   X376      29.76319   0.01015   0.00000   0.00899   0.00938  29.77257
   Y376      52.70446  -0.00137   0.00000  -0.00586  -0.00611  52.69835
   Z376      33.80720   0.00897   0.00000   0.00527   0.00411  33.81131
   X377      23.01686  -0.00495   0.00000  -0.00682  -0.00692  23.00995
   Y377      39.66535   0.00548   0.00000   0.00315   0.00411  39.66946
   Z377      49.77539   0.00995   0.00000   0.00816   0.00779  49.78317
   X378      24.26408   0.00381   0.00000   0.00228   0.00219  24.26628
   Y378      40.00550  -0.00124   0.00000  -0.00292  -0.00207  40.00343
   Z378      48.50927  -0.00065   0.00000   0.00494   0.00455  48.51382
   X379      22.01531  -0.00083   0.00000   0.00142   0.00128  22.01659
   Y379      38.32365  -0.00580   0.00000  -0.00569  -0.00474  38.31891
   Z379      49.09508  -0.00486   0.00000  -0.00450  -0.00480  49.09029
   X380      38.70159  -0.00406   0.00000  -0.00180  -0.00183  38.69976
   Y380      34.71427  -0.00296   0.00000   0.00216   0.00074  34.71501
   Z380      19.61536  -0.01651   0.00000  -0.01584  -0.01579  19.59957
   X381      39.32520   0.00059   0.00000  -0.00212  -0.00220  39.32300
   Y381      33.56154   0.00389   0.00000   0.01093   0.00957  33.57111
   Z381      20.86258   0.00655   0.00000   0.00437   0.00450  20.86707
   X382      38.90946  -0.00073   0.00000  -0.00325  -0.00323  38.90623
   Y382      36.35833   0.00911   0.00000   0.00843   0.00705  36.36538
   Z382      20.37125   0.00142   0.00000  -0.00347  -0.00352  20.36773
   X383      54.63198   0.01419   0.00000   0.01251   0.01244  54.64443
   Y383      40.15668  -0.00512   0.00000  -0.00505  -0.00521  40.15147
   Z383      46.52506   0.01004   0.00000   0.00494   0.00476  46.52982
   X384      53.53594  -0.01194   0.00000  -0.00977  -0.00981  53.52613
   Y384      40.66691   0.00498   0.00000   0.00537   0.00516  40.67207
   Z384      45.18335  -0.00397   0.00000   0.00483   0.00461  45.18796
   X385      53.80050  -0.00120   0.00000  -0.00079  -0.00090  53.79960
   Y385      38.72049   0.00037   0.00000   0.00062   0.00053  38.72102
   Z385      47.26205   0.00006   0.00000   0.00117   0.00107  47.26312
         Item               Value     Threshold  Converged?
 Maximum Force            0.034985     0.000450     NO 
 RMS     Force            0.010181     0.000300     NO 
 Maximum Displacement     0.031743     0.001800     NO 
 RMS     Displacement     0.008814     0.001200     NO 
 Predicted change in Energy=-7.247568D-02
 GradGradGradGradGradGradGradGradGradGradGradGradGradGradGradGradGradGrad

 Leave Link  103 at Mon May  7 01:34:17 2018, MaxMem= 14763950080 cpu:      2909.6
 (Enter /cm/shared/gaussian/g09.e01/intel64-sandybridge/g09/l9999.exe)
 1\1\GINC-POPLE04\Force\RPBE1PBE\CC-pVDZ\Br1H256O128(1-)\M.PELUSO\07-Ma
 y-2018\0\\#p PBE1PBE/cc-pvDZ force Counterpoise=2 noSymm\\forces on ch
 loride comput - NWATER: 128\\-1,1\Br,20.,20.,20.\O,22.32,18.47,21.33\H
 ,21.53,18.86,20.94\H,22.88,19.21,21.55\O,20.88,16.96,19.09\H,20.99,17.
 91,19.02\H,20.5,16.82,19.96\O,16.98,21.98,20.65\H,17.77,21.47,20.45\H,
 16.28,21.54,20.17\O,16.81,18.04,18.98\H,17.52,18.59,19.32\H,17.04,17.1
 5,19.25\O,21.76,19.66,16.55\H,22.43,18.99,16.44\H,21.51,19.61,17.47\O,
 20.71,21.91,23.08\H,19.81,21.61,23.14\H,21.13,21.29,22.48\O,23.24,22.0
 2,19.1\H,22.85,21.19,19.39\H,23.51,21.86,18.2\O,19.61,23.93,18.92\H,19
 .9,24.82,18.7\H,20.42,23.41,18.94\O,21.84,23.68,21.07\H,22.29,23.08,20
 .47\H,21.78,23.2,21.89\O,18.38,20.89,23.57\H,17.74,20.33,23.13\H,18.98
 ,20.28,23.99\O,19.12,18.19,15.88\H,19.42,17.43,15.38\H,19.92,18.58,16.
 23\O,20.4,16.26,22.11\H,19.72,16.58,22.71\H,21.14,16.84,22.27\O,19.61,
 21.79,15.41\H,18.91,21.31,14.98\H,20.17,21.11,15.79\O,15.42,20.32,22.4
 1\H,14.63,20.79,22.66\H,15.99,20.99,22.03\O,23.74,18.26,17.8\H,24.16,1
 8.62,18.58\H,24.42,17.71,17.4\O,23.26,15.65,20.14\H,22.73,14.9,19.86\H
 ,22.89,16.4,19.67\O,23.63,20.49,22.85\H,24.49,20.13,22.6\H,23.68,20.59
 ,23.8\O,17.76,23.85,16.58\H,18.28,23.46,15.87\H,18.26,23.65,17.37\O,17
 .27,24.95,20.46\H,17.23,24.45,21.28\H,17.94,24.5,19.94\O,16.6,18.31,23
 .6\H,15.9,17.73,23.88\H,16.19,18.9,22.97\O,18.98,17.7,24.61\H,18.13,17
 .87,24.2\H,18.78,17.2,25.4\O,16.34,23.67,23.05\H,16.88,23.,22.64\H,16.
 97,24.27,23.47\O,19.19,14.37,20.6\H,19.5,15.07,21.17\H,19.65,13.59,20.
 89\O,17.2,19.87,15.07\H,17.92,19.29,15.32\H,16.95,20.31,15.89\O,21.34,
 14.83,17.11\H,20.74,14.88,16.37\H,21.52,15.75,17.33\O,21.72,17.49,24.7
 8\H,21.56,16.55,24.76\H,20.85,17.88,24.79\O,20.4,25.99,20.63\H,21.18,2
 6.46,20.33\H,20.74,25.18,21.01\O,16.83,16.29,16.31\H,16.22,16.61,16.97
 \H,17.58,16.89,16.37\O,14.32,17.92,18.25\H,13.75,18.24,18.95\H,15.2,17
 .94,18.62\O,14.73,21.22,19.5\H,13.86,21.62,19.53\H,14.81,20.88,18.61\O
 ,23.7,16.47,23.31\H,23.18,17.08,23.83\H,23.69,16.83,22.42\O,15.01,20.3
 5,16.81\H,14.41,19.94,16.18\H,15.22,19.64,17.42\O,21.71,19.35,13.83\H,
 21.52,19.51,14.76\H,22.66,19.3,13.79\O,25.54,19.73,19.59\H,25.93,20.47
 ,19.13\H,25.88,19.79,20.48\O,23.87,21.55,16.25\H,23.38,22.24,15.8\H,23
 .8,20.79,15.68\O,25.2,22.89,21.29\H,25.13,23.63,20.69\H,25.16,22.12,20
 .72\O,21.83,23.41,25.32\H,22.71,23.37,24.95\H,21.26,23.03,24.65\O,17.3
 5,15.38,23.16\H,17.35,14.43,23.07\H,17.01,15.7,22.32\O,18.35,22.13,26.
 07\H,19.27,22.08,26.32\H,18.35,21.95,25.13\O,23.51,19.78,25.46\H,24.15
 ,19.11,25.71\H,22.82,19.3,25.01\O,15.96,15.8,20.7\H,16.47,15.07,20.36\
 H,15.22,15.38,21.15\O,24.18,23.45,24.\H,24.27,23.15,23.09\H,24.91,24.0
 6,24.12\O,22.2,23.09,14.61\H,22.12,23.92,15.09\H,21.31,22.73,14.61\O,2
 5.2,24.47,19.1\H,26.05,24.42,18.66\H,24.62,23.91,18.58\O,26.31,17.05,1
 9.98\H,25.87,17.87,19.74\H,25.64,16.54,20.43\O,15.23,23.05,15.86\H,15.
 08,22.11,15.91\H,15.84,23.24,16.57\O,13.1,18.95,20.56\H,12.5,18.83,21.
 29\H,13.74,19.59,20.88\O,16.49,19.77,26.2\H,16.64,19.25,25.41\H,16.91,
 19.26,26.9\O,26.29,19.62,22.15\H,26.52,20.33,22.75\H,27.01,18.99,22.24
 \O,22.22,13.26,19.08\H,21.59,13.57,18.42\H,22.94,12.9,18.56\O,18.11,24
 .94,24.34\H,18.81,25.59,24.24\H,18.23,24.59,25.22\O,23.98,13.86,22.75\
 H,23.6,14.73,22.67\H,24.16,13.75,23.68\O,14.69,25.53,19.45\H,15.62,25.
 35,19.59\H,14.26,24.7,19.66\O,13.75,24.02,21.67\H,14.61,23.88,22.07\H,
 13.47,24.87,22.\O,14.84,21.92,25.17\H,15.32,22.46,24.54\H,15.44,21.22,
 25.4\O,18.96,12.54,17.75\H,19.07,11.74,18.26\H,19.07,13.24,18.39\O,26.
 73,21.99,18.98\H,27.2,22.38,19.72\H,27.05,22.48,18.22\O,27.14,19.94,16
 .85\H,27.87,20.44,17.19\H,26.39,20.53,16.91\O,20.41,26.77,17.73\H,19.4
 9,27.04,17.81\H,20.83,27.11,18.52\O,25.98,15.9,17.33\H,25.87,16.06,18.
 27\H,26.91,15.99,17.17\O,17.44,27.83,19.09\H,18.17,28.37,19.37\H,17.69
 ,26.94,19.35\O,19.68,15.04,14.53\H,20.24,15.31,13.81\H,18.89,14.71,14.
 12\O,16.45,25.93,15.43\H,15.85,25.99,16.18\H,17.09,25.27,15.69\O,16.12
 ,19.07,12.71\H,16.63,18.26,12.61\H,16.41,19.43,13.54\O,19.4,27.34,23.2
 4\H,18.89,28.15,23.23\H,19.32,27.,22.35\O,21.61,12.5,21.61\H,21.95,12.
 75,20.75\H,21.96,13.16,22.21\O,16.47,13.37,19.45\H,17.29,13.02,19.8\H,
 16.53,13.25,18.5\O,13.94,16.56,23.36\H,13.32,16.05,22.84\H,13.7,17.47,
 23.19\O,20.41,17.67,27.54\H,20.58,17.02,26.86\H,21.28,17.92,27.85\O,22
 .53,21.06,27.56\H,22.98,20.57,26.88\H,23.18,21.69,27.88\O,24.26,19.82,
 13.78\H,24.61,20.41,13.11\H,24.91,19.12,13.84\O,18.58,21.56,12.68\H,17
 .89,21.93,12.13\H,18.45,20.61,12.62\O,14.86,16.83,14.3\H,15.5,16.58,14
 .97\H,14.26,17.42,14.75\O,22.15,25.64,15.25\H,23.08,25.77,15.46\H,21.6
 8,26.18,15.89\O,24.52,26.82,20.23\H,24.72,25.97,19.83\H,24.97,26.79,21
 .08\O,27.52,22.12,22.44\H,28.33,22.51,22.11\H,26.83,22.69,22.1\O,21.36
 ,16.91,12.46\H,21.92,17.03,13.22\H,21.48,15.99,12.21\O,12.77,23.1,19.3
 6\H,13.07,23.35,20.23\H,11.9,22.71,19.5\O,25.84,21.49,25.66\H,25.83,20
 .55,25.46\H,24.91,21.73,25.7\O,26.07,18.16,14.85\H,26.18,18.87,15.48\H
 ,26.81,17.57,15.02\O,13.,21.37,23.42\H,12.39,22.11,23.36\H,13.63,21.62
 ,24.1\O,18.31,15.78,26.31\H,17.45,15.36,26.33\H,18.92,15.06,26.17\O,13
 .95,14.89,17.63\H,13.88,15.83,17.5\H,13.99,14.53,16.74\O,24.02,15.95,1
 3.9\H,24.57,16.52,14.44\H,24.48,15.89,13.06\O,20.96,21.1,11.44\H,20.22
 ,21.53,11.87\H,21.39,20.6,12.13\O,21.09,24.94,27.4\H,21.15,24.46,26.57
 \H,20.45,24.44,27.91\O,13.12,24.27,17.03\H,13.87,23.9,16.56\H,12.97,23
 .67,17.76\O,22.1,27.87,19.57\H,22.98,27.48,19.59\H,22.26,28.81,19.64\O
 ,25.66,15.48,25.15\H,25.31,16.19,25.68\H,25.18,15.54,24.32\O,21.55,15.
 15,26.29\H,22.24,14.96,26.92\H,21.22,14.29,26.03\O,17.87,18.21,28.01\H
 ,18.77,17.95,27.81\H,17.4,17.38,28.11\O,17.52,12.77,23.12\H,17.75,12.4
 6,22.24\H,16.66,12.37,23.29\O,19.54,28.97,20.19\H,20.15,29.68,20.37\H,
 20.1,28.19,20.13\O,17.73,20.81,28.67\H,17.71,21.17,27.78\H,17.5,19.89,
 28.56\O,24.75,13.22,17.3\H,24.55,12.88,16.42\H,24.97,14.14,17.15\O,16.
 52,12.93,16.12\H,17.12,12.2,16.2\H,17.05,13.64,15.75\O,26.51,14.07,21.
 74\H,25.58,14.22,21.88\H,26.54,13.43,21.02\O,28.57,17.85,21.58\H,27.82
 ,17.57,21.05\H,28.69,17.15,22.22\O,15.53,23.74,12.98\H,15.85,24.62,13.
 19\H,15.57,23.27,13.82\O,18.79,26.03,13.1\H,19.02,25.79,13.99\H,19.62,
 26.25,12.68\O,11.97,18.73,23.06\H,11.17,18.61,23.57\H,12.15,19.67,23.1
 3\O,10.8,18.26,19.23\H,11.66,18.55,19.53\H,10.98,17.47,18.71\O,20.78,1
 2.18,14.98\H,21.5,12.73,14.67\H,20.24,12.78,15.51\O,20.4,21.04,29.3\H,
 20.86,21.04,28.46\H,19.51,20.76,29.09\O,19.28,13.35,25.39\H,18.45,13.0
 3,25.02\H,19.96,12.88,24.91\O,25.15,26.31,16.13\H,25.75,27.03,15.94\H,
 24.95,26.4,17.06\O,29.26,18.02,18.57\H,28.3,18.06,18.58\H,29.52,18.79,
 18.08\O,25.82,25.5,23.27\H,26.16,26.01,24.\H,26.47,25.59,22.58\O,27.19
 ,23.74,16.72\H,27.48,23.68,15.8\H,27.05,24.68,16.85\O,16.97,24.51,27.3
 \H,16.96,25.12,28.03\H,17.7,23.93,27.48\O,24.08,27.6,23.\H,24.55,26.78
 ,23.18\H,23.34,27.58,23.61\O,13.65,12.88,19.98\H,12.99,12.97,19.28\H,1
 4.46,13.21,19.59\O,23.18,24.27,11.82\H,22.89,23.8,12.6\H,24.12,24.11,1
 1.78\O,25.38,18.36,26.83\H,26.23,18.71,26.56\H,25.33,18.55,27.76\O,23.
 63,12.97,14.73\H,23.9,13.89,14.78\H,23.57,12.79,13.79\O,13.69,15.19,25
 .71\H,13.99,15.44,24.83\H,14.08,14.33,25.86\O,24.07,11.27,21.82\H,23.6
 7,12.1,22.11\H,24.01,10.7,22.59\O,12.43,19.71,15.2\H,11.72,19.61,15.84
 \H,12.07,19.36,14.39\O,20.58,10.21,21.18\H,20.75,11.13,21.38\H,21.29,9
 .73,21.61\O,18.11,11.15,20.82\H,18.07,10.59,20.05\H,18.76,10.73,21.38\
 O,14.42,24.04,27.\H,15.33,24.34,27.09\H,14.49,23.23,26.51\O,26.55,12.8
 2,19.34\H,25.7,12.95,18.92\H,27.12,12.51,18.63\O,21.86,28.38,24.57\H,2
 1.69,28.39,25.51\H,21.05,28.05,24.18\O,17.2,16.71,11.92\H,17.67,15.91,
 12.16\H,16.31,16.42,11.73\O,15.16,27.61,17.19\H,14.51,27.06,17.64\H,15
 .75,27.89,17.89\O,12.18,20.99,26.34\H,12.84,21.17,25.67\H,11.65,20.28,
 25.98\O,20.48,18.37,10.38\H,20.81,17.76,11.04\H,20.59,19.24,10.78\O,28
 .91,21.25,24.62\H,28.33,21.52,23.91\H,28.47,20.49,25.01\\Version=ES64L
 -G09RevE.01\HF=-9773.3636533\RMSD=2.678e-09\RMSF=1.018e-02\Dipole=17.4
 821206,-6.7006965,3.4422308\Quadrupole=1052.5036102,-774.7068468,-277.
 7967635,-839.5095368,-765.7595251,-1515.5614358\PG=C01 [X(Br1H256O128)
 ]\\@


 A SOLDIER'S LIFE IS A LIFE OF HONOR, BUT A DOG WOULD NOT LEAD IT.
 -- PRINCE RUPERT, FOUNDER OF THE HUDSON'S BAY COMPANY
 Job cpu time:       6 days 17 hours 50 minutes 43.4 seconds.
 File lengths (MBytes):  RWF=   7285 Int=      0 D2E=      0 Chk=   2411 Scr=      1
 Normal termination of Gaussian 09 at Mon May  7 01:34:43 2018.
