 Entering Gaussian System, Link 0=/cm/shared/gaussian/g09.e01/intel64-sandybridge/g09/g09
 Initial command:
 /cm/shared/gaussian/g09.e01/intel64-sandybridge/g09/l1.exe "/local/scratch/m.peluso/128_wat/Gau-19527.inp" -scrdir="/local/scratch/m.peluso/128_wat/"
 Entering Link 1 = /cm/shared/gaussian/g09.e01/intel64-sandybridge/g09/l1.exe PID=     19528.
  
 Copyright (c) 1988,1990,1992,1993,1995,1998,2003,2009,2015,
            Gaussian, Inc.  All Rights Reserved.
  
 This is part of the Gaussian(R) 09 program.  It is based on
 the Gaussian(R) 03 system (copyright 2003, Gaussian, Inc.),
 the Gaussian(R) 98 system (copyright 1998, Gaussian, Inc.),
 the Gaussian(R) 94 system (copyright 1995, Gaussian, Inc.),
 the Gaussian 92(TM) system (copyright 1992, Gaussian, Inc.),
 the Gaussian 90(TM) system (copyright 1990, Gaussian, Inc.),
 the Gaussian 88(TM) system (copyright 1988, Gaussian, Inc.),
 the Gaussian 86(TM) system (copyright 1986, Carnegie Mellon
 University), and the Gaussian 82(TM) system (copyright 1983,
 Carnegie Mellon University). Gaussian is a federally registered
 trademark of Gaussian, Inc.
  
 This software contains proprietary and confidential information,
 including trade secrets, belonging to Gaussian, Inc.
  
 This software is provided under written license and may be
 used, copied, transmitted, or stored only in accord with that
 written license.
  
 The following legend is applicable only to US Government
 contracts under FAR:
  
                    RESTRICTED RIGHTS LEGEND
  
 Use, reproduction and disclosure by the US Government is
 subject to restrictions as set forth in subparagraphs (a)
 and (c) of the Commercial Computer Software - Restricted
 Rights clause in FAR 52.227-19.
  
 Gaussian, Inc.
 340 Quinnipiac St., Bldg. 40, Wallingford CT 06492
  
  
 ---------------------------------------------------------------
 Warning -- This program may not be used in any manner that
 competes with the business of Gaussian, Inc. or will provide
 assistance to any competitor of Gaussian, Inc.  The licensee
 of this program is prohibited from giving any competitor of
 Gaussian, Inc. access to this program.  By using this program,
 the user acknowledges that Gaussian, Inc. is engaged in the
 business of creating and licensing software in the field of
 computational chemistry and represents and warrants to the
 licensee that it is not a competitor of Gaussian, Inc. and that
 it will not use this program in any manner prohibited above.
 ---------------------------------------------------------------
  

 Cite this work as:
 Gaussian 09, Revision E.01,
 M. J. Frisch, G. W. Trucks, H. B. Schlegel, G. E. Scuseria, 
 M. A. Robb, J. R. Cheeseman, G. Scalmani, V. Barone, B. Mennucci, 
 G. A. Petersson, H. Nakatsuji, M. Caricato, X. Li, H. P. Hratchian, 
 A. F. Izmaylov, J. Bloino, G. Zheng, J. L. Sonnenberg, M. Hada, 
 M. Ehara, K. Toyota, R. Fukuda, J. Hasegawa, M. Ishida, T. Nakajima, 
 Y. Honda, O. Kitao, H. Nakai, T. Vreven, J. A. Montgomery, Jr., 
 J. E. Peralta, F. Ogliaro, M. Bearpark, J. J. Heyd, E. Brothers, 
 K. N. Kudin, V. N. Staroverov, T. Keith, R. Kobayashi, J. Normand, 
 K. Raghavachari, A. Rendell, J. C. Burant, S. S. Iyengar, J. Tomasi, 
 M. Cossi, N. Rega, J. M. Millam, M. Klene, J. E. Knox, J. B. Cross, 
 V. Bakken, C. Adamo, J. Jaramillo, R. Gomperts, R. E. Stratmann, 
 O. Yazyev, A. J. Austin, R. Cammi, C. Pomelli, J. W. Ochterski, 
 R. L. Martin, K. Morokuma, V. G. Zakrzewski, G. A. Voth, 
 P. Salvador, J. J. Dannenberg, S. Dapprich, A. D. Daniels, 
 O. Farkas, J. B. Foresman, J. V. Ortiz, J. Cioslowski, 
 and D. J. Fox, Gaussian, Inc., Wallingford CT, 2013.
 
 ******************************************
 Gaussian 09:  ES64L-G09RevE.01 30-Nov-2015
                14-May-2018 
 ******************************************
 %Mem=110GB
 %NProcShared=64
 Will use up to   64 processors via shared memory.
 %chk=snap5.chk
 ----------------------------------------------
 #p PBE1PBE/cc-pvDZ force Counterpoise=2 noSymm
 ----------------------------------------------
 1/10=7,30=1,38=1,62=2/1,3;
 2/12=2,15=1,17=6,18=5,40=1/2;
 1/10=7,30=1,38=1,53=2,62=2,63=101/22;
 3/5=16,11=2,16=1,25=1,30=1,71=1,74=-13/1,2,3;
 4//1;
 5/5=2,38=5/2;
 6/7=2,8=2,9=2,10=2,28=1/1;
 7/7=1,29=1,30=1,33=-1/1,2,3,16;
 1/10=7,30=1,53=2,62=2,63=101/22;
 3/5=7,6=11,11=2,16=1,25=1,30=1,71=1,74=-13,82=7/1,2,3;
 4//1;
 5/5=2,38=5/2;
 6/7=2,8=2,9=2,10=2,28=1/1;
 7/7=1,29=1,30=1,33=-1/1,2,3,16;
 1/10=7,30=1,53=2,62=2,63=101/22(-5);
 7/9=1,29=1,44=-1/16;
 1/10=7,30=1,62=2/3;
 99//99;
 Leave Link    1 at Mon May 14 14:49:56 2018, MaxMem= 14763950080 cpu:         7.8
 (Enter /cm/shared/gaussian/g09.e01/intel64-sandybridge/g09/l101.exe)
 ---------------------------------------
 forces on chloride comput - NWATER: 128
 ---------------------------------------
 Symbolic Z-matrix:
 Charge = -1 Multiplicity = 1 in supermolecule
 Charge = -1 Multiplicity = 1 in fragment      1.
 Charge =  0 Multiplicity = 1 in fragment      2.
 Br(Fragment=1)        20.       20.       20. 
 O(Fragment=2)         21.14     20.06     22.9 
 H(Fragment=2)         21.37     20.99     22.84 
 H(Fragment=2)         20.77     19.85     22.04 
 O(Fragment=2)         17.58     22.19     20.19 
 H(Fragment=2)         17.27     22.12     21.1 
 H(Fragment=2)         18.38     21.67     20.17 
 O(Fragment=2)         23.16     20.79     19.89 
 H(Fragment=2)         23.09     21.17     20.77 
 H(Fragment=2)         22.29     20.42     19.72 
 O(Fragment=2)         19.91     16.66     20.32 
 H(Fragment=2)         20.46     16.41     21.06 
 H(Fragment=2)         20.01     17.61     20.25 
 O(Fragment=2)         18.26     21.1      16.96 
 H(Fragment=2)         18.73     20.48     17.52 
 H(Fragment=2)         17.37     21.11     17.31 
 O(Fragment=2)         20.86     17.49     17.19 
 H(Fragment=2)         20.41     17.93     17.91 
 H(Fragment=2)         21.63     18.04     17.02 
 O(Fragment=2)         18.54     21.47     23.16 
 H(Fragment=2)         19.03     20.78     22.71 
 H(Fragment=2)         19.2      21.96     23.66 
 O(Fragment=2)         18.27     17.15     18.05 
 H(Fragment=2)         18.7      17.1      18.9 
 H(Fragment=2)         18.93     16.83     17.42 
 O(Fragment=2)         21.09     23.       18.24 
 H(Fragment=2)         20.14     22.92     18.22 
 H(Fragment=2)         21.31     23.01     19.17 
 O(Fragment=2)         20.08     17.64     23.48 
 H(Fragment=2)         20.73     16.94     23.4 
 H(Fragment=2)         20.56     18.44     23.28 
 O(Fragment=2)         23.28     18.03     21.47 
 H(Fragment=2)         23.59     18.87     21.14 
 H(Fragment=2)         23.5      17.41     20.77 
 O(Fragment=2)         16.51     19.63     22.41 
 H(Fragment=2)         16.61     18.84     22.93 
 H(Fragment=2)         17.17     20.23     22.75 
 O(Fragment=2)         17.31     16.27     21. 
 H(Fragment=2)         16.83     16.55     20.22 
 H(Fragment=2)         18.22     16.52     20.83 
 O(Fragment=2)         18.46     24.68     19.22 
 H(Fragment=2)         18.88     25.15     19.95 
 H(Fragment=2)         18.25     23.82     19.59 
 O(Fragment=2)         21.39     22.69     22.98 
 H(Fragment=2)         21.62     23.42     22.4 
 H(Fragment=2)         22.2      22.48     23.43 
 O(Fragment=2)         22.       21.66     15.63 
 H(Fragment=2)         22.69     22.3      15.43 
 H(Fragment=2)         21.78     21.83     16.55 
 O(Fragment=2)         21.81     15.95     22.45 
 H(Fragment=2)         22.46     15.26     22.59 
 H(Fragment=2)         22.32     16.7      22.16 
 O(Fragment=2)         23.57     18.15     17.69 
 H(Fragment=2)         23.63     17.32     18.16 
 H(Fragment=2)         24.42     18.57     17.84 
 O(Fragment=2)         14.96     19.34     19.98 
 H(Fragment=2)         15.34     20.21     19.85 
 H(Fragment=2)         15.36     19.02     20.79 
 O(Fragment=2)         15.67     18.07     17.21 
 H(Fragment=2)         15.36     18.88     17.61 
 H(Fragment=2)         16.61     18.04     17.42 
 O(Fragment=2)         21.17     14.62     18.63 
 H(Fragment=2)         20.61     14.43     17.88 
 H(Fragment=2)         20.73     15.33     19.09 
 O(Fragment=2)         23.31     18.07     24.35 
 H(Fragment=2)         22.65     18.69     24.01 
 H(Fragment=2)         23.78     17.77     23.57 
 O(Fragment=2)         17.23     17.52     23.8 
 H(Fragment=2)         16.87     17.22     24.63 
 H(Fragment=2)         18.18     17.46     23.92 
 O(Fragment=2)         25.6      19.73     18.68 
 H(Fragment=2)         26.15     19.13     19.19 
 H(Fragment=2)         25.03     20.14     19.32 
 O(Fragment=2)         18.57     22.49     14.66 
 H(Fragment=2)         17.68     22.82     14.79 
 H(Fragment=2)         18.77     22.01     15.46 
 O(Fragment=2)         15.27     23.8      19.79 
 H(Fragment=2)         14.46     23.29     19.8 
 H(Fragment=2)         15.95     23.16     19.57 
 O(Fragment=2)         16.41     23.18     23.45 
 H(Fragment=2)         15.7      22.54     23.5 
 H(Fragment=2)         17.21     22.65     23.47 
 O(Fragment=2)         23.76     23.51     16.96 
 H(Fragment=2)         24.54     23.91     17.35 
 H(Fragment=2)         23.12     23.5      17.68 
 O(Fragment=2)         20.43     19.72     13.88 
 H(Fragment=2)         20.17     20.63     13.7 
 H(Fragment=2)         20.72     19.73     14.8 
 O(Fragment=2)         22.03     24.84     21.18 
 H(Fragment=2)         21.25     25.38     21.37 
 H(Fragment=2)         22.56     25.38     20.61 
 O(Fragment=2)         24.14     22.17     22.7 
 H(Fragment=2)         24.42     22.98     23.13 
 H(Fragment=2)         24.76     22.05     21.99 
 O(Fragment=2)         18.06     24.8      16.54 
 H(Fragment=2)         18.44     25.68     16.58 
 H(Fragment=2)         18.27     24.41     17.39 
 O(Fragment=2)         23.41     15.87     19.21 
 H(Fragment=2)         23.04     15.       19.07 
 H(Fragment=2)         24.35     15.75     19.1 
 O(Fragment=2)         15.33     20.79     17.12 
 H(Fragment=2)         14.39     20.96     17.14 
 H(Fragment=2)         15.69     21.5      16.58 
 O(Fragment=2)         14.44     21.04     22.86 
 H(Fragment=2)         13.62     20.77     22.44 
 H(Fragment=2)         15.09     20.4      22.55 
 O(Fragment=2)         22.14     15.45     15.88 
 H(Fragment=2)         22.09     14.55     16.22 
 H(Fragment=2)         21.99     16.       16.65 
 O(Fragment=2)         25.05     21.27     16.34 
 H(Fragment=2)         24.72     22.15     16.52 
 H(Fragment=2)         24.9      20.79     17.15 
 O(Fragment=2)         23.63     20.62     25.18 
 H(Fragment=2)         23.84     19.69     25.14 
 H(Fragment=2)         23.95     20.98     24.36 
 O(Fragment=2)         14.58     16.61     22.39 
 H(Fragment=2)         14.59     15.74     21.98 
 H(Fragment=2)         15.5      16.87     22.42 
 O(Fragment=2)         14.83     16.26     19.33 
 H(Fragment=2)         14.77     16.41     18.39 
 H(Fragment=2)         14.68     17.13     19.72 
 O(Fragment=2)         25.85     19.21     21.59 
 H(Fragment=2)         26.03     18.28     21.46 
 H(Fragment=2)         26.65     19.65     21.32 
 O(Fragment=2)         19.13     13.19     20.71 
 H(Fragment=2)         18.79     13.63     19.93 
 H(Fragment=2)         19.56     13.89     21.21 
 O(Fragment=2)         18.03     16.16     14.94 
 H(Fragment=2)         17.36     16.52     15.52 
 H(Fragment=2)         18.03     16.73     14.17 
 O(Fragment=2)         17.2      14.07     22.6 
 H(Fragment=2)         17.05     14.92     22.19 
 H(Fragment=2)         17.89     13.67     22.07 
 O(Fragment=2)         16.05     25.68     21.55 
 H(Fragment=2)         16.21     24.96     20.94 
 H(Fragment=2)         16.38     25.37     22.39 
 O(Fragment=2)         18.72     14.14     17.43 
 H(Fragment=2)         18.23     14.76     16.9 
 H(Fragment=2)         18.13     13.39     17.52 
 O(Fragment=2)         18.02     18.34     13.23 
 H(Fragment=2)         18.67     18.58     13.89 
 H(Fragment=2)         18.46     18.5      12.39 
 O(Fragment=2)         15.75     23.14     15.96 
 H(Fragment=2)         16.12     23.81     16.53 
 H(Fragment=2)         15.61     23.58     15.13 
 O(Fragment=2)         23.15     26.06     18.97 
 H(Fragment=2)         22.4      25.9      18.4 
 H(Fragment=2)         23.57     26.84     18.6 
 O(Fragment=2)         20.68     24.54     14.43 
 H(Fragment=2)         21.03     23.99     13.72 
 H(Fragment=2)         19.87     24.1      14.69 
 O(Fragment=2)         12.47     19.11     19.25 
 H(Fragment=2)         12.61     19.18     18.3 
 H(Fragment=2)         13.31     19.31     19.64 
 O(Fragment=2)         19.34     16.99     27.01 
 H(Fragment=2)         19.25     17.6      26.28 
 H(Fragment=2)         20.2      16.6      26.89 
 O(Fragment=2)         24.52     17.53     14.76 
 H(Fragment=2)         23.85     17.07     15.27 
 H(Fragment=2)         24.2      17.5      13.86 
 O(Fragment=2)         21.76     21.09     27.15 
 H(Fragment=2)         22.18     21.25     26.31 
 H(Fragment=2)         21.95     20.17     27.34 
 O(Fragment=2)         26.25     22.73     20.89 
 H(Fragment=2)         26.6      21.84     21.01 
 H(Fragment=2)         26.83     23.28     21.42 
 O(Fragment=2)         21.63     26.1      16.39 
 H(Fragment=2)         21.51     25.33     15.84 
 H(Fragment=2)         20.77     26.51     16.42 
 O(Fragment=2)         26.19     23.88     18.04 
 H(Fragment=2)         26.       23.25     18.73 
 H(Fragment=2)         26.76     24.52     18.44 
 O(Fragment=2)         19.79     26.89     21.05 
 H(Fragment=2)         19.07     27.46     20.78 
 H(Fragment=2)         20.55     27.47     21.12 
 O(Fragment=2)         19.55     26.09     23.78 
 H(Fragment=2)         19.54     26.41     22.88 
 H(Fragment=2)         18.63     26.1      24.05 
 O(Fragment=2)         21.88     25.31     25.21 
 H(Fragment=2)         22.12     24.38     25.22 
 H(Fragment=2)         21.05     25.33     24.74 
 O(Fragment=2)         25.63     16.01     21.88 
 H(Fragment=2)         25.45     15.07     21.82 
 H(Fragment=2)         26.25     16.09     22.6 
 O(Fragment=2)         13.06     18.37     16.56 
 H(Fragment=2)         12.67     18.22     15.7 
 H(Fragment=2)         13.96     18.63     16.37 
 O(Fragment=2)         16.92     25.41     24.9 
 H(Fragment=2)         16.93     25.26     25.84 
 H(Fragment=2)         16.71     24.56     24.52 
 O(Fragment=2)         13.42     23.61     23.18 
 H(Fragment=2)         14.04     22.93     22.92 
 H(Fragment=2)         12.63     23.13     23.44 
 O(Fragment=2)         15.2      15.86     15.62 
 H(Fragment=2)         15.2      16.17     14.71 
 H(Fragment=2)         14.87     16.6      16.12 
 O(Fragment=2)         23.57     23.15     26.14 
 H(Fragment=2)         24.11     23.23     26.92 
 H(Fragment=2)         23.53     22.21     25.97 
 O(Fragment=2)         23.95     24.23     14.2 
 H(Fragment=2)         23.49     24.06     15.03 
 H(Fragment=2)         24.87     24.22     14.44 
 O(Fragment=2)         26.8      17.17     19.88 
 H(Fragment=2)         26.55     16.6      19.15 
 H(Fragment=2)         26.52     16.71     20.66 
 O(Fragment=2)         16.01     21.12     26.95 
 H(Fragment=2)         15.49     20.5      27.46 
 H(Fragment=2)         15.91     20.83     26.04 
 O(Fragment=2)         27.98     20.7      17.82 
 H(Fragment=2)         27.99     21.07     16.93 
 H(Fragment=2)         27.06     20.55     18.01 
 O(Fragment=2)         19.98     14.5      13.91 
 H(Fragment=2)         20.2      13.95     14.66 
 H(Fragment=2)         19.72     15.34     14.29 
 O(Fragment=2)         19.01     21.18     12.06 
 H(Fragment=2)         18.92     21.69     12.86 
 H(Fragment=2)         19.89     21.36     11.75 
 O(Fragment=2)         20.68     17.99     11.96 
 H(Fragment=2)         20.59     18.57     12.72 
 H(Fragment=2)         21.36     18.4      11.43 
 O(Fragment=2)         18.6      14.33     25.29 
 H(Fragment=2)         18.48     14.12     24.36 
 H(Fragment=2)         17.7      14.42     25.62 
 O(Fragment=2)         27.44     19.45     24.17 
 H(Fragment=2)         28.05     19.11     23.52 
 H(Fragment=2)         26.59     19.46     23.72 
 O(Fragment=2)         15.32     18.43     13.75 
 H(Fragment=2)         16.26     18.34     13.6 
 H(Fragment=2)         15.15     19.37     13.67 
 O(Fragment=2)         12.82     22.61     19.58 
 H(Fragment=2)         11.95     22.26     19.77 
 H(Fragment=2)         12.66     23.46     19.17 
 O(Fragment=2)         14.73     26.3      18.52 
 H(Fragment=2)         14.73     26.02     19.43 
 H(Fragment=2)         15.56     25.98     18.17 
 O(Fragment=2)         25.14     26.41     21.8 
 H(Fragment=2)         26.01     26.61     21.45 
 H(Fragment=2)         24.66     26.04     21.05 
 O(Fragment=2)         25.12     16.54     26.03 
 H(Fragment=2)         24.41     16.06     26.46 
 H(Fragment=2)         24.68     17.1      25.4 
 O(Fragment=2)         21.17     13.94     26.14 
 H(Fragment=2)         20.67     13.14     25.94 
 H(Fragment=2)         21.08     14.48     25.35 
 O(Fragment=2)         12.59     18.05     23.66 
 H(Fragment=2)         13.21     17.59     23.08 
 H(Fragment=2)         12.36     18.84     23.18 
 O(Fragment=2)         22.09     18.15     27.67 
 H(Fragment=2)         22.82     17.85     27.12 
 H(Fragment=2)         22.46     18.21     28.55 
 O(Fragment=2)         24.24     14.1      23.25 
 H(Fragment=2)         23.63     13.36     23.25 
 H(Fragment=2)         24.57     14.14     24.15 
 O(Fragment=2)         12.86     21.91     16.71 
 H(Fragment=2)         12.78     22.18     15.8 
 H(Fragment=2)         13.05     22.71     17.19 
 O(Fragment=2)         19.14     27.34     16.82 
 H(Fragment=2)         19.3      28.04     16.2 
 H(Fragment=2)         18.55     27.71     17.47 
 O(Fragment=2)         26.16     15.25     17.75 
 H(Fragment=2)         26.71     14.6      18.18 
 H(Fragment=2)         26.19     15.       16.82 
 O(Fragment=2)         23.53     21.46     11.98 
 H(Fragment=2)         23.52     20.9      12.76 
 H(Fragment=2)         24.17     22.15     12.19 
 O(Fragment=2)         26.23     19.82     13.79 
 H(Fragment=2)         25.87     18.99     14.11 
 H(Fragment=2)         25.75     20.49     14.28 
 O(Fragment=2)         14.34     13.45     19.35 
 H(Fragment=2)         14.4      13.51     20.3 
 H(Fragment=2)         14.23     14.35     19.06 
 O(Fragment=2)         22.19     12.52     22.34 
 H(Fragment=2)         21.92     11.75     22.83 
 H(Fragment=2)         22.27     12.21     21.43 
 O(Fragment=2)         24.93     25.47     24.3 
 H(Fragment=2)         23.99     25.54     24.45 
 H(Fragment=2)         25.03     25.55     23.35 
 O(Fragment=2)         19.72     19.43     28.95 
 H(Fragment=2)         19.8      19.02     28.09 
 H(Fragment=2)         20.5      19.97     29.03 
 O(Fragment=2)         16.96     12.44     18.63 
 H(Fragment=2)         16.76     11.53     18.83 
 H(Fragment=2)         16.14     12.91     18.8 
 O(Fragment=2)         28.18     20.45     20.44 
 H(Fragment=2)         28.31     20.6      19.51 
 H(Fragment=2)         29.03     20.64     20.84 
 O(Fragment=2)         21.45     22.85     12.41 
 H(Fragment=2)         21.16     23.19     11.56 
 H(Fragment=2)         22.15     22.23     12.2 
 O(Fragment=2)         26.68     24.19     15.46 
 H(Fragment=2)         26.32     23.84     16.28 
 H(Fragment=2)         27.26     24.9      15.74 
 O(Fragment=2)         19.09     11.18     22.45 
 H(Fragment=2)         19.1      11.87     21.78 
 H(Fragment=2)         18.16     11.       22.59 
 O(Fragment=2)         21.59     11.22     19.95 
 H(Fragment=2)         20.75     11.65     20.12 
 H(Fragment=2)         21.67     11.22     19. 
 O(Fragment=2)         14.82     21.15     13.24 
 H(Fragment=2)         14.07     21.41     12.7 
 H(Fragment=2)         15.41     21.91     13.21 
 O(Fragment=2)         24.       12.71     17.48 
 H(Fragment=2)         23.38     12.79     16.75 
 H(Fragment=2)         24.62     13.43     17.34 
 O(Fragment=2)         14.39     13.37     22.01 
 H(Fragment=2)         13.95     13.84     22.71 
 H(Fragment=2)         15.3      13.3      22.29 
 O(Fragment=2)         22.35     15.25     12.74 
 H(Fragment=2)         21.77     14.89     13.41 
 H(Fragment=2)         22.01     16.13     12.58 
 O(Fragment=2)         21.15     12.59     15.9 
 H(Fragment=2)         20.55     12.19     16.53 
 H(Fragment=2)         21.23     11.93     15.21 
 O(Fragment=2)         15.19     23.65     27.07 
 H(Fragment=2)         15.67     24.05     27.8 
 H(Fragment=2)         15.72     22.9      26.82 
 O(Fragment=2)         15.89     15.6      26.11 
 H(Fragment=2)         16.49     15.59     26.86 
 H(Fragment=2)         15.04     15.81     26.5 
 O(Fragment=2)         17.56     25.48     12.77 
 H(Fragment=2)         18.23     25.24     13.41 
 H(Fragment=2)         17.69     26.42     12.64 
 O(Fragment=2)         19.41     11.12     18.04 
 H(Fragment=2)         19.11     10.23     18.25 
 H(Fragment=2)         18.63     11.66     18.16 
 O(Fragment=2)         21.41     23.02     29.02 
 H(Fragment=2)         21.52     23.9      28.68 
 H(Fragment=2)         21.51     22.45     28.26 
 O(Fragment=2)         28.99     17.67     17.96 
 H(Fragment=2)         28.79     18.36     17.33 
 H(Fragment=2)         28.37     17.81     18.67 
 O(Fragment=2)         14.13     27.56     21.61 
 H(Fragment=2)         13.28     27.12     21.7 
 H(Fragment=2)         14.77     26.85     21.56 
 O(Fragment=2)         13.59     14.51     24.61 
 H(Fragment=2)         13.46     14.76     25.53 
 H(Fragment=2)         13.88     15.32     24.18 
 O(Fragment=2)         11.55     20.84     22.37 
 H(Fragment=2)         10.95     21.22     23.01 
 H(Fragment=2)         11.       20.68     21.6 
 O(Fragment=2)         21.89     28.49     21.56 
 H(Fragment=2)         22.41     29.22     21.24 
 H(Fragment=2)         21.64     28.74     22.45 
 O(Fragment=2)         12.49     20.22     25.73 
 H(Fragment=2)         11.56     20.08     25.91 
 H(Fragment=2)         12.66     19.69     24.95 
 O(Fragment=2)         21.56     27.05     13.38 
 H(Fragment=2)         21.48     26.19     13.81 
 H(Fragment=2)         21.43     26.87     12.45 
 O(Fragment=2)         21.52     25.44     27.89 
 H(Fragment=2)         21.79     25.31     26.98 
 H(Fragment=2)         20.77     26.03     27.84 
 O(Fragment=2)         12.18     25.25     18.92 
 H(Fragment=2)         11.55     25.85     18.51 
 H(Fragment=2)         13.01     25.43     18.47 
 O(Fragment=2)         23.82     17.94     12.12 
 H(Fragment=2)         23.55     18.47     11.37 
 H(Fragment=2)         23.87     17.05     11.77 
 O(Fragment=2)         17.63     28.76     20.64 
 H(Fragment=2)         17.08     28.53     19.89 
 H(Fragment=2)         17.05     28.73     21.39 
 O(Fragment=2)         23.33     15.07     27.28 
 H(Fragment=2)         22.55     14.71     26.87 
 H(Fragment=2)         23.44     14.55     28.08 
 O(Fragment=2)         24.36     13.71     14.76 
 H(Fragment=2)         25.31     13.79     14.82 
 H(Fragment=2)         24.1      14.42     14.18 
 O(Fragment=2)         14.74     13.28     15.02 
 H(Fragment=2)         14.9      14.22     15.15 
 H(Fragment=2)         13.8      13.21     14.91 
 O(Fragment=2)         12.65     17.58     14.09 
 H(Fragment=2)         13.56     17.85     13.93 
 H(Fragment=2)         12.19     17.81     13.29 
 O(Fragment=2)         16.82     14.02     12.82 
 H(Fragment=2)         17.6      14.33     13.28 
 H(Fragment=2)         16.35     14.82     12.59 
 O(Fragment=2)         10.32     17.56     19.87 
 H(Fragment=2)         11.05     18.13     19.61 
 H(Fragment=2)         10.51     16.72     19.45 
 O(Fragment=2)         26.18     24.27     26.58 
 H(Fragment=2)         25.71     24.28     25.75 
 H(Fragment=2)         26.69     23.47     26.57 
 O(Fragment=2)         19.65     15.43     11.3 
 H(Fragment=2)         19.65     14.91     12.1 
 H(Fragment=2)         19.93     16.3      11.57 
 
 NAtoms=    385 NQM=      385 NQMF=       0 NMMI=      0 NMMIF=      0
                NMic=       0 NMicF=      0.
                    Isotopes and Nuclear Properties:
 (Nuclear quadrupole moments (NQMom) in fm**2, nuclear magnetic moments (NMagM)
  in nuclear magnetons)

  Atom         1           2           3           4           5           6           7           8           9          10
 IAtWgt=          79          16           1           1          16           1           1          16           1           1
 AtmWgt=  78.9183361  15.9949146   1.0078250   1.0078250  15.9949146   1.0078250   1.0078250  15.9949146   1.0078250   1.0078250
 NucSpn=           3           0           1           1           0           1           1           0           1           1
 AtZEff=   0.0000000   0.0000000   0.0000000   0.0000000   0.0000000   0.0000000   0.0000000   0.0000000   0.0000000   0.0000000
 NQMom=   31.3000000   0.0000000   0.0000000   0.0000000   0.0000000   0.0000000   0.0000000   0.0000000   0.0000000   0.0000000
 NMagM=    2.1063990   0.0000000   2.7928460   2.7928460   0.0000000   2.7928460   2.7928460   0.0000000   2.7928460   2.7928460
 AtZNuc=  35.0000000   8.0000000   1.0000000   1.0000000   8.0000000   1.0000000   1.0000000   8.0000000   1.0000000   1.0000000

  Atom        11          12          13          14          15          16          17          18          19          20
 IAtWgt=          16           1           1          16           1           1          16           1           1          16
 AtmWgt=  15.9949146   1.0078250   1.0078250  15.9949146   1.0078250   1.0078250  15.9949146   1.0078250   1.0078250  15.9949146
 NucSpn=           0           1           1           0           1           1           0           1           1           0
 AtZEff=   0.0000000   0.0000000   0.0000000   0.0000000   0.0000000   0.0000000   0.0000000   0.0000000   0.0000000   0.0000000
 NQMom=    0.0000000   0.0000000   0.0000000   0.0000000   0.0000000   0.0000000   0.0000000   0.0000000   0.0000000   0.0000000
 NMagM=    0.0000000   2.7928460   2.7928460   0.0000000   2.7928460   2.7928460   0.0000000   2.7928460   2.7928460   0.0000000
 AtZNuc=   8.0000000   1.0000000   1.0000000   8.0000000   1.0000000   1.0000000   8.0000000   1.0000000   1.0000000   8.0000000

  Atom        21          22          23          24          25          26          27          28          29          30
 IAtWgt=           1           1          16           1           1          16           1           1          16           1
 AtmWgt=   1.0078250   1.0078250  15.9949146   1.0078250   1.0078250  15.9949146   1.0078250   1.0078250  15.9949146   1.0078250
 NucSpn=           1           1           0           1           1           0           1           1           0           1
 AtZEff=   0.0000000   0.0000000   0.0000000   0.0000000   0.0000000   0.0000000   0.0000000   0.0000000   0.0000000   0.0000000
 NQMom=    0.0000000   0.0000000   0.0000000   0.0000000   0.0000000   0.0000000   0.0000000   0.0000000   0.0000000   0.0000000
 NMagM=    2.7928460   2.7928460   0.0000000   2.7928460   2.7928460   0.0000000   2.7928460   2.7928460   0.0000000   2.7928460
 AtZNuc=   1.0000000   1.0000000   8.0000000   1.0000000   1.0000000   8.0000000   1.0000000   1.0000000   8.0000000   1.0000000

  Atom        31          32          33          34          35          36          37          38          39          40
 IAtWgt=           1          16           1           1          16           1           1          16           1           1
 AtmWgt=   1.0078250  15.9949146   1.0078250   1.0078250  15.9949146   1.0078250   1.0078250  15.9949146   1.0078250   1.0078250
 NucSpn=           1           0           1           1           0           1           1           0           1           1
 AtZEff=   0.0000000   0.0000000   0.0000000   0.0000000   0.0000000   0.0000000   0.0000000   0.0000000   0.0000000   0.0000000
 NQMom=    0.0000000   0.0000000   0.0000000   0.0000000   0.0000000   0.0000000   0.0000000   0.0000000   0.0000000   0.0000000
 NMagM=    2.7928460   0.0000000   2.7928460   2.7928460   0.0000000   2.7928460   2.7928460   0.0000000   2.7928460   2.7928460
 AtZNuc=   1.0000000   8.0000000   1.0000000   1.0000000   8.0000000   1.0000000   1.0000000   8.0000000   1.0000000   1.0000000

  Atom        41          42          43          44          45          46          47          48          49          50
 IAtWgt=          16           1           1          16           1           1          16           1           1          16
 AtmWgt=  15.9949146   1.0078250   1.0078250  15.9949146   1.0078250   1.0078250  15.9949146   1.0078250   1.0078250  15.9949146
 NucSpn=           0           1           1           0           1           1           0           1           1           0
 AtZEff=   0.0000000   0.0000000   0.0000000   0.0000000   0.0000000   0.0000000   0.0000000   0.0000000   0.0000000   0.0000000
 NQMom=    0.0000000   0.0000000   0.0000000   0.0000000   0.0000000   0.0000000   0.0000000   0.0000000   0.0000000   0.0000000
 NMagM=    0.0000000   2.7928460   2.7928460   0.0000000   2.7928460   2.7928460   0.0000000   2.7928460   2.7928460   0.0000000
 AtZNuc=   8.0000000   1.0000000   1.0000000   8.0000000   1.0000000   1.0000000   8.0000000   1.0000000   1.0000000   8.0000000

  Atom        51          52          53          54          55          56          57          58          59          60
 IAtWgt=           1           1          16           1           1          16           1           1          16           1
 AtmWgt=   1.0078250   1.0078250  15.9949146   1.0078250   1.0078250  15.9949146   1.0078250   1.0078250  15.9949146   1.0078250
 NucSpn=           1           1           0           1           1           0           1           1           0           1
 AtZEff=   0.0000000   0.0000000   0.0000000   0.0000000   0.0000000   0.0000000   0.0000000   0.0000000   0.0000000   0.0000000
 NQMom=    0.0000000   0.0000000   0.0000000   0.0000000   0.0000000   0.0000000   0.0000000   0.0000000   0.0000000   0.0000000
 NMagM=    2.7928460   2.7928460   0.0000000   2.7928460   2.7928460   0.0000000   2.7928460   2.7928460   0.0000000   2.7928460
 AtZNuc=   1.0000000   1.0000000   8.0000000   1.0000000   1.0000000   8.0000000   1.0000000   1.0000000   8.0000000   1.0000000

  Atom        61          62          63          64          65          66          67          68          69          70
 IAtWgt=           1          16           1           1          16           1           1          16           1           1
 AtmWgt=   1.0078250  15.9949146   1.0078250   1.0078250  15.9949146   1.0078250   1.0078250  15.9949146   1.0078250   1.0078250
 NucSpn=           1           0           1           1           0           1           1           0           1           1
 AtZEff=   0.0000000   0.0000000   0.0000000   0.0000000   0.0000000   0.0000000   0.0000000   0.0000000   0.0000000   0.0000000
 NQMom=    0.0000000   0.0000000   0.0000000   0.0000000   0.0000000   0.0000000   0.0000000   0.0000000   0.0000000   0.0000000
 NMagM=    2.7928460   0.0000000   2.7928460   2.7928460   0.0000000   2.7928460   2.7928460   0.0000000   2.7928460   2.7928460
 AtZNuc=   1.0000000   8.0000000   1.0000000   1.0000000   8.0000000   1.0000000   1.0000000   8.0000000   1.0000000   1.0000000

  Atom        71          72          73          74          75          76          77          78          79          80
 IAtWgt=          16           1           1          16           1           1          16           1           1          16
 AtmWgt=  15.9949146   1.0078250   1.0078250  15.9949146   1.0078250   1.0078250  15.9949146   1.0078250   1.0078250  15.9949146
 NucSpn=           0           1           1           0           1           1           0           1           1           0
 AtZEff=   0.0000000   0.0000000   0.0000000   0.0000000   0.0000000   0.0000000   0.0000000   0.0000000   0.0000000   0.0000000
 NQMom=    0.0000000   0.0000000   0.0000000   0.0000000   0.0000000   0.0000000   0.0000000   0.0000000   0.0000000   0.0000000
 NMagM=    0.0000000   2.7928460   2.7928460   0.0000000   2.7928460   2.7928460   0.0000000   2.7928460   2.7928460   0.0000000
 AtZNuc=   8.0000000   1.0000000   1.0000000   8.0000000   1.0000000   1.0000000   8.0000000   1.0000000   1.0000000   8.0000000

  Atom        81          82          83          84          85          86          87          88          89          90
 IAtWgt=           1           1          16           1           1          16           1           1          16           1
 AtmWgt=   1.0078250   1.0078250  15.9949146   1.0078250   1.0078250  15.9949146   1.0078250   1.0078250  15.9949146   1.0078250
 NucSpn=           1           1           0           1           1           0           1           1           0           1
 AtZEff=   0.0000000   0.0000000   0.0000000   0.0000000   0.0000000   0.0000000   0.0000000   0.0000000   0.0000000   0.0000000
 NQMom=    0.0000000   0.0000000   0.0000000   0.0000000   0.0000000   0.0000000   0.0000000   0.0000000   0.0000000   0.0000000
 NMagM=    2.7928460   2.7928460   0.0000000   2.7928460   2.7928460   0.0000000   2.7928460   2.7928460   0.0000000   2.7928460
 AtZNuc=   1.0000000   1.0000000   8.0000000   1.0000000   1.0000000   8.0000000   1.0000000   1.0000000   8.0000000   1.0000000

  Atom        91          92          93          94          95          96          97          98          99         100
 IAtWgt=           1          16           1           1          16           1           1          16           1           1
 AtmWgt=   1.0078250  15.9949146   1.0078250   1.0078250  15.9949146   1.0078250   1.0078250  15.9949146   1.0078250   1.0078250
 NucSpn=           1           0           1           1           0           1           1           0           1           1
 AtZEff=   0.0000000   0.0000000   0.0000000   0.0000000   0.0000000   0.0000000   0.0000000   0.0000000   0.0000000   0.0000000
 NQMom=    0.0000000   0.0000000   0.0000000   0.0000000   0.0000000   0.0000000   0.0000000   0.0000000   0.0000000   0.0000000
 NMagM=    2.7928460   0.0000000   2.7928460   2.7928460   0.0000000   2.7928460   2.7928460   0.0000000   2.7928460   2.7928460
 AtZNuc=   1.0000000   8.0000000   1.0000000   1.0000000   8.0000000   1.0000000   1.0000000   8.0000000   1.0000000   1.0000000

  Atom       101         102         103         104         105         106         107         108         109         110
 IAtWgt=          16           1           1          16           1           1          16           1           1          16
 AtmWgt=  15.9949146   1.0078250   1.0078250  15.9949146   1.0078250   1.0078250  15.9949146   1.0078250   1.0078250  15.9949146
 NucSpn=           0           1           1           0           1           1           0           1           1           0
 AtZEff=   0.0000000   0.0000000   0.0000000   0.0000000   0.0000000   0.0000000   0.0000000   0.0000000   0.0000000   0.0000000
 NQMom=    0.0000000   0.0000000   0.0000000   0.0000000   0.0000000   0.0000000   0.0000000   0.0000000   0.0000000   0.0000000
 NMagM=    0.0000000   2.7928460   2.7928460   0.0000000   2.7928460   2.7928460   0.0000000   2.7928460   2.7928460   0.0000000
 AtZNuc=   8.0000000   1.0000000   1.0000000   8.0000000   1.0000000   1.0000000   8.0000000   1.0000000   1.0000000   8.0000000

  Atom       111         112         113         114         115         116         117         118         119         120
 IAtWgt=           1           1          16           1           1          16           1           1          16           1
 AtmWgt=   1.0078250   1.0078250  15.9949146   1.0078250   1.0078250  15.9949146   1.0078250   1.0078250  15.9949146   1.0078250
 NucSpn=           1           1           0           1           1           0           1           1           0           1
 AtZEff=   0.0000000   0.0000000   0.0000000   0.0000000   0.0000000   0.0000000   0.0000000   0.0000000   0.0000000   0.0000000
 NQMom=    0.0000000   0.0000000   0.0000000   0.0000000   0.0000000   0.0000000   0.0000000   0.0000000   0.0000000   0.0000000
 NMagM=    2.7928460   2.7928460   0.0000000   2.7928460   2.7928460   0.0000000   2.7928460   2.7928460   0.0000000   2.7928460
 AtZNuc=   1.0000000   1.0000000   8.0000000   1.0000000   1.0000000   8.0000000   1.0000000   1.0000000   8.0000000   1.0000000

  Atom       121         122         123         124         125         126         127         128         129         130
 IAtWgt=           1          16           1           1          16           1           1          16           1           1
 AtmWgt=   1.0078250  15.9949146   1.0078250   1.0078250  15.9949146   1.0078250   1.0078250  15.9949146   1.0078250   1.0078250
 NucSpn=           1           0           1           1           0           1           1           0           1           1
 AtZEff=   0.0000000   0.0000000   0.0000000   0.0000000   0.0000000   0.0000000   0.0000000   0.0000000   0.0000000   0.0000000
 NQMom=    0.0000000   0.0000000   0.0000000   0.0000000   0.0000000   0.0000000   0.0000000   0.0000000   0.0000000   0.0000000
 NMagM=    2.7928460   0.0000000   2.7928460   2.7928460   0.0000000   2.7928460   2.7928460   0.0000000   2.7928460   2.7928460
 AtZNuc=   1.0000000   8.0000000   1.0000000   1.0000000   8.0000000   1.0000000   1.0000000   8.0000000   1.0000000   1.0000000

  Atom       131         132         133         134         135         136         137         138         139         140
 IAtWgt=          16           1           1          16           1           1          16           1           1          16
 AtmWgt=  15.9949146   1.0078250   1.0078250  15.9949146   1.0078250   1.0078250  15.9949146   1.0078250   1.0078250  15.9949146
 NucSpn=           0           1           1           0           1           1           0           1           1           0
 AtZEff=   0.0000000   0.0000000   0.0000000   0.0000000   0.0000000   0.0000000   0.0000000   0.0000000   0.0000000   0.0000000
 NQMom=    0.0000000   0.0000000   0.0000000   0.0000000   0.0000000   0.0000000   0.0000000   0.0000000   0.0000000   0.0000000
 NMagM=    0.0000000   2.7928460   2.7928460   0.0000000   2.7928460   2.7928460   0.0000000   2.7928460   2.7928460   0.0000000
 AtZNuc=   8.0000000   1.0000000   1.0000000   8.0000000   1.0000000   1.0000000   8.0000000   1.0000000   1.0000000   8.0000000

  Atom       141         142         143         144         145         146         147         148         149         150
 IAtWgt=           1           1          16           1           1          16           1           1          16           1
 AtmWgt=   1.0078250   1.0078250  15.9949146   1.0078250   1.0078250  15.9949146   1.0078250   1.0078250  15.9949146   1.0078250
 NucSpn=           1           1           0           1           1           0           1           1           0           1
 AtZEff=   0.0000000   0.0000000   0.0000000   0.0000000   0.0000000   0.0000000   0.0000000   0.0000000   0.0000000   0.0000000
 NQMom=    0.0000000   0.0000000   0.0000000   0.0000000   0.0000000   0.0000000   0.0000000   0.0000000   0.0000000   0.0000000
 NMagM=    2.7928460   2.7928460   0.0000000   2.7928460   2.7928460   0.0000000   2.7928460   2.7928460   0.0000000   2.7928460
 AtZNuc=   1.0000000   1.0000000   8.0000000   1.0000000   1.0000000   8.0000000   1.0000000   1.0000000   8.0000000   1.0000000

  Atom       151         152         153         154         155         156         157         158         159         160
 IAtWgt=           1          16           1           1          16           1           1          16           1           1
 AtmWgt=   1.0078250  15.9949146   1.0078250   1.0078250  15.9949146   1.0078250   1.0078250  15.9949146   1.0078250   1.0078250
 NucSpn=           1           0           1           1           0           1           1           0           1           1
 AtZEff=   0.0000000   0.0000000   0.0000000   0.0000000   0.0000000   0.0000000   0.0000000   0.0000000   0.0000000   0.0000000
 NQMom=    0.0000000   0.0000000   0.0000000   0.0000000   0.0000000   0.0000000   0.0000000   0.0000000   0.0000000   0.0000000
 NMagM=    2.7928460   0.0000000   2.7928460   2.7928460   0.0000000   2.7928460   2.7928460   0.0000000   2.7928460   2.7928460
 AtZNuc=   1.0000000   8.0000000   1.0000000   1.0000000   8.0000000   1.0000000   1.0000000   8.0000000   1.0000000   1.0000000

  Atom       161         162         163         164         165         166         167         168         169         170
 IAtWgt=          16           1           1          16           1           1          16           1           1          16
 AtmWgt=  15.9949146   1.0078250   1.0078250  15.9949146   1.0078250   1.0078250  15.9949146   1.0078250   1.0078250  15.9949146
 NucSpn=           0           1           1           0           1           1           0           1           1           0
 AtZEff=   0.0000000   0.0000000   0.0000000   0.0000000   0.0000000   0.0000000   0.0000000   0.0000000   0.0000000   0.0000000
 NQMom=    0.0000000   0.0000000   0.0000000   0.0000000   0.0000000   0.0000000   0.0000000   0.0000000   0.0000000   0.0000000
 NMagM=    0.0000000   2.7928460   2.7928460   0.0000000   2.7928460   2.7928460   0.0000000   2.7928460   2.7928460   0.0000000
 AtZNuc=   8.0000000   1.0000000   1.0000000   8.0000000   1.0000000   1.0000000   8.0000000   1.0000000   1.0000000   8.0000000

  Atom       171         172         173         174         175         176         177         178         179         180
 IAtWgt=           1           1          16           1           1          16           1           1          16           1
 AtmWgt=   1.0078250   1.0078250  15.9949146   1.0078250   1.0078250  15.9949146   1.0078250   1.0078250  15.9949146   1.0078250
 NucSpn=           1           1           0           1           1           0           1           1           0           1
 AtZEff=   0.0000000   0.0000000   0.0000000   0.0000000   0.0000000   0.0000000   0.0000000   0.0000000   0.0000000   0.0000000
 NQMom=    0.0000000   0.0000000   0.0000000   0.0000000   0.0000000   0.0000000   0.0000000   0.0000000   0.0000000   0.0000000
 NMagM=    2.7928460   2.7928460   0.0000000   2.7928460   2.7928460   0.0000000   2.7928460   2.7928460   0.0000000   2.7928460
 AtZNuc=   1.0000000   1.0000000   8.0000000   1.0000000   1.0000000   8.0000000   1.0000000   1.0000000   8.0000000   1.0000000

  Atom       181         182         183         184         185         186         187         188         189         190
 IAtWgt=           1          16           1           1          16           1           1          16           1           1
 AtmWgt=   1.0078250  15.9949146   1.0078250   1.0078250  15.9949146   1.0078250   1.0078250  15.9949146   1.0078250   1.0078250
 NucSpn=           1           0           1           1           0           1           1           0           1           1
 AtZEff=   0.0000000   0.0000000   0.0000000   0.0000000   0.0000000   0.0000000   0.0000000   0.0000000   0.0000000   0.0000000
 NQMom=    0.0000000   0.0000000   0.0000000   0.0000000   0.0000000   0.0000000   0.0000000   0.0000000   0.0000000   0.0000000
 NMagM=    2.7928460   0.0000000   2.7928460   2.7928460   0.0000000   2.7928460   2.7928460   0.0000000   2.7928460   2.7928460
 AtZNuc=   1.0000000   8.0000000   1.0000000   1.0000000   8.0000000   1.0000000   1.0000000   8.0000000   1.0000000   1.0000000

  Atom       191         192         193         194         195         196         197         198         199         200
 IAtWgt=          16           1           1          16           1           1          16           1           1          16
 AtmWgt=  15.9949146   1.0078250   1.0078250  15.9949146   1.0078250   1.0078250  15.9949146   1.0078250   1.0078250  15.9949146
 NucSpn=           0           1           1           0           1           1           0           1           1           0
 AtZEff=   0.0000000   0.0000000   0.0000000   0.0000000   0.0000000   0.0000000   0.0000000   0.0000000   0.0000000   0.0000000
 NQMom=    0.0000000   0.0000000   0.0000000   0.0000000   0.0000000   0.0000000   0.0000000   0.0000000   0.0000000   0.0000000
 NMagM=    0.0000000   2.7928460   2.7928460   0.0000000   2.7928460   2.7928460   0.0000000   2.7928460   2.7928460   0.0000000
 AtZNuc=   8.0000000   1.0000000   1.0000000   8.0000000   1.0000000   1.0000000   8.0000000   1.0000000   1.0000000   8.0000000

  Atom       201         202         203         204         205         206         207         208         209         210
 IAtWgt=           1           1          16           1           1          16           1           1          16           1
 AtmWgt=   1.0078250   1.0078250  15.9949146   1.0078250   1.0078250  15.9949146   1.0078250   1.0078250  15.9949146   1.0078250
 NucSpn=           1           1           0           1           1           0           1           1           0           1
 AtZEff=   0.0000000   0.0000000   0.0000000   0.0000000   0.0000000   0.0000000   0.0000000   0.0000000   0.0000000   0.0000000
 NQMom=    0.0000000   0.0000000   0.0000000   0.0000000   0.0000000   0.0000000   0.0000000   0.0000000   0.0000000   0.0000000
 NMagM=    2.7928460   2.7928460   0.0000000   2.7928460   2.7928460   0.0000000   2.7928460   2.7928460   0.0000000   2.7928460
 AtZNuc=   1.0000000   1.0000000   8.0000000   1.0000000   1.0000000   8.0000000   1.0000000   1.0000000   8.0000000   1.0000000

  Atom       211         212         213         214         215         216         217         218         219         220
 IAtWgt=           1          16           1           1          16           1           1          16           1           1
 AtmWgt=   1.0078250  15.9949146   1.0078250   1.0078250  15.9949146   1.0078250   1.0078250  15.9949146   1.0078250   1.0078250
 NucSpn=           1           0           1           1           0           1           1           0           1           1
 AtZEff=   0.0000000   0.0000000   0.0000000   0.0000000   0.0000000   0.0000000   0.0000000   0.0000000   0.0000000   0.0000000
 NQMom=    0.0000000   0.0000000   0.0000000   0.0000000   0.0000000   0.0000000   0.0000000   0.0000000   0.0000000   0.0000000
 NMagM=    2.7928460   0.0000000   2.7928460   2.7928460   0.0000000   2.7928460   2.7928460   0.0000000   2.7928460   2.7928460
 AtZNuc=   1.0000000   8.0000000   1.0000000   1.0000000   8.0000000   1.0000000   1.0000000   8.0000000   1.0000000   1.0000000

  Atom       221         222         223         224         225         226         227         228         229         230
 IAtWgt=          16           1           1          16           1           1          16           1           1          16
 AtmWgt=  15.9949146   1.0078250   1.0078250  15.9949146   1.0078250   1.0078250  15.9949146   1.0078250   1.0078250  15.9949146
 NucSpn=           0           1           1           0           1           1           0           1           1           0
 AtZEff=   0.0000000   0.0000000   0.0000000   0.0000000   0.0000000   0.0000000   0.0000000   0.0000000   0.0000000   0.0000000
 NQMom=    0.0000000   0.0000000   0.0000000   0.0000000   0.0000000   0.0000000   0.0000000   0.0000000   0.0000000   0.0000000
 NMagM=    0.0000000   2.7928460   2.7928460   0.0000000   2.7928460   2.7928460   0.0000000   2.7928460   2.7928460   0.0000000
 AtZNuc=   8.0000000   1.0000000   1.0000000   8.0000000   1.0000000   1.0000000   8.0000000   1.0000000   1.0000000   8.0000000

  Atom       231         232         233         234         235         236         237         238         239         240
 IAtWgt=           1           1          16           1           1          16           1           1          16           1
 AtmWgt=   1.0078250   1.0078250  15.9949146   1.0078250   1.0078250  15.9949146   1.0078250   1.0078250  15.9949146   1.0078250
 NucSpn=           1           1           0           1           1           0           1           1           0           1
 AtZEff=   0.0000000   0.0000000   0.0000000   0.0000000   0.0000000   0.0000000   0.0000000   0.0000000   0.0000000   0.0000000
 NQMom=    0.0000000   0.0000000   0.0000000   0.0000000   0.0000000   0.0000000   0.0000000   0.0000000   0.0000000   0.0000000
 NMagM=    2.7928460   2.7928460   0.0000000   2.7928460   2.7928460   0.0000000   2.7928460   2.7928460   0.0000000   2.7928460
 AtZNuc=   1.0000000   1.0000000   8.0000000   1.0000000   1.0000000   8.0000000   1.0000000   1.0000000   8.0000000   1.0000000

  Atom       241         242         243         244         245         246         247         248         249         250
 IAtWgt=           1          16           1           1          16           1           1          16           1           1
 AtmWgt=   1.0078250  15.9949146   1.0078250   1.0078250  15.9949146   1.0078250   1.0078250  15.9949146   1.0078250   1.0078250
 NucSpn=           1           0           1           1           0           1           1           0           1           1
 AtZEff=   0.0000000   0.0000000   0.0000000   0.0000000   0.0000000   0.0000000   0.0000000   0.0000000   0.0000000   0.0000000
 NQMom=    0.0000000   0.0000000   0.0000000   0.0000000   0.0000000   0.0000000   0.0000000   0.0000000   0.0000000   0.0000000
 NMagM=    2.7928460   0.0000000   2.7928460   2.7928460   0.0000000   2.7928460   2.7928460   0.0000000   2.7928460   2.7928460
 AtZNuc=   1.0000000   8.0000000   1.0000000   1.0000000   8.0000000   1.0000000   1.0000000   8.0000000   1.0000000   1.0000000

  Atom       251         252         253         254         255         256         257         258         259         260
 IAtWgt=          16           1           1          16           1           1          16           1           1          16
 AtmWgt=  15.9949146   1.0078250   1.0078250  15.9949146   1.0078250   1.0078250  15.9949146   1.0078250   1.0078250  15.9949146
 NucSpn=           0           1           1           0           1           1           0           1           1           0
 AtZEff=   0.0000000   0.0000000   0.0000000   0.0000000   0.0000000   0.0000000   0.0000000   0.0000000   0.0000000   0.0000000
 NQMom=    0.0000000   0.0000000   0.0000000   0.0000000   0.0000000   0.0000000   0.0000000   0.0000000   0.0000000   0.0000000
 NMagM=    0.0000000   2.7928460   2.7928460   0.0000000   2.7928460   2.7928460   0.0000000   2.7928460   2.7928460   0.0000000
 AtZNuc=   8.0000000   1.0000000   1.0000000   8.0000000   1.0000000   1.0000000   8.0000000   1.0000000   1.0000000   8.0000000

  Atom       261         262         263         264         265         266         267         268         269         270
 IAtWgt=           1           1          16           1           1          16           1           1          16           1
 AtmWgt=   1.0078250   1.0078250  15.9949146   1.0078250   1.0078250  15.9949146   1.0078250   1.0078250  15.9949146   1.0078250
 NucSpn=           1           1           0           1           1           0           1           1           0           1
 AtZEff=   0.0000000   0.0000000   0.0000000   0.0000000   0.0000000   0.0000000   0.0000000   0.0000000   0.0000000   0.0000000
 NQMom=    0.0000000   0.0000000   0.0000000   0.0000000   0.0000000   0.0000000   0.0000000   0.0000000   0.0000000   0.0000000
 NMagM=    2.7928460   2.7928460   0.0000000   2.7928460   2.7928460   0.0000000   2.7928460   2.7928460   0.0000000   2.7928460
 AtZNuc=   1.0000000   1.0000000   8.0000000   1.0000000   1.0000000   8.0000000   1.0000000   1.0000000   8.0000000   1.0000000

  Atom       271         272         273         274         275         276         277         278         279         280
 IAtWgt=           1          16           1           1          16           1           1          16           1           1
 AtmWgt=   1.0078250  15.9949146   1.0078250   1.0078250  15.9949146   1.0078250   1.0078250  15.9949146   1.0078250   1.0078250
 NucSpn=           1           0           1           1           0           1           1           0           1           1
 AtZEff=   0.0000000   0.0000000   0.0000000   0.0000000   0.0000000   0.0000000   0.0000000   0.0000000   0.0000000   0.0000000
 NQMom=    0.0000000   0.0000000   0.0000000   0.0000000   0.0000000   0.0000000   0.0000000   0.0000000   0.0000000   0.0000000
 NMagM=    2.7928460   0.0000000   2.7928460   2.7928460   0.0000000   2.7928460   2.7928460   0.0000000   2.7928460   2.7928460
 AtZNuc=   1.0000000   8.0000000   1.0000000   1.0000000   8.0000000   1.0000000   1.0000000   8.0000000   1.0000000   1.0000000

  Atom       281         282         283         284         285         286         287         288         289         290
 IAtWgt=          16           1           1          16           1           1          16           1           1          16
 AtmWgt=  15.9949146   1.0078250   1.0078250  15.9949146   1.0078250   1.0078250  15.9949146   1.0078250   1.0078250  15.9949146
 NucSpn=           0           1           1           0           1           1           0           1           1           0
 AtZEff=   0.0000000   0.0000000   0.0000000   0.0000000   0.0000000   0.0000000   0.0000000   0.0000000   0.0000000   0.0000000
 NQMom=    0.0000000   0.0000000   0.0000000   0.0000000   0.0000000   0.0000000   0.0000000   0.0000000   0.0000000   0.0000000
 NMagM=    0.0000000   2.7928460   2.7928460   0.0000000   2.7928460   2.7928460   0.0000000   2.7928460   2.7928460   0.0000000
 AtZNuc=   8.0000000   1.0000000   1.0000000   8.0000000   1.0000000   1.0000000   8.0000000   1.0000000   1.0000000   8.0000000

  Atom       291         292         293         294         295         296         297         298         299         300
 IAtWgt=           1           1          16           1           1          16           1           1          16           1
 AtmWgt=   1.0078250   1.0078250  15.9949146   1.0078250   1.0078250  15.9949146   1.0078250   1.0078250  15.9949146   1.0078250
 NucSpn=           1           1           0           1           1           0           1           1           0           1
 AtZEff=   0.0000000   0.0000000   0.0000000   0.0000000   0.0000000   0.0000000   0.0000000   0.0000000   0.0000000   0.0000000
 NQMom=    0.0000000   0.0000000   0.0000000   0.0000000   0.0000000   0.0000000   0.0000000   0.0000000   0.0000000   0.0000000
 NMagM=    2.7928460   2.7928460   0.0000000   2.7928460   2.7928460   0.0000000   2.7928460   2.7928460   0.0000000   2.7928460
 AtZNuc=   1.0000000   1.0000000   8.0000000   1.0000000   1.0000000   8.0000000   1.0000000   1.0000000   8.0000000   1.0000000

  Atom       301         302         303         304         305         306         307         308         309         310
 IAtWgt=           1          16           1           1          16           1           1          16           1           1
 AtmWgt=   1.0078250  15.9949146   1.0078250   1.0078250  15.9949146   1.0078250   1.0078250  15.9949146   1.0078250   1.0078250
 NucSpn=           1           0           1           1           0           1           1           0           1           1
 AtZEff=   0.0000000   0.0000000   0.0000000   0.0000000   0.0000000   0.0000000   0.0000000   0.0000000   0.0000000   0.0000000
 NQMom=    0.0000000   0.0000000   0.0000000   0.0000000   0.0000000   0.0000000   0.0000000   0.0000000   0.0000000   0.0000000
 NMagM=    2.7928460   0.0000000   2.7928460   2.7928460   0.0000000   2.7928460   2.7928460   0.0000000   2.7928460   2.7928460
 AtZNuc=   1.0000000   8.0000000   1.0000000   1.0000000   8.0000000   1.0000000   1.0000000   8.0000000   1.0000000   1.0000000

  Atom       311         312         313         314         315         316         317         318         319         320
 IAtWgt=          16           1           1          16           1           1          16           1           1          16
 AtmWgt=  15.9949146   1.0078250   1.0078250  15.9949146   1.0078250   1.0078250  15.9949146   1.0078250   1.0078250  15.9949146
 NucSpn=           0           1           1           0           1           1           0           1           1           0
 AtZEff=   0.0000000   0.0000000   0.0000000   0.0000000   0.0000000   0.0000000   0.0000000   0.0000000   0.0000000   0.0000000
 NQMom=    0.0000000   0.0000000   0.0000000   0.0000000   0.0000000   0.0000000   0.0000000   0.0000000   0.0000000   0.0000000
 NMagM=    0.0000000   2.7928460   2.7928460   0.0000000   2.7928460   2.7928460   0.0000000   2.7928460   2.7928460   0.0000000
 AtZNuc=   8.0000000   1.0000000   1.0000000   8.0000000   1.0000000   1.0000000   8.0000000   1.0000000   1.0000000   8.0000000

  Atom       321         322         323         324         325         326         327         328         329         330
 IAtWgt=           1           1          16           1           1          16           1           1          16           1
 AtmWgt=   1.0078250   1.0078250  15.9949146   1.0078250   1.0078250  15.9949146   1.0078250   1.0078250  15.9949146   1.0078250
 NucSpn=           1           1           0           1           1           0           1           1           0           1
 AtZEff=   0.0000000   0.0000000   0.0000000   0.0000000   0.0000000   0.0000000   0.0000000   0.0000000   0.0000000   0.0000000
 NQMom=    0.0000000   0.0000000   0.0000000   0.0000000   0.0000000   0.0000000   0.0000000   0.0000000   0.0000000   0.0000000
 NMagM=    2.7928460   2.7928460   0.0000000   2.7928460   2.7928460   0.0000000   2.7928460   2.7928460   0.0000000   2.7928460
 AtZNuc=   1.0000000   1.0000000   8.0000000   1.0000000   1.0000000   8.0000000   1.0000000   1.0000000   8.0000000   1.0000000

  Atom       331         332         333         334         335         336         337         338         339         340
 IAtWgt=           1          16           1           1          16           1           1          16           1           1
 AtmWgt=   1.0078250  15.9949146   1.0078250   1.0078250  15.9949146   1.0078250   1.0078250  15.9949146   1.0078250   1.0078250
 NucSpn=           1           0           1           1           0           1           1           0           1           1
 AtZEff=   0.0000000   0.0000000   0.0000000   0.0000000   0.0000000   0.0000000   0.0000000   0.0000000   0.0000000   0.0000000
 NQMom=    0.0000000   0.0000000   0.0000000   0.0000000   0.0000000   0.0000000   0.0000000   0.0000000   0.0000000   0.0000000
 NMagM=    2.7928460   0.0000000   2.7928460   2.7928460   0.0000000   2.7928460   2.7928460   0.0000000   2.7928460   2.7928460
 AtZNuc=   1.0000000   8.0000000   1.0000000   1.0000000   8.0000000   1.0000000   1.0000000   8.0000000   1.0000000   1.0000000

  Atom       341         342         343         344         345         346         347         348         349         350
 IAtWgt=          16           1           1          16           1           1          16           1           1          16
 AtmWgt=  15.9949146   1.0078250   1.0078250  15.9949146   1.0078250   1.0078250  15.9949146   1.0078250   1.0078250  15.9949146
 NucSpn=           0           1           1           0           1           1           0           1           1           0
 AtZEff=   0.0000000   0.0000000   0.0000000   0.0000000   0.0000000   0.0000000   0.0000000   0.0000000   0.0000000   0.0000000
 NQMom=    0.0000000   0.0000000   0.0000000   0.0000000   0.0000000   0.0000000   0.0000000   0.0000000   0.0000000   0.0000000
 NMagM=    0.0000000   2.7928460   2.7928460   0.0000000   2.7928460   2.7928460   0.0000000   2.7928460   2.7928460   0.0000000
 AtZNuc=   8.0000000   1.0000000   1.0000000   8.0000000   1.0000000   1.0000000   8.0000000   1.0000000   1.0000000   8.0000000

  Atom       351         352         353         354         355         356         357         358         359         360
 IAtWgt=           1           1          16           1           1          16           1           1          16           1
 AtmWgt=   1.0078250   1.0078250  15.9949146   1.0078250   1.0078250  15.9949146   1.0078250   1.0078250  15.9949146   1.0078250
 NucSpn=           1           1           0           1           1           0           1           1           0           1
 AtZEff=   0.0000000   0.0000000   0.0000000   0.0000000   0.0000000   0.0000000   0.0000000   0.0000000   0.0000000   0.0000000
 NQMom=    0.0000000   0.0000000   0.0000000   0.0000000   0.0000000   0.0000000   0.0000000   0.0000000   0.0000000   0.0000000
 NMagM=    2.7928460   2.7928460   0.0000000   2.7928460   2.7928460   0.0000000   2.7928460   2.7928460   0.0000000   2.7928460
 AtZNuc=   1.0000000   1.0000000   8.0000000   1.0000000   1.0000000   8.0000000   1.0000000   1.0000000   8.0000000   1.0000000

  Atom       361         362         363         364         365         366         367         368         369         370
 IAtWgt=           1          16           1           1          16           1           1          16           1           1
 AtmWgt=   1.0078250  15.9949146   1.0078250   1.0078250  15.9949146   1.0078250   1.0078250  15.9949146   1.0078250   1.0078250
 NucSpn=           1           0           1           1           0           1           1           0           1           1
 AtZEff=   0.0000000   0.0000000   0.0000000   0.0000000   0.0000000   0.0000000   0.0000000   0.0000000   0.0000000   0.0000000
 NQMom=    0.0000000   0.0000000   0.0000000   0.0000000   0.0000000   0.0000000   0.0000000   0.0000000   0.0000000   0.0000000
 NMagM=    2.7928460   0.0000000   2.7928460   2.7928460   0.0000000   2.7928460   2.7928460   0.0000000   2.7928460   2.7928460
 AtZNuc=   1.0000000   8.0000000   1.0000000   1.0000000   8.0000000   1.0000000   1.0000000   8.0000000   1.0000000   1.0000000

  Atom       371         372         373         374         375         376         377         378         379         380
 IAtWgt=          16           1           1          16           1           1          16           1           1          16
 AtmWgt=  15.9949146   1.0078250   1.0078250  15.9949146   1.0078250   1.0078250  15.9949146   1.0078250   1.0078250  15.9949146
 NucSpn=           0           1           1           0           1           1           0           1           1           0
 AtZEff=   0.0000000   0.0000000   0.0000000   0.0000000   0.0000000   0.0000000   0.0000000   0.0000000   0.0000000   0.0000000
 NQMom=    0.0000000   0.0000000   0.0000000   0.0000000   0.0000000   0.0000000   0.0000000   0.0000000   0.0000000   0.0000000
 NMagM=    0.0000000   2.7928460   2.7928460   0.0000000   2.7928460   2.7928460   0.0000000   2.7928460   2.7928460   0.0000000
 AtZNuc=   8.0000000   1.0000000   1.0000000   8.0000000   1.0000000   1.0000000   8.0000000   1.0000000   1.0000000   8.0000000

  Atom       381         382         383         384         385
 IAtWgt=           1           1          16           1           1
 AtmWgt=   1.0078250   1.0078250  15.9949146   1.0078250   1.0078250
 NucSpn=           1           1           0           1           1
 AtZEff=   0.0000000   0.0000000   0.0000000   0.0000000   0.0000000
 NQMom=    0.0000000   0.0000000   0.0000000   0.0000000   0.0000000
 NMagM=    2.7928460   2.7928460   0.0000000   2.7928460   2.7928460
 AtZNuc=   1.0000000   1.0000000   8.0000000   1.0000000   1.0000000
 Leave Link  101 at Mon May 14 14:49:56 2018, MaxMem= 14763950080 cpu:        31.4
 (Enter /cm/shared/gaussian/g09.e01/intel64-sandybridge/g09/l103.exe)

 GradGradGradGradGradGradGradGradGradGradGradGradGradGradGradGradGradGrad
 Berny optimization.
 Initialization pass.
 Trust Radius=3.00D-01 FncErr=1.00D-07 GrdErr=1.00D-07
 Number of steps in this run=      2 maximum allowed number of steps=      2.
 GradGradGradGradGradGradGradGradGradGradGradGradGradGradGradGradGradGrad

 Leave Link  103 at Mon May 14 14:49:57 2018, MaxMem= 14763950080 cpu:         3.6
 (Enter /cm/shared/gaussian/g09.e01/intel64-sandybridge/g09/l202.exe)
 Symmetry turned off by external request.
 Stoichiometry    BrH256O128(1-)
 Framework group  C1[X(BrH256O128)]
 Deg. of freedom  1149
 Full point group                 C1      NOp   1
                          Input orientation:                          
 ---------------------------------------------------------------------
 Center     Atomic      Atomic             Coordinates (Angstroms)
 Number     Number       Type             X           Y           Z
 ---------------------------------------------------------------------
      1         35           0       20.000000   20.000000   20.000000
      2          8           0       21.140000   20.060000   22.900000
      3          1           0       21.370000   20.990000   22.840000
      4          1           0       20.770000   19.850000   22.040000
      5          8           0       17.580000   22.190000   20.190000
      6          1           0       17.270000   22.120000   21.100000
      7          1           0       18.380000   21.670000   20.170000
      8          8           0       23.160000   20.790000   19.890000
      9          1           0       23.090000   21.170000   20.770000
     10          1           0       22.290000   20.420000   19.720000
     11          8           0       19.910000   16.660000   20.320000
     12          1           0       20.460000   16.410000   21.060000
     13          1           0       20.010000   17.610000   20.250000
     14          8           0       18.260000   21.100000   16.960000
     15          1           0       18.730000   20.480000   17.520000
     16          1           0       17.370000   21.110000   17.310000
     17          8           0       20.860000   17.490000   17.190000
     18          1           0       20.410000   17.930000   17.910000
     19          1           0       21.630000   18.040000   17.020000
     20          8           0       18.540000   21.470000   23.160000
     21          1           0       19.030000   20.780000   22.710000
     22          1           0       19.200000   21.960000   23.660000
     23          8           0       18.270000   17.150000   18.050000
     24          1           0       18.700000   17.100000   18.900000
     25          1           0       18.930000   16.830000   17.420000
     26          8           0       21.090000   23.000000   18.240000
     27          1           0       20.140000   22.920000   18.220000
     28          1           0       21.310000   23.010000   19.170000
     29          8           0       20.080000   17.640000   23.480000
     30          1           0       20.730000   16.940000   23.400000
     31          1           0       20.560000   18.440000   23.280000
     32          8           0       23.280000   18.030000   21.470000
     33          1           0       23.590000   18.870000   21.140000
     34          1           0       23.500000   17.410000   20.770000
     35          8           0       16.510000   19.630000   22.410000
     36          1           0       16.610000   18.840000   22.930000
     37          1           0       17.170000   20.230000   22.750000
     38          8           0       17.310000   16.270000   21.000000
     39          1           0       16.830000   16.550000   20.220000
     40          1           0       18.220000   16.520000   20.830000
     41          8           0       18.460000   24.680000   19.220000
     42          1           0       18.880000   25.150000   19.950000
     43          1           0       18.250000   23.820000   19.590000
     44          8           0       21.390000   22.690000   22.980000
     45          1           0       21.620000   23.420000   22.400000
     46          1           0       22.200000   22.480000   23.430000
     47          8           0       22.000000   21.660000   15.630000
     48          1           0       22.690000   22.300000   15.430000
     49          1           0       21.780000   21.830000   16.550000
     50          8           0       21.810000   15.950000   22.450000
     51          1           0       22.460000   15.260000   22.590000
     52          1           0       22.320000   16.700000   22.160000
     53          8           0       23.570000   18.150000   17.690000
     54          1           0       23.630000   17.320000   18.160000
     55          1           0       24.420000   18.570000   17.840000
     56          8           0       14.960000   19.340000   19.980000
     57          1           0       15.340000   20.210000   19.850000
     58          1           0       15.360000   19.020000   20.790000
     59          8           0       15.670000   18.070000   17.210000
     60          1           0       15.360000   18.880000   17.610000
     61          1           0       16.610000   18.040000   17.420000
     62          8           0       21.170000   14.620000   18.630000
     63          1           0       20.610000   14.430000   17.880000
     64          1           0       20.730000   15.330000   19.090000
     65          8           0       23.310000   18.070000   24.350000
     66          1           0       22.650000   18.690000   24.010000
     67          1           0       23.780000   17.770000   23.570000
     68          8           0       17.230000   17.520000   23.800000
     69          1           0       16.870000   17.220000   24.630000
     70          1           0       18.180000   17.460000   23.920000
     71          8           0       25.600000   19.730000   18.680000
     72          1           0       26.150000   19.130000   19.190000
     73          1           0       25.030000   20.140000   19.320000
     74          8           0       18.570000   22.490000   14.660000
     75          1           0       17.680000   22.820000   14.790000
     76          1           0       18.770000   22.010000   15.460000
     77          8           0       15.270000   23.800000   19.790000
     78          1           0       14.460000   23.290000   19.800000
     79          1           0       15.950000   23.160000   19.570000
     80          8           0       16.410000   23.180000   23.450000
     81          1           0       15.700000   22.540000   23.500000
     82          1           0       17.210000   22.650000   23.470000
     83          8           0       23.760000   23.510000   16.960000
     84          1           0       24.540000   23.910000   17.350000
     85          1           0       23.120000   23.500000   17.680000
     86          8           0       20.430000   19.720000   13.880000
     87          1           0       20.170000   20.630000   13.700000
     88          1           0       20.720000   19.730000   14.800000
     89          8           0       22.030000   24.840000   21.180000
     90          1           0       21.250000   25.380000   21.370000
     91          1           0       22.560000   25.380000   20.610000
     92          8           0       24.140000   22.170000   22.700000
     93          1           0       24.420000   22.980000   23.130000
     94          1           0       24.760000   22.050000   21.990000
     95          8           0       18.060000   24.800000   16.540000
     96          1           0       18.440000   25.680000   16.580000
     97          1           0       18.270000   24.410000   17.390000
     98          8           0       23.410000   15.870000   19.210000
     99          1           0       23.040000   15.000000   19.070000
    100          1           0       24.350000   15.750000   19.100000
    101          8           0       15.330000   20.790000   17.120000
    102          1           0       14.390000   20.960000   17.140000
    103          1           0       15.690000   21.500000   16.580000
    104          8           0       14.440000   21.040000   22.860000
    105          1           0       13.620000   20.770000   22.440000
    106          1           0       15.090000   20.400000   22.550000
    107          8           0       22.140000   15.450000   15.880000
    108          1           0       22.090000   14.550000   16.220000
    109          1           0       21.990000   16.000000   16.650000
    110          8           0       25.050000   21.270000   16.340000
    111          1           0       24.720000   22.150000   16.520000
    112          1           0       24.900000   20.790000   17.150000
    113          8           0       23.630000   20.620000   25.180000
    114          1           0       23.840000   19.690000   25.140000
    115          1           0       23.950000   20.980000   24.360000
    116          8           0       14.580000   16.610000   22.390000
    117          1           0       14.590000   15.740000   21.980000
    118          1           0       15.500000   16.870000   22.420000
    119          8           0       14.830000   16.260000   19.330000
    120          1           0       14.770000   16.410000   18.390000
    121          1           0       14.680000   17.130000   19.720000
    122          8           0       25.850000   19.210000   21.590000
    123          1           0       26.030000   18.280000   21.460000
    124          1           0       26.650000   19.650000   21.320000
    125          8           0       19.130000   13.190000   20.710000
    126          1           0       18.790000   13.630000   19.930000
    127          1           0       19.560000   13.890000   21.210000
    128          8           0       18.030000   16.160000   14.940000
    129          1           0       17.360000   16.520000   15.520000
    130          1           0       18.030000   16.730000   14.170000
    131          8           0       17.200000   14.070000   22.600000
    132          1           0       17.050000   14.920000   22.190000
    133          1           0       17.890000   13.670000   22.070000
    134          8           0       16.050000   25.680000   21.550000
    135          1           0       16.210000   24.960000   20.940000
    136          1           0       16.380000   25.370000   22.390000
    137          8           0       18.720000   14.140000   17.430000
    138          1           0       18.230000   14.760000   16.900000
    139          1           0       18.130000   13.390000   17.520000
    140          8           0       18.020000   18.340000   13.230000
    141          1           0       18.670000   18.580000   13.890000
    142          1           0       18.460000   18.500000   12.390000
    143          8           0       15.750000   23.140000   15.960000
    144          1           0       16.120000   23.810000   16.530000
    145          1           0       15.610000   23.580000   15.130000
    146          8           0       23.150000   26.060000   18.970000
    147          1           0       22.400000   25.900000   18.400000
    148          1           0       23.570000   26.840000   18.600000
    149          8           0       20.680000   24.540000   14.430000
    150          1           0       21.030000   23.990000   13.720000
    151          1           0       19.870000   24.100000   14.690000
    152          8           0       12.470000   19.110000   19.250000
    153          1           0       12.610000   19.180000   18.300000
    154          1           0       13.310000   19.310000   19.640000
    155          8           0       19.340000   16.990000   27.010000
    156          1           0       19.250000   17.600000   26.280000
    157          1           0       20.200000   16.600000   26.890000
    158          8           0       24.520000   17.530000   14.760000
    159          1           0       23.850000   17.070000   15.270000
    160          1           0       24.200000   17.500000   13.860000
    161          8           0       21.760000   21.090000   27.150000
    162          1           0       22.180000   21.250000   26.310000
    163          1           0       21.950000   20.170000   27.340000
    164          8           0       26.250000   22.730000   20.890000
    165          1           0       26.600000   21.840000   21.010000
    166          1           0       26.830000   23.280000   21.420000
    167          8           0       21.630000   26.100000   16.390000
    168          1           0       21.510000   25.330000   15.840000
    169          1           0       20.770000   26.510000   16.420000
    170          8           0       26.190000   23.880000   18.040000
    171          1           0       26.000000   23.250000   18.730000
    172          1           0       26.760000   24.520000   18.440000
    173          8           0       19.790000   26.890000   21.050000
    174          1           0       19.070000   27.460000   20.780000
    175          1           0       20.550000   27.470000   21.120000
    176          8           0       19.550000   26.090000   23.780000
    177          1           0       19.540000   26.410000   22.880000
    178          1           0       18.630000   26.100000   24.050000
    179          8           0       21.880000   25.310000   25.210000
    180          1           0       22.120000   24.380000   25.220000
    181          1           0       21.050000   25.330000   24.740000
    182          8           0       25.630000   16.010000   21.880000
    183          1           0       25.450000   15.070000   21.820000
    184          1           0       26.250000   16.090000   22.600000
    185          8           0       13.060000   18.370000   16.560000
    186          1           0       12.670000   18.220000   15.700000
    187          1           0       13.960000   18.630000   16.370000
    188          8           0       16.920000   25.410000   24.900000
    189          1           0       16.930000   25.260000   25.840000
    190          1           0       16.710000   24.560000   24.520000
    191          8           0       13.420000   23.610000   23.180000
    192          1           0       14.040000   22.930000   22.920000
    193          1           0       12.630000   23.130000   23.440000
    194          8           0       15.200000   15.860000   15.620000
    195          1           0       15.200000   16.170000   14.710000
    196          1           0       14.870000   16.600000   16.120000
    197          8           0       23.570000   23.150000   26.140000
    198          1           0       24.110000   23.230000   26.920000
    199          1           0       23.530000   22.210000   25.970000
    200          8           0       23.950000   24.230000   14.200000
    201          1           0       23.490000   24.060000   15.030000
    202          1           0       24.870000   24.220000   14.440000
    203          8           0       26.800000   17.170000   19.880000
    204          1           0       26.550000   16.600000   19.150000
    205          1           0       26.520000   16.710000   20.660000
    206          8           0       16.010000   21.120000   26.950000
    207          1           0       15.490000   20.500000   27.460000
[...]
   Z335      46.50616  -0.00294   0.00000  -0.00832  -0.00774  46.49842
   X336      25.43571  -0.00144   0.00000  -0.00319  -0.00268  25.43304
   Y336      27.89236  -0.00111   0.00000  -0.00378  -0.00349  27.88887
   Z336      48.24471  -0.00282   0.00000  -0.00658  -0.00603  48.23868
   X337      26.22940   0.00303   0.00000   0.00284   0.00333  26.23273
   Y337      28.95060   0.01086   0.00000   0.01235   0.01251  28.96311
   Z337      45.69358   0.00041   0.00000   0.00318   0.00367  45.69725
   X338      21.82634   0.01049   0.00000   0.00672   0.00696  21.83330
   Y338      39.38189  -0.00355   0.00000  -0.00283  -0.00297  39.37892
   Z338      42.27317  -0.00208   0.00000  -0.00193  -0.00204  42.27113
   X339      20.69250  -0.00423   0.00000  -0.00028  -0.00005  20.69245
   Y339      40.09999   0.00266   0.00000   0.00013   0.00003  40.10002
   Z339      43.48260   0.00823   0.00000   0.00725   0.00709  43.48969
   X340      20.78699  -0.00261   0.00000  -0.00039  -0.00014  20.78685
   Y340      39.07954  -0.00569   0.00000  -0.00916  -0.00942  39.07012
   Z340      40.81808  -0.00623   0.00000  -0.00518  -0.00528  40.81281
   X341      41.36611  -0.00430   0.00000  -0.00169  -0.00178  41.36433
   Y341      53.83830  -0.01165   0.00000  -0.00725  -0.00702  53.83128
   Z341      40.74250  -0.00170   0.00000   0.00224   0.00129  40.74379
   X342      42.34876   0.00621   0.00000   0.00343   0.00330  42.35206
   Y342      55.21780   0.00924   0.00000   0.00511   0.00533  55.22313
   Z342      40.13778  -0.00472   0.00000  -0.00364  -0.00466  40.13312
   X343      40.89367  -0.00037   0.00000   0.00140   0.00130  40.89497
   Y343      54.31073   0.00175   0.00000   0.00013   0.00045  54.31117
   Z343      42.42435   0.00971   0.00000   0.01036   0.00939  42.43374
   X344      23.60268   0.00500   0.00000   0.00253   0.00280  23.60548
   Y344      38.21026   0.01184   0.00000   0.01119   0.01146  38.22172
   Z344      48.62265   0.00636   0.00000   0.00039   0.00034  48.62300
   X345      21.84523  -0.00538   0.00000  -0.00269  -0.00241  21.84283
   Y345      37.94570  -0.00377   0.00000  -0.00523  -0.00499  37.94071
   Z345      48.96280   0.00004   0.00000  -0.00025  -0.00028  48.96252
   X346      23.92393   0.00351   0.00000   0.00513   0.00542  23.92936
   Y346      37.20871  -0.01155   0.00000  -0.01325  -0.01306  37.19565
   Z346      47.14867  -0.00611   0.00000   0.00043   0.00044  47.14910
   X347      40.74250  -0.00050   0.00000  -0.00346  -0.00347  40.73902
   Y347      51.11709   0.01254   0.00000   0.01256   0.01188  51.12897
   Z347      25.28454   0.00510   0.00000   0.00412   0.00334  25.28787
   X348      40.59132  -0.00175   0.00000  -0.00228  -0.00226  40.58906
   Y348      49.49193  -0.00357   0.00000   0.00202   0.00137  49.49330
   Z348      26.09712   0.00170   0.00000   0.00165   0.00096  26.09808
   X349      40.49683  -0.00057   0.00000   0.00044   0.00043  40.49726
   Y349      50.77694  -0.00517   0.00000  -0.00544  -0.00624  50.77070
   Z349      23.52709  -0.00598   0.00000  -0.00206  -0.00282  23.52427
   X350      40.66691   0.00505   0.00000   0.00826   0.00829  40.67520
   Y350      48.07463   0.00335   0.00000   0.00785   0.00876  48.08339
   Z350      52.70446   0.02154   0.00000   0.01496   0.01435  52.71881
   X351      41.17713   0.00140   0.00000  -0.00201  -0.00196  41.17517
   Y351      47.82897   0.00358   0.00000   0.00770   0.00852  47.83749
   Z351      50.98481  -0.01889   0.00000  -0.01177  -0.01236  50.97245
   X352      39.24961  -0.00615   0.00000  -0.00581  -0.00580  39.24381
   Y352      49.18957   0.00294   0.00000   0.00022   0.00109  49.19066
   Z352      52.60998  -0.00243   0.00000  -0.00099  -0.00166  52.60831
   X353      23.01686  -0.00896   0.00000  -0.00289  -0.00283  23.01403
   Y353      47.71558  -0.01065   0.00000  -0.01276  -0.01326  47.70233
   Z353      35.75362   0.00244   0.00000  -0.00533  -0.00593  35.74769
   X354      21.82634  -0.00041   0.00000   0.00015   0.00018  21.82651
   Y354      48.84942   0.00043   0.00000  -0.00098  -0.00155  48.84787
   Z354      34.97883  -0.00067   0.00000   0.00101   0.00034  34.97917
   X355      24.58534   0.01546   0.00000   0.01395   0.01400  24.59933
   Y355      48.05574   0.01212   0.00000   0.01878   0.01828  48.07401
   Z355      34.90324  -0.00432   0.00000   0.00133   0.00071  34.90395
   X356      45.01328  -0.00093   0.00000  -0.00310  -0.00271  45.01057
   Y356      33.90169   0.00286   0.00000  -0.00039  -0.00111  33.90057
   Z356      22.90348   0.00314   0.00000  -0.00149  -0.00127  22.90221
   X357      44.50305   0.00260   0.00000   0.00602   0.00639  44.50944
   Y357      34.90324   0.00600   0.00000   0.00841   0.00759  34.91084
   Z357      21.48619  -0.00433   0.00000  -0.00466  -0.00450  21.48169
   X358      45.10776  -0.00134   0.00000  -0.00353  -0.00309  45.10467
   Y358      32.21983  -0.01147   0.00000  -0.01070  -0.01146  32.20837
   Z358      22.24208  -0.00365   0.00000  -0.00365  -0.00333  22.23874
   X359      33.31587   0.02472   0.00000   0.01749   0.01738  33.33325
   Y359      54.34852   0.00208   0.00000  -0.00050  -0.00056  54.34796
   Z359      39.00395  -0.01329   0.00000  -0.00745  -0.00843  38.99552
   X360      32.27652  -0.01063   0.00000  -0.01155  -0.01164  32.26489
   Y360      53.91389  -0.00318   0.00000  -0.00331  -0.00348  53.91041
   Z360      37.58665  -0.00068   0.00000   0.00383   0.00287  37.58953
   X361      32.21983  -0.01572   0.00000  -0.00872  -0.00882  32.21101
   Y361      54.29183  -0.00454   0.00000  -0.00654  -0.00655  54.28528
   Z361      40.42124   0.01346   0.00000   0.00549   0.00452  40.42576
   X362      44.08731   0.01645   0.00000   0.00400   0.00450  44.09181
   Y362      28.47817   0.01077   0.00000   0.00545   0.00638  28.48455
   Z362      51.55173   0.01062   0.00000   0.00673   0.00726  51.55899
   X363      42.61332  -0.02130   0.00000  -0.01530  -0.01478  42.59854
   Y363      27.79787  -0.01467   0.00000  -0.01569  -0.01485  27.78302
   Z363      50.77694  -0.00810   0.00000  -0.00347  -0.00290  50.77404
   X364      44.29518   0.00047   0.00000   0.00155   0.00207  44.29725
   Y364      27.49552  -0.00029   0.00000  -0.00039   0.00063  27.49614
   Z364      53.06351   0.00206   0.00000   0.00355   0.00414  53.06765
   X365      46.03373  -0.00053   0.00000  -0.00060  -0.00003  46.03370
   Y365      25.90815  -0.01420   0.00000  -0.00573  -0.00614  25.90201
   Z365      27.89236   0.01311   0.00000   0.00796   0.00864  27.90100
   X366      47.82897   0.00823   0.00000   0.00737   0.00794  47.83691
   Y366      26.05932  -0.00027   0.00000  -0.00147  -0.00183  26.05749
   Z366      28.00574  -0.00380   0.00000  -0.00761  -0.00693  27.99881
   X367      45.54240  -0.00975   0.00000  -0.01233  -0.01179  45.53061
   Y367      27.24985   0.01603   0.00000   0.01130   0.01081  27.26067
   Z367      26.79632  -0.01056   0.00000  -0.00474  -0.00413  26.79218
   X368      27.85456   0.01280   0.00000   0.00563   0.00622  27.86079
   Y368      25.09556  -0.01488   0.00000  -0.01414  -0.01495  25.08061
   Z368      28.38369  -0.00083   0.00000  -0.00325  -0.00253  28.38116
   X369      28.15692  -0.00028   0.00000  -0.00044   0.00011  28.15703
   Y369      26.87191   0.00362   0.00000  -0.00394  -0.00472  26.86718
   Z369      28.62935   0.00621   0.00000   0.00991   0.01052  28.63987
   X370      26.07822  -0.01498   0.00000  -0.01159  -0.01099  26.06723
   Y370      24.96328   0.00188   0.00000   0.00295   0.00208  24.96537
   Z370      28.17582  -0.00092   0.00000  -0.00049   0.00024  28.17605
   X371      23.90504  -0.00698   0.00000  -0.00253  -0.00212  23.90292
   Y371      33.22139  -0.00546   0.00000   0.00011  -0.00090  33.22049
   Z371      26.62624   0.00906   0.00000   0.00192   0.00216  26.62840
   X372      25.62469   0.01797   0.00000   0.01604   0.01643  25.64112
   Y372      33.73161   0.00047   0.00000  -0.00379  -0.00477  33.72684
   Z372      26.32389  -0.00540   0.00000  -0.00685  -0.00663  26.31725
   X373      23.03576  -0.00658   0.00000  -0.00652  -0.00612  23.02964
   Y373      33.65602   0.00292   0.00000   0.00283   0.00172  33.65774
   Z373      25.11446  -0.01099   0.00000  -0.00952  -0.00931  25.10515
   X374      31.78519  -0.00403   0.00000  -0.00154  -0.00098  31.78422
   Y374      26.49396  -0.01070   0.00000  -0.00557  -0.00653  26.48743
   Z374      24.22629  -0.00464   0.00000  -0.00521  -0.00457  24.22172
   X375      33.25918   0.00746   0.00000   0.00371   0.00426  33.26344
   Y375      27.07978   0.00423   0.00000   0.00304   0.00216  27.08194
   Z375      25.09556   0.00613   0.00000   0.00517   0.00577  25.10134
   X376      30.89702  -0.00060   0.00000   0.00141   0.00194  30.89896
   Y376      28.00574   0.00686   0.00000   0.00609   0.00508  28.01082
   Z376      23.79165  -0.00145   0.00000  -0.00178  -0.00123  23.79043
   X377      19.50197  -0.01826   0.00000  -0.01550  -0.01511  19.48687
   Y377      33.18359  -0.00253   0.00000   0.00072   0.00025  33.18384
   Z377      37.54886   0.00763   0.00000   0.00317   0.00341  37.55227
   X378      20.88147   0.01373   0.00000   0.00962   0.00999  20.89147
   Y378      34.26073   0.00488   0.00000  -0.00015  -0.00062  34.26012
   Z378      37.05753  -0.00247   0.00000   0.00188   0.00206  37.05959
   X379      19.86102   0.00402   0.00000   0.00369   0.00413  19.86515
   Y379      31.59622  -0.00289   0.00000  -0.00016  -0.00067  31.59555
   Z379      36.75517  -0.00264   0.00000  -0.00115  -0.00082  36.75435
   X380      49.47303   0.00192   0.00000   0.00026   0.00035  49.47338
   Y380      45.86365   0.01022   0.00000   0.00217   0.00315  45.86680
   Z380      50.22892   0.02005   0.00000   0.01508   0.01461  50.24353
   X381      48.58486  -0.00934   0.00000  -0.00578  -0.00569  48.57917
   Y381      45.88255   0.00583   0.00000   0.01113   0.01199  45.89454
   Z381      48.66045  -0.01630   0.00000  -0.00827  -0.00875  48.65170
   X382      50.43679   0.00712   0.00000   0.00463   0.00475  50.44154
   Y382      44.35187  -0.01446   0.00000  -0.01321  -0.01222  44.33965
   Z382      50.21002  -0.00200   0.00000  -0.00224  -0.00263  50.20740
   X383      37.13312  -0.01146   0.00000  -0.01611  -0.01561  37.11751
   Y383      29.15847  -0.00487   0.00000   0.00045  -0.00055  29.15792
   Z383      21.35391  -0.02013   0.00000  -0.01485  -0.01436  21.33955
   X384      37.13312   0.00334   0.00000   0.00518   0.00571  37.13882
   Y384      28.17582  -0.00756   0.00000  -0.00565  -0.00656  28.16926
   Z384      22.86569   0.00967   0.00000   0.00142   0.00197  22.86765
   X385      37.66224   0.00582   0.00000   0.00508   0.00554  37.66778
   Y385      30.80254   0.01183   0.00000   0.00695   0.00600  30.80853
   Z385      21.86413   0.00518   0.00000   0.00208   0.00247  21.86660
         Item               Value     Threshold  Converged?
 Maximum Force            0.035675     0.000450     NO 
 RMS     Force            0.010371     0.000300     NO 
 Maximum Displacement     0.035667     0.001800     NO 
 RMS     Displacement     0.008834     0.001200     NO 
 Predicted change in Energy=-7.144138D-02
 GradGradGradGradGradGradGradGradGradGradGradGradGradGradGradGradGradGrad

 Leave Link  103 at Mon May 14 17:11:46 2018, MaxMem= 14763950080 cpu:      2756.6
 (Enter /cm/shared/gaussian/g09.e01/intel64-sandybridge/g09/l9999.exe)
 1\1\GINC-POPLE04\Force\RPBE1PBE\CC-pVDZ\Br1H256O128(1-)\M.PELUSO\14-Ma
 y-2018\0\\#p PBE1PBE/cc-pvDZ force Counterpoise=2 noSymm\\forces on ch
 loride comput - NWATER: 128\\-1,1\Br,20.,20.,20.\O,21.14,20.06,22.9\H,
 21.37,20.99,22.84\H,20.77,19.85,22.04\O,17.58,22.19,20.19\H,17.27,22.1
 2,21.1\H,18.38,21.67,20.17\O,23.16,20.79,19.89\H,23.09,21.17,20.77\H,2
 2.29,20.42,19.72\O,19.91,16.66,20.32\H,20.46,16.41,21.06\H,20.01,17.61
 ,20.25\O,18.26,21.1,16.96\H,18.73,20.48,17.52\H,17.37,21.11,17.31\O,20
 .86,17.49,17.19\H,20.41,17.93,17.91\H,21.63,18.04,17.02\O,18.54,21.47,
 23.16\H,19.03,20.78,22.71\H,19.2,21.96,23.66\O,18.27,17.15,18.05\H,18.
 7,17.1,18.9\H,18.93,16.83,17.42\O,21.09,23.,18.24\H,20.14,22.92,18.22\
 H,21.31,23.01,19.17\O,20.08,17.64,23.48\H,20.73,16.94,23.4\H,20.56,18.
 44,23.28\O,23.28,18.03,21.47\H,23.59,18.87,21.14\H,23.5,17.41,20.77\O,
 16.51,19.63,22.41\H,16.61,18.84,22.93\H,17.17,20.23,22.75\O,17.31,16.2
 7,21.\H,16.83,16.55,20.22\H,18.22,16.52,20.83\O,18.46,24.68,19.22\H,18
 .88,25.15,19.95\H,18.25,23.82,19.59\O,21.39,22.69,22.98\H,21.62,23.42,
 22.4\H,22.2,22.48,23.43\O,22.,21.66,15.63\H,22.69,22.3,15.43\H,21.78,2
 1.83,16.55\O,21.81,15.95,22.45\H,22.46,15.26,22.59\H,22.32,16.7,22.16\
 O,23.57,18.15,17.69\H,23.63,17.32,18.16\H,24.42,18.57,17.84\O,14.96,19
 .34,19.98\H,15.34,20.21,19.85\H,15.36,19.02,20.79\O,15.67,18.07,17.21\
 H,15.36,18.88,17.61\H,16.61,18.04,17.42\O,21.17,14.62,18.63\H,20.61,14
 .43,17.88\H,20.73,15.33,19.09\O,23.31,18.07,24.35\H,22.65,18.69,24.01\
 H,23.78,17.77,23.57\O,17.23,17.52,23.8\H,16.87,17.22,24.63\H,18.18,17.
 46,23.92\O,25.6,19.73,18.68\H,26.15,19.13,19.19\H,25.03,20.14,19.32\O,
 18.57,22.49,14.66\H,17.68,22.82,14.79\H,18.77,22.01,15.46\O,15.27,23.8
 ,19.79\H,14.46,23.29,19.8\H,15.95,23.16,19.57\O,16.41,23.18,23.45\H,15
 .7,22.54,23.5\H,17.21,22.65,23.47\O,23.76,23.51,16.96\H,24.54,23.91,17
 .35\H,23.12,23.5,17.68\O,20.43,19.72,13.88\H,20.17,20.63,13.7\H,20.72,
 19.73,14.8\O,22.03,24.84,21.18\H,21.25,25.38,21.37\H,22.56,25.38,20.61
 \O,24.14,22.17,22.7\H,24.42,22.98,23.13\H,24.76,22.05,21.99\O,18.06,24
 .8,16.54\H,18.44,25.68,16.58\H,18.27,24.41,17.39\O,23.41,15.87,19.21\H
 ,23.04,15.,19.07\H,24.35,15.75,19.1\O,15.33,20.79,17.12\H,14.39,20.96,
 17.14\H,15.69,21.5,16.58\O,14.44,21.04,22.86\H,13.62,20.77,22.44\H,15.
 09,20.4,22.55\O,22.14,15.45,15.88\H,22.09,14.55,16.22\H,21.99,16.,16.6
 5\O,25.05,21.27,16.34\H,24.72,22.15,16.52\H,24.9,20.79,17.15\O,23.63,2
 0.62,25.18\H,23.84,19.69,25.14\H,23.95,20.98,24.36\O,14.58,16.61,22.39
 \H,14.59,15.74,21.98\H,15.5,16.87,22.42\O,14.83,16.26,19.33\H,14.77,16
 .41,18.39\H,14.68,17.13,19.72\O,25.85,19.21,21.59\H,26.03,18.28,21.46\
 H,26.65,19.65,21.32\O,19.13,13.19,20.71\H,18.79,13.63,19.93\H,19.56,13
 .89,21.21\O,18.03,16.16,14.94\H,17.36,16.52,15.52\H,18.03,16.73,14.17\
 O,17.2,14.07,22.6\H,17.05,14.92,22.19\H,17.89,13.67,22.07\O,16.05,25.6
 8,21.55\H,16.21,24.96,20.94\H,16.38,25.37,22.39\O,18.72,14.14,17.43\H,
 18.23,14.76,16.9\H,18.13,13.39,17.52\O,18.02,18.34,13.23\H,18.67,18.58
 ,13.89\H,18.46,18.5,12.39\O,15.75,23.14,15.96\H,16.12,23.81,16.53\H,15
 .61,23.58,15.13\O,23.15,26.06,18.97\H,22.4,25.9,18.4\H,23.57,26.84,18.
 6\O,20.68,24.54,14.43\H,21.03,23.99,13.72\H,19.87,24.1,14.69\O,12.47,1
 9.11,19.25\H,12.61,19.18,18.3\H,13.31,19.31,19.64\O,19.34,16.99,27.01\
 H,19.25,17.6,26.28\H,20.2,16.6,26.89\O,24.52,17.53,14.76\H,23.85,17.07
 ,15.27\H,24.2,17.5,13.86\O,21.76,21.09,27.15\H,22.18,21.25,26.31\H,21.
 95,20.17,27.34\O,26.25,22.73,20.89\H,26.6,21.84,21.01\H,26.83,23.28,21
 .42\O,21.63,26.1,16.39\H,21.51,25.33,15.84\H,20.77,26.51,16.42\O,26.19
 ,23.88,18.04\H,26.,23.25,18.73\H,26.76,24.52,18.44\O,19.79,26.89,21.05
 \H,19.07,27.46,20.78\H,20.55,27.47,21.12\O,19.55,26.09,23.78\H,19.54,2
 6.41,22.88\H,18.63,26.1,24.05\O,21.88,25.31,25.21\H,22.12,24.38,25.22\
 H,21.05,25.33,24.74\O,25.63,16.01,21.88\H,25.45,15.07,21.82\H,26.25,16
 .09,22.6\O,13.06,18.37,16.56\H,12.67,18.22,15.7\H,13.96,18.63,16.37\O,
 16.92,25.41,24.9\H,16.93,25.26,25.84\H,16.71,24.56,24.52\O,13.42,23.61
 ,23.18\H,14.04,22.93,22.92\H,12.63,23.13,23.44\O,15.2,15.86,15.62\H,15
 .2,16.17,14.71\H,14.87,16.6,16.12\O,23.57,23.15,26.14\H,24.11,23.23,26
 .92\H,23.53,22.21,25.97\O,23.95,24.23,14.2\H,23.49,24.06,15.03\H,24.87
 ,24.22,14.44\O,26.8,17.17,19.88\H,26.55,16.6,19.15\H,26.52,16.71,20.66
 \O,16.01,21.12,26.95\H,15.49,20.5,27.46\H,15.91,20.83,26.04\O,27.98,20
 .7,17.82\H,27.99,21.07,16.93\H,27.06,20.55,18.01\O,19.98,14.5,13.91\H,
 20.2,13.95,14.66\H,19.72,15.34,14.29\O,19.01,21.18,12.06\H,18.92,21.69
 ,12.86\H,19.89,21.36,11.75\O,20.68,17.99,11.96\H,20.59,18.57,12.72\H,2
 1.36,18.4,11.43\O,18.6,14.33,25.29\H,18.48,14.12,24.36\H,17.7,14.42,25
 .62\O,27.44,19.45,24.17\H,28.05,19.11,23.52\H,26.59,19.46,23.72\O,15.3
 2,18.43,13.75\H,16.26,18.34,13.6\H,15.15,19.37,13.67\O,12.82,22.61,19.
 58\H,11.95,22.26,19.77\H,12.66,23.46,19.17\O,14.73,26.3,18.52\H,14.73,
 26.02,19.43\H,15.56,25.98,18.17\O,25.14,26.41,21.8\H,26.01,26.61,21.45
 \H,24.66,26.04,21.05\O,25.12,16.54,26.03\H,24.41,16.06,26.46\H,24.68,1
 7.1,25.4\O,21.17,13.94,26.14\H,20.67,13.14,25.94\H,21.08,14.48,25.35\O
 ,12.59,18.05,23.66\H,13.21,17.59,23.08\H,12.36,18.84,23.18\O,22.09,18.
 15,27.67\H,22.82,17.85,27.12\H,22.46,18.21,28.55\O,24.24,14.1,23.25\H,
 23.63,13.36,23.25\H,24.57,14.14,24.15\O,12.86,21.91,16.71\H,12.78,22.1
 8,15.8\H,13.05,22.71,17.19\O,19.14,27.34,16.82\H,19.3,28.04,16.2\H,18.
 55,27.71,17.47\O,26.16,15.25,17.75\H,26.71,14.6,18.18\H,26.19,15.,16.8
 2\O,23.53,21.46,11.98\H,23.52,20.9,12.76\H,24.17,22.15,12.19\O,26.23,1
 9.82,13.79\H,25.87,18.99,14.11\H,25.75,20.49,14.28\O,14.34,13.45,19.35
 \H,14.4,13.51,20.3\H,14.23,14.35,19.06\O,22.19,12.52,22.34\H,21.92,11.
 75,22.83\H,22.27,12.21,21.43\O,24.93,25.47,24.3\H,23.99,25.54,24.45\H,
 25.03,25.55,23.35\O,19.72,19.43,28.95\H,19.8,19.02,28.09\H,20.5,19.97,
 29.03\O,16.96,12.44,18.63\H,16.76,11.53,18.83\H,16.14,12.91,18.8\O,28.
 18,20.45,20.44\H,28.31,20.6,19.51\H,29.03,20.64,20.84\O,21.45,22.85,12
 .41\H,21.16,23.19,11.56\H,22.15,22.23,12.2\O,26.68,24.19,15.46\H,26.32
 ,23.84,16.28\H,27.26,24.9,15.74\O,19.09,11.18,22.45\H,19.1,11.87,21.78
 \H,18.16,11.,22.59\O,21.59,11.22,19.95\H,20.75,11.65,20.12\H,21.67,11.
 22,19.\O,14.82,21.15,13.24\H,14.07,21.41,12.7\H,15.41,21.91,13.21\O,24
 .,12.71,17.48\H,23.38,12.79,16.75\H,24.62,13.43,17.34\O,14.39,13.37,22
 .01\H,13.95,13.84,22.71\H,15.3,13.3,22.29\O,22.35,15.25,12.74\H,21.77,
 14.89,13.41\H,22.01,16.13,12.58\O,21.15,12.59,15.9\H,20.55,12.19,16.53
 \H,21.23,11.93,15.21\O,15.19,23.65,27.07\H,15.67,24.05,27.8\H,15.72,22
 .9,26.82\O,15.89,15.6,26.11\H,16.49,15.59,26.86\H,15.04,15.81,26.5\O,1
 7.56,25.48,12.77\H,18.23,25.24,13.41\H,17.69,26.42,12.64\O,19.41,11.12
 ,18.04\H,19.11,10.23,18.25\H,18.63,11.66,18.16\O,21.41,23.02,29.02\H,2
 1.52,23.9,28.68\H,21.51,22.45,28.26\O,28.99,17.67,17.96\H,28.79,18.36,
 17.33\H,28.37,17.81,18.67\O,14.13,27.56,21.61\H,13.28,27.12,21.7\H,14.
 77,26.85,21.56\O,13.59,14.51,24.61\H,13.46,14.76,25.53\H,13.88,15.32,2
 4.18\O,11.55,20.84,22.37\H,10.95,21.22,23.01\H,11.,20.68,21.6\O,21.89,
 28.49,21.56\H,22.41,29.22,21.24\H,21.64,28.74,22.45\O,12.49,20.22,25.7
 3\H,11.56,20.08,25.91\H,12.66,19.69,24.95\O,21.56,27.05,13.38\H,21.48,
 26.19,13.81\H,21.43,26.87,12.45\O,21.52,25.44,27.89\H,21.79,25.31,26.9
 8\H,20.77,26.03,27.84\O,12.18,25.25,18.92\H,11.55,25.85,18.51\H,13.01,
 25.43,18.47\O,23.82,17.94,12.12\H,23.55,18.47,11.37\H,23.87,17.05,11.7
 7\O,17.63,28.76,20.64\H,17.08,28.53,19.89\H,17.05,28.73,21.39\O,23.33,
 15.07,27.28\H,22.55,14.71,26.87\H,23.44,14.55,28.08\O,24.36,13.71,14.7
 6\H,25.31,13.79,14.82\H,24.1,14.42,14.18\O,14.74,13.28,15.02\H,14.9,14
 .22,15.15\H,13.8,13.21,14.91\O,12.65,17.58,14.09\H,13.56,17.85,13.93\H
 ,12.19,17.81,13.29\O,16.82,14.02,12.82\H,17.6,14.33,13.28\H,16.35,14.8
 2,12.59\O,10.32,17.56,19.87\H,11.05,18.13,19.61\H,10.51,16.72,19.45\O,
 26.18,24.27,26.58\H,25.71,24.28,25.75\H,26.69,23.47,26.57\O,19.65,15.4
 3,11.3\H,19.65,14.91,12.1\H,19.93,16.3,11.57\\Version=ES64L-G09RevE.01
 \HF=-9773.400754\RMSD=1.634e-09\RMSF=1.037e-02\Dipole=4.6098352,5.1376
 185,-4.4270395\Quadrupole=274.6002815,332.6446452,-607.2449267,-1062.7
 631558,-1362.6615443,-1530.9711437\PG=C01 [X(Br1H256O128)]\\@


 Just remember, when you're over the hill, you begin to pick up speed.
 -- Charles Schulz
 Job cpu time:       6 days  4 hours 42 minutes 39.9 seconds.
 File lengths (MBytes):  RWF=   7285 Int=      0 D2E=      0 Chk=   2411 Scr=      1
 Normal termination of Gaussian 09 at Mon May 14 17:12:17 2018.
