 Entering Gaussian System, Link 0=/cm/shared/gaussian/g09.e01/intel64-sandybridge/g09/g09
 Initial command:
 /cm/shared/gaussian/g09.e01/intel64-sandybridge/g09/l1.exe "/local/scratch/m.peluso/128_wat/Gau-54376.inp" -scrdir="/local/scratch/m.peluso/128_wat/"
 Entering Link 1 = /cm/shared/gaussian/g09.e01/intel64-sandybridge/g09/l1.exe PID=     54377.
  
 Copyright (c) 1988,1990,1992,1993,1995,1998,2003,2009,2015,
            Gaussian, Inc.  All Rights Reserved.
  
 This is part of the Gaussian(R) 09 program.  It is based on
 the Gaussian(R) 03 system (copyright 2003, Gaussian, Inc.),
 the Gaussian(R) 98 system (copyright 1998, Gaussian, Inc.),
 the Gaussian(R) 94 system (copyright 1995, Gaussian, Inc.),
 the Gaussian 92(TM) system (copyright 1992, Gaussian, Inc.),
 the Gaussian 90(TM) system (copyright 1990, Gaussian, Inc.),
 the Gaussian 88(TM) system (copyright 1988, Gaussian, Inc.),
 the Gaussian 86(TM) system (copyright 1986, Carnegie Mellon
 University), and the Gaussian 82(TM) system (copyright 1983,
 Carnegie Mellon University). Gaussian is a federally registered
 trademark of Gaussian, Inc.
  
 This software contains proprietary and confidential information,
 including trade secrets, belonging to Gaussian, Inc.
  
 This software is provided under written license and may be
 used, copied, transmitted, or stored only in accord with that
 written license.
  
 The following legend is applicable only to US Government
 contracts under FAR:
  
                    RESTRICTED RIGHTS LEGEND
  
 Use, reproduction and disclosure by the US Government is
 subject to restrictions as set forth in subparagraphs (a)
 and (c) of the Commercial Computer Software - Restricted
 Rights clause in FAR 52.227-19.
  
 Gaussian, Inc.
 340 Quinnipiac St., Bldg. 40, Wallingford CT 06492
  
  
 ---------------------------------------------------------------
 Warning -- This program may not be used in any manner that
 competes with the business of Gaussian, Inc. or will provide
 assistance to any competitor of Gaussian, Inc.  The licensee
 of this program is prohibited from giving any competitor of
 Gaussian, Inc. access to this program.  By using this program,
 the user acknowledges that Gaussian, Inc. is engaged in the
 business of creating and licensing software in the field of
 computational chemistry and represents and warrants to the
 licensee that it is not a competitor of Gaussian, Inc. and that
 it will not use this program in any manner prohibited above.
 ---------------------------------------------------------------
  

 Cite this work as:
 Gaussian 09, Revision E.01,
 M. J. Frisch, G. W. Trucks, H. B. Schlegel, G. E. Scuseria, 
 M. A. Robb, J. R. Cheeseman, G. Scalmani, V. Barone, B. Mennucci, 
 G. A. Petersson, H. Nakatsuji, M. Caricato, X. Li, H. P. Hratchian, 
 A. F. Izmaylov, J. Bloino, G. Zheng, J. L. Sonnenberg, M. Hada, 
 M. Ehara, K. Toyota, R. Fukuda, J. Hasegawa, M. Ishida, T. Nakajima, 
 Y. Honda, O. Kitao, H. Nakai, T. Vreven, J. A. Montgomery, Jr., 
 J. E. Peralta, F. Ogliaro, M. Bearpark, J. J. Heyd, E. Brothers, 
 K. N. Kudin, V. N. Staroverov, T. Keith, R. Kobayashi, J. Normand, 
 K. Raghavachari, A. Rendell, J. C. Burant, S. S. Iyengar, J. Tomasi, 
 M. Cossi, N. Rega, J. M. Millam, M. Klene, J. E. Knox, J. B. Cross, 
 V. Bakken, C. Adamo, J. Jaramillo, R. Gomperts, R. E. Stratmann, 
 O. Yazyev, A. J. Austin, R. Cammi, C. Pomelli, J. W. Ochterski, 
 R. L. Martin, K. Morokuma, V. G. Zakrzewski, G. A. Voth, 
 P. Salvador, J. J. Dannenberg, S. Dapprich, A. D. Daniels, 
 O. Farkas, J. B. Foresman, J. V. Ortiz, J. Cioslowski, 
 and D. J. Fox, Gaussian, Inc., Wallingford CT, 2013.
 
 ******************************************
 Gaussian 09:  ES64L-G09RevE.01 30-Nov-2015
                 4-May-2018 
 ******************************************
 %Mem=110GB
 %NProcShared=64
 Will use up to   64 processors via shared memory.
 %chk=snap116.chk
 ----------------------------------------------
 #p PBE1PBE/cc-pvDZ force Counterpoise=2 noSymm
 ----------------------------------------------
 1/10=7,30=1,38=1,62=2/1,3;
 2/12=2,15=1,17=6,18=5,40=1/2;
 1/10=7,30=1,38=1,53=2,62=2,63=101/22;
 3/5=16,11=2,16=1,25=1,30=1,71=1,74=-13/1,2,3;
 4//1;
 5/5=2,38=5/2;
 6/7=2,8=2,9=2,10=2,28=1/1;
 7/7=1,29=1,30=1,33=-1/1,2,3,16;
 1/10=7,30=1,53=2,62=2,63=101/22;
 3/5=7,6=11,11=2,16=1,25=1,30=1,71=1,74=-13,82=7/1,2,3;
 4//1;
 5/5=2,38=5/2;
 6/7=2,8=2,9=2,10=2,28=1/1;
 7/7=1,29=1,30=1,33=-1/1,2,3,16;
 1/10=7,30=1,53=2,62=2,63=101/22(-5);
 7/9=1,29=1,44=-1/16;
 1/10=7,30=1,62=2/3;
 99//99;
 Leave Link    1 at Fri May  4 20:09:13 2018, MaxMem= 14763950080 cpu:         6.4
 (Enter /cm/shared/gaussian/g09.e01/intel64-sandybridge/g09/l101.exe)
 ---------------------------------------
 forces on chloride comput - NWATER: 128
 ---------------------------------------
 Symbolic Z-matrix:
 Charge = -1 Multiplicity = 1 in supermolecule
 Charge = -1 Multiplicity = 1 in fragment      1.
 Charge =  0 Multiplicity = 1 in fragment      2.
 Br(Fragment=1)        20.       20.       20. 
 O(Fragment=2)         17.99     20.92     22.01 
 H(Fragment=2)         18.5      20.91     22.82 
 H(Fragment=2)         18.64     20.71     21.33 
 O(Fragment=2)         21.33     20.03     17.23 
 H(Fragment=2)         22.14     19.55     17.38 
 H(Fragment=2)         20.89     20.02     18.08 
 O(Fragment=2)         22.8      21.4      19.71 
 H(Fragment=2)         23.25     20.73     20.21 
 H(Fragment=2)         21.89     21.11     19.67 
 O(Fragment=2)         17.33     19.75     18.29 
 H(Fragment=2)         16.62     19.55     18.9 
 H(Fragment=2)         18.02     20.11     18.84 
 O(Fragment=2)         22.26     17.76     20.63 
 H(Fragment=2)         21.83     18.51     20.21 
 H(Fragment=2)         21.66     17.03     20.48 
 O(Fragment=2)         21.05     22.22     22.18 
 H(Fragment=2)         21.6      21.45     22.35 
 H(Fragment=2)         20.39     21.9      21.56 
 O(Fragment=2)         17.41     17.83     20.33 
 H(Fragment=2)         18.21     18.24     20. 
 H(Fragment=2)         17.08     17.31     19.59 
 O(Fragment=2)         20.34     18.44     23.21 
 H(Fragment=2)         19.88     19.11     23.71 
 H(Fragment=2)         20.34     18.77     22.31 
 O(Fragment=2)         18.87     18.28     16.66 
 H(Fragment=2)         19.61     18.82     16.93 
 H(Fragment=2)         18.1      18.84     16.79 
 O(Fragment=2)         18.17     22.96     17.59 
 H(Fragment=2)         18.64     22.83     18.41 
 H(Fragment=2)         17.95     23.9      17.58 
 O(Fragment=2)         18.83     16.14     22.17 
 H(Fragment=2)         19.52     15.94     21.53 
 H(Fragment=2)         18.51     17.       21.92 
 O(Fragment=2)         19.12     23.78     20.15 
 H(Fragment=2)         19.07     24.45     20.83 
 H(Fragment=2)         19.93     23.97     19.68 
 O(Fragment=2)         16.38     22.93     20.81 
 H(Fragment=2)         17.07     22.65     20.2 
 H(Fragment=2)         16.41     22.27     21.51 
 O(Fragment=2)         24.04     19.8      21.43 
 H(Fragment=2)         23.71     20.18     22.25 
 H(Fragment=2)         23.58     18.96     21.36 
 O(Fragment=2)         19.79     22.02     15.69 
 H(Fragment=2)         20.23     21.37     16.23 
 H(Fragment=2)         19.26     22.53     16.3 
 O(Fragment=2)         16.31     18.77     22.6 
 H(Fragment=2)         16.38     19.72     22.65 
 H(Fragment=2)         16.55     18.57     21.69 
 O(Fragment=2)         23.24     22.53     17.28 
 H(Fragment=2)         23.93     23.13     17.56 
 H(Fragment=2)         23.17     21.89     17.99 
 O(Fragment=2)         20.55     15.79     20.16 
 H(Fragment=2)         20.26     15.83     19.25 
 H(Fragment=2)         20.6      14.86     20.36 
 O(Fragment=2)         22.7      24.03     21.01 
 H(Fragment=2)         22.57     23.5      20.23 
 H(Fragment=2)         22.1      23.65     21.66 
 O(Fragment=2)         20.02     16.05     17.27 
 H(Fragment=2)         19.48     15.34     16.92 
 H(Fragment=2)         19.63     16.84     16.91 
 O(Fragment=2)         23.65     18.56     17.71 
 H(Fragment=2)         23.84     17.7      17.34 
 H(Fragment=2)         24.31     19.13     17.33 
 O(Fragment=2)         23.44     16.95     22.89 
 H(Fragment=2)         23.07     17.3      22.08 
 H(Fragment=2)         22.68     16.66     23.39 
 O(Fragment=2)         17.02     16.44     18.03 
 H(Fragment=2)         17.67     16.92     17.51 
 H(Fragment=2)         16.37     16.16     17.39 
 O(Fragment=2)         21.2      24.2      18.21 
 H(Fragment=2)         21.89     23.66     17.82 
 H(Fragment=2)         21.53     25.09     18.16 
 O(Fragment=2)         22.98     20.65     23.87 
 H(Fragment=2)         23.22     21.09     24.69 
 H(Fragment=2)         22.48     19.89     24.15 
 O(Fragment=2)         16.9      20.34     15.47 
 H(Fragment=2)         17.61     20.97     15.47 
 H(Fragment=2)         16.75     20.15     16.4 
 O(Fragment=2)         20.98     16.11     24.02 
 H(Fragment=2)         20.54     16.9      23.73 
 H(Fragment=2)         20.45     15.4      23.66 
 O(Fragment=2)         18.99     20.5      24.8 
 H(Fragment=2)         18.99     21.35     25.24 
 H(Fragment=2)         18.36     19.98     25.3 
 O(Fragment=2)         24.98     16.88     19.28 
 H(Fragment=2)         24.35     17.54     18.98 
 H(Fragment=2)         24.74     16.09     18.79 
 O(Fragment=2)         25.73     22.49     20.77 
 H(Fragment=2)         26.09     22.37     21.65 
 H(Fragment=2)         24.84     22.14     20.82 
 O(Fragment=2)         22.47     18.34     14.81 
 H(Fragment=2)         22.63     19.05     15.43 
 H(Fragment=2)         21.67     18.59     14.36 
 O(Fragment=2)         22.08     21.59     14.48 
 H(Fragment=2)         22.21     21.8      15.4 
 H(Fragment=2)         21.16     21.81     14.31 
 O(Fragment=2)         16.96     16.47     24.05 
 H(Fragment=2)         17.75     16.37     23.51 
 H(Fragment=2)         16.52     17.24     23.68 
 O(Fragment=2)         14.56     19.45     18.82 
 H(Fragment=2)         13.88     19.9      18.3 
 H(Fragment=2)         14.86     18.74     18.25 
 O(Fragment=2)         22.98     16.04     16.4 
 H(Fragment=2)         22.65     16.83     15.98 
 H(Fragment=2)         22.35     15.85     17.1 
 O(Fragment=2)         19.74     18.1      13.96 
 H(Fragment=2)         19.18     18.85     13.73 
 H(Fragment=2)         19.46     17.86     14.85 
 O(Fragment=2)         26.34     19.4      19.67 
 H(Fragment=2)         26.24     18.45     19.6 
 H(Fragment=2)         25.61     19.68     20.24 
 O(Fragment=2)         14.7      22.51     17.2 
 H(Fragment=2)         13.92     22.67     17.74 
 H(Fragment=2)         15.44     22.72     17.78 
 O(Fragment=2)         13.34     19.55     21.18 
 H(Fragment=2)         13.41     20.49     21.37 
 H(Fragment=2)         14.02     19.39     20.52 
 O(Fragment=2)         15.86     14.06     19.2 
 H(Fragment=2)         15.45     14.17     18.34 
 H(Fragment=2)         16.41     14.84     19.3 
 O(Fragment=2)         25.11     20.31     15.86 
 H(Fragment=2)         25.57     20.25     15.02 
 H(Fragment=2)         24.64     21.15     15.82 
 O(Fragment=2)         18.39     23.27     25.46 
 H(Fragment=2)         18.69     23.96     24.86 
 H(Fragment=2)         17.45     23.4      25.54 
 O(Fragment=2)         20.19     25.58     24.17 
 H(Fragment=2)         20.19     26.       25.03 
 H(Fragment=2)         20.77     24.83     24.27 
 O(Fragment=2)         25.48     15.74     21.64 
 H(Fragment=2)         25.34     16.03     20.74 
 H(Fragment=2)         24.89     16.28     22.16 
 O(Fragment=2)         25.35     24.1      18.39 
 H(Fragment=2)         25.59     24.95     18.77 
 H(Fragment=2)         25.45     23.49     19.12 
 O(Fragment=2)         19.16     26.26     21.96 
 H(Fragment=2)         19.51     26.04     22.82 
 H(Fragment=2)         19.91     26.59     21.47 
 O(Fragment=2)         13.89     22.28     22.11 
 H(Fragment=2)         14.4      23.07     21.97 
 H(Fragment=2)         13.29     22.5      22.83 
 O(Fragment=2)         13.88     16.5      22.06 
 H(Fragment=2)         14.11     17.43     22.08 
 H(Fragment=2)         14.02     16.2      22.96 
 O(Fragment=2)         20.47     13.24     20.54 
 H(Fragment=2)         20.76     12.35     20.35 
 H(Fragment=2)         19.53     13.23     20.38 
 O(Fragment=2)         14.22     20.45     15.2 
 H(Fragment=2)         15.18     20.47     15.17 
 H(Fragment=2)         13.99     21.14     15.83 
 O(Fragment=2)         16.86     13.55     23.17 
 H(Fragment=2)         15.98     13.64     22.81 
 H(Fragment=2)         17.33     14.32     22.86 
 O(Fragment=2)         16.62     26.84     19.81 
 H(Fragment=2)         16.75     27.69     20.22 
 H(Fragment=2)         17.03     26.22     20.41 
 O(Fragment=2)         18.57     17.91     27.31 
 H(Fragment=2)         19.14     17.75     26.55 
 H(Fragment=2)         19.1      17.65     28.06 
 O(Fragment=2)         23.93     14.27     18.94 
 H(Fragment=2)         23.3      13.73     19.42 
 H(Fragment=2)         24.42     13.65     18.4 
 O(Fragment=2)         23.36     26.52     23.01 
 H(Fragment=2)         22.97     27.03     23.72 
 H(Fragment=2)         22.96     25.66     23.08 
 O(Fragment=2)         24.54     26.57     20.33 
 H(Fragment=2)         24.64     26.73     21.26 
 H(Fragment=2)         23.79     25.99     20.26 
 O(Fragment=2)         27.44     20.84     17.59 
 H(Fragment=2)         27.55     20.45     18.46 
 H(Fragment=2)         26.6      20.51     17.28 
 O(Fragment=2)         22.3      26.4      17.75 
 H(Fragment=2)         22.43     27.3      18.04 
 H(Fragment=2)         22.52     26.41     16.82 
 O(Fragment=2)         21.05     16.93     26.9 
 H(Fragment=2)         20.79     16.3      27.58 
 H(Fragment=2)         21.14     16.4      26.11 
 O(Fragment=2)         14.15     17.06     16.98 
 H(Fragment=2)         13.5      17.7      17.28 
 H(Fragment=2)         13.64     16.27     16.82 
 O(Fragment=2)         18.42     14.6      15.45 
 H(Fragment=2)         18.9      14.14     14.76 
 H(Fragment=2)         17.58     14.82     15.05 
 O(Fragment=2)         21.96     24.06     25.68 
 H(Fragment=2)         21.94     23.32     26.28 
 H(Fragment=2)         21.9      24.83     26.24 
 O(Fragment=2)         14.47     25.38     22. 
 H(Fragment=2)         15.41     25.32     21.81 
 H(Fragment=2)         14.31     26.31     22.1 
 O(Fragment=2)         23.46     25.39     15.19 
 H(Fragment=2)         24.34     25.36     14.8 
 H(Fragment=2)         23.2      24.47     15.25 
 O(Fragment=2)         18.27     20.2      12.84 
 H(Fragment=2)         19.06     20.61     12.48 
 H(Fragment=2)         17.71     20.93     13.1 
 O(Fragment=2)         15.71     24.92     16.22 
 H(Fragment=2)         15.14     24.18     16.4 
 H(Fragment=2)         16.14     24.7      15.39 
 O(Fragment=2)         15.08     20.09     25.73 
 H(Fragment=2)         14.54     19.93     24.95 
 H(Fragment=2)         14.49     20.51     26.35 
 O(Fragment=2)         21.74     20.47     11.91 
 H(Fragment=2)         21.73     20.71     12.84 
 H(Fragment=2)         21.8      21.31     11.45 
 O(Fragment=2)         23.19     14.56     25.33 
 H(Fragment=2)         22.48     14.71     24.7 
 H(Fragment=2)         22.83     13.92     25.94 
 O(Fragment=2)         25.68     15.16     16.47 
 H(Fragment=2)         24.79     15.48     16.31 
 H(Fragment=2)         25.9      14.65     15.7 
 O(Fragment=2)         13.16     19.18     24.06 
 H(Fragment=2)         12.32     18.73     24.11 
 H(Fragment=2)         13.12     19.66     23.23 
 O(Fragment=2)         22.59     13.35     15.53 
 H(Fragment=2)         22.29     12.83     16.27 
 H(Fragment=2)         22.84     14.19     15.92 
 O(Fragment=2)         24.96     17.02     13.71 
 H(Fragment=2)         24.17     17.35     14.14 
 H(Fragment=2)         25.07     17.59     12.94 
 O(Fragment=2)         13.43     15.2      19.75 
 H(Fragment=2)         13.7      15.63     20.55 
 H(Fragment=2)         13.71     14.29     19.86 
 O(Fragment=2)         21.31     13.25     23.51 
 H(Fragment=2)         22.07     13.2      22.93 
 H(Fragment=2)         20.68     12.63     23.14 
 O(Fragment=2)         14.35     15.41     24.56 
 H(Fragment=2)         14.58     14.51     24.79 
 H(Fragment=2)         15.2      15.84     24.42 
 O(Fragment=2)         28.58     19.73     21.24 
 H(Fragment=2)         27.67     19.88     21.02 
 H(Fragment=2)         29.04     20.53     20.97 
 O(Fragment=2)         21.34     27.58     21.19 
 H(Fragment=2)         21.65     27.77     20.31 
 H(Fragment=2)         22.13     27.55     21.73 
 O(Fragment=2)         22.73     18.92     27.55 
 H(Fragment=2)         23.52     18.39     27.71 
 H(Fragment=2)         22.05     18.28     27.34 
 O(Fragment=2)         23.62     12.77     21.49 
 H(Fragment=2)         24.17     12.01     21.69 
 H(Fragment=2)         24.22     13.51     21.5 
 O(Fragment=2)         20.31     15.92     12.26 
 H(Fragment=2)         20.36     16.68     12.84 
 H(Fragment=2)         19.54     16.07     11.72 
 O(Fragment=2)         16.53     21.4      27.97 
 H(Fragment=2)         16.28     20.64     28.51 
 H(Fragment=2)         16.73     21.02     27.12 
 O(Fragment=2)         16.11     15.66     14.03 
 H(Fragment=2)         16.09     15.19     13.19 
 H(Fragment=2)         16.49     16.51     13.82 
 O(Fragment=2)         16.08     24.32     25.62 
 H(Fragment=2)         15.46     23.6      25.54 
 H(Fragment=2)         15.56     25.11     25.43 
 O(Fragment=2)         22.22     21.65     27.6 
 H(Fragment=2)         23.03     21.93     28.03 
 H(Fragment=2)         22.23     20.7      27.67 
 O(Fragment=2)         19.99     22.97     12.31 
 H(Fragment=2)         19.17     23.46     12.32 
 H(Fragment=2)         20.61     23.51     12.8 
 O(Fragment=2)         16.12     18.25     12.92 
 H(Fragment=2)         16.6      19.07     12.78 
 H(Fragment=2)         15.93     17.92     12.04 
 O(Fragment=2)         13.56     17.67     14.37 
 H(Fragment=2)         14.29     17.99     13.84 
 H(Fragment=2)         13.83     17.84     15.27 
 O(Fragment=2)         11.09     19.44     19.82 
 H(Fragment=2)         11.93     19.31     20.26 
 H(Fragment=2)         10.44     19.25     20.5 
 O(Fragment=2)         17.77     27.78     23.78 
 H(Fragment=2)         18.19     27.28     23.08 
 H(Fragment=2)         18.39     28.48     23.98 
 O(Fragment=2)         27.19     22.42     22.88 
 H(Fragment=2)         27.91     21.99     23.34 
 H(Fragment=2)         26.76     22.95     23.55 
 O(Fragment=2)         19.79     22.47     28.33 
 H(Fragment=2)         20.59     22.12     27.94 
 H(Fragment=2)         19.3      22.84     27.59 
 O(Fragment=2)         15.94     18.27     27.55 
 H(Fragment=2)         15.68     18.92     26.9 
 H(Fragment=2)         16.79     17.96     27.26 
 O(Fragment=2)         25.85     15.63     25.37 
 H(Fragment=2)         26.42     16.22     24.88 
 H(Fragment=2)         25.       15.71     24.94 
 O(Fragment=2)         12.36     22.94     18.95 
 H(Fragment=2)         12.01     22.49     19.72 
 H(Fragment=2)         12.68     23.77     19.28 
 O(Fragment=2)         27.31     17.37     23.88 
 H(Fragment=2)         27.07     18.29     24.04 
 H(Fragment=2)         28.2      17.41     23.55 
 O(Fragment=2)         20.12     28.09     15.93 
 H(Fragment=2)         20.05     28.67     16.69 
 H(Fragment=2)         20.71     27.4      16.2 
 O(Fragment=2)         28.55     22.64     20.64 
 H(Fragment=2)         28.34     23.37     20.06 
 H(Fragment=2)         27.86     22.64     21.29 
 O(Fragment=2)         25.99     24.85     24.13 
 H(Fragment=2)         26.39     25.42     24.78 
 H(Fragment=2)         25.39     25.42     23.65 
 O(Fragment=2)         25.08     23.04     26.68 
 H(Fragment=2)         24.98     23.57     25.89 
 H(Fragment=2)         24.49     23.44     27.31 
 O(Fragment=2)         14.9      14.03     16.13 
 H(Fragment=2)         14.64     13.2      15.73 
 H(Fragment=2)         15.34     14.51     15.43 
 O(Fragment=2)         21.96     14.18     13.05 
 H(Fragment=2)         21.28     14.79     12.78 
 H(Fragment=2)         22.       14.25     14. 
 O(Fragment=2)         11.96     18.48     17.37 
 H(Fragment=2)         11.48     17.66     17.26 
 H(Fragment=2)         11.51     18.93     18.09 
 O(Fragment=2)         12.52     25.32     19.98 
 H(Fragment=2)         11.64     25.5      20.33 
 H(Fragment=2)         13.01     24.99     20.74 
 O(Fragment=2)         28.9      16.94     20.13 
 H(Fragment=2)         28.36     17.64     20.48 
 H(Fragment=2)         28.86     16.25     20.79 
 O(Fragment=2)         19.15     11.3      22.82 
 H(Fragment=2)         18.9      12.05     23.36 
 H(Fragment=2)         18.68     10.56     23.22 
 O(Fragment=2)         13.93     27.07     18.22 
 H(Fragment=2)         13.4      26.45     18.73 
 H(Fragment=2)         14.83     26.84     18.43 
 O(Fragment=2)         17.84     12.36     25.22 
 H(Fragment=2)         17.41     13.01     24.66 
 H(Fragment=2)         17.13     11.77     25.48 
 O(Fragment=2)         28.56     18.34     15.78 
 H(Fragment=2)         27.7      18.74     15.94 
 H(Fragment=2)         28.6      18.24     14.83 
 O(Fragment=2)         17.13     24.21     28.09 
 H(Fragment=2)         16.94     24.3      27.15 
 H(Fragment=2)         17.36     23.29     28.2 
 O(Fragment=2)         15.29     23.57     13.36 
 H(Fragment=2)         14.61     22.92     13.18 
 H(Fragment=2)         14.84     24.28     13.8 
 O(Fragment=2)         27.95     25.49     21.85 
 H(Fragment=2)         27.28     24.88     21.53 
 H(Fragment=2)         28.19     25.14     22.71 
 O(Fragment=2)         27.97     15.31     17.93 
 H(Fragment=2)         27.74     15.6      18.81 
 H(Fragment=2)         27.14     15.3      17.45 
 O(Fragment=2)         22.03     11.63     17.49 
 H(Fragment=2)         21.18     11.44     17.11 
 H(Fragment=2)         22.62     10.99     17.09 
 O(Fragment=2)         28.26     15.03     22.04 
 H(Fragment=2)         28.29     14.09     21.85 
 H(Fragment=2)         27.33     15.24     22.05 
 O(Fragment=2)         18.14     11.19     20.03 
 H(Fragment=2)         17.4      11.42     20.59 
 H(Fragment=2)         18.74     10.71     20.61 
 O(Fragment=2)         17.61     23.79     12.1 
 H(Fragment=2)         17.46     24.18     11.24 
 H(Fragment=2)         16.75     23.8      12.53 
 O(Fragment=2)         15.33     11.36     18.77 
 H(Fragment=2)         15.95     11.36     18.04 
 H(Fragment=2)         15.39     12.25     19.13 
 O(Fragment=2)         24.3      16.2      27.38 
 H(Fragment=2)         23.5      15.69     27.35 
 H(Fragment=2)         24.78     15.95     26.59 
 O(Fragment=2)         17.15     14.66     27.85 
 H(Fragment=2)         17.76     15.29     27.47 
 H(Fragment=2)         16.29     14.97     27.58 
 O(Fragment=2)         26.52     26.81     17. 
 H(Fragment=2)         26.71     27.16     16.13 
 H(Fragment=2)         26.17     25.93     16.82 
 O(Fragment=2)         28.28     22.38     15.3 
 H(Fragment=2)         28.06     22.03     16.16 
 H(Fragment=2)         28.93     23.06     15.47 
 O(Fragment=2)         10.75     16.47     21.77 
 H(Fragment=2)         10.58     17.09     22.49 
 H(Fragment=2)         11.71     16.47     21.68 
 O(Fragment=2)         21.86     17.75     10.82 
 H(Fragment=2)         21.55     18.65     10.94 
 H(Fragment=2)         21.27     17.21     11.34 
 O(Fragment=2)         26.99     20.63     13.4 
 H(Fragment=2)         27.16     20.92     14.3 
 H(Fragment=2)         26.9      21.44     12.9 
 O(Fragment=2)         12.7      21.93     13.55 
 H(Fragment=2)         13.15     21.17     13.91 
 H(Fragment=2)         11.92     22.04     14.09 
 O(Fragment=2)         19.48     30.12     21.32 
 H(Fragment=2)         20.38     30.44     21.43 
 H(Fragment=2)         19.56     29.16     21.34 
 O(Fragment=2)         27.12     20.95     26.18 
 H(Fragment=2)         26.61     21.75     26.29 
 H(Fragment=2)         26.74     20.33     26.8 
 
 NAtoms=    385 NQM=      385 NQMF=       0 NMMI=      0 NMMIF=      0
                NMic=       0 NMicF=      0.
                    Isotopes and Nuclear Properties:
 (Nuclear quadrupole moments (NQMom) in fm**2, nuclear magnetic moments (NMagM)
  in nuclear magnetons)

  Atom         1           2           3           4           5           6           7           8           9          10
 IAtWgt=          79          16           1           1          16           1           1          16           1           1
 AtmWgt=  78.9183361  15.9949146   1.0078250   1.0078250  15.9949146   1.0078250   1.0078250  15.9949146   1.0078250   1.0078250
 NucSpn=           3           0           1           1           0           1           1           0           1           1
 AtZEff=   0.0000000   0.0000000   0.0000000   0.0000000   0.0000000   0.0000000   0.0000000   0.0000000   0.0000000   0.0000000
 NQMom=   31.3000000   0.0000000   0.0000000   0.0000000   0.0000000   0.0000000   0.0000000   0.0000000   0.0000000   0.0000000
 NMagM=    2.1063990   0.0000000   2.7928460   2.7928460   0.0000000   2.7928460   2.7928460   0.0000000   2.7928460   2.7928460
 AtZNuc=  35.0000000   8.0000000   1.0000000   1.0000000   8.0000000   1.0000000   1.0000000   8.0000000   1.0000000   1.0000000

  Atom        11          12          13          14          15          16          17          18          19          20
 IAtWgt=          16           1           1          16           1           1          16           1           1          16
 AtmWgt=  15.9949146   1.0078250   1.0078250  15.9949146   1.0078250   1.0078250  15.9949146   1.0078250   1.0078250  15.9949146
 NucSpn=           0           1           1           0           1           1           0           1           1           0
 AtZEff=   0.0000000   0.0000000   0.0000000   0.0000000   0.0000000   0.0000000   0.0000000   0.0000000   0.0000000   0.0000000
 NQMom=    0.0000000   0.0000000   0.0000000   0.0000000   0.0000000   0.0000000   0.0000000   0.0000000   0.0000000   0.0000000
 NMagM=    0.0000000   2.7928460   2.7928460   0.0000000   2.7928460   2.7928460   0.0000000   2.7928460   2.7928460   0.0000000
 AtZNuc=   8.0000000   1.0000000   1.0000000   8.0000000   1.0000000   1.0000000   8.0000000   1.0000000   1.0000000   8.0000000

  Atom        21          22          23          24          25          26          27          28          29          30
 IAtWgt=           1           1          16           1           1          16           1           1          16           1
 AtmWgt=   1.0078250   1.0078250  15.9949146   1.0078250   1.0078250  15.9949146   1.0078250   1.0078250  15.9949146   1.0078250
 NucSpn=           1           1           0           1           1           0           1           1           0           1
 AtZEff=   0.0000000   0.0000000   0.0000000   0.0000000   0.0000000   0.0000000   0.0000000   0.0000000   0.0000000   0.0000000
 NQMom=    0.0000000   0.0000000   0.0000000   0.0000000   0.0000000   0.0000000   0.0000000   0.0000000   0.0000000   0.0000000
 NMagM=    2.7928460   2.7928460   0.0000000   2.7928460   2.7928460   0.0000000   2.7928460   2.7928460   0.0000000   2.7928460
 AtZNuc=   1.0000000   1.0000000   8.0000000   1.0000000   1.0000000   8.0000000   1.0000000   1.0000000   8.0000000   1.0000000

  Atom        31          32          33          34          35          36          37          38          39          40
 IAtWgt=           1          16           1           1          16           1           1          16           1           1
 AtmWgt=   1.0078250  15.9949146   1.0078250   1.0078250  15.9949146   1.0078250   1.0078250  15.9949146   1.0078250   1.0078250
 NucSpn=           1           0           1           1           0           1           1           0           1           1
 AtZEff=   0.0000000   0.0000000   0.0000000   0.0000000   0.0000000   0.0000000   0.0000000   0.0000000   0.0000000   0.0000000
 NQMom=    0.0000000   0.0000000   0.0000000   0.0000000   0.0000000   0.0000000   0.0000000   0.0000000   0.0000000   0.0000000
 NMagM=    2.7928460   0.0000000   2.7928460   2.7928460   0.0000000   2.7928460   2.7928460   0.0000000   2.7928460   2.7928460
 AtZNuc=   1.0000000   8.0000000   1.0000000   1.0000000   8.0000000   1.0000000   1.0000000   8.0000000   1.0000000   1.0000000

  Atom        41          42          43          44          45          46          47          48          49          50
 IAtWgt=          16           1           1          16           1           1          16           1           1          16
 AtmWgt=  15.9949146   1.0078250   1.0078250  15.9949146   1.0078250   1.0078250  15.9949146   1.0078250   1.0078250  15.9949146
 NucSpn=           0           1           1           0           1           1           0           1           1           0
 AtZEff=   0.0000000   0.0000000   0.0000000   0.0000000   0.0000000   0.0000000   0.0000000   0.0000000   0.0000000   0.0000000
 NQMom=    0.0000000   0.0000000   0.0000000   0.0000000   0.0000000   0.0000000   0.0000000   0.0000000   0.0000000   0.0000000
 NMagM=    0.0000000   2.7928460   2.7928460   0.0000000   2.7928460   2.7928460   0.0000000   2.7928460   2.7928460   0.0000000
 AtZNuc=   8.0000000   1.0000000   1.0000000   8.0000000   1.0000000   1.0000000   8.0000000   1.0000000   1.0000000   8.0000000

  Atom        51          52          53          54          55          56          57          58          59          60
 IAtWgt=           1           1          16           1           1          16           1           1          16           1
 AtmWgt=   1.0078250   1.0078250  15.9949146   1.0078250   1.0078250  15.9949146   1.0078250   1.0078250  15.9949146   1.0078250
 NucSpn=           1           1           0           1           1           0           1           1           0           1
 AtZEff=   0.0000000   0.0000000   0.0000000   0.0000000   0.0000000   0.0000000   0.0000000   0.0000000   0.0000000   0.0000000
 NQMom=    0.0000000   0.0000000   0.0000000   0.0000000   0.0000000   0.0000000   0.0000000   0.0000000   0.0000000   0.0000000
 NMagM=    2.7928460   2.7928460   0.0000000   2.7928460   2.7928460   0.0000000   2.7928460   2.7928460   0.0000000   2.7928460
 AtZNuc=   1.0000000   1.0000000   8.0000000   1.0000000   1.0000000   8.0000000   1.0000000   1.0000000   8.0000000   1.0000000

  Atom        61          62          63          64          65          66          67          68          69          70
 IAtWgt=           1          16           1           1          16           1           1          16           1           1
 AtmWgt=   1.0078250  15.9949146   1.0078250   1.0078250  15.9949146   1.0078250   1.0078250  15.9949146   1.0078250   1.0078250
 NucSpn=           1           0           1           1           0           1           1           0           1           1
 AtZEff=   0.0000000   0.0000000   0.0000000   0.0000000   0.0000000   0.0000000   0.0000000   0.0000000   0.0000000   0.0000000
 NQMom=    0.0000000   0.0000000   0.0000000   0.0000000   0.0000000   0.0000000   0.0000000   0.0000000   0.0000000   0.0000000
 NMagM=    2.7928460   0.0000000   2.7928460   2.7928460   0.0000000   2.7928460   2.7928460   0.0000000   2.7928460   2.7928460
 AtZNuc=   1.0000000   8.0000000   1.0000000   1.0000000   8.0000000   1.0000000   1.0000000   8.0000000   1.0000000   1.0000000

  Atom        71          72          73          74          75          76          77          78          79          80
 IAtWgt=          16           1           1          16           1           1          16           1           1          16
 AtmWgt=  15.9949146   1.0078250   1.0078250  15.9949146   1.0078250   1.0078250  15.9949146   1.0078250   1.0078250  15.9949146
 NucSpn=           0           1           1           0           1           1           0           1           1           0
 AtZEff=   0.0000000   0.0000000   0.0000000   0.0000000   0.0000000   0.0000000   0.0000000   0.0000000   0.0000000   0.0000000
 NQMom=    0.0000000   0.0000000   0.0000000   0.0000000   0.0000000   0.0000000   0.0000000   0.0000000   0.0000000   0.0000000
 NMagM=    0.0000000   2.7928460   2.7928460   0.0000000   2.7928460   2.7928460   0.0000000   2.7928460   2.7928460   0.0000000
 AtZNuc=   8.0000000   1.0000000   1.0000000   8.0000000   1.0000000   1.0000000   8.0000000   1.0000000   1.0000000   8.0000000

  Atom        81          82          83          84          85          86          87          88          89          90
 IAtWgt=           1           1          16           1           1          16           1           1          16           1
 AtmWgt=   1.0078250   1.0078250  15.9949146   1.0078250   1.0078250  15.9949146   1.0078250   1.0078250  15.9949146   1.0078250
 NucSpn=           1           1           0           1           1           0           1           1           0           1
 AtZEff=   0.0000000   0.0000000   0.0000000   0.0000000   0.0000000   0.0000000   0.0000000   0.0000000   0.0000000   0.0000000
 NQMom=    0.0000000   0.0000000   0.0000000   0.0000000   0.0000000   0.0000000   0.0000000   0.0000000   0.0000000   0.0000000
 NMagM=    2.7928460   2.7928460   0.0000000   2.7928460   2.7928460   0.0000000   2.7928460   2.7928460   0.0000000   2.7928460
 AtZNuc=   1.0000000   1.0000000   8.0000000   1.0000000   1.0000000   8.0000000   1.0000000   1.0000000   8.0000000   1.0000000

  Atom        91          92          93          94          95          96          97          98          99         100
 IAtWgt=           1          16           1           1          16           1           1          16           1           1
 AtmWgt=   1.0078250  15.9949146   1.0078250   1.0078250  15.9949146   1.0078250   1.0078250  15.9949146   1.0078250   1.0078250
 NucSpn=           1           0           1           1           0           1           1           0           1           1
 AtZEff=   0.0000000   0.0000000   0.0000000   0.0000000   0.0000000   0.0000000   0.0000000   0.0000000   0.0000000   0.0000000
 NQMom=    0.0000000   0.0000000   0.0000000   0.0000000   0.0000000   0.0000000   0.0000000   0.0000000   0.0000000   0.0000000
 NMagM=    2.7928460   0.0000000   2.7928460   2.7928460   0.0000000   2.7928460   2.7928460   0.0000000   2.7928460   2.7928460
 AtZNuc=   1.0000000   8.0000000   1.0000000   1.0000000   8.0000000   1.0000000   1.0000000   8.0000000   1.0000000   1.0000000

  Atom       101         102         103         104         105         106         107         108         109         110
 IAtWgt=          16           1           1          16           1           1          16           1           1          16
 AtmWgt=  15.9949146   1.0078250   1.0078250  15.9949146   1.0078250   1.0078250  15.9949146   1.0078250   1.0078250  15.9949146
 NucSpn=           0           1           1           0           1           1           0           1           1           0
 AtZEff=   0.0000000   0.0000000   0.0000000   0.0000000   0.0000000   0.0000000   0.0000000   0.0000000   0.0000000   0.0000000
 NQMom=    0.0000000   0.0000000   0.0000000   0.0000000   0.0000000   0.0000000   0.0000000   0.0000000   0.0000000   0.0000000
 NMagM=    0.0000000   2.7928460   2.7928460   0.0000000   2.7928460   2.7928460   0.0000000   2.7928460   2.7928460   0.0000000
 AtZNuc=   8.0000000   1.0000000   1.0000000   8.0000000   1.0000000   1.0000000   8.0000000   1.0000000   1.0000000   8.0000000

  Atom       111         112         113         114         115         116         117         118         119         120
 IAtWgt=           1           1          16           1           1          16           1           1          16           1
 AtmWgt=   1.0078250   1.0078250  15.9949146   1.0078250   1.0078250  15.9949146   1.0078250   1.0078250  15.9949146   1.0078250
 NucSpn=           1           1           0           1           1           0           1           1           0           1
 AtZEff=   0.0000000   0.0000000   0.0000000   0.0000000   0.0000000   0.0000000   0.0000000   0.0000000   0.0000000   0.0000000
 NQMom=    0.0000000   0.0000000   0.0000000   0.0000000   0.0000000   0.0000000   0.0000000   0.0000000   0.0000000   0.0000000
 NMagM=    2.7928460   2.7928460   0.0000000   2.7928460   2.7928460   0.0000000   2.7928460   2.7928460   0.0000000   2.7928460
 AtZNuc=   1.0000000   1.0000000   8.0000000   1.0000000   1.0000000   8.0000000   1.0000000   1.0000000   8.0000000   1.0000000

  Atom       121         122         123         124         125         126         127         128         129         130
 IAtWgt=           1          16           1           1          16           1           1          16           1           1
 AtmWgt=   1.0078250  15.9949146   1.0078250   1.0078250  15.9949146   1.0078250   1.0078250  15.9949146   1.0078250   1.0078250
 NucSpn=           1           0           1           1           0           1           1           0           1           1
 AtZEff=   0.0000000   0.0000000   0.0000000   0.0000000   0.0000000   0.0000000   0.0000000   0.0000000   0.0000000   0.0000000
 NQMom=    0.0000000   0.0000000   0.0000000   0.0000000   0.0000000   0.0000000   0.0000000   0.0000000   0.0000000   0.0000000
 NMagM=    2.7928460   0.0000000   2.7928460   2.7928460   0.0000000   2.7928460   2.7928460   0.0000000   2.7928460   2.7928460
 AtZNuc=   1.0000000   8.0000000   1.0000000   1.0000000   8.0000000   1.0000000   1.0000000   8.0000000   1.0000000   1.0000000

  Atom       131         132         133         134         135         136         137         138         139         140
 IAtWgt=          16           1           1          16           1           1          16           1           1          16
 AtmWgt=  15.9949146   1.0078250   1.0078250  15.9949146   1.0078250   1.0078250  15.9949146   1.0078250   1.0078250  15.9949146
 NucSpn=           0           1           1           0           1           1           0           1           1           0
 AtZEff=   0.0000000   0.0000000   0.0000000   0.0000000   0.0000000   0.0000000   0.0000000   0.0000000   0.0000000   0.0000000
 NQMom=    0.0000000   0.0000000   0.0000000   0.0000000   0.0000000   0.0000000   0.0000000   0.0000000   0.0000000   0.0000000
 NMagM=    0.0000000   2.7928460   2.7928460   0.0000000   2.7928460   2.7928460   0.0000000   2.7928460   2.7928460   0.0000000
 AtZNuc=   8.0000000   1.0000000   1.0000000   8.0000000   1.0000000   1.0000000   8.0000000   1.0000000   1.0000000   8.0000000

  Atom       141         142         143         144         145         146         147         148         149         150
 IAtWgt=           1           1          16           1           1          16           1           1          16           1
 AtmWgt=   1.0078250   1.0078250  15.9949146   1.0078250   1.0078250  15.9949146   1.0078250   1.0078250  15.9949146   1.0078250
 NucSpn=           1           1           0           1           1           0           1           1           0           1
 AtZEff=   0.0000000   0.0000000   0.0000000   0.0000000   0.0000000   0.0000000   0.0000000   0.0000000   0.0000000   0.0000000
 NQMom=    0.0000000   0.0000000   0.0000000   0.0000000   0.0000000   0.0000000   0.0000000   0.0000000   0.0000000   0.0000000
 NMagM=    2.7928460   2.7928460   0.0000000   2.7928460   2.7928460   0.0000000   2.7928460   2.7928460   0.0000000   2.7928460
 AtZNuc=   1.0000000   1.0000000   8.0000000   1.0000000   1.0000000   8.0000000   1.0000000   1.0000000   8.0000000   1.0000000

  Atom       151         152         153         154         155         156         157         158         159         160
 IAtWgt=           1          16           1           1          16           1           1          16           1           1
 AtmWgt=   1.0078250  15.9949146   1.0078250   1.0078250  15.9949146   1.0078250   1.0078250  15.9949146   1.0078250   1.0078250
 NucSpn=           1           0           1           1           0           1           1           0           1           1
 AtZEff=   0.0000000   0.0000000   0.0000000   0.0000000   0.0000000   0.0000000   0.0000000   0.0000000   0.0000000   0.0000000
 NQMom=    0.0000000   0.0000000   0.0000000   0.0000000   0.0000000   0.0000000   0.0000000   0.0000000   0.0000000   0.0000000
 NMagM=    2.7928460   0.0000000   2.7928460   2.7928460   0.0000000   2.7928460   2.7928460   0.0000000   2.7928460   2.7928460
 AtZNuc=   1.0000000   8.0000000   1.0000000   1.0000000   8.0000000   1.0000000   1.0000000   8.0000000   1.0000000   1.0000000

  Atom       161         162         163         164         165         166         167         168         169         170
 IAtWgt=          16           1           1          16           1           1          16           1           1          16
 AtmWgt=  15.9949146   1.0078250   1.0078250  15.9949146   1.0078250   1.0078250  15.9949146   1.0078250   1.0078250  15.9949146
 NucSpn=           0           1           1           0           1           1           0           1           1           0
 AtZEff=   0.0000000   0.0000000   0.0000000   0.0000000   0.0000000   0.0000000   0.0000000   0.0000000   0.0000000   0.0000000
 NQMom=    0.0000000   0.0000000   0.0000000   0.0000000   0.0000000   0.0000000   0.0000000   0.0000000   0.0000000   0.0000000
 NMagM=    0.0000000   2.7928460   2.7928460   0.0000000   2.7928460   2.7928460   0.0000000   2.7928460   2.7928460   0.0000000
 AtZNuc=   8.0000000   1.0000000   1.0000000   8.0000000   1.0000000   1.0000000   8.0000000   1.0000000   1.0000000   8.0000000

  Atom       171         172         173         174         175         176         177         178         179         180
 IAtWgt=           1           1          16           1           1          16           1           1          16           1
 AtmWgt=   1.0078250   1.0078250  15.9949146   1.0078250   1.0078250  15.9949146   1.0078250   1.0078250  15.9949146   1.0078250
 NucSpn=           1           1           0           1           1           0           1           1           0           1
 AtZEff=   0.0000000   0.0000000   0.0000000   0.0000000   0.0000000   0.0000000   0.0000000   0.0000000   0.0000000   0.0000000
 NQMom=    0.0000000   0.0000000   0.0000000   0.0000000   0.0000000   0.0000000   0.0000000   0.0000000   0.0000000   0.0000000
 NMagM=    2.7928460   2.7928460   0.0000000   2.7928460   2.7928460   0.0000000   2.7928460   2.7928460   0.0000000   2.7928460
 AtZNuc=   1.0000000   1.0000000   8.0000000   1.0000000   1.0000000   8.0000000   1.0000000   1.0000000   8.0000000   1.0000000

  Atom       181         182         183         184         185         186         187         188         189         190
 IAtWgt=           1          16           1           1          16           1           1          16           1           1
 AtmWgt=   1.0078250  15.9949146   1.0078250   1.0078250  15.9949146   1.0078250   1.0078250  15.9949146   1.0078250   1.0078250
 NucSpn=           1           0           1           1           0           1           1           0           1           1
 AtZEff=   0.0000000   0.0000000   0.0000000   0.0000000   0.0000000   0.0000000   0.0000000   0.0000000   0.0000000   0.0000000
 NQMom=    0.0000000   0.0000000   0.0000000   0.0000000   0.0000000   0.0000000   0.0000000   0.0000000   0.0000000   0.0000000
 NMagM=    2.7928460   0.0000000   2.7928460   2.7928460   0.0000000   2.7928460   2.7928460   0.0000000   2.7928460   2.7928460
 AtZNuc=   1.0000000   8.0000000   1.0000000   1.0000000   8.0000000   1.0000000   1.0000000   8.0000000   1.0000000   1.0000000

  Atom       191         192         193         194         195         196         197         198         199         200
 IAtWgt=          16           1           1          16           1           1          16           1           1          16
 AtmWgt=  15.9949146   1.0078250   1.0078250  15.9949146   1.0078250   1.0078250  15.9949146   1.0078250   1.0078250  15.9949146
 NucSpn=           0           1           1           0           1           1           0           1           1           0
 AtZEff=   0.0000000   0.0000000   0.0000000   0.0000000   0.0000000   0.0000000   0.0000000   0.0000000   0.0000000   0.0000000
 NQMom=    0.0000000   0.0000000   0.0000000   0.0000000   0.0000000   0.0000000   0.0000000   0.0000000   0.0000000   0.0000000
 NMagM=    0.0000000   2.7928460   2.7928460   0.0000000   2.7928460   2.7928460   0.0000000   2.7928460   2.7928460   0.0000000
 AtZNuc=   8.0000000   1.0000000   1.0000000   8.0000000   1.0000000   1.0000000   8.0000000   1.0000000   1.0000000   8.0000000

  Atom       201         202         203         204         205         206         207         208         209         210
 IAtWgt=           1           1          16           1           1          16           1           1          16           1
 AtmWgt=   1.0078250   1.0078250  15.9949146   1.0078250   1.0078250  15.9949146   1.0078250   1.0078250  15.9949146   1.0078250
 NucSpn=           1           1           0           1           1           0           1           1           0           1
 AtZEff=   0.0000000   0.0000000   0.0000000   0.0000000   0.0000000   0.0000000   0.0000000   0.0000000   0.0000000   0.0000000
 NQMom=    0.0000000   0.0000000   0.0000000   0.0000000   0.0000000   0.0000000   0.0000000   0.0000000   0.0000000   0.0000000
 NMagM=    2.7928460   2.7928460   0.0000000   2.7928460   2.7928460   0.0000000   2.7928460   2.7928460   0.0000000   2.7928460
 AtZNuc=   1.0000000   1.0000000   8.0000000   1.0000000   1.0000000   8.0000000   1.0000000   1.0000000   8.0000000   1.0000000

  Atom       211         212         213         214         215         216         217         218         219         220
 IAtWgt=           1          16           1           1          16           1           1          16           1           1
 AtmWgt=   1.0078250  15.9949146   1.0078250   1.0078250  15.9949146   1.0078250   1.0078250  15.9949146   1.0078250   1.0078250
 NucSpn=           1           0           1           1           0           1           1           0           1           1
 AtZEff=   0.0000000   0.0000000   0.0000000   0.0000000   0.0000000   0.0000000   0.0000000   0.0000000   0.0000000   0.0000000
 NQMom=    0.0000000   0.0000000   0.0000000   0.0000000   0.0000000   0.0000000   0.0000000   0.0000000   0.0000000   0.0000000
 NMagM=    2.7928460   0.0000000   2.7928460   2.7928460   0.0000000   2.7928460   2.7928460   0.0000000   2.7928460   2.7928460
 AtZNuc=   1.0000000   8.0000000   1.0000000   1.0000000   8.0000000   1.0000000   1.0000000   8.0000000   1.0000000   1.0000000

  Atom       221         222         223         224         225         226         227         228         229         230
 IAtWgt=          16           1           1          16           1           1          16           1           1          16
 AtmWgt=  15.9949146   1.0078250   1.0078250  15.9949146   1.0078250   1.0078250  15.9949146   1.0078250   1.0078250  15.9949146
 NucSpn=           0           1           1           0           1           1           0           1           1           0
 AtZEff=   0.0000000   0.0000000   0.0000000   0.0000000   0.0000000   0.0000000   0.0000000   0.0000000   0.0000000   0.0000000
 NQMom=    0.0000000   0.0000000   0.0000000   0.0000000   0.0000000   0.0000000   0.0000000   0.0000000   0.0000000   0.0000000
 NMagM=    0.0000000   2.7928460   2.7928460   0.0000000   2.7928460   2.7928460   0.0000000   2.7928460   2.7928460   0.0000000
 AtZNuc=   8.0000000   1.0000000   1.0000000   8.0000000   1.0000000   1.0000000   8.0000000   1.0000000   1.0000000   8.0000000

  Atom       231         232         233         234         235         236         237         238         239         240
 IAtWgt=           1           1          16           1           1          16           1           1          16           1
 AtmWgt=   1.0078250   1.0078250  15.9949146   1.0078250   1.0078250  15.9949146   1.0078250   1.0078250  15.9949146   1.0078250
 NucSpn=           1           1           0           1           1           0           1           1           0           1
 AtZEff=   0.0000000   0.0000000   0.0000000   0.0000000   0.0000000   0.0000000   0.0000000   0.0000000   0.0000000   0.0000000
 NQMom=    0.0000000   0.0000000   0.0000000   0.0000000   0.0000000   0.0000000   0.0000000   0.0000000   0.0000000   0.0000000
 NMagM=    2.7928460   2.7928460   0.0000000   2.7928460   2.7928460   0.0000000   2.7928460   2.7928460   0.0000000   2.7928460
 AtZNuc=   1.0000000   1.0000000   8.0000000   1.0000000   1.0000000   8.0000000   1.0000000   1.0000000   8.0000000   1.0000000

  Atom       241         242         243         244         245         246         247         248         249         250
 IAtWgt=           1          16           1           1          16           1           1          16           1           1
 AtmWgt=   1.0078250  15.9949146   1.0078250   1.0078250  15.9949146   1.0078250   1.0078250  15.9949146   1.0078250   1.0078250
 NucSpn=           1           0           1           1           0           1           1           0           1           1
 AtZEff=   0.0000000   0.0000000   0.0000000   0.0000000   0.0000000   0.0000000   0.0000000   0.0000000   0.0000000   0.0000000
 NQMom=    0.0000000   0.0000000   0.0000000   0.0000000   0.0000000   0.0000000   0.0000000   0.0000000   0.0000000   0.0000000
 NMagM=    2.7928460   0.0000000   2.7928460   2.7928460   0.0000000   2.7928460   2.7928460   0.0000000   2.7928460   2.7928460
 AtZNuc=   1.0000000   8.0000000   1.0000000   1.0000000   8.0000000   1.0000000   1.0000000   8.0000000   1.0000000   1.0000000

  Atom       251         252         253         254         255         256         257         258         259         260
 IAtWgt=          16           1           1          16           1           1          16           1           1          16
 AtmWgt=  15.9949146   1.0078250   1.0078250  15.9949146   1.0078250   1.0078250  15.9949146   1.0078250   1.0078250  15.9949146
 NucSpn=           0           1           1           0           1           1           0           1           1           0
 AtZEff=   0.0000000   0.0000000   0.0000000   0.0000000   0.0000000   0.0000000   0.0000000   0.0000000   0.0000000   0.0000000
 NQMom=    0.0000000   0.0000000   0.0000000   0.0000000   0.0000000   0.0000000   0.0000000   0.0000000   0.0000000   0.0000000
 NMagM=    0.0000000   2.7928460   2.7928460   0.0000000   2.7928460   2.7928460   0.0000000   2.7928460   2.7928460   0.0000000
 AtZNuc=   8.0000000   1.0000000   1.0000000   8.0000000   1.0000000   1.0000000   8.0000000   1.0000000   1.0000000   8.0000000

  Atom       261         262         263         264         265         266         267         268         269         270
 IAtWgt=           1           1          16           1           1          16           1           1          16           1
 AtmWgt=   1.0078250   1.0078250  15.9949146   1.0078250   1.0078250  15.9949146   1.0078250   1.0078250  15.9949146   1.0078250
 NucSpn=           1           1           0           1           1           0           1           1           0           1
 AtZEff=   0.0000000   0.0000000   0.0000000   0.0000000   0.0000000   0.0000000   0.0000000   0.0000000   0.0000000   0.0000000
 NQMom=    0.0000000   0.0000000   0.0000000   0.0000000   0.0000000   0.0000000   0.0000000   0.0000000   0.0000000   0.0000000
 NMagM=    2.7928460   2.7928460   0.0000000   2.7928460   2.7928460   0.0000000   2.7928460   2.7928460   0.0000000   2.7928460
 AtZNuc=   1.0000000   1.0000000   8.0000000   1.0000000   1.0000000   8.0000000   1.0000000   1.0000000   8.0000000   1.0000000

  Atom       271         272         273         274         275         276         277         278         279         280
 IAtWgt=           1          16           1           1          16           1           1          16           1           1
 AtmWgt=   1.0078250  15.9949146   1.0078250   1.0078250  15.9949146   1.0078250   1.0078250  15.9949146   1.0078250   1.0078250
 NucSpn=           1           0           1           1           0           1           1           0           1           1
 AtZEff=   0.0000000   0.0000000   0.0000000   0.0000000   0.0000000   0.0000000   0.0000000   0.0000000   0.0000000   0.0000000
 NQMom=    0.0000000   0.0000000   0.0000000   0.0000000   0.0000000   0.0000000   0.0000000   0.0000000   0.0000000   0.0000000
 NMagM=    2.7928460   0.0000000   2.7928460   2.7928460   0.0000000   2.7928460   2.7928460   0.0000000   2.7928460   2.7928460
 AtZNuc=   1.0000000   8.0000000   1.0000000   1.0000000   8.0000000   1.0000000   1.0000000   8.0000000   1.0000000   1.0000000

  Atom       281         282         283         284         285         286         287         288         289         290
 IAtWgt=          16           1           1          16           1           1          16           1           1          16
 AtmWgt=  15.9949146   1.0078250   1.0078250  15.9949146   1.0078250   1.0078250  15.9949146   1.0078250   1.0078250  15.9949146
 NucSpn=           0           1           1           0           1           1           0           1           1           0
 AtZEff=   0.0000000   0.0000000   0.0000000   0.0000000   0.0000000   0.0000000   0.0000000   0.0000000   0.0000000   0.0000000
 NQMom=    0.0000000   0.0000000   0.0000000   0.0000000   0.0000000   0.0000000   0.0000000   0.0000000   0.0000000   0.0000000
 NMagM=    0.0000000   2.7928460   2.7928460   0.0000000   2.7928460   2.7928460   0.0000000   2.7928460   2.7928460   0.0000000
 AtZNuc=   8.0000000   1.0000000   1.0000000   8.0000000   1.0000000   1.0000000   8.0000000   1.0000000   1.0000000   8.0000000

  Atom       291         292         293         294         295         296         297         298         299         300
 IAtWgt=           1           1          16           1           1          16           1           1          16           1
 AtmWgt=   1.0078250   1.0078250  15.9949146   1.0078250   1.0078250  15.9949146   1.0078250   1.0078250  15.9949146   1.0078250
 NucSpn=           1           1           0           1           1           0           1           1           0           1
 AtZEff=   0.0000000   0.0000000   0.0000000   0.0000000   0.0000000   0.0000000   0.0000000   0.0000000   0.0000000   0.0000000
 NQMom=    0.0000000   0.0000000   0.0000000   0.0000000   0.0000000   0.0000000   0.0000000   0.0000000   0.0000000   0.0000000
 NMagM=    2.7928460   2.7928460   0.0000000   2.7928460   2.7928460   0.0000000   2.7928460   2.7928460   0.0000000   2.7928460
 AtZNuc=   1.0000000   1.0000000   8.0000000   1.0000000   1.0000000   8.0000000   1.0000000   1.0000000   8.0000000   1.0000000

  Atom       301         302         303         304         305         306         307         308         309         310
 IAtWgt=           1          16           1           1          16           1           1          16           1           1
 AtmWgt=   1.0078250  15.9949146   1.0078250   1.0078250  15.9949146   1.0078250   1.0078250  15.9949146   1.0078250   1.0078250
 NucSpn=           1           0           1           1           0           1           1           0           1           1
 AtZEff=   0.0000000   0.0000000   0.0000000   0.0000000   0.0000000   0.0000000   0.0000000   0.0000000   0.0000000   0.0000000
 NQMom=    0.0000000   0.0000000   0.0000000   0.0000000   0.0000000   0.0000000   0.0000000   0.0000000   0.0000000   0.0000000
 NMagM=    2.7928460   0.0000000   2.7928460   2.7928460   0.0000000   2.7928460   2.7928460   0.0000000   2.7928460   2.7928460
 AtZNuc=   1.0000000   8.0000000   1.0000000   1.0000000   8.0000000   1.0000000   1.0000000   8.0000000   1.0000000   1.0000000

  Atom       311         312         313         314         315         316         317         318         319         320
 IAtWgt=          16           1           1          16           1           1          16           1           1          16
 AtmWgt=  15.9949146   1.0078250   1.0078250  15.9949146   1.0078250   1.0078250  15.9949146   1.0078250   1.0078250  15.9949146
 NucSpn=           0           1           1           0           1           1           0           1           1           0
 AtZEff=   0.0000000   0.0000000   0.0000000   0.0000000   0.0000000   0.0000000   0.0000000   0.0000000   0.0000000   0.0000000
 NQMom=    0.0000000   0.0000000   0.0000000   0.0000000   0.0000000   0.0000000   0.0000000   0.0000000   0.0000000   0.0000000
 NMagM=    0.0000000   2.7928460   2.7928460   0.0000000   2.7928460   2.7928460   0.0000000   2.7928460   2.7928460   0.0000000
 AtZNuc=   8.0000000   1.0000000   1.0000000   8.0000000   1.0000000   1.0000000   8.0000000   1.0000000   1.0000000   8.0000000

  Atom       321         322         323         324         325         326         327         328         329         330
 IAtWgt=           1           1          16           1           1          16           1           1          16           1
 AtmWgt=   1.0078250   1.0078250  15.9949146   1.0078250   1.0078250  15.9949146   1.0078250   1.0078250  15.9949146   1.0078250
 NucSpn=           1           1           0           1           1           0           1           1           0           1
 AtZEff=   0.0000000   0.0000000   0.0000000   0.0000000   0.0000000   0.0000000   0.0000000   0.0000000   0.0000000   0.0000000
 NQMom=    0.0000000   0.0000000   0.0000000   0.0000000   0.0000000   0.0000000   0.0000000   0.0000000   0.0000000   0.0000000
 NMagM=    2.7928460   2.7928460   0.0000000   2.7928460   2.7928460   0.0000000   2.7928460   2.7928460   0.0000000   2.7928460
 AtZNuc=   1.0000000   1.0000000   8.0000000   1.0000000   1.0000000   8.0000000   1.0000000   1.0000000   8.0000000   1.0000000

  Atom       331         332         333         334         335         336         337         338         339         340
 IAtWgt=           1          16           1           1          16           1           1          16           1           1
 AtmWgt=   1.0078250  15.9949146   1.0078250   1.0078250  15.9949146   1.0078250   1.0078250  15.9949146   1.0078250   1.0078250
 NucSpn=           1           0           1           1           0           1           1           0           1           1
 AtZEff=   0.0000000   0.0000000   0.0000000   0.0000000   0.0000000   0.0000000   0.0000000   0.0000000   0.0000000   0.0000000
 NQMom=    0.0000000   0.0000000   0.0000000   0.0000000   0.0000000   0.0000000   0.0000000   0.0000000   0.0000000   0.0000000
 NMagM=    2.7928460   0.0000000   2.7928460   2.7928460   0.0000000   2.7928460   2.7928460   0.0000000   2.7928460   2.7928460
 AtZNuc=   1.0000000   8.0000000   1.0000000   1.0000000   8.0000000   1.0000000   1.0000000   8.0000000   1.0000000   1.0000000

  Atom       341         342         343         344         345         346         347         348         349         350
 IAtWgt=          16           1           1          16           1           1          16           1           1          16
 AtmWgt=  15.9949146   1.0078250   1.0078250  15.9949146   1.0078250   1.0078250  15.9949146   1.0078250   1.0078250  15.9949146
 NucSpn=           0           1           1           0           1           1           0           1           1           0
 AtZEff=   0.0000000   0.0000000   0.0000000   0.0000000   0.0000000   0.0000000   0.0000000   0.0000000   0.0000000   0.0000000
 NQMom=    0.0000000   0.0000000   0.0000000   0.0000000   0.0000000   0.0000000   0.0000000   0.0000000   0.0000000   0.0000000
 NMagM=    0.0000000   2.7928460   2.7928460   0.0000000   2.7928460   2.7928460   0.0000000   2.7928460   2.7928460   0.0000000
 AtZNuc=   8.0000000   1.0000000   1.0000000   8.0000000   1.0000000   1.0000000   8.0000000   1.0000000   1.0000000   8.0000000

  Atom       351         352         353         354         355         356         357         358         359         360
 IAtWgt=           1           1          16           1           1          16           1           1          16           1
 AtmWgt=   1.0078250   1.0078250  15.9949146   1.0078250   1.0078250  15.9949146   1.0078250   1.0078250  15.9949146   1.0078250
 NucSpn=           1           1           0           1           1           0           1           1           0           1
 AtZEff=   0.0000000   0.0000000   0.0000000   0.0000000   0.0000000   0.0000000   0.0000000   0.0000000   0.0000000   0.0000000
 NQMom=    0.0000000   0.0000000   0.0000000   0.0000000   0.0000000   0.0000000   0.0000000   0.0000000   0.0000000   0.0000000
 NMagM=    2.7928460   2.7928460   0.0000000   2.7928460   2.7928460   0.0000000   2.7928460   2.7928460   0.0000000   2.7928460
 AtZNuc=   1.0000000   1.0000000   8.0000000   1.0000000   1.0000000   8.0000000   1.0000000   1.0000000   8.0000000   1.0000000

  Atom       361         362         363         364         365         366         367         368         369         370
 IAtWgt=           1          16           1           1          16           1           1          16           1           1
 AtmWgt=   1.0078250  15.9949146   1.0078250   1.0078250  15.9949146   1.0078250   1.0078250  15.9949146   1.0078250   1.0078250
 NucSpn=           1           0           1           1           0           1           1           0           1           1
 AtZEff=   0.0000000   0.0000000   0.0000000   0.0000000   0.0000000   0.0000000   0.0000000   0.0000000   0.0000000   0.0000000
 NQMom=    0.0000000   0.0000000   0.0000000   0.0000000   0.0000000   0.0000000   0.0000000   0.0000000   0.0000000   0.0000000
 NMagM=    2.7928460   0.0000000   2.7928460   2.7928460   0.0000000   2.7928460   2.7928460   0.0000000   2.7928460   2.7928460
 AtZNuc=   1.0000000   8.0000000   1.0000000   1.0000000   8.0000000   1.0000000   1.0000000   8.0000000   1.0000000   1.0000000

  Atom       371         372         373         374         375         376         377         378         379         380
 IAtWgt=          16           1           1          16           1           1          16           1           1          16
 AtmWgt=  15.9949146   1.0078250   1.0078250  15.9949146   1.0078250   1.0078250  15.9949146   1.0078250   1.0078250  15.9949146
 NucSpn=           0           1           1           0           1           1           0           1           1           0
 AtZEff=   0.0000000   0.0000000   0.0000000   0.0000000   0.0000000   0.0000000   0.0000000   0.0000000   0.0000000   0.0000000
 NQMom=    0.0000000   0.0000000   0.0000000   0.0000000   0.0000000   0.0000000   0.0000000   0.0000000   0.0000000   0.0000000
 NMagM=    0.0000000   2.7928460   2.7928460   0.0000000   2.7928460   2.7928460   0.0000000   2.7928460   2.7928460   0.0000000
 AtZNuc=   8.0000000   1.0000000   1.0000000   8.0000000   1.0000000   1.0000000   8.0000000   1.0000000   1.0000000   8.0000000

  Atom       381         382         383         384         385
 IAtWgt=           1           1          16           1           1
 AtmWgt=   1.0078250   1.0078250  15.9949146   1.0078250   1.0078250
 NucSpn=           1           1           0           1           1
 AtZEff=   0.0000000   0.0000000   0.0000000   0.0000000   0.0000000
 NQMom=    0.0000000   0.0000000   0.0000000   0.0000000   0.0000000
 NMagM=    2.7928460   2.7928460   0.0000000   2.7928460   2.7928460
 AtZNuc=   1.0000000   1.0000000   8.0000000   1.0000000   1.0000000
 Leave Link  101 at Fri May  4 20:09:14 2018, MaxMem= 14763950080 cpu:        37.9
 (Enter /cm/shared/gaussian/g09.e01/intel64-sandybridge/g09/l103.exe)

 GradGradGradGradGradGradGradGradGradGradGradGradGradGradGradGradGradGrad
 Berny optimization.
 Initialization pass.
 Trust Radius=3.00D-01 FncErr=1.00D-07 GrdErr=1.00D-07
 Number of steps in this run=      2 maximum allowed number of steps=      2.
 GradGradGradGradGradGradGradGradGradGradGradGradGradGradGradGradGradGrad

 Leave Link  103 at Fri May  4 20:09:14 2018, MaxMem= 14763950080 cpu:         6.2
 (Enter /cm/shared/gaussian/g09.e01/intel64-sandybridge/g09/l202.exe)
 Symmetry turned off by external request.
 Stoichiometry    BrH256O128(1-)
 Framework group  C1[X(BrH256O128)]
 Deg. of freedom  1149
 Full point group                 C1      NOp   1
                          Input orientation:                          
 ---------------------------------------------------------------------
 Center     Atomic      Atomic             Coordinates (Angstroms)
 Number     Number       Type             X           Y           Z
 ---------------------------------------------------------------------
      1         35           0       20.000000   20.000000   20.000000
      2          8           0       17.990000   20.920000   22.010000
      3          1           0       18.500000   20.910000   22.820000
      4          1           0       18.640000   20.710000   21.330000
      5          8           0       21.330000   20.030000   17.230000
      6          1           0       22.140000   19.550000   17.380000
      7          1           0       20.890000   20.020000   18.080000
      8          8           0       22.800000   21.400000   19.710000
      9          1           0       23.250000   20.730000   20.210000
     10          1           0       21.890000   21.110000   19.670000
     11          8           0       17.330000   19.750000   18.290000
     12          1           0       16.620000   19.550000   18.900000
     13          1           0       18.020000   20.110000   18.840000
     14          8           0       22.260000   17.760000   20.630000
     15          1           0       21.830000   18.510000   20.210000
     16          1           0       21.660000   17.030000   20.480000
     17          8           0       21.050000   22.220000   22.180000
     18          1           0       21.600000   21.450000   22.350000
     19          1           0       20.390000   21.900000   21.560000
     20          8           0       17.410000   17.830000   20.330000
     21          1           0       18.210000   18.240000   20.000000
     22          1           0       17.080000   17.310000   19.590000
     23          8           0       20.340000   18.440000   23.210000
     24          1           0       19.880000   19.110000   23.710000
     25          1           0       20.340000   18.770000   22.310000
     26          8           0       18.870000   18.280000   16.660000
     27          1           0       19.610000   18.820000   16.930000
     28          1           0       18.100000   18.840000   16.790000
     29          8           0       18.170000   22.960000   17.590000
     30          1           0       18.640000   22.830000   18.410000
     31          1           0       17.950000   23.900000   17.580000
     32          8           0       18.830000   16.140000   22.170000
     33          1           0       19.520000   15.940000   21.530000
     34          1           0       18.510000   17.000000   21.920000
     35          8           0       19.120000   23.780000   20.150000
     36          1           0       19.070000   24.450000   20.830000
     37          1           0       19.930000   23.970000   19.680000
     38          8           0       16.380000   22.930000   20.810000
     39          1           0       17.070000   22.650000   20.200000
     40          1           0       16.410000   22.270000   21.510000
     41          8           0       24.040000   19.800000   21.430000
     42          1           0       23.710000   20.180000   22.250000
     43          1           0       23.580000   18.960000   21.360000
     44          8           0       19.790000   22.020000   15.690000
     45          1           0       20.230000   21.370000   16.230000
     46          1           0       19.260000   22.530000   16.300000
     47          8           0       16.310000   18.770000   22.600000
     48          1           0       16.380000   19.720000   22.650000
     49          1           0       16.550000   18.570000   21.690000
     50          8           0       23.240000   22.530000   17.280000
     51          1           0       23.930000   23.130000   17.560000
     52          1           0       23.170000   21.890000   17.990000
     53          8           0       20.550000   15.790000   20.160000
     54          1           0       20.260000   15.830000   19.250000
     55          1           0       20.600000   14.860000   20.360000
     56          8           0       22.700000   24.030000   21.010000
     57          1           0       22.570000   23.500000   20.230000
     58          1           0       22.100000   23.650000   21.660000
     59          8           0       20.020000   16.050000   17.270000
     60          1           0       19.480000   15.340000   16.920000
     61          1           0       19.630000   16.840000   16.910000
     62          8           0       23.650000   18.560000   17.710000
     63          1           0       23.840000   17.700000   17.340000
     64          1           0       24.310000   19.130000   17.330000
     65          8           0       23.440000   16.950000   22.890000
     66          1           0       23.070000   17.300000   22.080000
     67          1           0       22.680000   16.660000   23.390000
     68          8           0       17.020000   16.440000   18.030000
     69          1           0       17.670000   16.920000   17.510000
     70          1           0       16.370000   16.160000   17.390000
     71          8           0       21.200000   24.200000   18.210000
     72          1           0       21.890000   23.660000   17.820000
     73          1           0       21.530000   25.090000   18.160000
     74          8           0       22.980000   20.650000   23.870000
     75          1           0       23.220000   21.090000   24.690000
     76          1           0       22.480000   19.890000   24.150000
     77          8           0       16.900000   20.340000   15.470000
     78          1           0       17.610000   20.970000   15.470000
     79          1           0       16.750000   20.150000   16.400000
     80          8           0       20.980000   16.110000   24.020000
     81          1           0       20.540000   16.900000   23.730000
     82          1           0       20.450000   15.400000   23.660000
     83          8           0       18.990000   20.500000   24.800000
     84          1           0       18.990000   21.350000   25.240000
     85          1           0       18.360000   19.980000   25.300000
     86          8           0       24.980000   16.880000   19.280000
     87          1           0       24.350000   17.540000   18.980000
     88          1           0       24.740000   16.090000   18.790000
     89          8           0       25.730000   22.490000   20.770000
     90          1           0       26.090000   22.370000   21.650000
     91          1           0       24.840000   22.140000   20.820000
     92          8           0       22.470000   18.340000   14.810000
     93          1           0       22.630000   19.050000   15.430000
     94          1           0       21.670000   18.590000   14.360000
     95          8           0       22.080000   21.590000   14.480000
     96          1           0       22.210000   21.800000   15.400000
     97          1           0       21.160000   21.810000   14.310000
     98          8           0       16.960000   16.470000   24.050000
     99          1           0       17.750000   16.370000   23.510000
    100          1           0       16.520000   17.240000   23.680000
    101          8           0       14.560000   19.450000   18.820000
    102          1           0       13.880000   19.900000   18.300000
    103          1           0       14.860000   18.740000   18.250000
    104          8           0       22.980000   16.040000   16.400000
    105          1           0       22.650000   16.830000   15.980000
    106          1           0       22.350000   15.850000   17.100000
    107          8           0       19.740000   18.100000   13.960000
    108          1           0       19.180000   18.850000   13.730000
    109          1           0       19.460000   17.860000   14.850000
    110          8           0       26.340000   19.400000   19.670000
    111          1           0       26.240000   18.450000   19.600000
    112          1           0       25.610000   19.680000   20.240000
    113          8           0       14.700000   22.510000   17.200000
    114          1           0       13.920000   22.670000   17.740000
    115          1           0       15.440000   22.720000   17.780000
    116          8           0       13.340000   19.550000   21.180000
    117          1           0       13.410000   20.490000   21.370000
    118          1           0       14.020000   19.390000   20.520000
    119          8           0       15.860000   14.060000   19.200000
    120          1           0       15.450000   14.170000   18.340000
    121          1           0       16.410000   14.840000   19.300000
    122          8           0       25.110000   20.310000   15.860000
    123          1           0       25.570000   20.250000   15.020000
    124          1           0       24.640000   21.150000   15.820000
    125          8           0       18.390000   23.270000   25.460000
    126          1           0       18.690000   23.960000   24.860000
    127          1           0       17.450000   23.400000   25.540000
    128          8           0       20.190000   25.580000   24.170000
    129          1           0       20.190000   26.000000   25.030000
    130          1           0       20.770000   24.830000   24.270000
    131          8           0       25.480000   15.740000   21.640000
    132          1           0       25.340000   16.030000   20.740000
    133          1           0       24.890000   16.280000   22.160000
    134          8           0       25.350000   24.100000   18.390000
    135          1           0       25.590000   24.950000   18.770000
    136          1           0       25.450000   23.490000   19.120000
    137          8           0       19.160000   26.260000   21.960000
    138          1           0       19.510000   26.040000   22.820000
    139          1           0       19.910000   26.590000   21.470000
    140          8           0       13.890000   22.280000   22.110000
    141          1           0       14.400000   23.070000   21.970000
    142          1           0       13.290000   22.500000   22.830000
    143          8           0       13.880000   16.500000   22.060000
    144          1           0       14.110000   17.430000   22.080000
    145          1           0       14.020000   16.200000   22.960000
    146          8           0       20.470000   13.240000   20.540000
    147          1           0       20.760000   12.350000   20.350000
    148          1           0       19.530000   13.230000   20.380000
    149          8           0       14.220000   20.450000   15.200000
    150          1           0       15.180000   20.470000   15.170000
    151          1           0       13.990000   21.140000   15.830000
    152          8           0       16.860000   13.550000   23.170000
    153          1           0       15.980000   13.640000   22.810000
    154          1           0       17.330000   14.320000   22.860000
    155          8           0       16.620000   26.840000   19.810000
    156          1           0       16.750000   27.690000   20.220000
    157          1           0       17.030000   26.220000   20.410000
    158          8           0       18.570000   17.910000   27.310000
    159          1           0       19.140000   17.750000   26.550000
    160          1           0       19.100000   17.650000   28.060000
    161          8           0       23.930000   14.270000   18.940000
    162          1           0       23.300000   13.730000   19.420000
    163          1           0       24.420000   13.650000   18.400000
    164          8           0       23.360000   26.520000   23.010000
    165          1           0       22.970000   27.030000   23.720000
    166          1           0       22.960000   25.660000   23.080000
    167          8           0       24.540000   26.570000   20.330000
    168          1           0       24.640000   26.730000   21.260000
    169          1           0       23.790000   25.990000   20.260000
    170          8           0       27.440000   20.840000   17.590000
    171          1           0       27.550000   20.450000   18.460000
    172          1           0       26.600000   20.510000   17.280000
    173          8           0       22.300000   26.400000   17.750000
    174          1           0       22.430000   27.300000   18.040000
    175          1           0       22.520000   26.410000   16.820000
    176          8           0       21.050000   16.930000   26.900000
    177          1           0       20.790000   16.300000   27.580000
    178          1           0       21.140000   16.400000   26.110000
    179          8           0       14.150000   17.060000   16.980000
    180          1           0       13.500000   17.700000   17.280000
    181          1           0       13.640000   16.270000   16.820000
    182          8           0       18.420000   14.600000   15.450000
    183          1           0       18.900000   14.140000   14.760000
    184          1           0       17.580000   14.820000   15.050000
    185          8           0       21.960000   24.060000   25.680000
    186          1           0       21.940000   23.320000   26.280000
    187          1           0       21.900000   24.830000   26.240000
    188          8           0       14.470000   25.380000   22.000000
    189          1           0       15.410000   25.320000   21.810000
    190          1           0       14.310000   26.310000   22.100000
    191          8           0       23.460000   25.390000   15.190000
    192          1           0       24.340000   25.360000   14.800000
    193          1           0       23.200000   24.470000   15.250000
    194          8           0       18.270000   20.200000   12.840000
    195          1           0       19.060000   20.610000   12.480000
    196          1           0       17.710000   20.930000   13.100000
    197          8           0       15.710000   24.920000   16.220000
    198          1           0       15.140000   24.180000   16.400000
    199          1           0       16.140000   24.700000   15.390000
    200          8           0       15.080000   20.090000   25.730000
    201          1           0       14.540000   19.930000   24.950000
    202          1           0       14.490000   20.510000   26.350000
    203          8           0       21.740000   20.470000   11.910000
    204          1           0       21.730000   20.710000   12.840000
    205          1           0       21.800000   21.310000   11.450000
    206          8           0       23.190000   14.560000   25.330000
    207          1           0       22.480000   14.710000   24.700000
[...]
   X336      51.55173  -0.00229   0.00000  -0.00010  -0.00080  51.55093
   Y336      47.01639  -0.00420   0.00000  -0.00350  -0.00267  47.01372
   Z336      40.68580   0.00122   0.00000   0.00257   0.00197  40.68777
   X337      53.27138  -0.00098   0.00000  -0.00137  -0.00212  53.26926
   Y337      47.50771  -0.00672   0.00000  -0.00885  -0.00776  47.49995
   Z337      42.91568   0.00125   0.00000  -0.00230  -0.00291  42.91277
   X338      52.85564   0.01036   0.00000   0.00599   0.00610  52.86174
   Y338      28.93171  -0.01371   0.00000  -0.02020  -0.01990  28.91181
   Z338      33.88279  -0.00431   0.00000  -0.00084   0.00012  33.88291
   X339      52.42100   0.00283   0.00000   0.00895   0.00900  52.43000
   Y339      29.47973   0.01044   0.00000   0.01384   0.01427  29.49400
   Z339      35.54575   0.00895   0.00000   0.00318   0.00407  35.54982
   X340      51.28717  -0.00660   0.00000  -0.00375  -0.00363  51.28354
   Y340      28.91281   0.00474   0.00000   0.00794   0.00811  28.92092
   Z340      32.97572  -0.00292   0.00000  -0.00214  -0.00122  32.97450
   X341      41.63067   0.00661   0.00000  -0.00015   0.00022  41.63089
   Y341      21.97751   0.00476   0.00000  -0.00322  -0.00338  21.97413
   Z341      33.05131   0.01832   0.00000   0.01668   0.01798  33.06929
   X342      40.02440  -0.01561   0.00000  -0.01144  -0.01105  40.01335
   Y342      21.61847  -0.00594   0.00000  -0.00547  -0.00576  21.61271
   Z342      32.33321  -0.00594   0.00000  -0.00301  -0.00172  32.33150
   X343      42.74561   0.00460   0.00000   0.00276   0.00319  42.74879
   Y343      20.76809  -0.00561   0.00000  -0.00262  -0.00281  20.76528
   Z343      32.29542  -0.00456   0.00000  -0.00403  -0.00261  32.29281
   X344      53.40366   0.02310   0.00000   0.00991   0.00986  53.41352
   Y344      28.40258  -0.00213   0.00000  -0.00214  -0.00115  28.40143
   Z344      41.64956   0.00501   0.00000   0.00656   0.00757  41.65713
   X345      53.46035   0.00011   0.00000   0.00077   0.00080  53.46115
   Y345      26.62624  -0.00306   0.00000  -0.00324  -0.00228  26.62396
   Z345      41.29052  -0.00207   0.00000  -0.00375  -0.00260  41.28792
   X346      51.64622  -0.02824   0.00000  -0.01933  -0.01939  51.62682
   Y346      28.79943   0.00850   0.00000   0.00818   0.00910  28.80852
   Z346      41.66846  -0.00136   0.00000  -0.00313  -0.00220  41.66627
   X347      34.27963   0.01131   0.00000   0.00975   0.01005  34.28968
   Y347      21.14604   0.00204   0.00000   0.00444   0.00441  21.15045
   Z347      37.85121  -0.01425   0.00000  -0.01258  -0.01137  37.83984
   X348      32.88123  -0.00667   0.00000  -0.00198  -0.00172  32.87951
   Y348      21.58067   0.00080   0.00000  -0.00085  -0.00083  21.57984
   Z348      38.90946   0.00566   0.00000  -0.00122  -0.00007  38.90939
   X349      35.41347  -0.00214   0.00000  -0.00430  -0.00399  35.40947
   Y349      20.23897   0.00256   0.00000   0.00570   0.00581  20.24478
   Z349      38.94726   0.00778   0.00000   0.00873   0.01004  38.95730
   X350      33.27808   0.00930   0.00000   0.00111   0.00088  33.27895
   Y350      44.95658   0.00227   0.00000   0.00751   0.00618  44.96277
   Z350      22.86569  -0.00608   0.00000  -0.00402  -0.00484  22.86084
   X351      32.99462  -0.00180   0.00000  -0.00303  -0.00326  32.99136
   Y351      45.69358   0.00250   0.00000   0.00392   0.00244  45.69602
   Z351      21.24052  -0.00728   0.00000  -0.00887  -0.00976  21.23076
   X352      31.65291  -0.01632   0.00000  -0.01271  -0.01296  31.63995
   Y352      44.97548  -0.00185   0.00000  -0.00233  -0.00365  44.97183
   Z352      23.67827   0.01008   0.00000   0.00970   0.00884  23.68710
   X353      28.96950  -0.01186   0.00000  -0.01243  -0.01210  28.95741
   Y353      21.46729  -0.01160   0.00000  -0.00709  -0.00751  21.45978
   Z353      35.47016   0.00360   0.00000   0.00002   0.00109  35.47125
   X354      30.14113   0.00691   0.00000   0.00558   0.00595  30.14708
   Y354      21.46729   0.00358   0.00000   0.00372   0.00323  21.47052
   Z354      34.09066  -0.00086   0.00000   0.00378   0.00488  34.09554
   X355      29.08289   0.00726   0.00000   0.00990   0.01015  29.09304
   Y355      23.14915   0.00728   0.00000   0.00326   0.00291  23.15205
   Z355      36.15046  -0.00012   0.00000  -0.00239  -0.00146  36.14900
   X356      45.92035  -0.00787   0.00000  -0.00907  -0.00942  45.91093
   Y356      30.61356   0.02288   0.00000   0.01914   0.02071  30.63427
   Z356      51.74070   0.03253   0.00000   0.02588   0.02653  51.76723
   X357      44.40856  -0.01003   0.00000  -0.00770  -0.00801  44.40056
   Y357      29.64980  -0.00624   0.00000  -0.00395  -0.00244  29.64736
   Z357      51.68401  -0.00568   0.00000  -0.00742  -0.00671  51.67730
   X358      46.82741   0.01779   0.00000   0.01754   0.01725  46.84466
   Y358      30.14113  -0.00390   0.00000   0.00231   0.00378  30.14492
   Z358      50.24782  -0.01032   0.00000   0.00826   0.00898  50.25680
   X359      32.40880   0.00625   0.00000   0.00413   0.00387  32.41268
   Y359      27.70339  -0.01355   0.00000  -0.01039  -0.00924  27.69415
   Z359      52.62887   0.00935   0.00000   0.00440   0.00502  52.63389
   X360      33.56154   0.00123   0.00000  -0.00241  -0.00270  33.55884
   Y360      28.89391   0.00875   0.00000   0.00607   0.00721  28.90112
   Z360      51.91078  -0.00647   0.00000  -0.00625  -0.00571  51.90507
   X361      30.78364  -0.00872   0.00000  -0.00310  -0.00336  30.78028
   Y361      28.28920   0.00890   0.00000   0.00800   0.00906  28.29826
   Z361      52.11865  -0.00474   0.00000  -0.00315  -0.00261  52.11603
   X362      50.11554  -0.00300   0.00000  -0.00327  -0.00391  50.11163
   Y362      50.66356  -0.00117   0.00000  -0.00131  -0.00125  50.66230
   Z362      32.12534   0.00678   0.00000   0.00475   0.00381  32.12915
   X363      50.47459   0.00186   0.00000   0.00202   0.00139  50.47597
   Y363      51.32496   0.00178   0.00000   0.00024   0.00017  51.32513
   Z363      30.48128  -0.00676   0.00000  -0.00318  -0.00417  30.47711
   X364      49.45413  -0.00047   0.00000   0.00032  -0.00025  49.45388
   Y364      49.00060  -0.00379   0.00000  -0.00460  -0.00460  48.99600
   Z364      31.78519  -0.00007   0.00000   0.00111   0.00029  31.78548
   X365      53.44146  -0.00710   0.00000  -0.01180  -0.01207  53.42939
   Y365      42.29207   0.00491   0.00000   0.00520   0.00510  42.29717
   Z365      28.91281  -0.02074   0.00000  -0.00850  -0.00867  28.90414
   X366      53.02572  -0.00159   0.00000   0.00237   0.00209  53.02780
   Y366      41.63067  -0.01127   0.00000  -0.01111  -0.01109  41.61958
   Z366      30.53797   0.02422   0.00000   0.01791   0.01779  30.55577
   X367      54.66978   0.00490   0.00000   0.00368   0.00336  54.67314
   Y367      43.57708   0.00223   0.00000  -0.00118  -0.00120  43.57588
   Z367      29.23406   0.00228   0.00000   0.00113   0.00088  29.23494
   X368      20.31456  -0.00911   0.00000  -0.00479  -0.00493  20.30963
   Y368      31.12379   0.00515   0.00000   0.00753   0.00728  31.13107
   Z368      41.13934  -0.00019   0.00000  -0.00354  -0.00348  41.13586
   X369      19.99330   0.00352   0.00000   0.00513   0.00492  19.99823
   Y369      32.29542  -0.00253   0.00000  -0.00217  -0.00232  32.29310
   Z369      42.49994  -0.00022   0.00000   0.00220   0.00216  42.50210
   X370      22.12869   0.00891   0.00000   0.00589   0.00576  22.13446
   Y370      31.12379  -0.00128   0.00000  -0.00246  -0.00266  31.12113
   Z370      40.96926   0.00028   0.00000   0.00094   0.00104  40.97031
   X371      41.30941   0.00885   0.00000   0.00374   0.00397  41.31338
   Y371      33.54264   0.00328   0.00000   0.00620   0.00496  33.54759
   Z371      20.44684  -0.01383   0.00000  -0.01582  -0.01550  20.43133
   X372      40.72360   0.00082   0.00000   0.00375   0.00391  40.72751
   Y372      35.24339   0.00853   0.00000   0.00977   0.00852  35.25192
   Z372      20.67360   0.00660   0.00000   0.01030   0.01045  20.68406
   X373      40.19447  -0.00156   0.00000   0.00600   0.00624  40.20072
   Y373      32.52219  -0.00923   0.00000  -0.00785  -0.00905  32.51314
   Z373      21.42949   0.00343   0.00000  -0.00199  -0.00161  21.42788
   X374      51.00371  -0.01170   0.00000  -0.01962  -0.01970  50.98401
   Y374      38.98505  -0.01956   0.00000  -0.01496  -0.01544  38.96961
   Z374      25.32233   0.00158   0.00000   0.00548   0.00554  25.32787
   X375      51.32496   0.01627   0.00000   0.02712   0.02699  51.35195
   Y375      39.53307   0.01087   0.00000   0.01346   0.01313  39.54620
   Z375      27.02308   0.00199   0.00000  -0.00333  -0.00331  27.01978
   X376      50.83363   0.00021   0.00000   0.00112   0.00101  50.83464
   Y376      40.51573   0.00840   0.00000   0.00235   0.00178  40.51750
   Z376      24.37747   0.00047   0.00000   0.00479   0.00471  24.38218
   X377      23.99952  -0.00039   0.00000   0.00355   0.00338  24.00290
   Y377      41.44169   0.02255   0.00000   0.01512   0.01369  41.45539
   Z377      25.60579  -0.02280   0.00000  -0.01604  -0.01677  25.58902
   X378      24.84990   0.01110   0.00000   0.00694   0.00681  24.85671
   Y378      40.00550  -0.02056   0.00000  -0.00964  -0.01098  39.99452
   Z378      26.28609   0.01450   0.00000   0.01149   0.01091  26.29700
   X379      22.52554  -0.00503   0.00000  -0.00010  -0.00030  22.52524
   Y379      41.64956   0.00000   0.00000   0.00212   0.00073  41.65029
   Z379      26.62624   0.00565   0.00000   0.00202   0.00125  26.62749
   X380      36.81187  -0.00747   0.00000  -0.00512  -0.00616  36.80570
   Y380      56.91855   0.00248   0.00000   0.00063   0.00091  56.91946
   Z380      40.28896   0.00029   0.00000   0.00439   0.00263  40.29159
   X381      38.51262   0.00289   0.00000   0.00165   0.00059  38.51321
   Y381      57.52326  -0.00342   0.00000  -0.00572  -0.00537  57.51790
   Z381      40.49683   0.00025   0.00000   0.00102  -0.00075  40.49608
   X382      36.96304   0.00582   0.00000   0.00873   0.00776  36.97080
   Y382      55.10441  -0.00216   0.00000  -0.00125  -0.00097  55.10344
   Z382      40.32676   0.00103   0.00000   0.00251   0.00091  40.32766
   X383      51.24937   0.01481   0.00000   0.01045   0.00984  51.25921
   Y383      39.58976  -0.00308   0.00000  -0.00254  -0.00098  39.58878
   Z383      49.47303  -0.01353   0.00000  -0.01114  -0.01113  49.46190
   X384      50.28561  -0.01085   0.00000  -0.00877  -0.00945  50.27616
   Y384      41.10154   0.00747   0.00000   0.00073   0.00228  41.10383
   Z384      49.68090   0.00728   0.00000   0.00893   0.00880  49.68970
   X385      50.53128  -0.00517   0.00000  -0.00192  -0.00252  50.52876
   Y385      38.41813  -0.00401   0.00000  -0.00233  -0.00069  38.41744
   Z385      50.64466   0.00512   0.00000   0.00023   0.00033  50.64499
         Item               Value     Threshold  Converged?
 Maximum Force            0.037154     0.000450     NO 
 RMS     Force            0.010612     0.000300     NO 
 Maximum Displacement     0.028399     0.001800     NO 
 RMS     Displacement     0.008804     0.001200     NO 
 Predicted change in Energy=-7.424490D-02
 GradGradGradGradGradGradGradGradGradGradGradGradGradGradGradGradGradGrad

 Leave Link  103 at Fri May  4 22:53:17 2018, MaxMem= 14763950080 cpu:      2754.3
 (Enter /cm/shared/gaussian/g09.e01/intel64-sandybridge/g09/l9999.exe)
 1\1\GINC-POPLE07\Force\RPBE1PBE\CC-pVDZ\Br1H256O128(1-)\M.PELUSO\04-Ma
 y-2018\0\\#p PBE1PBE/cc-pvDZ force Counterpoise=2 noSymm\\forces on ch
 loride comput - NWATER: 128\\-1,1\Br,20.,20.,20.\O,17.99,20.92,22.01\H
 ,18.5,20.91,22.82\H,18.64,20.71,21.33\O,21.33,20.03,17.23\H,22.14,19.5
 5,17.38\H,20.89,20.02,18.08\O,22.8,21.4,19.71\H,23.25,20.73,20.21\H,21
 .89,21.11,19.67\O,17.33,19.75,18.29\H,16.62,19.55,18.9\H,18.02,20.11,1
 8.84\O,22.26,17.76,20.63\H,21.83,18.51,20.21\H,21.66,17.03,20.48\O,21.
 05,22.22,22.18\H,21.6,21.45,22.35\H,20.39,21.9,21.56\O,17.41,17.83,20.
 33\H,18.21,18.24,20.\H,17.08,17.31,19.59\O,20.34,18.44,23.21\H,19.88,1
 9.11,23.71\H,20.34,18.77,22.31\O,18.87,18.28,16.66\H,19.61,18.82,16.93
 \H,18.1,18.84,16.79\O,18.17,22.96,17.59\H,18.64,22.83,18.41\H,17.95,23
 .9,17.58\O,18.83,16.14,22.17\H,19.52,15.94,21.53\H,18.51,17.,21.92\O,1
 9.12,23.78,20.15\H,19.07,24.45,20.83\H,19.93,23.97,19.68\O,16.38,22.93
 ,20.81\H,17.07,22.65,20.2\H,16.41,22.27,21.51\O,24.04,19.8,21.43\H,23.
 71,20.18,22.25\H,23.58,18.96,21.36\O,19.79,22.02,15.69\H,20.23,21.37,1
 6.23\H,19.26,22.53,16.3\O,16.31,18.77,22.6\H,16.38,19.72,22.65\H,16.55
 ,18.57,21.69\O,23.24,22.53,17.28\H,23.93,23.13,17.56\H,23.17,21.89,17.
 99\O,20.55,15.79,20.16\H,20.26,15.83,19.25\H,20.6,14.86,20.36\O,22.7,2
 4.03,21.01\H,22.57,23.5,20.23\H,22.1,23.65,21.66\O,20.02,16.05,17.27\H
 ,19.48,15.34,16.92\H,19.63,16.84,16.91\O,23.65,18.56,17.71\H,23.84,17.
 7,17.34\H,24.31,19.13,17.33\O,23.44,16.95,22.89\H,23.07,17.3,22.08\H,2
 2.68,16.66,23.39\O,17.02,16.44,18.03\H,17.67,16.92,17.51\H,16.37,16.16
 ,17.39\O,21.2,24.2,18.21\H,21.89,23.66,17.82\H,21.53,25.09,18.16\O,22.
 98,20.65,23.87\H,23.22,21.09,24.69\H,22.48,19.89,24.15\O,16.9,20.34,15
 .47\H,17.61,20.97,15.47\H,16.75,20.15,16.4\O,20.98,16.11,24.02\H,20.54
 ,16.9,23.73\H,20.45,15.4,23.66\O,18.99,20.5,24.8\H,18.99,21.35,25.24\H
 ,18.36,19.98,25.3\O,24.98,16.88,19.28\H,24.35,17.54,18.98\H,24.74,16.0
 9,18.79\O,25.73,22.49,20.77\H,26.09,22.37,21.65\H,24.84,22.14,20.82\O,
 22.47,18.34,14.81\H,22.63,19.05,15.43\H,21.67,18.59,14.36\O,22.08,21.5
 9,14.48\H,22.21,21.8,15.4\H,21.16,21.81,14.31\O,16.96,16.47,24.05\H,17
 .75,16.37,23.51\H,16.52,17.24,23.68\O,14.56,19.45,18.82\H,13.88,19.9,1
 8.3\H,14.86,18.74,18.25\O,22.98,16.04,16.4\H,22.65,16.83,15.98\H,22.35
 ,15.85,17.1\O,19.74,18.1,13.96\H,19.18,18.85,13.73\H,19.46,17.86,14.85
 \O,26.34,19.4,19.67\H,26.24,18.45,19.6\H,25.61,19.68,20.24\O,14.7,22.5
 1,17.2\H,13.92,22.67,17.74\H,15.44,22.72,17.78\O,13.34,19.55,21.18\H,1
 3.41,20.49,21.37\H,14.02,19.39,20.52\O,15.86,14.06,19.2\H,15.45,14.17,
 18.34\H,16.41,14.84,19.3\O,25.11,20.31,15.86\H,25.57,20.25,15.02\H,24.
 64,21.15,15.82\O,18.39,23.27,25.46\H,18.69,23.96,24.86\H,17.45,23.4,25
 .54\O,20.19,25.58,24.17\H,20.19,26.,25.03\H,20.77,24.83,24.27\O,25.48,
 15.74,21.64\H,25.34,16.03,20.74\H,24.89,16.28,22.16\O,25.35,24.1,18.39
 \H,25.59,24.95,18.77\H,25.45,23.49,19.12\O,19.16,26.26,21.96\H,19.51,2
 6.04,22.82\H,19.91,26.59,21.47\O,13.89,22.28,22.11\H,14.4,23.07,21.97\
 H,13.29,22.5,22.83\O,13.88,16.5,22.06\H,14.11,17.43,22.08\H,14.02,16.2
 ,22.96\O,20.47,13.24,20.54\H,20.76,12.35,20.35\H,19.53,13.23,20.38\O,1
 4.22,20.45,15.2\H,15.18,20.47,15.17\H,13.99,21.14,15.83\O,16.86,13.55,
 23.17\H,15.98,13.64,22.81\H,17.33,14.32,22.86\O,16.62,26.84,19.81\H,16
 .75,27.69,20.22\H,17.03,26.22,20.41\O,18.57,17.91,27.31\H,19.14,17.75,
 26.55\H,19.1,17.65,28.06\O,23.93,14.27,18.94\H,23.3,13.73,19.42\H,24.4
 2,13.65,18.4\O,23.36,26.52,23.01\H,22.97,27.03,23.72\H,22.96,25.66,23.
 08\O,24.54,26.57,20.33\H,24.64,26.73,21.26\H,23.79,25.99,20.26\O,27.44
 ,20.84,17.59\H,27.55,20.45,18.46\H,26.6,20.51,17.28\O,22.3,26.4,17.75\
 H,22.43,27.3,18.04\H,22.52,26.41,16.82\O,21.05,16.93,26.9\H,20.79,16.3
 ,27.58\H,21.14,16.4,26.11\O,14.15,17.06,16.98\H,13.5,17.7,17.28\H,13.6
 4,16.27,16.82\O,18.42,14.6,15.45\H,18.9,14.14,14.76\H,17.58,14.82,15.0
 5\O,21.96,24.06,25.68\H,21.94,23.32,26.28\H,21.9,24.83,26.24\O,14.47,2
 5.38,22.\H,15.41,25.32,21.81\H,14.31,26.31,22.1\O,23.46,25.39,15.19\H,
 24.34,25.36,14.8\H,23.2,24.47,15.25\O,18.27,20.2,12.84\H,19.06,20.61,1
 2.48\H,17.71,20.93,13.1\O,15.71,24.92,16.22\H,15.14,24.18,16.4\H,16.14
 ,24.7,15.39\O,15.08,20.09,25.73\H,14.54,19.93,24.95\H,14.49,20.51,26.3
 5\O,21.74,20.47,11.91\H,21.73,20.71,12.84\H,21.8,21.31,11.45\O,23.19,1
 4.56,25.33\H,22.48,14.71,24.7\H,22.83,13.92,25.94\O,25.68,15.16,16.47\
 H,24.79,15.48,16.31\H,25.9,14.65,15.7\O,13.16,19.18,24.06\H,12.32,18.7
 3,24.11\H,13.12,19.66,23.23\O,22.59,13.35,15.53\H,22.29,12.83,16.27\H,
 22.84,14.19,15.92\O,24.96,17.02,13.71\H,24.17,17.35,14.14\H,25.07,17.5
 9,12.94\O,13.43,15.2,19.75\H,13.7,15.63,20.55\H,13.71,14.29,19.86\O,21
 .31,13.25,23.51\H,22.07,13.2,22.93\H,20.68,12.63,23.14\O,14.35,15.41,2
 4.56\H,14.58,14.51,24.79\H,15.2,15.84,24.42\O,28.58,19.73,21.24\H,27.6
 7,19.88,21.02\H,29.04,20.53,20.97\O,21.34,27.58,21.19\H,21.65,27.77,20
 .31\H,22.13,27.55,21.73\O,22.73,18.92,27.55\H,23.52,18.39,27.71\H,22.0
 5,18.28,27.34\O,23.62,12.77,21.49\H,24.17,12.01,21.69\H,24.22,13.51,21
 .5\O,20.31,15.92,12.26\H,20.36,16.68,12.84\H,19.54,16.07,11.72\O,16.53
 ,21.4,27.97\H,16.28,20.64,28.51\H,16.73,21.02,27.12\O,16.11,15.66,14.0
 3\H,16.09,15.19,13.19\H,16.49,16.51,13.82\O,16.08,24.32,25.62\H,15.46,
 23.6,25.54\H,15.56,25.11,25.43\O,22.22,21.65,27.6\H,23.03,21.93,28.03\
 H,22.23,20.7,27.67\O,19.99,22.97,12.31\H,19.17,23.46,12.32\H,20.61,23.
 51,12.8\O,16.12,18.25,12.92\H,16.6,19.07,12.78\H,15.93,17.92,12.04\O,1
 3.56,17.67,14.37\H,14.29,17.99,13.84\H,13.83,17.84,15.27\O,11.09,19.44
 ,19.82\H,11.93,19.31,20.26\H,10.44,19.25,20.5\O,17.77,27.78,23.78\H,18
 .19,27.28,23.08\H,18.39,28.48,23.98\O,27.19,22.42,22.88\H,27.91,21.99,
 23.34\H,26.76,22.95,23.55\O,19.79,22.47,28.33\H,20.59,22.12,27.94\H,19
 .3,22.84,27.59\O,15.94,18.27,27.55\H,15.68,18.92,26.9\H,16.79,17.96,27
 .26\O,25.85,15.63,25.37\H,26.42,16.22,24.88\H,25.,15.71,24.94\O,12.36,
 22.94,18.95\H,12.01,22.49,19.72\H,12.68,23.77,19.28\O,27.31,17.37,23.8
 8\H,27.07,18.29,24.04\H,28.2,17.41,23.55\O,20.12,28.09,15.93\H,20.05,2
 8.67,16.69\H,20.71,27.4,16.2\O,28.55,22.64,20.64\H,28.34,23.37,20.06\H
 ,27.86,22.64,21.29\O,25.99,24.85,24.13\H,26.39,25.42,24.78\H,25.39,25.
 42,23.65\O,25.08,23.04,26.68\H,24.98,23.57,25.89\H,24.49,23.44,27.31\O
 ,14.9,14.03,16.13\H,14.64,13.2,15.73\H,15.34,14.51,15.43\O,21.96,14.18
 ,13.05\H,21.28,14.79,12.78\H,22.,14.25,14.\O,11.96,18.48,17.37\H,11.48
 ,17.66,17.26\H,11.51,18.93,18.09\O,12.52,25.32,19.98\H,11.64,25.5,20.3
 3\H,13.01,24.99,20.74\O,28.9,16.94,20.13\H,28.36,17.64,20.48\H,28.86,1
 6.25,20.79\O,19.15,11.3,22.82\H,18.9,12.05,23.36\H,18.68,10.56,23.22\O
 ,13.93,27.07,18.22\H,13.4,26.45,18.73\H,14.83,26.84,18.43\O,17.84,12.3
 6,25.22\H,17.41,13.01,24.66\H,17.13,11.77,25.48\O,28.56,18.34,15.78\H,
 27.7,18.74,15.94\H,28.6,18.24,14.83\O,17.13,24.21,28.09\H,16.94,24.3,2
 7.15\H,17.36,23.29,28.2\O,15.29,23.57,13.36\H,14.61,22.92,13.18\H,14.8
 4,24.28,13.8\O,27.95,25.49,21.85\H,27.28,24.88,21.53\H,28.19,25.14,22.
 71\O,27.97,15.31,17.93\H,27.74,15.6,18.81\H,27.14,15.3,17.45\O,22.03,1
 1.63,17.49\H,21.18,11.44,17.11\H,22.62,10.99,17.09\O,28.26,15.03,22.04
 \H,28.29,14.09,21.85\H,27.33,15.24,22.05\O,18.14,11.19,20.03\H,17.4,11
 .42,20.59\H,18.74,10.71,20.61\O,17.61,23.79,12.1\H,17.46,24.18,11.24\H
 ,16.75,23.8,12.53\O,15.33,11.36,18.77\H,15.95,11.36,18.04\H,15.39,12.2
 5,19.13\O,24.3,16.2,27.38\H,23.5,15.69,27.35\H,24.78,15.95,26.59\O,17.
 15,14.66,27.85\H,17.76,15.29,27.47\H,16.29,14.97,27.58\O,26.52,26.81,1
 7.\H,26.71,27.16,16.13\H,26.17,25.93,16.82\O,28.28,22.38,15.3\H,28.06,
 22.03,16.16\H,28.93,23.06,15.47\O,10.75,16.47,21.77\H,10.58,17.09,22.4
 9\H,11.71,16.47,21.68\O,21.86,17.75,10.82\H,21.55,18.65,10.94\H,21.27,
 17.21,11.34\O,26.99,20.63,13.4\H,27.16,20.92,14.3\H,26.9,21.44,12.9\O,
 12.7,21.93,13.55\H,13.15,21.17,13.91\H,11.92,22.04,14.09\O,19.48,30.12
 ,21.32\H,20.38,30.44,21.43\H,19.56,29.16,21.34\O,27.12,20.95,26.18\H,2
 6.61,21.75,26.29\H,26.74,20.33,26.8\\Version=ES64L-G09RevE.01\HF=-9773
 .3288971\RMSD=1.909e-09\RMSF=1.061e-02\Dipole=-9.1900559,7.7001204,5.4
 000128\Quadrupole=-932.4150204,645.0577901,287.3572303,-1390.6770464,-
 1534.9901988,-883.9987779\PG=C01 [X(Br1H256O128)]\\@


 HE THAT WALD REACHE THE SWEITE ROSE
 SULD NOW AND THEN BE SCRATCHED WT THE SCHARPE BREERES.
 -- PROVERBS AND REASONS OF THE YEAR 1585
           AS REPRINTED IN PAISLEY MAGAZINE 1828.
 Job cpu time:       7 days  4 hours 19 minutes 13.9 seconds.
 File lengths (MBytes):  RWF=   7285 Int=      0 D2E=      0 Chk=   2411 Scr=      1
 Normal termination of Gaussian 09 at Fri May  4 22:53:43 2018.
