 Entering Gaussian System, Link 0=/cm/shared/gaussian/g09.e01/intel64-sandybridge/g09/g09
 Initial command:
 /cm/shared/gaussian/g09.e01/intel64-sandybridge/g09/l1.exe "/local/scratch/m.peluso/128_wat/370/Gau-34992.inp" -scrdir="/local/scratch/m.peluso/128_wat/370/"
 Entering Link 1 = /cm/shared/gaussian/g09.e01/intel64-sandybridge/g09/l1.exe PID=     34993.
  
 Copyright (c) 1988,1990,1992,1993,1995,1998,2003,2009,2015,
            Gaussian, Inc.  All Rights Reserved.
  
 This is part of the Gaussian(R) 09 program.  It is based on
 the Gaussian(R) 03 system (copyright 2003, Gaussian, Inc.),
 the Gaussian(R) 98 system (copyright 1998, Gaussian, Inc.),
 the Gaussian(R) 94 system (copyright 1995, Gaussian, Inc.),
 the Gaussian 92(TM) system (copyright 1992, Gaussian, Inc.),
 the Gaussian 90(TM) system (copyright 1990, Gaussian, Inc.),
 the Gaussian 88(TM) system (copyright 1988, Gaussian, Inc.),
 the Gaussian 86(TM) system (copyright 1986, Carnegie Mellon
 University), and the Gaussian 82(TM) system (copyright 1983,
 Carnegie Mellon University). Gaussian is a federally registered
 trademark of Gaussian, Inc.
  
 This software contains proprietary and confidential information,
 including trade secrets, belonging to Gaussian, Inc.
  
 This software is provided under written license and may be
 used, copied, transmitted, or stored only in accord with that
 written license.
  
 The following legend is applicable only to US Government
 contracts under FAR:
  
                    RESTRICTED RIGHTS LEGEND
  
 Use, reproduction and disclosure by the US Government is
 subject to restrictions as set forth in subparagraphs (a)
 and (c) of the Commercial Computer Software - Restricted
 Rights clause in FAR 52.227-19.
  
 Gaussian, Inc.
 340 Quinnipiac St., Bldg. 40, Wallingford CT 06492
  
  
 ---------------------------------------------------------------
 Warning -- This program may not be used in any manner that
 competes with the business of Gaussian, Inc. or will provide
 assistance to any competitor of Gaussian, Inc.  The licensee
 of this program is prohibited from giving any competitor of
 Gaussian, Inc. access to this program.  By using this program,
 the user acknowledges that Gaussian, Inc. is engaged in the
 business of creating and licensing software in the field of
 computational chemistry and represents and warrants to the
 licensee that it is not a competitor of Gaussian, Inc. and that
 it will not use this program in any manner prohibited above.
 ---------------------------------------------------------------
  

 Cite this work as:
 Gaussian 09, Revision E.01,
 M. J. Frisch, G. W. Trucks, H. B. Schlegel, G. E. Scuseria, 
 M. A. Robb, J. R. Cheeseman, G. Scalmani, V. Barone, B. Mennucci, 
 G. A. Petersson, H. Nakatsuji, M. Caricato, X. Li, H. P. Hratchian, 
 A. F. Izmaylov, J. Bloino, G. Zheng, J. L. Sonnenberg, M. Hada, 
 M. Ehara, K. Toyota, R. Fukuda, J. Hasegawa, M. Ishida, T. Nakajima, 
 Y. Honda, O. Kitao, H. Nakai, T. Vreven, J. A. Montgomery, Jr., 
 J. E. Peralta, F. Ogliaro, M. Bearpark, J. J. Heyd, E. Brothers, 
 K. N. Kudin, V. N. Staroverov, T. Keith, R. Kobayashi, J. Normand, 
 K. Raghavachari, A. Rendell, J. C. Burant, S. S. Iyengar, J. Tomasi, 
 M. Cossi, N. Rega, J. M. Millam, M. Klene, J. E. Knox, J. B. Cross, 
 V. Bakken, C. Adamo, J. Jaramillo, R. Gomperts, R. E. Stratmann, 
 O. Yazyev, A. J. Austin, R. Cammi, C. Pomelli, J. W. Ochterski, 
 R. L. Martin, K. Morokuma, V. G. Zakrzewski, G. A. Voth, 
 P. Salvador, J. J. Dannenberg, S. Dapprich, A. D. Daniels, 
 O. Farkas, J. B. Foresman, J. V. Ortiz, J. Cioslowski, 
 and D. J. Fox, Gaussian, Inc., Wallingford CT, 2013.
 
 ******************************************
 Gaussian 09:  ES64L-G09RevE.01 30-Nov-2015
                 5-May-2018 
 ******************************************
 %Mem=110GB
 %NProcShared=64
 Will use up to   64 processors via shared memory.
 %chk=snap22.chk
 ----------------------------------------------
 #p PBE1PBE/cc-pvDZ force Counterpoise=2 noSymm
 ----------------------------------------------
 1/10=7,30=1,38=1,62=2/1,3;
 2/12=2,15=1,17=6,18=5,40=1/2;
 1/10=7,30=1,38=1,53=2,62=2,63=101/22;
 3/5=16,11=2,16=1,25=1,30=1,71=1,74=-13/1,2,3;
 4//1;
 5/5=2,38=5/2;
 6/7=2,8=2,9=2,10=2,28=1/1;
 7/7=1,29=1,30=1,33=-1/1,2,3,16;
 1/10=7,30=1,53=2,62=2,63=101/22;
 3/5=7,6=11,11=2,16=1,25=1,30=1,71=1,74=-13,82=7/1,2,3;
 4//1;
 5/5=2,38=5/2;
 6/7=2,8=2,9=2,10=2,28=1/1;
 7/7=1,29=1,30=1,33=-1/1,2,3,16;
 1/10=7,30=1,53=2,62=2,63=101/22(-5);
 7/9=1,29=1,44=-1/16;
 1/10=7,30=1,62=2/3;
 99//99;
 Leave Link    1 at Sat May  5 03:17:07 2018, MaxMem= 14763950080 cpu:         8.7
 (Enter /cm/shared/gaussian/g09.e01/intel64-sandybridge/g09/l101.exe)
 ---------------------------------------
 forces on chloride comput - NWATER: 128
 ---------------------------------------
 Symbolic Z-matrix:
 Charge = -1 Multiplicity = 1 in supermolecule
 Charge = -1 Multiplicity = 1 in fragment      1.
 Charge =  0 Multiplicity = 1 in fragment      2.
 Br(Fragment=1)        20.       20.       20. 
 O(Fragment=2)         22.8      18.62     19.95 
 H(Fragment=2)         21.97     19.07     19.82 
 H(Fragment=2)         22.68     18.1      20.74 
 O(Fragment=2)         22.5      21.96     20.75 
 H(Fragment=2)         21.9      21.21     20.69 
 H(Fragment=2)         21.98     22.7      20.44 
 O(Fragment=2)         21.42     18.43     22.43 
 H(Fragment=2)         20.85     18.55     21.67 
 H(Fragment=2)         21.11     19.08     23.07 
 O(Fragment=2)         19.72     23.08     21.4 
 H(Fragment=2)         19.73     22.25     20.93 
 H(Fragment=2)         19.82     22.84     22.32 
 O(Fragment=2)         17.34     18.92     21.59 
 H(Fragment=2)         17.93     18.9      20.83 
 H(Fragment=2)         17.57     19.72     22.06 
 O(Fragment=2)         20.03     17.92     17.23 
 H(Fragment=2)         20.13     18.59     17.9 
 H(Fragment=2)         19.95     17.1      17.71 
 O(Fragment=2)         18.75     21.16     16.96 
 H(Fragment=2)         18.53     20.51     17.63 
 H(Fragment=2)         19.66     21.41     17.16 
 O(Fragment=2)         16.81     17.93     17.92 
 H(Fragment=2)         16.94     18.72     18.45 
 H(Fragment=2)         16.86     18.23     17.01 
 O(Fragment=2)         17.11     22.9      18.36 
 H(Fragment=2)         17.4      22.71     19.25 
 H(Fragment=2)         17.45     22.17     17.84 
 O(Fragment=2)         24.08     20.25     18.41 
 H(Fragment=2)         23.77     19.58     19.02 
 H(Fragment=2)         23.53     21.01     18.58 
 O(Fragment=2)         15.29     20.21     19.92 
 H(Fragment=2)         16.03     19.61     19.97 
 H(Fragment=2)         14.89     20.16     20.78 
 O(Fragment=2)         17.72     21.71     22.8 
 H(Fragment=2)         17.23     22.04     22.05 
 H(Fragment=2)         17.74     22.45     23.42 
 O(Fragment=2)         20.5      20.12     24.41 
 H(Fragment=2)         20.82     20.98     24.15 
 H(Fragment=2)         20.31     20.21     25.35 
 O(Fragment=2)         17.52     16.85     23.65 
 H(Fragment=2)         18.02     17.24     22.93 
 H(Fragment=2)         17.05     16.12     23.24 
 O(Fragment=2)         22.61     15.88     22.21 
 H(Fragment=2)         23.46     16.32     22.15 
 H(Fragment=2)         22.       16.57     22.47 
 O(Fragment=2)         16.98     19.41     24.7 
 H(Fragment=2)         17.06     18.52     24.37 
 H(Fragment=2)         17.63     19.92     24.22 
 O(Fragment=2)         18.28     18.13     14.79 
 H(Fragment=2)         18.72     18.25     15.63 
 H(Fragment=2)         18.49     17.24     14.53 
 O(Fragment=2)         24.98     22.54     22.13 
 H(Fragment=2)         24.16     22.19     21.76 
 H(Fragment=2)         25.22     23.25     21.53 
 O(Fragment=2)         18.23     25.66     20.71 
 H(Fragment=2)         18.79     26.37     21.02 
 H(Fragment=2)         18.79     24.88     20.74 
 O(Fragment=2)         22.64     25.       21.57 
 H(Fragment=2)         22.26     24.19     21.91 
 H(Fragment=2)         23.23     25.29     22.26 
 O(Fragment=2)         22.22     17.45     24.99 
 H(Fragment=2)         21.82     17.47     24.12 
 H(Fragment=2)         22.4      18.37     25.19 
 O(Fragment=2)         24.17     19.       15.88 
 H(Fragment=2)         24.01     19.5      16.68 
 H(Fragment=2)         23.99     19.62     15.17 
 O(Fragment=2)         16.22     23.49     21.3 
 H(Fragment=2)         16.52     23.91     20.49 
 H(Fragment=2)         15.27     23.6      21.29 
 O(Fragment=2)         19.13     14.77     19.38 
 H(Fragment=2)         18.99     14.38     18.52 
 H(Fragment=2)         19.99     14.44     19.66 
 O(Fragment=2)         14.4      19.47     22.53 
 H(Fragment=2)         15.31     19.65     22.79 
 H(Fragment=2)         13.93     19.39     23.36 
 O(Fragment=2)         16.93     14.74     21.11 
 H(Fragment=2)         16.55     14.11     20.51 
 H(Fragment=2)         17.7      15.07     20.65 
 O(Fragment=2)         21.29     17.64     14.56 
 H(Fragment=2)         21.17     17.22     15.41 
 H(Fragment=2)         22.18     17.99     14.58 
 O(Fragment=2)         14.09     17.36     20.82 
 H(Fragment=2)         14.99     17.62     20.6 
 H(Fragment=2)         13.76     18.07     21.38 
 O(Fragment=2)         21.58     26.28     19.59 
 H(Fragment=2)         22.38     26.64     19.98 
 H(Fragment=2)         21.47     25.43     20.02 
 O(Fragment=2)         21.22     23.01     24.65 
 H(Fragment=2)         21.63     23.85     24.47 
 H(Fragment=2)         21.37     22.86     25.59 
 O(Fragment=2)         23.93     15.25     17.93 
 H(Fragment=2)         23.77     16.18     17.8 
 H(Fragment=2)         24.87     15.19     18.11 
 O(Fragment=2)         21.54     24.12     16.2 
 H(Fragment=2)         22.3      24.26     16.76 
 H(Fragment=2)         21.19     25.       16.05 
 O(Fragment=2)         26.53     20.08     21.47 
 H(Fragment=2)         26.39     21.03     21.46 
 H(Fragment=2)         25.78     19.72     21. 
 O(Fragment=2)         19.36     23.79     14.46 
 H(Fragment=2)         19.85     23.33     15.14 
 H(Fragment=2)         19.81     24.63     14.36 
 O(Fragment=2)         15.77     15.64     16.91 
 H(Fragment=2)         16.16     16.39     17.36 
 H(Fragment=2)         14.85     15.88     16.81 
 O(Fragment=2)         24.05     23.9      18.14 
 H(Fragment=2)         24.13     24.45     17.37 
 H(Fragment=2)         24.42     24.42     18.85 
 O(Fragment=2)         21.18     13.8      20.99 
 H(Fragment=2)         21.8      14.46     21.3 
 H(Fragment=2)         21.73     13.06     20.73 
 O(Fragment=2)         16.65     23.42     15.48 
 H(Fragment=2)         17.52     23.3      15.11 
 H(Fragment=2)         16.79     23.57     16.41 
 O(Fragment=2)         17.29     24.26     23.78 
 H(Fragment=2)         16.91     24.17     24.65 
 H(Fragment=2)         16.63     23.89     23.19 
 O(Fragment=2)         23.16     21.71     14.69 
 H(Fragment=2)         22.48     22.34     14.93 
 H(Fragment=2)         22.74     21.12     14.07 
 O(Fragment=2)         25.62     22.34     16.22 
 H(Fragment=2)         25.2      22.25     15.37 
 H(Fragment=2)         24.92     22.2      16.86 
 O(Fragment=2)         26.19     22.86     19.39 
 H(Fragment=2)         27.04     22.46     19.21 
 H(Fragment=2)         25.64     22.58     18.66 
 O(Fragment=2)         15.47     25.27     17.95 
 H(Fragment=2)         15.27     25.47     17.04 
 H(Fragment=2)         15.92     24.43     17.92 
 O(Fragment=2)         25.78     17.41     17.25 
 H(Fragment=2)         26.61     17.7      17.63 
 H(Fragment=2)         25.36     18.22     16.94 
 O(Fragment=2)         12.88     20.16     18.48 
 H(Fragment=2)         12.29     20.91     18.48 
 H(Fragment=2)         13.65     20.46     18.95 
 O(Fragment=2)         25.22     16.67     21.89 
 H(Fragment=2)         25.93     16.22     21.43 
 H(Fragment=2)         25.65     17.11     22.62 
 O(Fragment=2)         15.2      20.91     14.97 
 H(Fragment=2)         15.17     21.16     14.05 
 H(Fragment=2)         15.66     21.63     15.4 
 O(Fragment=2)         23.42     20.03     25.61 
 H(Fragment=2)         24.32     19.78     25.41 
 H(Fragment=2)         23.46     20.98     25.74 
 O(Fragment=2)         17.76     20.6      13.01 
 H(Fragment=2)         17.63     21.31     13.64 
 H(Fragment=2)         17.96     19.84     13.55 
 O(Fragment=2)         21.46     13.99     16.49 
 H(Fragment=2)         21.69     14.36     15.63 
 H(Fragment=2)         22.19     14.22     17.06 
 O(Fragment=2)         17.79     16.81     26.49 
 H(Fragment=2)         17.01     16.55     26.99 
 H(Fragment=2)         17.47     16.95     25.6 
 O(Fragment=2)         19.14     25.65     25.27 
 H(Fragment=2)         18.31     26.06     25.53 
 H(Fragment=2)         18.91     25.11     24.51 
 O(Fragment=2)         15.38     22.01     25.59 
 H(Fragment=2)         15.85     21.2      25.42 
 H(Fragment=2)         15.16     21.98     26.52 
 O(Fragment=2)         13.26     17.12     18.16 
 H(Fragment=2)         12.98     18.02     18.3 
 H(Fragment=2)         13.74     16.88     18.95 
 O(Fragment=2)         18.81     13.83     16.72 
 H(Fragment=2)         18.29     13.94     15.92 
 H(Fragment=2)         19.72     13.86     16.42 
 O(Fragment=2)         16.08     26.55     22.1 
 H(Fragment=2)         16.9      26.13     21.83 
 H(Fragment=2)         15.73     26.94     21.31 
 O(Fragment=2)         14.78     15.46     22.51 
 H(Fragment=2)         14.34     16.12     21.96 
 H(Fragment=2)         15.15     14.84     21.88 
 O(Fragment=2)         21.22     13.57     24.32 
 H(Fragment=2)         21.7      14.12     23.7 
 H(Fragment=2)         20.37     14.       24.42 
 O(Fragment=2)         24.59     13.72     22.32 
 H(Fragment=2)         24.06     14.51     22.19 
 H(Fragment=2)         25.39     13.88     21.83 
 O(Fragment=2)         15.96     17.71     13.24 
 H(Fragment=2)         15.14     18.11     13.52 
 H(Fragment=2)         16.59     17.95     13.93 
 O(Fragment=2)         24.21     25.12     23.87 
 H(Fragment=2)         25.03     25.62     23.87 
 H(Fragment=2)         24.49     24.21     23.85 
 O(Fragment=2)         20.24     15.55     26.39 
 H(Fragment=2)         19.38     15.94     26.54 
 H(Fragment=2)         20.81     16.29     26.19 
 O(Fragment=2)         13.64     23.65     21.1 
 H(Fragment=2)         13.12     23.03     20.59 
 H(Fragment=2)         13.24     24.5      20.93 
 O(Fragment=2)         13.83     18.09     15.31 
 H(Fragment=2)         13.54     17.88     16.2 
 H(Fragment=2)         14.22     18.96     15.39 
 O(Fragment=2)         26.24     22.54     24.75 
 H(Fragment=2)         27.06     23.04     24.67 
 H(Fragment=2)         25.92     22.47     23.85 
 O(Fragment=2)         18.19     15.44     14.27 
 H(Fragment=2)         18.83     14.83     13.9 
 H(Fragment=2)         17.35     15.14     13.93 
 O(Fragment=2)         13.28     22.46     23.99 
 H(Fragment=2)         13.4      21.72     23.39 
 H(Fragment=2)         13.79     22.23     24.76 
 O(Fragment=2)         25.54     16.85     24.76 
 H(Fragment=2)         24.76     17.01     25.28 
 H(Fragment=2)         25.6      15.9      24.7 
 O(Fragment=2)         14.77     13.41     18.33 
 H(Fragment=2)         15.45     12.84     17.96 
 H(Fragment=2)         15.05     14.3      18.09 
 O(Fragment=2)         22.12     22.67     27.02 
 H(Fragment=2)         22.55     23.28     27.62 
 H(Fragment=2)         21.59     22.11     27.59 
 O(Fragment=2)         19.91     16.66     12.14 
 H(Fragment=2)         19.31     16.19     12.71 
 H(Fragment=2)         20.45     17.19     12.73 
 O(Fragment=2)         14.45     25.12     23.66 
 H(Fragment=2)         14.28     24.28     23.24 
 H(Fragment=2)         15.04     25.57     23.06 
 O(Fragment=2)         13.22     22.99     15.95 
 H(Fragment=2)         12.49     22.65     15.44 
 H(Fragment=2)         13.99     22.53     15.63 
 O(Fragment=2)         19.32     27.63     22.39 
 H(Fragment=2)         19.26     28.58     22.43 
 H(Fragment=2)         20.17     27.42     22.77 
 O(Fragment=2)         22.83     20.21     12.58 
 H(Fragment=2)         23.45     20.41     11.88 
 H(Fragment=2)         21.97     20.29     12.17 
 O(Fragment=2)         25.03     13.05     19.17 
 H(Fragment=2)         24.94     12.23     19.66 
 H(Fragment=2)         24.14     13.27     18.91 
 O(Fragment=2)         17.75     27.55     17.23 
 H(Fragment=2)         17.32     28.22     16.71 
 H(Fragment=2)         17.04     27.04     17.61 
 O(Fragment=2)         20.3      26.47     15.27 
 H(Fragment=2)         19.88     26.97     15.98 
 H(Fragment=2)         20.8      27.13     14.78 
 O(Fragment=2)         16.       14.11     25.13 
 H(Fragment=2)         15.15     13.84     25.48 
 H(Fragment=2)         15.8      14.84     24.54 
 O(Fragment=2)         26.58     25.68     18.84 
 H(Fragment=2)         27.17     26.05     19.5 
 H(Fragment=2)         26.44     24.77     19.11 
 O(Fragment=2)         20.67     28.21     17.48 
 H(Fragment=2)         19.75     28.2      17.72 
 H(Fragment=2)         21.12     27.79     18.21 
 O(Fragment=2)         25.93     15.7      15.07 
 H(Fragment=2)         25.41     15.02     15.49 
 H(Fragment=2)         25.78     16.48     15.6 
 O(Fragment=2)         24.95     23.71     13.88 
 H(Fragment=2)         25.41     23.64     13.04 
 H(Fragment=2)         24.28     23.03     13.85 
 O(Fragment=2)         23.55     19.98     28.29 
 H(Fragment=2)         23.52     19.95     27.34 
 H(Fragment=2)         22.64     20.07     28.56 
 O(Fragment=2)         24.39     25.45     15.83 
 H(Fragment=2)         23.64     25.97     15.55 
 H(Fragment=2)         24.56     24.85     15.1 
 O(Fragment=2)         13.93     26.54     20.05 
 H(Fragment=2)         14.44     27.3      19.78 
 H(Fragment=2)         14.3      25.81     19.54 
 O(Fragment=2)         20.16     20.77     11.43 
 H(Fragment=2)         20.14     19.96     10.91 
 H(Fragment=2)         19.32     20.78     11.89 
 O(Fragment=2)         26.83     15.41     20.57 
 H(Fragment=2)         27.52     14.93     21.03 
 H(Fragment=2)         26.38     14.74     20.06 
 O(Fragment=2)         22.48     14.91     13.92 
 H(Fragment=2)         22.37     15.45     13.14 
 H(Fragment=2)         23.27     14.39     13.75 
 O(Fragment=2)         24.2      18.03     12.63 
 H(Fragment=2)         24.4      17.77     11.73 
 H(Fragment=2)         23.46     18.63     12.55 
 O(Fragment=2)         20.81     20.46     28.75 
 H(Fragment=2)         20.74     20.07     29.62 
 H(Fragment=2)         19.93     20.37     28.37 
 O(Fragment=2)         13.31     19.35     25.05 
 H(Fragment=2)         12.42     19.62     25.29 
 H(Fragment=2)         13.68     19.01     25.86 
 O(Fragment=2)         19.45     11.36     22.08 
 H(Fragment=2)         20.05     11.92     22.57 
 H(Fragment=2)         18.89     10.96     22.74 
 O(Fragment=2)         23.83     17.06     27.96 
 H(Fragment=2)         23.29     16.87     27.19 
 H(Fragment=2)         23.75     18.01     28.07 
 O(Fragment=2)         26.6      24.92     22.19 
 H(Fragment=2)         26.88     24.56     23.03 
 H(Fragment=2)         27.31     24.69     21.58 
 O(Fragment=2)         11.97     23.01     18.61 
 H(Fragment=2)         11.14     23.47     18.6 
 H(Fragment=2)         12.36     23.19     17.75 
 O(Fragment=2)         21.4      11.32     17.69 
 H(Fragment=2)         21.76     12.06     17.19 
 H(Fragment=2)         20.67     11.01     17.16 
 O(Fragment=2)         27.91     20.87     15.15 
 H(Fragment=2)         27.25     21.46     15.53 
 H(Fragment=2)         27.4      20.27     14.61 
 O(Fragment=2)         15.83     28.33     19.66 
 H(Fragment=2)         16.72     28.03     19.85 
 H(Fragment=2)         15.91     28.79     18.82 
 O(Fragment=2)         26.87     18.58     13.92 
 H(Fragment=2)         27.2      17.78     14.32 
 H(Fragment=2)         25.92     18.43     13.85 
 O(Fragment=2)         18.49     24.2      11.46 
 H(Fragment=2)         18.05     23.55     10.91 
 H(Fragment=2)         18.76     23.71     12.23 
 O(Fragment=2)         17.22     11.85     18.36 
 H(Fragment=2)         17.96     11.6      18.91 
 H(Fragment=2)         17.47     11.58     17.48 
 O(Fragment=2)         29.11     19.69     23.11 
 H(Fragment=2)         29.48     18.96     22.62 
 H(Fragment=2)         28.35     19.96     22.59 
 O(Fragment=2)         25.43     27.26     21.29 
 H(Fragment=2)         24.53     27.38     21.6 
 H(Fragment=2)         25.71     26.44     21.7 
 O(Fragment=2)         28.01     23.66     15.98 
 H(Fragment=2)         28.48     22.82     15.96 
 H(Fragment=2)         27.1      23.43     16.15 
 O(Fragment=2)         16.82     25.61     12.81 
 H(Fragment=2)         17.49     25.09     12.35 
 H(Fragment=2)         16.89     25.32     13.72 
 O(Fragment=2)         18.2      17.44     29.15 
 H(Fragment=2)         17.69     18.22     29.38 
 H(Fragment=2)         18.07     17.34     28.2 
 O(Fragment=2)         15.38     13.23     15.17 
 H(Fragment=2)         15.37     13.58     16.06 
 H(Fragment=2)         14.76     13.77     14.69 
 O(Fragment=2)         18.31     22.95     28.17 
 H(Fragment=2)         18.96     23.32     28.77 
 H(Fragment=2)         17.64     23.63     28.09 
 O(Fragment=2)         22.76     11.52     19.95 
 H(Fragment=2)         22.5      10.64     20.25 
 H(Fragment=2)         22.5      11.55     19.03 
 O(Fragment=2)         19.57     10.62     19.64 
 H(Fragment=2)         20.13     11.12     19.05 
 H(Fragment=2)         19.54     11.14     20.45 
 O(Fragment=2)         18.63     13.11     25.84 
 H(Fragment=2)         19.22     13.66     26.35 
 H(Fragment=2)         17.82     13.6      25.79 
 O(Fragment=2)         23.       28.25     22.48 
 H(Fragment=2)         22.34     28.       23.13 
 H(Fragment=2)         23.28     29.13     22.74 
 O(Fragment=2)         14.35     18.22     27.46 
 H(Fragment=2)         15.2      17.82     27.28 
 H(Fragment=2)         14.18     18.04     28.38 
 O(Fragment=2)         24.65     13.88     25.08 
 H(Fragment=2)         24.58     13.5      24.21 
 H(Fragment=2)         24.16     13.27     25.64 
 O(Fragment=2)         28.81     16.18     18.55 
 H(Fragment=2)         28.54     16.83     17.9 
 H(Fragment=2)         28.08     16.12     19.16 
 O(Fragment=2)         22.99     11.4      22.94 
 H(Fragment=2)         23.57     12.16     22.89 
 H(Fragment=2)         22.59     11.46     23.81 
 O(Fragment=2)         15.72     19.58     10.93 
 H(Fragment=2)         16.27     19.75     11.7 
 H(Fragment=2)         16.24     19.91     10.2 
 O(Fragment=2)         28.29     16.52     24.43 
 H(Fragment=2)         27.93     15.72     24.82 
 H(Fragment=2)         27.53     17.07     24.26 
 O(Fragment=2)         12.86     15.52     14.9 
 H(Fragment=2)         13.44     15.24     14.19 
 H(Fragment=2)         13.15     16.4      15.12 
 O(Fragment=2)         21.       29.56     20.36 
 H(Fragment=2)         20.17     29.15     20.58 
 H(Fragment=2)         21.66     29.02     20.82 
 O(Fragment=2)         26.95     20.       26.42 
 H(Fragment=2)         27.87     19.76     26.32 
 H(Fragment=2)         26.88     20.86     26.01 
 O(Fragment=2)         25.69     13.23     16.58 
 H(Fragment=2)         24.86     12.86     16.28 
 H(Fragment=2)         25.64     13.19     17.53 
 O(Fragment=2)         10.82     19.88     20.59 
 H(Fragment=2)         10.65     19.94     19.65 
 H(Fragment=2)         10.69     18.96     20.8 
 O(Fragment=2)         17.54     20.47     29.38 
 H(Fragment=2)         17.85     21.21     28.87 
 H(Fragment=2)         17.95     20.58     30.24 
 O(Fragment=2)         16.68     15.53     11.73 
 H(Fragment=2)         16.64     16.35     12.23 
 H(Fragment=2)         16.9      15.81     10.84 
 O(Fragment=2)         13.81     24.73     26.07 
 H(Fragment=2)         13.99     24.81     25.14 
 H(Fragment=2)         13.22     23.98     26.13 
 O(Fragment=2)         15.29     21.84     28.5 
 H(Fragment=2)         15.27     21.96     29.45 
 H(Fragment=2)         16.17     21.49     28.33 
 
 NAtoms=    385 NQM=      385 NQMF=       0 NMMI=      0 NMMIF=      0
                NMic=       0 NMicF=      0.
                    Isotopes and Nuclear Properties:
 (Nuclear quadrupole moments (NQMom) in fm**2, nuclear magnetic moments (NMagM)
  in nuclear magnetons)

  Atom         1           2           3           4           5           6           7           8           9          10
 IAtWgt=          79          16           1           1          16           1           1          16           1           1
 AtmWgt=  78.9183361  15.9949146   1.0078250   1.0078250  15.9949146   1.0078250   1.0078250  15.9949146   1.0078250   1.0078250
 NucSpn=           3           0           1           1           0           1           1           0           1           1
 AtZEff=   0.0000000   0.0000000   0.0000000   0.0000000   0.0000000   0.0000000   0.0000000   0.0000000   0.0000000   0.0000000
 NQMom=   31.3000000   0.0000000   0.0000000   0.0000000   0.0000000   0.0000000   0.0000000   0.0000000   0.0000000   0.0000000
 NMagM=    2.1063990   0.0000000   2.7928460   2.7928460   0.0000000   2.7928460   2.7928460   0.0000000   2.7928460   2.7928460
 AtZNuc=  35.0000000   8.0000000   1.0000000   1.0000000   8.0000000   1.0000000   1.0000000   8.0000000   1.0000000   1.0000000

  Atom        11          12          13          14          15          16          17          18          19          20
 IAtWgt=          16           1           1          16           1           1          16           1           1          16
 AtmWgt=  15.9949146   1.0078250   1.0078250  15.9949146   1.0078250   1.0078250  15.9949146   1.0078250   1.0078250  15.9949146
 NucSpn=           0           1           1           0           1           1           0           1           1           0
 AtZEff=   0.0000000   0.0000000   0.0000000   0.0000000   0.0000000   0.0000000   0.0000000   0.0000000   0.0000000   0.0000000
 NQMom=    0.0000000   0.0000000   0.0000000   0.0000000   0.0000000   0.0000000   0.0000000   0.0000000   0.0000000   0.0000000
 NMagM=    0.0000000   2.7928460   2.7928460   0.0000000   2.7928460   2.7928460   0.0000000   2.7928460   2.7928460   0.0000000
 AtZNuc=   8.0000000   1.0000000   1.0000000   8.0000000   1.0000000   1.0000000   8.0000000   1.0000000   1.0000000   8.0000000

  Atom        21          22          23          24          25          26          27          28          29          30
 IAtWgt=           1           1          16           1           1          16           1           1          16           1
 AtmWgt=   1.0078250   1.0078250  15.9949146   1.0078250   1.0078250  15.9949146   1.0078250   1.0078250  15.9949146   1.0078250
 NucSpn=           1           1           0           1           1           0           1           1           0           1
 AtZEff=   0.0000000   0.0000000   0.0000000   0.0000000   0.0000000   0.0000000   0.0000000   0.0000000   0.0000000   0.0000000
 NQMom=    0.0000000   0.0000000   0.0000000   0.0000000   0.0000000   0.0000000   0.0000000   0.0000000   0.0000000   0.0000000
 NMagM=    2.7928460   2.7928460   0.0000000   2.7928460   2.7928460   0.0000000   2.7928460   2.7928460   0.0000000   2.7928460
 AtZNuc=   1.0000000   1.0000000   8.0000000   1.0000000   1.0000000   8.0000000   1.0000000   1.0000000   8.0000000   1.0000000

  Atom        31          32          33          34          35          36          37          38          39          40
 IAtWgt=           1          16           1           1          16           1           1          16           1           1
 AtmWgt=   1.0078250  15.9949146   1.0078250   1.0078250  15.9949146   1.0078250   1.0078250  15.9949146   1.0078250   1.0078250
 NucSpn=           1           0           1           1           0           1           1           0           1           1
 AtZEff=   0.0000000   0.0000000   0.0000000   0.0000000   0.0000000   0.0000000   0.0000000   0.0000000   0.0000000   0.0000000
 NQMom=    0.0000000   0.0000000   0.0000000   0.0000000   0.0000000   0.0000000   0.0000000   0.0000000   0.0000000   0.0000000
 NMagM=    2.7928460   0.0000000   2.7928460   2.7928460   0.0000000   2.7928460   2.7928460   0.0000000   2.7928460   2.7928460
 AtZNuc=   1.0000000   8.0000000   1.0000000   1.0000000   8.0000000   1.0000000   1.0000000   8.0000000   1.0000000   1.0000000

  Atom        41          42          43          44          45          46          47          48          49          50
 IAtWgt=          16           1           1          16           1           1          16           1           1          16
 AtmWgt=  15.9949146   1.0078250   1.0078250  15.9949146   1.0078250   1.0078250  15.9949146   1.0078250   1.0078250  15.9949146
 NucSpn=           0           1           1           0           1           1           0           1           1           0
 AtZEff=   0.0000000   0.0000000   0.0000000   0.0000000   0.0000000   0.0000000   0.0000000   0.0000000   0.0000000   0.0000000
 NQMom=    0.0000000   0.0000000   0.0000000   0.0000000   0.0000000   0.0000000   0.0000000   0.0000000   0.0000000   0.0000000
 NMagM=    0.0000000   2.7928460   2.7928460   0.0000000   2.7928460   2.7928460   0.0000000   2.7928460   2.7928460   0.0000000
 AtZNuc=   8.0000000   1.0000000   1.0000000   8.0000000   1.0000000   1.0000000   8.0000000   1.0000000   1.0000000   8.0000000

  Atom        51          52          53          54          55          56          57          58          59          60
 IAtWgt=           1           1          16           1           1          16           1           1          16           1
 AtmWgt=   1.0078250   1.0078250  15.9949146   1.0078250   1.0078250  15.9949146   1.0078250   1.0078250  15.9949146   1.0078250
 NucSpn=           1           1           0           1           1           0           1           1           0           1
 AtZEff=   0.0000000   0.0000000   0.0000000   0.0000000   0.0000000   0.0000000   0.0000000   0.0000000   0.0000000   0.0000000
 NQMom=    0.0000000   0.0000000   0.0000000   0.0000000   0.0000000   0.0000000   0.0000000   0.0000000   0.0000000   0.0000000
 NMagM=    2.7928460   2.7928460   0.0000000   2.7928460   2.7928460   0.0000000   2.7928460   2.7928460   0.0000000   2.7928460
 AtZNuc=   1.0000000   1.0000000   8.0000000   1.0000000   1.0000000   8.0000000   1.0000000   1.0000000   8.0000000   1.0000000

  Atom        61          62          63          64          65          66          67          68          69          70
 IAtWgt=           1          16           1           1          16           1           1          16           1           1
 AtmWgt=   1.0078250  15.9949146   1.0078250   1.0078250  15.9949146   1.0078250   1.0078250  15.9949146   1.0078250   1.0078250
 NucSpn=           1           0           1           1           0           1           1           0           1           1
 AtZEff=   0.0000000   0.0000000   0.0000000   0.0000000   0.0000000   0.0000000   0.0000000   0.0000000   0.0000000   0.0000000
 NQMom=    0.0000000   0.0000000   0.0000000   0.0000000   0.0000000   0.0000000   0.0000000   0.0000000   0.0000000   0.0000000
 NMagM=    2.7928460   0.0000000   2.7928460   2.7928460   0.0000000   2.7928460   2.7928460   0.0000000   2.7928460   2.7928460
 AtZNuc=   1.0000000   8.0000000   1.0000000   1.0000000   8.0000000   1.0000000   1.0000000   8.0000000   1.0000000   1.0000000

  Atom        71          72          73          74          75          76          77          78          79          80
 IAtWgt=          16           1           1          16           1           1          16           1           1          16
 AtmWgt=  15.9949146   1.0078250   1.0078250  15.9949146   1.0078250   1.0078250  15.9949146   1.0078250   1.0078250  15.9949146
 NucSpn=           0           1           1           0           1           1           0           1           1           0
 AtZEff=   0.0000000   0.0000000   0.0000000   0.0000000   0.0000000   0.0000000   0.0000000   0.0000000   0.0000000   0.0000000
 NQMom=    0.0000000   0.0000000   0.0000000   0.0000000   0.0000000   0.0000000   0.0000000   0.0000000   0.0000000   0.0000000
 NMagM=    0.0000000   2.7928460   2.7928460   0.0000000   2.7928460   2.7928460   0.0000000   2.7928460   2.7928460   0.0000000
 AtZNuc=   8.0000000   1.0000000   1.0000000   8.0000000   1.0000000   1.0000000   8.0000000   1.0000000   1.0000000   8.0000000

  Atom        81          82          83          84          85          86          87          88          89          90
 IAtWgt=           1           1          16           1           1          16           1           1          16           1
 AtmWgt=   1.0078250   1.0078250  15.9949146   1.0078250   1.0078250  15.9949146   1.0078250   1.0078250  15.9949146   1.0078250
 NucSpn=           1           1           0           1           1           0           1           1           0           1
 AtZEff=   0.0000000   0.0000000   0.0000000   0.0000000   0.0000000   0.0000000   0.0000000   0.0000000   0.0000000   0.0000000
 NQMom=    0.0000000   0.0000000   0.0000000   0.0000000   0.0000000   0.0000000   0.0000000   0.0000000   0.0000000   0.0000000
 NMagM=    2.7928460   2.7928460   0.0000000   2.7928460   2.7928460   0.0000000   2.7928460   2.7928460   0.0000000   2.7928460
 AtZNuc=   1.0000000   1.0000000   8.0000000   1.0000000   1.0000000   8.0000000   1.0000000   1.0000000   8.0000000   1.0000000

  Atom        91          92          93          94          95          96          97          98          99         100
 IAtWgt=           1          16           1           1          16           1           1          16           1           1
 AtmWgt=   1.0078250  15.9949146   1.0078250   1.0078250  15.9949146   1.0078250   1.0078250  15.9949146   1.0078250   1.0078250
 NucSpn=           1           0           1           1           0           1           1           0           1           1
 AtZEff=   0.0000000   0.0000000   0.0000000   0.0000000   0.0000000   0.0000000   0.0000000   0.0000000   0.0000000   0.0000000
 NQMom=    0.0000000   0.0000000   0.0000000   0.0000000   0.0000000   0.0000000   0.0000000   0.0000000   0.0000000   0.0000000
 NMagM=    2.7928460   0.0000000   2.7928460   2.7928460   0.0000000   2.7928460   2.7928460   0.0000000   2.7928460   2.7928460
 AtZNuc=   1.0000000   8.0000000   1.0000000   1.0000000   8.0000000   1.0000000   1.0000000   8.0000000   1.0000000   1.0000000

  Atom       101         102         103         104         105         106         107         108         109         110
 IAtWgt=          16           1           1          16           1           1          16           1           1          16
 AtmWgt=  15.9949146   1.0078250   1.0078250  15.9949146   1.0078250   1.0078250  15.9949146   1.0078250   1.0078250  15.9949146
 NucSpn=           0           1           1           0           1           1           0           1           1           0
 AtZEff=   0.0000000   0.0000000   0.0000000   0.0000000   0.0000000   0.0000000   0.0000000   0.0000000   0.0000000   0.0000000
 NQMom=    0.0000000   0.0000000   0.0000000   0.0000000   0.0000000   0.0000000   0.0000000   0.0000000   0.0000000   0.0000000
 NMagM=    0.0000000   2.7928460   2.7928460   0.0000000   2.7928460   2.7928460   0.0000000   2.7928460   2.7928460   0.0000000
 AtZNuc=   8.0000000   1.0000000   1.0000000   8.0000000   1.0000000   1.0000000   8.0000000   1.0000000   1.0000000   8.0000000

  Atom       111         112         113         114         115         116         117         118         119         120
 IAtWgt=           1           1          16           1           1          16           1           1          16           1
 AtmWgt=   1.0078250   1.0078250  15.9949146   1.0078250   1.0078250  15.9949146   1.0078250   1.0078250  15.9949146   1.0078250
 NucSpn=           1           1           0           1           1           0           1           1           0           1
 AtZEff=   0.0000000   0.0000000   0.0000000   0.0000000   0.0000000   0.0000000   0.0000000   0.0000000   0.0000000   0.0000000
 NQMom=    0.0000000   0.0000000   0.0000000   0.0000000   0.0000000   0.0000000   0.0000000   0.0000000   0.0000000   0.0000000
 NMagM=    2.7928460   2.7928460   0.0000000   2.7928460   2.7928460   0.0000000   2.7928460   2.7928460   0.0000000   2.7928460
 AtZNuc=   1.0000000   1.0000000   8.0000000   1.0000000   1.0000000   8.0000000   1.0000000   1.0000000   8.0000000   1.0000000

  Atom       121         122         123         124         125         126         127         128         129         130
 IAtWgt=           1          16           1           1          16           1           1          16           1           1
 AtmWgt=   1.0078250  15.9949146   1.0078250   1.0078250  15.9949146   1.0078250   1.0078250  15.9949146   1.0078250   1.0078250
 NucSpn=           1           0           1           1           0           1           1           0           1           1
 AtZEff=   0.0000000   0.0000000   0.0000000   0.0000000   0.0000000   0.0000000   0.0000000   0.0000000   0.0000000   0.0000000
 NQMom=    0.0000000   0.0000000   0.0000000   0.0000000   0.0000000   0.0000000   0.0000000   0.0000000   0.0000000   0.0000000
 NMagM=    2.7928460   0.0000000   2.7928460   2.7928460   0.0000000   2.7928460   2.7928460   0.0000000   2.7928460   2.7928460
 AtZNuc=   1.0000000   8.0000000   1.0000000   1.0000000   8.0000000   1.0000000   1.0000000   8.0000000   1.0000000   1.0000000

  Atom       131         132         133         134         135         136         137         138         139         140
 IAtWgt=          16           1           1          16           1           1          16           1           1          16
 AtmWgt=  15.9949146   1.0078250   1.0078250  15.9949146   1.0078250   1.0078250  15.9949146   1.0078250   1.0078250  15.9949146
 NucSpn=           0           1           1           0           1           1           0           1           1           0
 AtZEff=   0.0000000   0.0000000   0.0000000   0.0000000   0.0000000   0.0000000   0.0000000   0.0000000   0.0000000   0.0000000
 NQMom=    0.0000000   0.0000000   0.0000000   0.0000000   0.0000000   0.0000000   0.0000000   0.0000000   0.0000000   0.0000000
 NMagM=    0.0000000   2.7928460   2.7928460   0.0000000   2.7928460   2.7928460   0.0000000   2.7928460   2.7928460   0.0000000
 AtZNuc=   8.0000000   1.0000000   1.0000000   8.0000000   1.0000000   1.0000000   8.0000000   1.0000000   1.0000000   8.0000000

  Atom       141         142         143         144         145         146         147         148         149         150
 IAtWgt=           1           1          16           1           1          16           1           1          16           1
 AtmWgt=   1.0078250   1.0078250  15.9949146   1.0078250   1.0078250  15.9949146   1.0078250   1.0078250  15.9949146   1.0078250
 NucSpn=           1           1           0           1           1           0           1           1           0           1
 AtZEff=   0.0000000   0.0000000   0.0000000   0.0000000   0.0000000   0.0000000   0.0000000   0.0000000   0.0000000   0.0000000
 NQMom=    0.0000000   0.0000000   0.0000000   0.0000000   0.0000000   0.0000000   0.0000000   0.0000000   0.0000000   0.0000000
 NMagM=    2.7928460   2.7928460   0.0000000   2.7928460   2.7928460   0.0000000   2.7928460   2.7928460   0.0000000   2.7928460
 AtZNuc=   1.0000000   1.0000000   8.0000000   1.0000000   1.0000000   8.0000000   1.0000000   1.0000000   8.0000000   1.0000000

  Atom       151         152         153         154         155         156         157         158         159         160
 IAtWgt=           1          16           1           1          16           1           1          16           1           1
 AtmWgt=   1.0078250  15.9949146   1.0078250   1.0078250  15.9949146   1.0078250   1.0078250  15.9949146   1.0078250   1.0078250
 NucSpn=           1           0           1           1           0           1           1           0           1           1
 AtZEff=   0.0000000   0.0000000   0.0000000   0.0000000   0.0000000   0.0000000   0.0000000   0.0000000   0.0000000   0.0000000
 NQMom=    0.0000000   0.0000000   0.0000000   0.0000000   0.0000000   0.0000000   0.0000000   0.0000000   0.0000000   0.0000000
 NMagM=    2.7928460   0.0000000   2.7928460   2.7928460   0.0000000   2.7928460   2.7928460   0.0000000   2.7928460   2.7928460
 AtZNuc=   1.0000000   8.0000000   1.0000000   1.0000000   8.0000000   1.0000000   1.0000000   8.0000000   1.0000000   1.0000000

  Atom       161         162         163         164         165         166         167         168         169         170
 IAtWgt=          16           1           1          16           1           1          16           1           1          16
 AtmWgt=  15.9949146   1.0078250   1.0078250  15.9949146   1.0078250   1.0078250  15.9949146   1.0078250   1.0078250  15.9949146
 NucSpn=           0           1           1           0           1           1           0           1           1           0
 AtZEff=   0.0000000   0.0000000   0.0000000   0.0000000   0.0000000   0.0000000   0.0000000   0.0000000   0.0000000   0.0000000
 NQMom=    0.0000000   0.0000000   0.0000000   0.0000000   0.0000000   0.0000000   0.0000000   0.0000000   0.0000000   0.0000000
 NMagM=    0.0000000   2.7928460   2.7928460   0.0000000   2.7928460   2.7928460   0.0000000   2.7928460   2.7928460   0.0000000
 AtZNuc=   8.0000000   1.0000000   1.0000000   8.0000000   1.0000000   1.0000000   8.0000000   1.0000000   1.0000000   8.0000000

  Atom       171         172         173         174         175         176         177         178         179         180
 IAtWgt=           1           1          16           1           1          16           1           1          16           1
 AtmWgt=   1.0078250   1.0078250  15.9949146   1.0078250   1.0078250  15.9949146   1.0078250   1.0078250  15.9949146   1.0078250
 NucSpn=           1           1           0           1           1           0           1           1           0           1
 AtZEff=   0.0000000   0.0000000   0.0000000   0.0000000   0.0000000   0.0000000   0.0000000   0.0000000   0.0000000   0.0000000
 NQMom=    0.0000000   0.0000000   0.0000000   0.0000000   0.0000000   0.0000000   0.0000000   0.0000000   0.0000000   0.0000000
 NMagM=    2.7928460   2.7928460   0.0000000   2.7928460   2.7928460   0.0000000   2.7928460   2.7928460   0.0000000   2.7928460
 AtZNuc=   1.0000000   1.0000000   8.0000000   1.0000000   1.0000000   8.0000000   1.0000000   1.0000000   8.0000000   1.0000000

  Atom       181         182         183         184         185         186         187         188         189         190
 IAtWgt=           1          16           1           1          16           1           1          16           1           1
 AtmWgt=   1.0078250  15.9949146   1.0078250   1.0078250  15.9949146   1.0078250   1.0078250  15.9949146   1.0078250   1.0078250
 NucSpn=           1           0           1           1           0           1           1           0           1           1
 AtZEff=   0.0000000   0.0000000   0.0000000   0.0000000   0.0000000   0.0000000   0.0000000   0.0000000   0.0000000   0.0000000
 NQMom=    0.0000000   0.0000000   0.0000000   0.0000000   0.0000000   0.0000000   0.0000000   0.0000000   0.0000000   0.0000000
 NMagM=    2.7928460   0.0000000   2.7928460   2.7928460   0.0000000   2.7928460   2.7928460   0.0000000   2.7928460   2.7928460
 AtZNuc=   1.0000000   8.0000000   1.0000000   1.0000000   8.0000000   1.0000000   1.0000000   8.0000000   1.0000000   1.0000000

  Atom       191         192         193         194         195         196         197         198         199         200
 IAtWgt=          16           1           1          16           1           1          16           1           1          16
 AtmWgt=  15.9949146   1.0078250   1.0078250  15.9949146   1.0078250   1.0078250  15.9949146   1.0078250   1.0078250  15.9949146
 NucSpn=           0           1           1           0           1           1           0           1           1           0
 AtZEff=   0.0000000   0.0000000   0.0000000   0.0000000   0.0000000   0.0000000   0.0000000   0.0000000   0.0000000   0.0000000
 NQMom=    0.0000000   0.0000000   0.0000000   0.0000000   0.0000000   0.0000000   0.0000000   0.0000000   0.0000000   0.0000000
 NMagM=    0.0000000   2.7928460   2.7928460   0.0000000   2.7928460   2.7928460   0.0000000   2.7928460   2.7928460   0.0000000
 AtZNuc=   8.0000000   1.0000000   1.0000000   8.0000000   1.0000000   1.0000000   8.0000000   1.0000000   1.0000000   8.0000000

  Atom       201         202         203         204         205         206         207         208         209         210
 IAtWgt=           1           1          16           1           1          16           1           1          16           1
 AtmWgt=   1.0078250   1.0078250  15.9949146   1.0078250   1.0078250  15.9949146   1.0078250   1.0078250  15.9949146   1.0078250
 NucSpn=           1           1           0           1           1           0           1           1           0           1
 AtZEff=   0.0000000   0.0000000   0.0000000   0.0000000   0.0000000   0.0000000   0.0000000   0.0000000   0.0000000   0.0000000
 NQMom=    0.0000000   0.0000000   0.0000000   0.0000000   0.0000000   0.0000000   0.0000000   0.0000000   0.0000000   0.0000000
 NMagM=    2.7928460   2.7928460   0.0000000   2.7928460   2.7928460   0.0000000   2.7928460   2.7928460   0.0000000   2.7928460
 AtZNuc=   1.0000000   1.0000000   8.0000000   1.0000000   1.0000000   8.0000000   1.0000000   1.0000000   8.0000000   1.0000000

  Atom       211         212         213         214         215         216         217         218         219         220
 IAtWgt=           1          16           1           1          16           1           1          16           1           1
 AtmWgt=   1.0078250  15.9949146   1.0078250   1.0078250  15.9949146   1.0078250   1.0078250  15.9949146   1.0078250   1.0078250
 NucSpn=           1           0           1           1           0           1           1           0           1           1
 AtZEff=   0.0000000   0.0000000   0.0000000   0.0000000   0.0000000   0.0000000   0.0000000   0.0000000   0.0000000   0.0000000
 NQMom=    0.0000000   0.0000000   0.0000000   0.0000000   0.0000000   0.0000000   0.0000000   0.0000000   0.0000000   0.0000000
 NMagM=    2.7928460   0.0000000   2.7928460   2.7928460   0.0000000   2.7928460   2.7928460   0.0000000   2.7928460   2.7928460
 AtZNuc=   1.0000000   8.0000000   1.0000000   1.0000000   8.0000000   1.0000000   1.0000000   8.0000000   1.0000000   1.0000000

  Atom       221         222         223         224         225         226         227         228         229         230
 IAtWgt=          16           1           1          16           1           1          16           1           1          16
 AtmWgt=  15.9949146   1.0078250   1.0078250  15.9949146   1.0078250   1.0078250  15.9949146   1.0078250   1.0078250  15.9949146
 NucSpn=           0           1           1           0           1           1           0           1           1           0
 AtZEff=   0.0000000   0.0000000   0.0000000   0.0000000   0.0000000   0.0000000   0.0000000   0.0000000   0.0000000   0.0000000
 NQMom=    0.0000000   0.0000000   0.0000000   0.0000000   0.0000000   0.0000000   0.0000000   0.0000000   0.0000000   0.0000000
 NMagM=    0.0000000   2.7928460   2.7928460   0.0000000   2.7928460   2.7928460   0.0000000   2.7928460   2.7928460   0.0000000
 AtZNuc=   8.0000000   1.0000000   1.0000000   8.0000000   1.0000000   1.0000000   8.0000000   1.0000000   1.0000000   8.0000000

  Atom       231         232         233         234         235         236         237         238         239         240
 IAtWgt=           1           1          16           1           1          16           1           1          16           1
 AtmWgt=   1.0078250   1.0078250  15.9949146   1.0078250   1.0078250  15.9949146   1.0078250   1.0078250  15.9949146   1.0078250
 NucSpn=           1           1           0           1           1           0           1           1           0           1
 AtZEff=   0.0000000   0.0000000   0.0000000   0.0000000   0.0000000   0.0000000   0.0000000   0.0000000   0.0000000   0.0000000
 NQMom=    0.0000000   0.0000000   0.0000000   0.0000000   0.0000000   0.0000000   0.0000000   0.0000000   0.0000000   0.0000000
 NMagM=    2.7928460   2.7928460   0.0000000   2.7928460   2.7928460   0.0000000   2.7928460   2.7928460   0.0000000   2.7928460
 AtZNuc=   1.0000000   1.0000000   8.0000000   1.0000000   1.0000000   8.0000000   1.0000000   1.0000000   8.0000000   1.0000000

  Atom       241         242         243         244         245         246         247         248         249         250
 IAtWgt=           1          16           1           1          16           1           1          16           1           1
 AtmWgt=   1.0078250  15.9949146   1.0078250   1.0078250  15.9949146   1.0078250   1.0078250  15.9949146   1.0078250   1.0078250
 NucSpn=           1           0           1           1           0           1           1           0           1           1
 AtZEff=   0.0000000   0.0000000   0.0000000   0.0000000   0.0000000   0.0000000   0.0000000   0.0000000   0.0000000   0.0000000
 NQMom=    0.0000000   0.0000000   0.0000000   0.0000000   0.0000000   0.0000000   0.0000000   0.0000000   0.0000000   0.0000000
 NMagM=    2.7928460   0.0000000   2.7928460   2.7928460   0.0000000   2.7928460   2.7928460   0.0000000   2.7928460   2.7928460
 AtZNuc=   1.0000000   8.0000000   1.0000000   1.0000000   8.0000000   1.0000000   1.0000000   8.0000000   1.0000000   1.0000000

  Atom       251         252         253         254         255         256         257         258         259         260
 IAtWgt=          16           1           1          16           1           1          16           1           1          16
 AtmWgt=  15.9949146   1.0078250   1.0078250  15.9949146   1.0078250   1.0078250  15.9949146   1.0078250   1.0078250  15.9949146
 NucSpn=           0           1           1           0           1           1           0           1           1           0
 AtZEff=   0.0000000   0.0000000   0.0000000   0.0000000   0.0000000   0.0000000   0.0000000   0.0000000   0.0000000   0.0000000
 NQMom=    0.0000000   0.0000000   0.0000000   0.0000000   0.0000000   0.0000000   0.0000000   0.0000000   0.0000000   0.0000000
 NMagM=    0.0000000   2.7928460   2.7928460   0.0000000   2.7928460   2.7928460   0.0000000   2.7928460   2.7928460   0.0000000
 AtZNuc=   8.0000000   1.0000000   1.0000000   8.0000000   1.0000000   1.0000000   8.0000000   1.0000000   1.0000000   8.0000000

  Atom       261         262         263         264         265         266         267         268         269         270
 IAtWgt=           1           1          16           1           1          16           1           1          16           1
 AtmWgt=   1.0078250   1.0078250  15.9949146   1.0078250   1.0078250  15.9949146   1.0078250   1.0078250  15.9949146   1.0078250
 NucSpn=           1           1           0           1           1           0           1           1           0           1
 AtZEff=   0.0000000   0.0000000   0.0000000   0.0000000   0.0000000   0.0000000   0.0000000   0.0000000   0.0000000   0.0000000
 NQMom=    0.0000000   0.0000000   0.0000000   0.0000000   0.0000000   0.0000000   0.0000000   0.0000000   0.0000000   0.0000000
 NMagM=    2.7928460   2.7928460   0.0000000   2.7928460   2.7928460   0.0000000   2.7928460   2.7928460   0.0000000   2.7928460
 AtZNuc=   1.0000000   1.0000000   8.0000000   1.0000000   1.0000000   8.0000000   1.0000000   1.0000000   8.0000000   1.0000000

  Atom       271         272         273         274         275         276         277         278         279         280
 IAtWgt=           1          16           1           1          16           1           1          16           1           1
 AtmWgt=   1.0078250  15.9949146   1.0078250   1.0078250  15.9949146   1.0078250   1.0078250  15.9949146   1.0078250   1.0078250
 NucSpn=           1           0           1           1           0           1           1           0           1           1
 AtZEff=   0.0000000   0.0000000   0.0000000   0.0000000   0.0000000   0.0000000   0.0000000   0.0000000   0.0000000   0.0000000
 NQMom=    0.0000000   0.0000000   0.0000000   0.0000000   0.0000000   0.0000000   0.0000000   0.0000000   0.0000000   0.0000000
 NMagM=    2.7928460   0.0000000   2.7928460   2.7928460   0.0000000   2.7928460   2.7928460   0.0000000   2.7928460   2.7928460
 AtZNuc=   1.0000000   8.0000000   1.0000000   1.0000000   8.0000000   1.0000000   1.0000000   8.0000000   1.0000000   1.0000000

  Atom       281         282         283         284         285         286         287         288         289         290
 IAtWgt=          16           1           1          16           1           1          16           1           1          16
 AtmWgt=  15.9949146   1.0078250   1.0078250  15.9949146   1.0078250   1.0078250  15.9949146   1.0078250   1.0078250  15.9949146
 NucSpn=           0           1           1           0           1           1           0           1           1           0
 AtZEff=   0.0000000   0.0000000   0.0000000   0.0000000   0.0000000   0.0000000   0.0000000   0.0000000   0.0000000   0.0000000
 NQMom=    0.0000000   0.0000000   0.0000000   0.0000000   0.0000000   0.0000000   0.0000000   0.0000000   0.0000000   0.0000000
 NMagM=    0.0000000   2.7928460   2.7928460   0.0000000   2.7928460   2.7928460   0.0000000   2.7928460   2.7928460   0.0000000
 AtZNuc=   8.0000000   1.0000000   1.0000000   8.0000000   1.0000000   1.0000000   8.0000000   1.0000000   1.0000000   8.0000000

  Atom       291         292         293         294         295         296         297         298         299         300
 IAtWgt=           1           1          16           1           1          16           1           1          16           1
 AtmWgt=   1.0078250   1.0078250  15.9949146   1.0078250   1.0078250  15.9949146   1.0078250   1.0078250  15.9949146   1.0078250
 NucSpn=           1           1           0           1           1           0           1           1           0           1
 AtZEff=   0.0000000   0.0000000   0.0000000   0.0000000   0.0000000   0.0000000   0.0000000   0.0000000   0.0000000   0.0000000
 NQMom=    0.0000000   0.0000000   0.0000000   0.0000000   0.0000000   0.0000000   0.0000000   0.0000000   0.0000000   0.0000000
 NMagM=    2.7928460   2.7928460   0.0000000   2.7928460   2.7928460   0.0000000   2.7928460   2.7928460   0.0000000   2.7928460
 AtZNuc=   1.0000000   1.0000000   8.0000000   1.0000000   1.0000000   8.0000000   1.0000000   1.0000000   8.0000000   1.0000000

  Atom       301         302         303         304         305         306         307         308         309         310
 IAtWgt=           1          16           1           1          16           1           1          16           1           1
 AtmWgt=   1.0078250  15.9949146   1.0078250   1.0078250  15.9949146   1.0078250   1.0078250  15.9949146   1.0078250   1.0078250
 NucSpn=           1           0           1           1           0           1           1           0           1           1
 AtZEff=   0.0000000   0.0000000   0.0000000   0.0000000   0.0000000   0.0000000   0.0000000   0.0000000   0.0000000   0.0000000
 NQMom=    0.0000000   0.0000000   0.0000000   0.0000000   0.0000000   0.0000000   0.0000000   0.0000000   0.0000000   0.0000000
 NMagM=    2.7928460   0.0000000   2.7928460   2.7928460   0.0000000   2.7928460   2.7928460   0.0000000   2.7928460   2.7928460
 AtZNuc=   1.0000000   8.0000000   1.0000000   1.0000000   8.0000000   1.0000000   1.0000000   8.0000000   1.0000000   1.0000000

  Atom       311         312         313         314         315         316         317         318         319         320
 IAtWgt=          16           1           1          16           1           1          16           1           1          16
 AtmWgt=  15.9949146   1.0078250   1.0078250  15.9949146   1.0078250   1.0078250  15.9949146   1.0078250   1.0078250  15.9949146
 NucSpn=           0           1           1           0           1           1           0           1           1           0
 AtZEff=   0.0000000   0.0000000   0.0000000   0.0000000   0.0000000   0.0000000   0.0000000   0.0000000   0.0000000   0.0000000
 NQMom=    0.0000000   0.0000000   0.0000000   0.0000000   0.0000000   0.0000000   0.0000000   0.0000000   0.0000000   0.0000000
 NMagM=    0.0000000   2.7928460   2.7928460   0.0000000   2.7928460   2.7928460   0.0000000   2.7928460   2.7928460   0.0000000
 AtZNuc=   8.0000000   1.0000000   1.0000000   8.0000000   1.0000000   1.0000000   8.0000000   1.0000000   1.0000000   8.0000000

  Atom       321         322         323         324         325         326         327         328         329         330
 IAtWgt=           1           1          16           1           1          16           1           1          16           1
 AtmWgt=   1.0078250   1.0078250  15.9949146   1.0078250   1.0078250  15.9949146   1.0078250   1.0078250  15.9949146   1.0078250
 NucSpn=           1           1           0           1           1           0           1           1           0           1
 AtZEff=   0.0000000   0.0000000   0.0000000   0.0000000   0.0000000   0.0000000   0.0000000   0.0000000   0.0000000   0.0000000
 NQMom=    0.0000000   0.0000000   0.0000000   0.0000000   0.0000000   0.0000000   0.0000000   0.0000000   0.0000000   0.0000000
 NMagM=    2.7928460   2.7928460   0.0000000   2.7928460   2.7928460   0.0000000   2.7928460   2.7928460   0.0000000   2.7928460
 AtZNuc=   1.0000000   1.0000000   8.0000000   1.0000000   1.0000000   8.0000000   1.0000000   1.0000000   8.0000000   1.0000000

  Atom       331         332         333         334         335         336         337         338         339         340
 IAtWgt=           1          16           1           1          16           1           1          16           1           1
 AtmWgt=   1.0078250  15.9949146   1.0078250   1.0078250  15.9949146   1.0078250   1.0078250  15.9949146   1.0078250   1.0078250
 NucSpn=           1           0           1           1           0           1           1           0           1           1
 AtZEff=   0.0000000   0.0000000   0.0000000   0.0000000   0.0000000   0.0000000   0.0000000   0.0000000   0.0000000   0.0000000
 NQMom=    0.0000000   0.0000000   0.0000000   0.0000000   0.0000000   0.0000000   0.0000000   0.0000000   0.0000000   0.0000000
 NMagM=    2.7928460   0.0000000   2.7928460   2.7928460   0.0000000   2.7928460   2.7928460   0.0000000   2.7928460   2.7928460
 AtZNuc=   1.0000000   8.0000000   1.0000000   1.0000000   8.0000000   1.0000000   1.0000000   8.0000000   1.0000000   1.0000000

  Atom       341         342         343         344         345         346         347         348         349         350
 IAtWgt=          16           1           1          16           1           1          16           1           1          16
 AtmWgt=  15.9949146   1.0078250   1.0078250  15.9949146   1.0078250   1.0078250  15.9949146   1.0078250   1.0078250  15.9949146
 NucSpn=           0           1           1           0           1           1           0           1           1           0
 AtZEff=   0.0000000   0.0000000   0.0000000   0.0000000   0.0000000   0.0000000   0.0000000   0.0000000   0.0000000   0.0000000
 NQMom=    0.0000000   0.0000000   0.0000000   0.0000000   0.0000000   0.0000000   0.0000000   0.0000000   0.0000000   0.0000000
 NMagM=    0.0000000   2.7928460   2.7928460   0.0000000   2.7928460   2.7928460   0.0000000   2.7928460   2.7928460   0.0000000
 AtZNuc=   8.0000000   1.0000000   1.0000000   8.0000000   1.0000000   1.0000000   8.0000000   1.0000000   1.0000000   8.0000000

  Atom       351         352         353         354         355         356         357         358         359         360
 IAtWgt=           1           1          16           1           1          16           1           1          16           1
 AtmWgt=   1.0078250   1.0078250  15.9949146   1.0078250   1.0078250  15.9949146   1.0078250   1.0078250  15.9949146   1.0078250
 NucSpn=           1           1           0           1           1           0           1           1           0           1
 AtZEff=   0.0000000   0.0000000   0.0000000   0.0000000   0.0000000   0.0000000   0.0000000   0.0000000   0.0000000   0.0000000
 NQMom=    0.0000000   0.0000000   0.0000000   0.0000000   0.0000000   0.0000000   0.0000000   0.0000000   0.0000000   0.0000000
 NMagM=    2.7928460   2.7928460   0.0000000   2.7928460   2.7928460   0.0000000   2.7928460   2.7928460   0.0000000   2.7928460
 AtZNuc=   1.0000000   1.0000000   8.0000000   1.0000000   1.0000000   8.0000000   1.0000000   1.0000000   8.0000000   1.0000000

  Atom       361         362         363         364         365         366         367         368         369         370
 IAtWgt=           1          16           1           1          16           1           1          16           1           1
 AtmWgt=   1.0078250  15.9949146   1.0078250   1.0078250  15.9949146   1.0078250   1.0078250  15.9949146   1.0078250   1.0078250
 NucSpn=           1           0           1           1           0           1           1           0           1           1
 AtZEff=   0.0000000   0.0000000   0.0000000   0.0000000   0.0000000   0.0000000   0.0000000   0.0000000   0.0000000   0.0000000
 NQMom=    0.0000000   0.0000000   0.0000000   0.0000000   0.0000000   0.0000000   0.0000000   0.0000000   0.0000000   0.0000000
 NMagM=    2.7928460   0.0000000   2.7928460   2.7928460   0.0000000   2.7928460   2.7928460   0.0000000   2.7928460   2.7928460
 AtZNuc=   1.0000000   8.0000000   1.0000000   1.0000000   8.0000000   1.0000000   1.0000000   8.0000000   1.0000000   1.0000000

  Atom       371         372         373         374         375         376         377         378         379         380
 IAtWgt=          16           1           1          16           1           1          16           1           1          16
 AtmWgt=  15.9949146   1.0078250   1.0078250  15.9949146   1.0078250   1.0078250  15.9949146   1.0078250   1.0078250  15.9949146
 NucSpn=           0           1           1           0           1           1           0           1           1           0
 AtZEff=   0.0000000   0.0000000   0.0000000   0.0000000   0.0000000   0.0000000   0.0000000   0.0000000   0.0000000   0.0000000
 NQMom=    0.0000000   0.0000000   0.0000000   0.0000000   0.0000000   0.0000000   0.0000000   0.0000000   0.0000000   0.0000000
 NMagM=    0.0000000   2.7928460   2.7928460   0.0000000   2.7928460   2.7928460   0.0000000   2.7928460   2.7928460   0.0000000
 AtZNuc=   8.0000000   1.0000000   1.0000000   8.0000000   1.0000000   1.0000000   8.0000000   1.0000000   1.0000000   8.0000000

  Atom       381         382         383         384         385
 IAtWgt=           1           1          16           1           1
 AtmWgt=   1.0078250   1.0078250  15.9949146   1.0078250   1.0078250
 NucSpn=           1           1           0           1           1
 AtZEff=   0.0000000   0.0000000   0.0000000   0.0000000   0.0000000
 NQMom=    0.0000000   0.0000000   0.0000000   0.0000000   0.0000000
 NMagM=    2.7928460   2.7928460   0.0000000   2.7928460   2.7928460
 AtZNuc=   1.0000000   1.0000000   8.0000000   1.0000000   1.0000000
 Leave Link  101 at Sat May  5 03:17:08 2018, MaxMem= 14763950080 cpu:        33.2
 (Enter /cm/shared/gaussian/g09.e01/intel64-sandybridge/g09/l103.exe)

 GradGradGradGradGradGradGradGradGradGradGradGradGradGradGradGradGradGrad
 Berny optimization.
 Initialization pass.
 Trust Radius=3.00D-01 FncErr=1.00D-07 GrdErr=1.00D-07
 Number of steps in this run=      2 maximum allowed number of steps=      2.
 GradGradGradGradGradGradGradGradGradGradGradGradGradGradGradGradGradGrad

 Leave Link  103 at Sat May  5 03:17:08 2018, MaxMem= 14763950080 cpu:         3.7
 (Enter /cm/shared/gaussian/g09.e01/intel64-sandybridge/g09/l202.exe)
 Symmetry turned off by external request.
 Stoichiometry    BrH256O128(1-)
 Framework group  C1[X(BrH256O128)]
 Deg. of freedom  1149
 Full point group                 C1      NOp   1
                          Input orientation:                          
 ---------------------------------------------------------------------
 Center     Atomic      Atomic             Coordinates (Angstroms)
 Number     Number       Type             X           Y           Z
 ---------------------------------------------------------------------
      1         35           0       20.000000   20.000000   20.000000
      2          8           0       22.800000   18.620000   19.950000
      3          1           0       21.970000   19.070000   19.820000
      4          1           0       22.680000   18.100000   20.740000
      5          8           0       22.500000   21.960000   20.750000
      6          1           0       21.900000   21.210000   20.690000
      7          1           0       21.980000   22.700000   20.440000
      8          8           0       21.420000   18.430000   22.430000
      9          1           0       20.850000   18.550000   21.670000
     10          1           0       21.110000   19.080000   23.070000
     11          8           0       19.720000   23.080000   21.400000
     12          1           0       19.730000   22.250000   20.930000
     13          1           0       19.820000   22.840000   22.320000
     14          8           0       17.340000   18.920000   21.590000
     15          1           0       17.930000   18.900000   20.830000
     16          1           0       17.570000   19.720000   22.060000
     17          8           0       20.030000   17.920000   17.230000
     18          1           0       20.130000   18.590000   17.900000
     19          1           0       19.950000   17.100000   17.710000
     20          8           0       18.750000   21.160000   16.960000
     21          1           0       18.530000   20.510000   17.630000
     22          1           0       19.660000   21.410000   17.160000
     23          8           0       16.810000   17.930000   17.920000
     24          1           0       16.940000   18.720000   18.450000
     25          1           0       16.860000   18.230000   17.010000
     26          8           0       17.110000   22.900000   18.360000
     27          1           0       17.400000   22.710000   19.250000
     28          1           0       17.450000   22.170000   17.840000
     29          8           0       24.080000   20.250000   18.410000
     30          1           0       23.770000   19.580000   19.020000
     31          1           0       23.530000   21.010000   18.580000
     32          8           0       15.290000   20.210000   19.920000
     33          1           0       16.030000   19.610000   19.970000
     34          1           0       14.890000   20.160000   20.780000
     35          8           0       17.720000   21.710000   22.800000
     36          1           0       17.230000   22.040000   22.050000
     37          1           0       17.740000   22.450000   23.420000
     38          8           0       20.500000   20.120000   24.410000
     39          1           0       20.820000   20.980000   24.150000
     40          1           0       20.310000   20.210000   25.350000
     41          8           0       17.520000   16.850000   23.650000
     42          1           0       18.020000   17.240000   22.930000
     43          1           0       17.050000   16.120000   23.240000
     44          8           0       22.610000   15.880000   22.210000
     45          1           0       23.460000   16.320000   22.150000
     46          1           0       22.000000   16.570000   22.470000
     47          8           0       16.980000   19.410000   24.700000
     48          1           0       17.060000   18.520000   24.370000
     49          1           0       17.630000   19.920000   24.220000
     50          8           0       18.280000   18.130000   14.790000
     51          1           0       18.720000   18.250000   15.630000
     52          1           0       18.490000   17.240000   14.530000
     53          8           0       24.980000   22.540000   22.130000
     54          1           0       24.160000   22.190000   21.760000
     55          1           0       25.220000   23.250000   21.530000
     56          8           0       18.230000   25.660000   20.710000
     57          1           0       18.790000   26.370000   21.020000
     58          1           0       18.790000   24.880000   20.740000
     59          8           0       22.640000   25.000000   21.570000
     60          1           0       22.260000   24.190000   21.910000
     61          1           0       23.230000   25.290000   22.260000
     62          8           0       22.220000   17.450000   24.990000
     63          1           0       21.820000   17.470000   24.120000
     64          1           0       22.400000   18.370000   25.190000
     65          8           0       24.170000   19.000000   15.880000
     66          1           0       24.010000   19.500000   16.680000
     67          1           0       23.990000   19.620000   15.170000
     68          8           0       16.220000   23.490000   21.300000
     69          1           0       16.520000   23.910000   20.490000
     70          1           0       15.270000   23.600000   21.290000
     71          8           0       19.130000   14.770000   19.380000
     72          1           0       18.990000   14.380000   18.520000
     73          1           0       19.990000   14.440000   19.660000
     74          8           0       14.400000   19.470000   22.530000
     75          1           0       15.310000   19.650000   22.790000
     76          1           0       13.930000   19.390000   23.360000
     77          8           0       16.930000   14.740000   21.110000
     78          1           0       16.550000   14.110000   20.510000
     79          1           0       17.700000   15.070000   20.650000
     80          8           0       21.290000   17.640000   14.560000
     81          1           0       21.170000   17.220000   15.410000
     82          1           0       22.180000   17.990000   14.580000
     83          8           0       14.090000   17.360000   20.820000
     84          1           0       14.990000   17.620000   20.600000
     85          1           0       13.760000   18.070000   21.380000
     86          8           0       21.580000   26.280000   19.590000
     87          1           0       22.380000   26.640000   19.980000
     88          1           0       21.470000   25.430000   20.020000
     89          8           0       21.220000   23.010000   24.650000
     90          1           0       21.630000   23.850000   24.470000
     91          1           0       21.370000   22.860000   25.590000
     92          8           0       23.930000   15.250000   17.930000
     93          1           0       23.770000   16.180000   17.800000
     94          1           0       24.870000   15.190000   18.110000
     95          8           0       21.540000   24.120000   16.200000
     96          1           0       22.300000   24.260000   16.760000
     97          1           0       21.190000   25.000000   16.050000
     98          8           0       26.530000   20.080000   21.470000
     99          1           0       26.390000   21.030000   21.460000
    100          1           0       25.780000   19.720000   21.000000
    101          8           0       19.360000   23.790000   14.460000
    102          1           0       19.850000   23.330000   15.140000
    103          1           0       19.810000   24.630000   14.360000
    104          8           0       15.770000   15.640000   16.910000
    105          1           0       16.160000   16.390000   17.360000
    106          1           0       14.850000   15.880000   16.810000
    107          8           0       24.050000   23.900000   18.140000
    108          1           0       24.130000   24.450000   17.370000
    109          1           0       24.420000   24.420000   18.850000
    110          8           0       21.180000   13.800000   20.990000
    111          1           0       21.800000   14.460000   21.300000
    112          1           0       21.730000   13.060000   20.730000
    113          8           0       16.650000   23.420000   15.480000
    114          1           0       17.520000   23.300000   15.110000
    115          1           0       16.790000   23.570000   16.410000
    116          8           0       17.290000   24.260000   23.780000
    117          1           0       16.910000   24.170000   24.650000
    118          1           0       16.630000   23.890000   23.190000
    119          8           0       23.160000   21.710000   14.690000
    120          1           0       22.480000   22.340000   14.930000
    121          1           0       22.740000   21.120000   14.070000
    122          8           0       25.620000   22.340000   16.220000
    123          1           0       25.200000   22.250000   15.370000
    124          1           0       24.920000   22.200000   16.860000
    125          8           0       26.190000   22.860000   19.390000
    126          1           0       27.040000   22.460000   19.210000
    127          1           0       25.640000   22.580000   18.660000
    128          8           0       15.470000   25.270000   17.950000
    129          1           0       15.270000   25.470000   17.040000
    130          1           0       15.920000   24.430000   17.920000
    131          8           0       25.780000   17.410000   17.250000
    132          1           0       26.610000   17.700000   17.630000
    133          1           0       25.360000   18.220000   16.940000
    134          8           0       12.880000   20.160000   18.480000
    135          1           0       12.290000   20.910000   18.480000
    136          1           0       13.650000   20.460000   18.950000
    137          8           0       25.220000   16.670000   21.890000
    138          1           0       25.930000   16.220000   21.430000
    139          1           0       25.650000   17.110000   22.620000
    140          8           0       15.200000   20.910000   14.970000
    141          1           0       15.170000   21.160000   14.050000
    142          1           0       15.660000   21.630000   15.400000
    143          8           0       23.420000   20.030000   25.610000
    144          1           0       24.320000   19.780000   25.410000
    145          1           0       23.460000   20.980000   25.740000
    146          8           0       17.760000   20.600000   13.010000
    147          1           0       17.630000   21.310000   13.640000
    148          1           0       17.960000   19.840000   13.550000
    149          8           0       21.460000   13.990000   16.490000
    150          1           0       21.690000   14.360000   15.630000
    151          1           0       22.190000   14.220000   17.060000
    152          8           0       17.790000   16.810000   26.490000
    153          1           0       17.010000   16.550000   26.990000
    154          1           0       17.470000   16.950000   25.600000
    155          8           0       19.140000   25.650000   25.270000
    156          1           0       18.310000   26.060000   25.530000
    157          1           0       18.910000   25.110000   24.510000
    158          8           0       15.380000   22.010000   25.590000
    159          1           0       15.850000   21.200000   25.420000
    160          1           0       15.160000   21.980000   26.520000
    161          8           0       13.260000   17.120000   18.160000
    162          1           0       12.980000   18.020000   18.300000
    163          1           0       13.740000   16.880000   18.950000
    164          8           0       18.810000   13.830000   16.720000
    165          1           0       18.290000   13.940000   15.920000
    166          1           0       19.720000   13.860000   16.420000
    167          8           0       16.080000   26.550000   22.100000
    168          1           0       16.900000   26.130000   21.830000
    169          1           0       15.730000   26.940000   21.310000
    170          8           0       14.780000   15.460000   22.510000
    171          1           0       14.340000   16.120000   21.960000
    172          1           0       15.150000   14.840000   21.880000
    173          8           0       21.220000   13.570000   24.320000
    174          1           0       21.700000   14.120000   23.700000
    175          1           0       20.370000   14.000000   24.420000
    176          8           0       24.590000   13.720000   22.320000
    177          1           0       24.060000   14.510000   22.190000
    178          1           0       25.390000   13.880000   21.830000
    179          8           0       15.960000   17.710000   13.240000
    180          1           0       15.140000   18.110000   13.520000
    181          1           0       16.590000   17.950000   13.930000
    182          8           0       24.210000   25.120000   23.870000
    183          1           0       25.030000   25.620000   23.870000
    184          1           0       24.490000   24.210000   23.850000
    185          8           0       20.240000   15.550000   26.390000
    186          1           0       19.380000   15.940000   26.540000
    187          1           0       20.810000   16.290000   26.190000
    188          8           0       13.640000   23.650000   21.100000
    189          1           0       13.120000   23.030000   20.590000
    190          1           0       13.240000   24.500000   20.930000
    191          8           0       13.830000   18.090000   15.310000
    192          1           0       13.540000   17.880000   16.200000
    193          1           0       14.220000   18.960000   15.390000
    194          8           0       26.240000   22.540000   24.750000
    195          1           0       27.060000   23.040000   24.670000
    196          1           0       25.920000   22.470000   23.850000
    197          8           0       18.190000   15.440000   14.270000
    198          1           0       18.830000   14.830000   13.900000
    199          1           0       17.350000   15.140000   13.930000
    200          8           0       13.280000   22.460000   23.990000
    201          1           0       13.400000   21.720000   23.390000
    202          1           0       13.790000   22.230000   24.760000
    203          8           0       25.540000   16.850000   24.760000
    204          1           0       24.760000   17.010000   25.280000
    205          1           0       25.600000   15.900000   24.700000
    206          8           0       14.770000   13.410000   18.330000
    207          1           0       15.450000   12.840000   17.960000
[...]
   X336      36.32054   0.01078   0.00000   0.01071   0.01119  36.33172
   Y336      25.81366   0.00927   0.00000   0.00798   0.00763  25.82129
   Z336      49.79428   0.00470   0.00000   0.00101   0.00041  49.79469
   X337      33.67492  -0.02001   0.00000  -0.01374  -0.01326  33.66166
   Y337      25.70028   0.01108   0.00000   0.00573   0.00532  25.70560
   Z337      48.73604  -0.00487   0.00000  -0.00744  -0.00803  48.72801
   X338      43.46370  -0.00321   0.00000  -0.00678  -0.00698  43.45672
   Y338      53.38476  -0.00470   0.00000  -0.00056  -0.00065  53.38411
   Z338      42.48104  -0.00941   0.00000  -0.00953  -0.00982  42.47122
   X339      42.21648  -0.00080   0.00000   0.00212   0.00194  42.21842
   Y339      52.91233  -0.00186   0.00000  -0.00257  -0.00271  52.90962
   Z339      43.70937   0.00562   0.00000   0.00639   0.00610  43.71546
   X340      43.99282   0.00255   0.00000   0.00253   0.00229  43.99512
   Y340      55.04772   0.00647   0.00000   0.00332   0.00324  55.05096
   Z340      42.97237   0.00221   0.00000   0.00105   0.00078  42.97315
   X341      27.11757  -0.00444   0.00000  -0.00284  -0.00257  27.11500
   Y341      34.43081   0.00522   0.00000   0.00350   0.00291  34.43372
   Z341      51.89188  -0.01274   0.00000  -0.00876  -0.00924  51.88264
   X342      28.72384   0.00815   0.00000   0.00725   0.00754  28.73138
   Y342      33.67492  -0.00121   0.00000   0.00189   0.00134  33.67626
   Z342      51.55173  -0.00025   0.00000   0.00026  -0.00023  51.55150
   X343      26.79632  -0.00147   0.00000  -0.00132  -0.00103  26.79528
   Y343      34.09066  -0.00144   0.00000   0.00105   0.00042  34.09108
   Z343      53.63043   0.01050   0.00000   0.00537   0.00489  53.63531
   X344      46.58175   0.00646   0.00000   0.00844   0.00890  46.59065
   Y344      26.22940   0.00669   0.00000   0.00271   0.00264  26.23204
   Z344      47.39433   0.01551   0.00000   0.01016   0.00955  47.40388
   X345      46.44947  -0.00007   0.00000   0.00114   0.00162  46.45108
   Y345      25.51130  -0.00270   0.00000   0.00374   0.00368  25.51499
   Z345      45.75027  -0.01801   0.00000  -0.01246  -0.01308  45.73719
   X346      45.65578  -0.00323   0.00000  -0.00539  -0.00490  45.65088
   Y346      25.07667   0.00287   0.00000   0.00615   0.00604  25.08271
   Z346      48.45258   0.00262   0.00000   0.00427   0.00364  48.45622
   X347      54.44301   0.01363   0.00000   0.00794   0.00827  54.45128
   Y347      30.57577  -0.00245   0.00000  -0.00153  -0.00128  30.57449
   Z347      35.05442  -0.00520   0.00000  -0.00106  -0.00165  35.05277
   X348      53.93278  -0.00078   0.00000   0.00080   0.00110  53.93388
   Y348      31.80409   0.00186   0.00000  -0.00040  -0.00014  31.80395
   Z348      33.82610  -0.00428   0.00000  -0.00444  -0.00501  33.82109
   X349      53.06351  -0.01229   0.00000  -0.00880  -0.00847  53.05504
   Y349      30.46239   0.00133   0.00000   0.00258   0.00278  30.46517
   Z349      36.20715   0.00837   0.00000   0.00514   0.00456  36.21171
   X350      43.44480  -0.00117   0.00000   0.00266   0.00322  43.44803
   Y350      21.54288  -0.01433   0.00000  -0.01387  -0.01397  21.52891
   Z350      43.35032  -0.00214   0.00000   0.00261   0.00195  43.35226
   X351      44.54084   0.00379   0.00000  -0.00136  -0.00083  44.54001
   Y351      22.97907   0.00872   0.00000   0.00502   0.00494  22.98401
   Z351      43.25583  -0.00515   0.00000  -0.00885  -0.00950  43.24633
   X352      42.68891  -0.00613   0.00000  -0.00936  -0.00879  42.68012
   Y352      21.65626   0.00537   0.00000   0.00878   0.00864  21.66490
   Z352      44.99438   0.00382   0.00000   0.00190   0.00124  44.99562
   X353      29.70649  -0.01090   0.00000  -0.00832  -0.00817  29.69832
   Y353      37.00084  -0.00159   0.00000   0.00304   0.00287  37.00371
   Z353      20.65471   0.00090   0.00000   0.00122   0.00077  20.65548
   X354      30.74584   0.00578   0.00000   0.00492   0.00506  30.75090
   Y354      37.32209  -0.00111   0.00000  -0.00373  -0.00389  37.31820
   Z354      22.10980   0.00515   0.00000   0.00355   0.00310  22.11290
   X355      30.68915   0.00565   0.00000   0.00383   0.00396  30.69311
   Y355      37.62445   0.00367   0.00000   0.00292   0.00279  37.62724
   Z355      19.27521  -0.00589   0.00000  -0.00321  -0.00366  19.27155
   X356      53.46035   0.02030   0.00000   0.01417   0.01451  53.47486
   Y356      31.21828  -0.00682   0.00000  -0.00687  -0.00677  31.21151
   Z356      46.16601  -0.00901   0.00000  -0.01560  -0.01617  46.14984
   X357      52.78005  -0.00468   0.00000  -0.00387  -0.00349  52.77656
   Y357      29.70649   0.00114   0.00000   0.00509   0.00516  29.71166
   Z357      46.90300   0.00356   0.00000   0.00490   0.00432  46.90732
   X358      52.02416  -0.01343   0.00000  -0.00747  -0.00716  52.01700
   Y358      32.25763   0.00727   0.00000   0.00442   0.00449  32.26211
   Z358      45.84476   0.00669   0.00000   0.01453   0.01398  45.85873
   X359      24.30188  -0.00957   0.00000  -0.00429  -0.00395  24.29793
   Y359      29.32855  -0.02135   0.00000  -0.01768  -0.01807  29.31048
   Z359      28.15692   0.00407   0.00000   0.00656   0.00603  28.16295
   X360      25.39792   0.00359   0.00000   0.00135   0.00171  25.39963
   Y360      28.79943   0.00580   0.00000   0.00894   0.00860  28.80803
   Z360      26.81521  -0.00571   0.00000  -0.00628  -0.00682  26.80840
   X361      24.84990   0.00669   0.00000   0.00312   0.00342  24.85332
   Y361      30.99151   0.01299   0.00000   0.00528   0.00490  30.99641
   Z361      28.57266  -0.00492   0.00000  -0.01058  -0.01109  28.56157
   X362      39.68425   0.01264   0.00000   0.00730   0.00703  39.69128
   Y362      55.86030   0.00913   0.00000   0.00890   0.00876  55.86906
   Z362      38.47482   0.00095   0.00000   0.00625   0.00600  38.48082
   X363      38.11578  -0.00882   0.00000  -0.00232  -0.00256  38.11321
   Y363      55.08552  -0.01152   0.00000  -0.01257  -0.01275  55.07277
   Z363      38.89056   0.00135   0.00000  -0.00200  -0.00226  38.88830
   X364      40.93147  -0.00232   0.00000  -0.00163  -0.00187  40.92960
   Y364      54.83985  -0.00198   0.00000  -0.00370  -0.00382  54.83603
   Z364      39.34410  -0.00031   0.00000  -0.00001  -0.00028  39.34382
   X365      50.92812  -0.01229   0.00000  -0.00974  -0.00955  50.91857
   Y365      37.79452  -0.00667   0.00000  -0.00154  -0.00154  37.79298
   Z365      49.92656   0.00766   0.00000   0.00638   0.00589  49.93245
   X366      52.66667   0.00732   0.00000   0.00072   0.00092  52.66759
   Y366      37.34099  -0.00384   0.00000  -0.00505  -0.00501  37.33598
   Z366      49.73759  -0.00522   0.00000  -0.00709  -0.00759  49.73000
   X367      50.79584  -0.00020   0.00000  -0.00090  -0.00075  50.79509
   Y367      39.41969   0.01092   0.00000   0.00735   0.00735  39.42704
   Z367      49.15178  -0.00798   0.00000  -0.00788  -0.00835  49.14342
   X368      48.54706   0.00865   0.00000   0.00444   0.00489  48.55196
   Y368      25.00108   0.00608   0.00000   0.00550   0.00566  25.00673
   Z368      31.33166  -0.02772   0.00000  -0.01968  -0.02031  31.31135
   X369      46.97859  -0.00624   0.00000  -0.00544  -0.00497  46.97362
   Y369      24.30188  -0.00448   0.00000  -0.00535  -0.00523  24.29665
   Z369      30.76474   0.00128   0.00000   0.00182   0.00118  30.76592
   X370      48.45258  -0.00223   0.00000  -0.00015   0.00031  48.45289
   Y370      24.92549  -0.00639   0.00000  -0.00916  -0.00903  24.91646
   Z370      33.12690   0.01952   0.00000   0.00723   0.00660  33.13350
   X371      20.44684  -0.00032   0.00000  -0.00563  -0.00546  20.44138
   Y371      37.56776   0.01550   0.00000   0.01202   0.01142  37.57918
   Z371      38.90946   0.00988   0.00000   0.01033   0.00991  38.91937
   X372      20.12558   0.00211   0.00000   0.00575   0.00592  20.13150
   Y372      37.68114  -0.00423   0.00000  -0.00523  -0.00582  37.67532
   Z372      37.13312  -0.00614   0.00000  -0.00190  -0.00232  37.13079
   X373      20.20117  -0.00080   0.00000   0.00103   0.00124  20.20241
   Y373      35.82921  -0.01236   0.00000  -0.00691  -0.00753  35.82168
   Z373      39.30630  -0.00110   0.00000  -0.00250  -0.00294  39.30336
   X374      33.14580  -0.00405   0.00000   0.00682   0.00700  33.15280
   Y374      38.68269  -0.02557   0.00000  -0.01697  -0.01746  38.66523
   Z374      55.52015   0.00693   0.00000   0.00075   0.00031  55.52046
   X375      33.73161   0.01270   0.00000   0.01108   0.01122  33.74284
   Y375      40.08109   0.02499   0.00000   0.01927   0.01880  40.09989
   Z375      54.55639  -0.01049   0.00000  -0.00272  -0.00314  54.55325
   X376      33.92058   0.00151   0.00000  -0.00024  -0.00006  33.92053
   Y376      38.89056   0.00238   0.00000   0.00243   0.00194  38.89250
   Z376      57.14532   0.00552   0.00000   0.00671   0.00627  57.15159
   X377      31.52063   0.00494   0.00000   0.00952   0.00985  31.53048
   Y377      29.34745  -0.01670   0.00000  -0.01151  -0.01165  29.33579
   Z377      22.16649   0.00169   0.00000   0.00519   0.00465  22.17113
   X378      31.44504  -0.00977   0.00000  -0.01752  -0.01722  31.42782
   Y378      30.89702   0.01390   0.00000   0.01052   0.01037  30.90739
   Z378      23.11135   0.00235   0.00000  -0.00222  -0.00275  23.10860
   X379      31.93637   0.00191   0.00000   0.00168   0.00199  31.93837
   Y379      29.87657   0.00237   0.00000   0.00064   0.00053  29.87710
   Z379      20.48463  -0.00322   0.00000   0.00005  -0.00049  20.48414
   X380      26.09712  -0.00301   0.00000  -0.00056  -0.00059  26.09653
   Y380      46.73293  -0.00288   0.00000  -0.00471  -0.00530  46.72762
   Z380      49.26516   0.04196   0.00000   0.03397   0.03364  49.29880
   X381      26.43727   0.00744   0.00000   0.00688   0.00685  26.44412
   Y381      46.88411   0.00759   0.00000   0.01219   0.01163  46.89574
   Z381      47.50771  -0.02424   0.00000  -0.00328  -0.00361  47.50410
   X382      24.98218  -0.00542   0.00000  -0.00814  -0.00813  24.97405
   Y382      45.31563  -0.00433   0.00000  -0.00500  -0.00562  45.31001
   Z382      49.37854  -0.00152   0.00000  -0.00068  -0.00102  49.37752
   X383      28.89391  -0.00410   0.00000  -0.00463  -0.00451  28.88940
   Y383      41.27162   0.00511   0.00000   0.01040   0.00983  41.28145
   Z383      53.85719  -0.01298   0.00000  -0.01166  -0.01207  53.84513
   X384      28.85612   0.00088   0.00000  -0.00050  -0.00038  28.85573
   Y384      41.49839  -0.00057   0.00000  -0.00095  -0.00155  41.49684
   Z384      55.65243   0.00407   0.00000  -0.00133  -0.00173  55.65071
   X385      30.55687  -0.00359   0.00000  -0.00756  -0.00743  30.54944
   Y385      40.61021  -0.00485   0.00000  -0.00824  -0.00878  40.60144
   Z385      53.53594   0.00558   0.00000   0.00812   0.00771  53.54365
         Item               Value     Threshold  Converged?
 Maximum Force            0.041956     0.000450     NO 
 RMS     Force            0.010204     0.000300     NO 
 Maximum Displacement     0.033641     0.001800     NO 
 RMS     Displacement     0.008848     0.001200     NO 
 Predicted change in Energy=-7.169231D-02
 GradGradGradGradGradGradGradGradGradGradGradGradGradGradGradGradGradGrad

 Leave Link  103 at Sat May  5 05:42:38 2018, MaxMem= 14763950080 cpu:      2579.1
 (Enter /cm/shared/gaussian/g09.e01/intel64-sandybridge/g09/l9999.exe)
 1\1\GINC-POPLE01\Force\RPBE1PBE\CC-pVDZ\Br1H256O128(1-)\M.PELUSO\05-Ma
 y-2018\0\\#p PBE1PBE/cc-pvDZ force Counterpoise=2 noSymm\\forces on ch
 loride comput - NWATER: 128\\-1,1\Br,20.,20.,20.\O,22.8,18.62,19.95\H,
 21.97,19.07,19.82\H,22.68,18.1,20.74\O,22.5,21.96,20.75\H,21.9,21.21,2
 0.69\H,21.98,22.7,20.44\O,21.42,18.43,22.43\H,20.85,18.55,21.67\H,21.1
 1,19.08,23.07\O,19.72,23.08,21.4\H,19.73,22.25,20.93\H,19.82,22.84,22.
 32\O,17.34,18.92,21.59\H,17.93,18.9,20.83\H,17.57,19.72,22.06\O,20.03,
 17.92,17.23\H,20.13,18.59,17.9\H,19.95,17.1,17.71\O,18.75,21.16,16.96\
 H,18.53,20.51,17.63\H,19.66,21.41,17.16\O,16.81,17.93,17.92\H,16.94,18
 .72,18.45\H,16.86,18.23,17.01\O,17.11,22.9,18.36\H,17.4,22.71,19.25\H,
 17.45,22.17,17.84\O,24.08,20.25,18.41\H,23.77,19.58,19.02\H,23.53,21.0
 1,18.58\O,15.29,20.21,19.92\H,16.03,19.61,19.97\H,14.89,20.16,20.78\O,
 17.72,21.71,22.8\H,17.23,22.04,22.05\H,17.74,22.45,23.42\O,20.5,20.12,
 24.41\H,20.82,20.98,24.15\H,20.31,20.21,25.35\O,17.52,16.85,23.65\H,18
 .02,17.24,22.93\H,17.05,16.12,23.24\O,22.61,15.88,22.21\H,23.46,16.32,
 22.15\H,22.,16.57,22.47\O,16.98,19.41,24.7\H,17.06,18.52,24.37\H,17.63
 ,19.92,24.22\O,18.28,18.13,14.79\H,18.72,18.25,15.63\H,18.49,17.24,14.
 53\O,24.98,22.54,22.13\H,24.16,22.19,21.76\H,25.22,23.25,21.53\O,18.23
 ,25.66,20.71\H,18.79,26.37,21.02\H,18.79,24.88,20.74\O,22.64,25.,21.57
 \H,22.26,24.19,21.91\H,23.23,25.29,22.26\O,22.22,17.45,24.99\H,21.82,1
 7.47,24.12\H,22.4,18.37,25.19\O,24.17,19.,15.88\H,24.01,19.5,16.68\H,2
 3.99,19.62,15.17\O,16.22,23.49,21.3\H,16.52,23.91,20.49\H,15.27,23.6,2
 1.29\O,19.13,14.77,19.38\H,18.99,14.38,18.52\H,19.99,14.44,19.66\O,14.
 4,19.47,22.53\H,15.31,19.65,22.79\H,13.93,19.39,23.36\O,16.93,14.74,21
 .11\H,16.55,14.11,20.51\H,17.7,15.07,20.65\O,21.29,17.64,14.56\H,21.17
 ,17.22,15.41\H,22.18,17.99,14.58\O,14.09,17.36,20.82\H,14.99,17.62,20.
 6\H,13.76,18.07,21.38\O,21.58,26.28,19.59\H,22.38,26.64,19.98\H,21.47,
 25.43,20.02\O,21.22,23.01,24.65\H,21.63,23.85,24.47\H,21.37,22.86,25.5
 9\O,23.93,15.25,17.93\H,23.77,16.18,17.8\H,24.87,15.19,18.11\O,21.54,2
 4.12,16.2\H,22.3,24.26,16.76\H,21.19,25.,16.05\O,26.53,20.08,21.47\H,2
 6.39,21.03,21.46\H,25.78,19.72,21.\O,19.36,23.79,14.46\H,19.85,23.33,1
 5.14\H,19.81,24.63,14.36\O,15.77,15.64,16.91\H,16.16,16.39,17.36\H,14.
 85,15.88,16.81\O,24.05,23.9,18.14\H,24.13,24.45,17.37\H,24.42,24.42,18
 .85\O,21.18,13.8,20.99\H,21.8,14.46,21.3\H,21.73,13.06,20.73\O,16.65,2
 3.42,15.48\H,17.52,23.3,15.11\H,16.79,23.57,16.41\O,17.29,24.26,23.78\
 H,16.91,24.17,24.65\H,16.63,23.89,23.19\O,23.16,21.71,14.69\H,22.48,22
 .34,14.93\H,22.74,21.12,14.07\O,25.62,22.34,16.22\H,25.2,22.25,15.37\H
 ,24.92,22.2,16.86\O,26.19,22.86,19.39\H,27.04,22.46,19.21\H,25.64,22.5
 8,18.66\O,15.47,25.27,17.95\H,15.27,25.47,17.04\H,15.92,24.43,17.92\O,
 25.78,17.41,17.25\H,26.61,17.7,17.63\H,25.36,18.22,16.94\O,12.88,20.16
 ,18.48\H,12.29,20.91,18.48\H,13.65,20.46,18.95\O,25.22,16.67,21.89\H,2
 5.93,16.22,21.43\H,25.65,17.11,22.62\O,15.2,20.91,14.97\H,15.17,21.16,
 14.05\H,15.66,21.63,15.4\O,23.42,20.03,25.61\H,24.32,19.78,25.41\H,23.
 46,20.98,25.74\O,17.76,20.6,13.01\H,17.63,21.31,13.64\H,17.96,19.84,13
 .55\O,21.46,13.99,16.49\H,21.69,14.36,15.63\H,22.19,14.22,17.06\O,17.7
 9,16.81,26.49\H,17.01,16.55,26.99\H,17.47,16.95,25.6\O,19.14,25.65,25.
 27\H,18.31,26.06,25.53\H,18.91,25.11,24.51\O,15.38,22.01,25.59\H,15.85
 ,21.2,25.42\H,15.16,21.98,26.52\O,13.26,17.12,18.16\H,12.98,18.02,18.3
 \H,13.74,16.88,18.95\O,18.81,13.83,16.72\H,18.29,13.94,15.92\H,19.72,1
 3.86,16.42\O,16.08,26.55,22.1\H,16.9,26.13,21.83\H,15.73,26.94,21.31\O
 ,14.78,15.46,22.51\H,14.34,16.12,21.96\H,15.15,14.84,21.88\O,21.22,13.
 57,24.32\H,21.7,14.12,23.7\H,20.37,14.,24.42\O,24.59,13.72,22.32\H,24.
 06,14.51,22.19\H,25.39,13.88,21.83\O,15.96,17.71,13.24\H,15.14,18.11,1
 3.52\H,16.59,17.95,13.93\O,24.21,25.12,23.87\H,25.03,25.62,23.87\H,24.
 49,24.21,23.85\O,20.24,15.55,26.39\H,19.38,15.94,26.54\H,20.81,16.29,2
 6.19\O,13.64,23.65,21.1\H,13.12,23.03,20.59\H,13.24,24.5,20.93\O,13.83
 ,18.09,15.31\H,13.54,17.88,16.2\H,14.22,18.96,15.39\O,26.24,22.54,24.7
 5\H,27.06,23.04,24.67\H,25.92,22.47,23.85\O,18.19,15.44,14.27\H,18.83,
 14.83,13.9\H,17.35,15.14,13.93\O,13.28,22.46,23.99\H,13.4,21.72,23.39\
 H,13.79,22.23,24.76\O,25.54,16.85,24.76\H,24.76,17.01,25.28\H,25.6,15.
 9,24.7\O,14.77,13.41,18.33\H,15.45,12.84,17.96\H,15.05,14.3,18.09\O,22
 .12,22.67,27.02\H,22.55,23.28,27.62\H,21.59,22.11,27.59\O,19.91,16.66,
 12.14\H,19.31,16.19,12.71\H,20.45,17.19,12.73\O,14.45,25.12,23.66\H,14
 .28,24.28,23.24\H,15.04,25.57,23.06\O,13.22,22.99,15.95\H,12.49,22.65,
 15.44\H,13.99,22.53,15.63\O,19.32,27.63,22.39\H,19.26,28.58,22.43\H,20
 .17,27.42,22.77\O,22.83,20.21,12.58\H,23.45,20.41,11.88\H,21.97,20.29,
 12.17\O,25.03,13.05,19.17\H,24.94,12.23,19.66\H,24.14,13.27,18.91\O,17
 .75,27.55,17.23\H,17.32,28.22,16.71\H,17.04,27.04,17.61\O,20.3,26.47,1
 5.27\H,19.88,26.97,15.98\H,20.8,27.13,14.78\O,16.,14.11,25.13\H,15.15,
 13.84,25.48\H,15.8,14.84,24.54\O,26.58,25.68,18.84\H,27.17,26.05,19.5\
 H,26.44,24.77,19.11\O,20.67,28.21,17.48\H,19.75,28.2,17.72\H,21.12,27.
 79,18.21\O,25.93,15.7,15.07\H,25.41,15.02,15.49\H,25.78,16.48,15.6\O,2
 4.95,23.71,13.88\H,25.41,23.64,13.04\H,24.28,23.03,13.85\O,23.55,19.98
 ,28.29\H,23.52,19.95,27.34\H,22.64,20.07,28.56\O,24.39,25.45,15.83\H,2
 3.64,25.97,15.55\H,24.56,24.85,15.1\O,13.93,26.54,20.05\H,14.44,27.3,1
 9.78\H,14.3,25.81,19.54\O,20.16,20.77,11.43\H,20.14,19.96,10.91\H,19.3
 2,20.78,11.89\O,26.83,15.41,20.57\H,27.52,14.93,21.03\H,26.38,14.74,20
 .06\O,22.48,14.91,13.92\H,22.37,15.45,13.14\H,23.27,14.39,13.75\O,24.2
 ,18.03,12.63\H,24.4,17.77,11.73\H,23.46,18.63,12.55\O,20.81,20.46,28.7
 5\H,20.74,20.07,29.62\H,19.93,20.37,28.37\O,13.31,19.35,25.05\H,12.42,
 19.62,25.29\H,13.68,19.01,25.86\O,19.45,11.36,22.08\H,20.05,11.92,22.5
 7\H,18.89,10.96,22.74\O,23.83,17.06,27.96\H,23.29,16.87,27.19\H,23.75,
 18.01,28.07\O,26.6,24.92,22.19\H,26.88,24.56,23.03\H,27.31,24.69,21.58
 \O,11.97,23.01,18.61\H,11.14,23.47,18.6\H,12.36,23.19,17.75\O,21.4,11.
 32,17.69\H,21.76,12.06,17.19\H,20.67,11.01,17.16\O,27.91,20.87,15.15\H
 ,27.25,21.46,15.53\H,27.4,20.27,14.61\O,15.83,28.33,19.66\H,16.72,28.0
 3,19.85\H,15.91,28.79,18.82\O,26.87,18.58,13.92\H,27.2,17.78,14.32\H,2
 5.92,18.43,13.85\O,18.49,24.2,11.46\H,18.05,23.55,10.91\H,18.76,23.71,
 12.23\O,17.22,11.85,18.36\H,17.96,11.6,18.91\H,17.47,11.58,17.48\O,29.
 11,19.69,23.11\H,29.48,18.96,22.62\H,28.35,19.96,22.59\O,25.43,27.26,2
 1.29\H,24.53,27.38,21.6\H,25.71,26.44,21.7\O,28.01,23.66,15.98\H,28.48
 ,22.82,15.96\H,27.1,23.43,16.15\O,16.82,25.61,12.81\H,17.49,25.09,12.3
 5\H,16.89,25.32,13.72\O,18.2,17.44,29.15\H,17.69,18.22,29.38\H,18.07,1
 7.34,28.2\O,15.38,13.23,15.17\H,15.37,13.58,16.06\H,14.76,13.77,14.69\
 O,18.31,22.95,28.17\H,18.96,23.32,28.77\H,17.64,23.63,28.09\O,22.76,11
 .52,19.95\H,22.5,10.64,20.25\H,22.5,11.55,19.03\O,19.57,10.62,19.64\H,
 20.13,11.12,19.05\H,19.54,11.14,20.45\O,18.63,13.11,25.84\H,19.22,13.6
 6,26.35\H,17.82,13.6,25.79\O,23.,28.25,22.48\H,22.34,28.,23.13\H,23.28
 ,29.13,22.74\O,14.35,18.22,27.46\H,15.2,17.82,27.28\H,14.18,18.04,28.3
 8\O,24.65,13.88,25.08\H,24.58,13.5,24.21\H,24.16,13.27,25.64\O,28.81,1
 6.18,18.55\H,28.54,16.83,17.9\H,28.08,16.12,19.16\O,22.99,11.4,22.94\H
 ,23.57,12.16,22.89\H,22.59,11.46,23.81\O,15.72,19.58,10.93\H,16.27,19.
 75,11.7\H,16.24,19.91,10.2\O,28.29,16.52,24.43\H,27.93,15.72,24.82\H,2
 7.53,17.07,24.26\O,12.86,15.52,14.9\H,13.44,15.24,14.19\H,13.15,16.4,1
 5.12\O,21.,29.56,20.36\H,20.17,29.15,20.58\H,21.66,29.02,20.82\O,26.95
 ,20.,26.42\H,27.87,19.76,26.32\H,26.88,20.86,26.01\O,25.69,13.23,16.58
 \H,24.86,12.86,16.28\H,25.64,13.19,17.53\O,10.82,19.88,20.59\H,10.65,1
 9.94,19.65\H,10.69,18.96,20.8\O,17.54,20.47,29.38\H,17.85,21.21,28.87\
 H,17.95,20.58,30.24\O,16.68,15.53,11.73\H,16.64,16.35,12.23\H,16.9,15.
 81,10.84\O,13.81,24.73,26.07\H,13.99,24.81,25.14\H,13.22,23.98,26.13\O
 ,15.29,21.84,28.5\H,15.27,21.96,29.45\H,16.17,21.49,28.33\\Version=ES6
 4L-G09RevE.01\HF=-9773.2463893\RMSD=1.601e-09\RMSF=1.020e-02\Dipole=0.
 8554216,9.3594937,1.4419819\Quadrupole=-337.7652512,388.4811794,-50.71
 59282,-1054.1481918,-1377.988973,-939.3179547\PG=C01 [X(Br1H256O128)]\
 \@


 LAW OF COMPENSATION:
      NO CALCULATION IS EVER A COMPLETE FAILURE; IT 
      CAN ALWAYS SERVE AS A BAD EXAMPLE.

                                           -- ANON
 Job cpu time:       6 days  8 hours 35 minutes  0.4 seconds.
 File lengths (MBytes):  RWF=   7285 Int=      0 D2E=      0 Chk=   2411 Scr=      1
 Normal termination of Gaussian 09 at Sat May  5 05:43:01 2018.
