 Entering Gaussian System, Link 0=/cm/shared/gaussian/g09.e01/intel64-sandybridge/g09/g09
 Initial command:
 /cm/shared/gaussian/g09.e01/intel64-sandybridge/g09/l1.exe "/local/scratch/m.peluso/128_wat/370/Gau-4362.inp" -scrdir="/local/scratch/m.peluso/128_wat/370/"
 Entering Link 1 = /cm/shared/gaussian/g09.e01/intel64-sandybridge/g09/l1.exe PID=      4363.
  
 Copyright (c) 1988,1990,1992,1993,1995,1998,2003,2009,2015,
            Gaussian, Inc.  All Rights Reserved.
  
 This is part of the Gaussian(R) 09 program.  It is based on
 the Gaussian(R) 03 system (copyright 2003, Gaussian, Inc.),
 the Gaussian(R) 98 system (copyright 1998, Gaussian, Inc.),
 the Gaussian(R) 94 system (copyright 1995, Gaussian, Inc.),
 the Gaussian 92(TM) system (copyright 1992, Gaussian, Inc.),
 the Gaussian 90(TM) system (copyright 1990, Gaussian, Inc.),
 the Gaussian 88(TM) system (copyright 1988, Gaussian, Inc.),
 the Gaussian 86(TM) system (copyright 1986, Carnegie Mellon
 University), and the Gaussian 82(TM) system (copyright 1983,
 Carnegie Mellon University). Gaussian is a federally registered
 trademark of Gaussian, Inc.
  
 This software contains proprietary and confidential information,
 including trade secrets, belonging to Gaussian, Inc.
  
 This software is provided under written license and may be
 used, copied, transmitted, or stored only in accord with that
 written license.
  
 The following legend is applicable only to US Government
 contracts under FAR:
  
                    RESTRICTED RIGHTS LEGEND
  
 Use, reproduction and disclosure by the US Government is
 subject to restrictions as set forth in subparagraphs (a)
 and (c) of the Commercial Computer Software - Restricted
 Rights clause in FAR 52.227-19.
  
 Gaussian, Inc.
 340 Quinnipiac St., Bldg. 40, Wallingford CT 06492
  
  
 ---------------------------------------------------------------
 Warning -- This program may not be used in any manner that
 competes with the business of Gaussian, Inc. or will provide
 assistance to any competitor of Gaussian, Inc.  The licensee
 of this program is prohibited from giving any competitor of
 Gaussian, Inc. access to this program.  By using this program,
 the user acknowledges that Gaussian, Inc. is engaged in the
 business of creating and licensing software in the field of
 computational chemistry and represents and warrants to the
 licensee that it is not a competitor of Gaussian, Inc. and that
 it will not use this program in any manner prohibited above.
 ---------------------------------------------------------------
  

 Cite this work as:
 Gaussian 09, Revision E.01,
 M. J. Frisch, G. W. Trucks, H. B. Schlegel, G. E. Scuseria, 
 M. A. Robb, J. R. Cheeseman, G. Scalmani, V. Barone, B. Mennucci, 
 G. A. Petersson, H. Nakatsuji, M. Caricato, X. Li, H. P. Hratchian, 
 A. F. Izmaylov, J. Bloino, G. Zheng, J. L. Sonnenberg, M. Hada, 
 M. Ehara, K. Toyota, R. Fukuda, J. Hasegawa, M. Ishida, T. Nakajima, 
 Y. Honda, O. Kitao, H. Nakai, T. Vreven, J. A. Montgomery, Jr., 
 J. E. Peralta, F. Ogliaro, M. Bearpark, J. J. Heyd, E. Brothers, 
 K. N. Kudin, V. N. Staroverov, T. Keith, R. Kobayashi, J. Normand, 
 K. Raghavachari, A. Rendell, J. C. Burant, S. S. Iyengar, J. Tomasi, 
 M. Cossi, N. Rega, J. M. Millam, M. Klene, J. E. Knox, J. B. Cross, 
 V. Bakken, C. Adamo, J. Jaramillo, R. Gomperts, R. E. Stratmann, 
 O. Yazyev, A. J. Austin, R. Cammi, C. Pomelli, J. W. Ochterski, 
 R. L. Martin, K. Morokuma, V. G. Zakrzewski, G. A. Voth, 
 P. Salvador, J. J. Dannenberg, S. Dapprich, A. D. Daniels, 
 O. Farkas, J. B. Foresman, J. V. Ortiz, J. Cioslowski, 
 and D. J. Fox, Gaussian, Inc., Wallingford CT, 2013.
 
 ******************************************
 Gaussian 09:  ES64L-G09RevE.01 30-Nov-2015
                10-May-2018 
 ******************************************
 %Mem=110GB
 %NProcShared=64
 Will use up to   64 processors via shared memory.
 %chk=snap99.chk
 ----------------------------------------------
 #p PBE1PBE/cc-pvDZ force Counterpoise=2 noSymm
 ----------------------------------------------
 1/10=7,30=1,38=1,62=2/1,3;
 2/12=2,15=1,17=6,18=5,40=1/2;
 1/10=7,30=1,38=1,53=2,62=2,63=101/22;
 3/5=16,11=2,16=1,25=1,30=1,71=1,74=-13/1,2,3;
 4//1;
 5/5=2,38=5/2;
 6/7=2,8=2,9=2,10=2,28=1/1;
 7/7=1,29=1,30=1,33=-1/1,2,3,16;
 1/10=7,30=1,53=2,62=2,63=101/22;
 3/5=7,6=11,11=2,16=1,25=1,30=1,71=1,74=-13,82=7/1,2,3;
 4//1;
 5/5=2,38=5/2;
 6/7=2,8=2,9=2,10=2,28=1/1;
 7/7=1,29=1,30=1,33=-1/1,2,3,16;
 1/10=7,30=1,53=2,62=2,63=101/22(-5);
 7/9=1,29=1,44=-1/16;
 1/10=7,30=1,62=2/3;
 99//99;
 Leave Link    1 at Thu May 10 04:11:08 2018, MaxMem= 14763950080 cpu:         7.8
 (Enter /cm/shared/gaussian/g09.e01/intel64-sandybridge/g09/l101.exe)
 ---------------------------------------
 forces on chloride comput - NWATER: 128
 ---------------------------------------
 Symbolic Z-matrix:
 Charge = -1 Multiplicity = 1 in supermolecule
 Charge = -1 Multiplicity = 1 in fragment      1.
 Charge =  0 Multiplicity = 1 in fragment      2.
 Br(Fragment=1)        20.       20.       20. 
 O(Fragment=2)         21.5      19.06     22.68 
 H(Fragment=2)         21.5      18.1      22.72 
 H(Fragment=2)         20.87     19.27     21.99 
 O(Fragment=2)         19.06     17.03     21.15 
 H(Fragment=2)         19.32     17.92     20.92 
 H(Fragment=2)         18.11     17.02     21.07 
 O(Fragment=2)         21.21     22.08     17.65 
 H(Fragment=2)         21.1      21.31     18.21 
 H(Fragment=2)         20.47     22.65     17.88 
 O(Fragment=2)         20.75     22.83     21.05 
 H(Fragment=2)         19.96     22.82     20.5 
 H(Fragment=2)         21.22     22.04     20.8 
 O(Fragment=2)         18.55     20.4      16.92 
 H(Fragment=2)         19.13     19.76     16.51 
 H(Fragment=2)         18.66     20.25     17.86 
 O(Fragment=2)         18.64     17.37     18.36 
 H(Fragment=2)         19.42     17.49     18.89 
 H(Fragment=2)         18.95     16.89     17.58 
 O(Fragment=2)         18.       19.87     23.16 
 H(Fragment=2)         18.47     20.08     22.36 
 H(Fragment=2)         17.47     19.11     22.94 
 O(Fragment=2)         21.42     16.99     18.79 
 H(Fragment=2)         21.76     17.64     19.41 
 H(Fragment=2)         22.12     16.33     18.73 
 O(Fragment=2)         16.69     22.       19.49 
 H(Fragment=2)         17.54     22.17     19.09 
 H(Fragment=2)         16.84     21.25     20.06 
 O(Fragment=2)         16.63     19.08     20.52 
 H(Fragment=2)         16.88     18.57     19.75 
 H(Fragment=2)         15.67     19.08     20.5 
 O(Fragment=2)         23.3      18.41     20.17 
 H(Fragment=2)         23.95     17.71     20.19 
 H(Fragment=2)         23.37     18.82     21.04 
 O(Fragment=2)         23.35     19.76     16.93 
 H(Fragment=2)         22.94     19.76     16.07 
 H(Fragment=2)         22.73     19.29     17.49 
 O(Fragment=2)         19.16     23.55     18.86 
 H(Fragment=2)         18.45     23.95     19.36 
 H(Fragment=2)         19.32     24.17     18.15 
 O(Fragment=2)         24.22     21.43     19.05 
 H(Fragment=2)         23.71     20.95     19.71 
 H(Fragment=2)         23.81     21.2      18.22 
 O(Fragment=2)         22.83     21.55     23.18 
 H(Fragment=2)         22.19     22.26     23.27 
 H(Fragment=2)         22.3      20.77     23.03 
 O(Fragment=2)         20.57     18.53     15.99 
 H(Fragment=2)         20.24     17.85     15.41 
 H(Fragment=2)         20.9      18.05     16.75 
 O(Fragment=2)         21.82     16.38     22.01 
 H(Fragment=2)         22.28     15.62     21.67 
 H(Fragment=2)         21.07     16.49     21.42 
 O(Fragment=2)         18.66     23.84     22.32 
 H(Fragment=2)         18.81     23.15     22.97 
 H(Fragment=2)         19.49     23.89     21.84 
 O(Fragment=2)         19.03     22.17     24.36 
 H(Fragment=2)         18.92     21.24     24.15 
 H(Fragment=2)         19.72     22.18     25.02 
 O(Fragment=2)         20.54     19.34     25.19 
 H(Fragment=2)         21.22     19.04     25.78 
 H(Fragment=2)         20.94     19.32     24.32 
 O(Fragment=2)         19.63     16.8      23.97 
 H(Fragment=2)         19.93     16.51     23.11 
 H(Fragment=2)         19.65     17.76     23.92 
 O(Fragment=2)         21.2      21.12     14.97 
 H(Fragment=2)         20.79     20.44     15.5 
 H(Fragment=2)         20.82     21.94     15.28 
 O(Fragment=2)         16.38     22.35     22.83 
 H(Fragment=2)         17.04     21.72     23.11 
 H(Fragment=2)         16.44     22.35     21.88 
 O(Fragment=2)         16.08     17.3      17.2 
 H(Fragment=2)         17.02     17.34     17.41 
 H(Fragment=2)         15.83     16.4      17.43 
 O(Fragment=2)         22.38     25.16     20.3 
 H(Fragment=2)         23.24     24.76     20.35 
 H(Fragment=2)         21.77     24.45     20.51 
 O(Fragment=2)         16.26     19.6      15.47 
 H(Fragment=2)         17.13     19.8      15.81 
 H(Fragment=2)         16.05     18.74     15.84 
 O(Fragment=2)         22.65     23.79     16.12 
 H(Fragment=2)         22.6      23.01     16.68 
 H(Fragment=2)         21.75     23.94     15.84 
 O(Fragment=2)         24.89     23.92     20.11 
 H(Fragment=2)         25.61     24.16     19.52 
 H(Fragment=2)         24.66     23.02     19.85 
 O(Fragment=2)         25.16     17.82     16.89 
 H(Fragment=2)         25.9      17.92     17.5 
 H(Fragment=2)         24.63     18.61     17.03 
 O(Fragment=2)         14.06     22.71     18.96 
 H(Fragment=2)         13.61     22.5      19.78 
 H(Fragment=2)         14.98     22.53     19.14 
 O(Fragment=2)         18.99     16.45     15.54 
 H(Fragment=2)         19.1      16.56     14.6 
 H(Fragment=2)         18.98     15.51     15.67 
 O(Fragment=2)         16.92     24.91     19.55 
 H(Fragment=2)         17.07     25.85     19.64 
 H(Fragment=2)         16.22     24.72     20.17 
 O(Fragment=2)         15.49     17.8      23.67 
 H(Fragment=2)         15.65     18.74     23.73 
 H(Fragment=2)         14.55     17.72     23.54 
 O(Fragment=2)         17.9      25.12     16.76 
 H(Fragment=2)         17.37     25.9      16.58 
 H(Fragment=2)         17.52     24.76     17.56 
 O(Fragment=2)         22.91     15.53     16.53 
 H(Fragment=2)         23.64     14.98     16.25 
 H(Fragment=2)         23.3      16.39     16.7 
 O(Fragment=2)         18.66     14.3      18.82 
 H(Fragment=2)         17.89     14.58     18.32 
 H(Fragment=2)         18.34     14.2      19.72 
 O(Fragment=2)         15.12     22.13     16.14 
 H(Fragment=2)         15.18     21.25     15.78 
 H(Fragment=2)         15.13     22.       17.09 
 O(Fragment=2)         20.01     24.       15.42 
 H(Fragment=2)         20.19     24.59     14.69 
 H(Fragment=2)         19.21     24.36     15.82 
 O(Fragment=2)         14.78     20.51     24.36 
 H(Fragment=2)         15.06     21.03     23.61 
 H(Fragment=2)         14.95     21.08     25.12 
 O(Fragment=2)         21.34     26.02     17.68 
 H(Fragment=2)         21.83     25.73     18.45 
 H(Fragment=2)         21.91     25.81     16.94 
 O(Fragment=2)         13.82     19.69     20.66 
 H(Fragment=2)         13.19     20.41     20.72 
 H(Fragment=2)         13.38     19.03     20.11 
 O(Fragment=2)         23.6      15.89     24.42 
 H(Fragment=2)         23.5      16.47     25.17 
 H(Fragment=2)         22.8      16.01     23.91 
 O(Fragment=2)         16.12     25.07     23.15 
 H(Fragment=2)         16.91     24.68     22.78 
 H(Fragment=2)         15.51     24.34     23.24 
 O(Fragment=2)         26.33     20.76     21.58 
 H(Fragment=2)         26.16     21.09     20.7 
 H(Fragment=2)         26.79     21.47     22.03 
 O(Fragment=2)         24.95     16.23     21.61 
 H(Fragment=2)         24.43     15.96     22.37 
 H(Fragment=2)         24.59     15.71     20.89 
 O(Fragment=2)         25.61     18.33     23.08 
 H(Fragment=2)         25.74     19.13     22.57 
 H(Fragment=2)         25.56     17.64     22.42 
 O(Fragment=2)         17.5      22.86     14.44 
 H(Fragment=2)         18.06     23.41     14.98 
 H(Fragment=2)         16.73     22.69     14.97 
 O(Fragment=2)         19.64     13.9      16.32 
 H(Fragment=2)         19.83     14.25     17.19 
 H(Fragment=2)         19.28     13.03     16.49 
 O(Fragment=2)         25.33     22.5      24.42 
 H(Fragment=2)         25.67     22.95     23.64 
 H(Fragment=2)         24.6      21.98     24.09 
 O(Fragment=2)         13.61     17.64     18.92 
 H(Fragment=2)         13.34     16.72     18.9 
 H(Fragment=2)         14.21     17.72     18.18 
 O(Fragment=2)         26.33     18.4      19.39 
 H(Fragment=2)         26.29     18.45     20.34 
 H(Fragment=2)         26.74     19.22     19.12 
 O(Fragment=2)         17.24     16.52     25.3 
 H(Fragment=2)         16.66     16.84     24.61 
 H(Fragment=2)         17.99     16.16     24.83 
 O(Fragment=2)         25.42     23.58     16.7 
 H(Fragment=2)         25.49     23.47     15.75 
 H(Fragment=2)         24.48     23.51     16.88 
 O(Fragment=2)         20.31     27.13     21.46 
 H(Fragment=2)         20.7      26.42     20.95 
 H(Fragment=2)         20.43     26.86     22.37 
 O(Fragment=2)         20.83     16.23     26.44 
 H(Fragment=2)         21.57     16.81     26.57 
 H(Fragment=2)         20.42     16.54     25.63 
 O(Fragment=2)         22.69     14.06     21.18 
 H(Fragment=2)         22.77     13.69     20.3 
 H(Fragment=2)         22.41     13.33     21.73 
 O(Fragment=2)         19.74     13.7      23.3 
 H(Fragment=2)         18.99     14.28     23.34 
 H(Fragment=2)         19.87     13.52     22.37 
 O(Fragment=2)         20.08     12.72     20.91 
 H(Fragment=2)         20.03     13.3      20.15 
 H(Fragment=2)         19.69     11.9      20.61 
 O(Fragment=2)         18.75     20.63     27.02 
 H(Fragment=2)         18.84     19.75     26.64 
 H(Fragment=2)         19.54     21.09     26.75 
 O(Fragment=2)         22.14     13.17     17.94 
 H(Fragment=2)         22.92     12.68     17.67 
 H(Fragment=2)         22.19     13.98     17.44 
 O(Fragment=2)         17.29     24.75     25.51 
 H(Fragment=2)         16.61     24.81     24.85 
 H(Fragment=2)         17.68     23.88     25.38 
 O(Fragment=2)         25.19     24.73     22.58 
 H(Fragment=2)         25.18     24.51     21.64 
 H(Fragment=2)         25.87     25.39     22.67 
 O(Fragment=2)         16.9      14.46     23.12 
 H(Fragment=2)         16.04     14.76     22.82 
 H(Fragment=2)         17.08     13.69     22.59 
 O(Fragment=2)         20.76     22.68     26.54 
 H(Fragment=2)         21.52     22.77     27.12 
 H(Fragment=2)         20.3      23.51     26.63 
 O(Fragment=2)         16.11     14.19     17.87 
 H(Fragment=2)         15.23     13.82     17.82 
 H(Fragment=2)         16.52     13.94     17.04 
 O(Fragment=2)         16.34     20.07     12.67 
 H(Fragment=2)         16.36     20.03     13.62 
 H(Fragment=2)         17.24     20.28     12.41 
 O(Fragment=2)         15.98     21.48     26.7 
 H(Fragment=2)         16.85     21.08     26.68 
 H(Fragment=2)         16.12     22.34     27.1 
 O(Fragment=2)         25.48     18.98     26.07 
 H(Fragment=2)         25.37     19.08     25.12 
 H(Fragment=2)         26.28     19.48     26.26 
 O(Fragment=2)         23.98     24.62     25.48 
 H(Fragment=2)         23.24     24.66     24.87 
 H(Fragment=2)         24.68     24.21     24.98 
 O(Fragment=2)         21.01     26.18     24.1 
 H(Fragment=2)         20.97     26.32     25.04 
 H(Fragment=2)         21.75     26.72     23.8 
 O(Fragment=2)         24.17     23.22     13.79 
 H(Fragment=2)         23.78     22.37     13.6 
 H(Fragment=2)         23.6      23.6      14.47 
 O(Fragment=2)         23.04     17.97     26.57 
 H(Fragment=2)         23.87     18.41     26.37 
 H(Fragment=2)         22.94     18.06     27.51 
 O(Fragment=2)         25.64     15.11     18.75 
 H(Fragment=2)         26.3      14.95     18.08 
 H(Fragment=2)         26.14     15.3      19.54 
 O(Fragment=2)         18.74     19.89     11.97 
 H(Fragment=2)         19.51     20.32     11.59 
 H(Fragment=2)         19.1      19.18     12.5 
 O(Fragment=2)         20.61     17.4      12.49 
 H(Fragment=2)         21.37     17.91     12.78 
 H(Fragment=2)         20.88     16.49     12.59 
 O(Fragment=2)         12.83     18.56     23.59 
 H(Fragment=2)         13.24     19.42     23.52 
 H(Fragment=2)         12.8      18.39     24.54 
 O(Fragment=2)         24.19     27.26     19.27 
 H(Fragment=2)         25.09     26.93     19.28 
 H(Fragment=2)         23.71     26.71     19.88 
 O(Fragment=2)         13.7      25.02     17.36 
 H(Fragment=2)         14.43     25.23     16.78 
 H(Fragment=2)         13.99     24.26     17.86 
 O(Fragment=2)         12.46     21.54     16.86 
 H(Fragment=2)         12.86     21.95     16.1 
 H(Fragment=2)         12.85     21.98     17.62 
 O(Fragment=2)         13.85     19.23     13.95 
 H(Fragment=2)         14.73     19.42     14.29 
 H(Fragment=2)         13.89     19.53     13.04 
 O(Fragment=2)         16.56     13.01     20.48 
 H(Fragment=2)         15.7      13.43     20.53 
 H(Fragment=2)         16.56     12.57     19.63 
 O(Fragment=2)         18.45     16.89     27.73 
 H(Fragment=2)         19.33     16.59     27.49 
 H(Fragment=2)         17.98     16.92     26.9 
 O(Fragment=2)         20.85     14.57     13.81 
 H(Fragment=2)         21.49     13.93     13.49 
 H(Fragment=2)         20.58     14.22     14.66 
 O(Fragment=2)         20.59     21.85     11.57 
 H(Fragment=2)         19.95     22.28     11. 
 H(Fragment=2)         20.44     22.24     12.44 
 O(Fragment=2)         17.55     27.47     18.98 
 H(Fragment=2)         18.08     27.65     18.2 
 H(Fragment=2)         16.91     28.18     18.99 
 O(Fragment=2)         22.89     18.56     12.31 
 H(Fragment=2)         22.88     19.46     12.63 
 H(Fragment=2)         23.14     18.64     11.38 
 O(Fragment=2)         13.78     24.88     20.83 
 H(Fragment=2)         13.56     24.49     21.67 
 H(Fragment=2)         13.27     24.37     20.19 
 O(Fragment=2)         13.75     23.91     23.37 
 H(Fragment=2)         13.14     23.18     23.29 
 H(Fragment=2)         13.58     24.28     24.23 
 O(Fragment=2)         24.52     13.31     17.05 
 H(Fragment=2)         24.82     13.88     17.75 
 H(Fragment=2)         25.32     12.87     16.74 
 O(Fragment=2)         14.23     14.33     21.04 
 H(Fragment=2)         13.99     14.57     21.94 
 H(Fragment=2)         13.4      14.38     20.56 
 O(Fragment=2)         21.02     28.63     17.09 
 H(Fragment=2)         20.91     27.74     17.44 
 H(Fragment=2)         21.95     28.69     16.88 
 O(Fragment=2)         26.45     16.5      14.53 
 H(Fragment=2)         25.88     16.98     15.13 
 H(Fragment=2)         27.29     16.96     14.57 
 O(Fragment=2)         18.13     28.45     22.37 
 H(Fragment=2)         18.09     28.07     23.25 
 H(Fragment=2)         18.84     27.98     21.94 
 O(Fragment=2)         19.11     13.81     26.28 
 H(Fragment=2)         20.04     13.75     26.5 
 H(Fragment=2)         18.9      14.73     26.4 
 O(Fragment=2)         18.04     27.2      25.12 
 H(Fragment=2)         17.31     27.6      25.58 
 H(Fragment=2)         17.87     26.26     25.16 
 O(Fragment=2)         15.11     25.14     14.94 
 H(Fragment=2)         15.42     24.36     14.48 
 H(Fragment=2)         15.87     25.73     14.94 
 O(Fragment=2)         11.33     17.4      21.31 
 H(Fragment=2)         12.12     17.58     21.82 
 H(Fragment=2)         11.66     17.12     20.45 
 O(Fragment=2)         27.66     24.12     18.38 
 H(Fragment=2)         28.04     23.36     18.83 
 H(Fragment=2)         27.23     23.74     17.61 
 O(Fragment=2)         25.57     13.93     24.14 
 H(Fragment=2)         26.04     14.37     24.85 
 H(Fragment=2)         24.68     14.29     24.19 
 O(Fragment=2)         15.89     14.13     26.06 
 H(Fragment=2)         16.54     14.74     25.72 
 H(Fragment=2)         16.36     13.3      26.14 
 O(Fragment=2)         15.47     17.73     27.69 
 H(Fragment=2)         15.37     17.08     28.37 
 H(Fragment=2)         16.03     17.32     27.03 
 O(Fragment=2)         11.83     22.3      20.74 
 H(Fragment=2)         11.31     21.7      20.21 
 H(Fragment=2)         11.19     22.87     21.16 
 O(Fragment=2)         28.27     20.11     17.54 
 H(Fragment=2)         28.78     20.81     17.96 
 H(Fragment=2)         27.89     20.52     16.76 
 O(Fragment=2)         17.96     23.31     11.44 
 H(Fragment=2)         17.54     22.58     10.99 
 H(Fragment=2)         17.79     23.15     12.37 
 O(Fragment=2)         28.78     21.99     19.86 
 H(Fragment=2)         29.63     22.25     20.21 
 H(Fragment=2)         28.44     21.37     20.5 
 O(Fragment=2)         28.28     18.74     24.29 
 H(Fragment=2)         28.51     18.55     25.2 
 H(Fragment=2)         27.33     18.61     24.25 
 O(Fragment=2)         23.4      21.27     11.82 
 H(Fragment=2)         23.94     22.05     11.71 
 H(Fragment=2)         22.51     21.61     11.9 
 O(Fragment=2)         18.04     18.97     29.15 
 H(Fragment=2)         18.31     18.11     28.83 
 H(Fragment=2)         18.29     19.58     28.45 
 O(Fragment=2)         19.88     11.19     17.07 
 H(Fragment=2)         20.27     10.34     16.87 
 H(Fragment=2)         20.57     11.67     17.54 
 O(Fragment=2)         12.83     16.99     15.73 
 H(Fragment=2)         12.9      17.7      15.09 
 H(Fragment=2)         13.51     16.36     15.48 
 O(Fragment=2)         20.56     25.21     13.02 
 H(Fragment=2)         20.01     25.57     12.32 
 H(Fragment=2)         21.44     25.54     12.84 
 O(Fragment=2)         15.34     27.9      21.83 
 H(Fragment=2)         15.08     26.98     21.87 
 H(Fragment=2)         16.3      27.88     21.91 
 O(Fragment=2)         27.97     22.48     22.96 
 H(Fragment=2)         28.88     22.22     22.84 
 H(Fragment=2)         28.01     23.33     23.4 
 O(Fragment=2)         27.14     21.33     26.37 
 H(Fragment=2)         28.04     21.59     26.17 
 H(Fragment=2)         26.61     21.74     25.68 
 O(Fragment=2)         23.88     27.11     23.94 
 H(Fragment=2)         24.82     27.01     23.8 
 H(Fragment=2)         23.56     27.52     23.14 
 O(Fragment=2)         14.08     26.33     24.68 
 H(Fragment=2)         14.54     26.9      25.3 
 H(Fragment=2)         14.77     26.       24.11 
 O(Fragment=2)         17.81     10.77     22.63 
 H(Fragment=2)         18.47     10.73     23.32 
 H(Fragment=2)         17.63     11.7      22.52 
 O(Fragment=2)         26.54     26.4      19.75 
 H(Fragment=2)         26.82     25.8      19.07 
 H(Fragment=2)         27.24     26.35     20.41 
 O(Fragment=2)         23.75     15.46     12.07 
 H(Fragment=2)         23.34     15.69     11.24 
 H(Fragment=2)         23.59     16.21     12.65 
 O(Fragment=2)         16.23     24.15     27.95 
 H(Fragment=2)         15.49     24.71     28.18 
 H(Fragment=2)         16.41     24.36     27.03 
 O(Fragment=2)         29.33     19.98     22.18 
 H(Fragment=2)         28.64     19.7      22.79 
 H(Fragment=2)         29.94     19.25     22.16 
 O(Fragment=2)         28.57     17.48     17.06 
 H(Fragment=2)         29.43     17.34     16.68 
 H(Fragment=2)         28.57     18.4      17.34 
 O(Fragment=2)         16.84     27.64     16.16 
 H(Fragment=2)         16.62     27.67     15.23 
 H(Fragment=2)         17.24     28.49     16.34 
 O(Fragment=2)         14.65     14.42     14.83 
 H(Fragment=2)         15.21     14.84     14.18 
 H(Fragment=2)         14.97     13.52     14.88 
 O(Fragment=2)         14.57     22.22     12.33 
 H(Fragment=2)         14.22     22.18     11.44 
 H(Fragment=2)         15.14     21.46     12.4 
 O(Fragment=2)         27.23     13.9      21.92 
 H(Fragment=2)         26.51     13.77     22.54 
 H(Fragment=2)         27.36     14.84     21.89 
 O(Fragment=2)         27.57     20.67     14.84 
 H(Fragment=2)         27.13     20.82     14.01 
 H(Fragment=2)         28.5      20.72     14.64 
 O(Fragment=2)         13.36     23.04     26.47 
 H(Fragment=2)         12.51     22.97     26.04 
 H(Fragment=2)         13.75     22.17     26.38 
 
 NAtoms=    385 NQM=      385 NQMF=       0 NMMI=      0 NMMIF=      0
                NMic=       0 NMicF=      0.
                    Isotopes and Nuclear Properties:
 (Nuclear quadrupole moments (NQMom) in fm**2, nuclear magnetic moments (NMagM)
  in nuclear magnetons)

  Atom         1           2           3           4           5           6           7           8           9          10
 IAtWgt=          79          16           1           1          16           1           1          16           1           1
 AtmWgt=  78.9183361  15.9949146   1.0078250   1.0078250  15.9949146   1.0078250   1.0078250  15.9949146   1.0078250   1.0078250
 NucSpn=           3           0           1           1           0           1           1           0           1           1
 AtZEff=   0.0000000   0.0000000   0.0000000   0.0000000   0.0000000   0.0000000   0.0000000   0.0000000   0.0000000   0.0000000
 NQMom=   31.3000000   0.0000000   0.0000000   0.0000000   0.0000000   0.0000000   0.0000000   0.0000000   0.0000000   0.0000000
 NMagM=    2.1063990   0.0000000   2.7928460   2.7928460   0.0000000   2.7928460   2.7928460   0.0000000   2.7928460   2.7928460
 AtZNuc=  35.0000000   8.0000000   1.0000000   1.0000000   8.0000000   1.0000000   1.0000000   8.0000000   1.0000000   1.0000000

  Atom        11          12          13          14          15          16          17          18          19          20
 IAtWgt=          16           1           1          16           1           1          16           1           1          16
 AtmWgt=  15.9949146   1.0078250   1.0078250  15.9949146   1.0078250   1.0078250  15.9949146   1.0078250   1.0078250  15.9949146
 NucSpn=           0           1           1           0           1           1           0           1           1           0
 AtZEff=   0.0000000   0.0000000   0.0000000   0.0000000   0.0000000   0.0000000   0.0000000   0.0000000   0.0000000   0.0000000
 NQMom=    0.0000000   0.0000000   0.0000000   0.0000000   0.0000000   0.0000000   0.0000000   0.0000000   0.0000000   0.0000000
 NMagM=    0.0000000   2.7928460   2.7928460   0.0000000   2.7928460   2.7928460   0.0000000   2.7928460   2.7928460   0.0000000
 AtZNuc=   8.0000000   1.0000000   1.0000000   8.0000000   1.0000000   1.0000000   8.0000000   1.0000000   1.0000000   8.0000000

  Atom        21          22          23          24          25          26          27          28          29          30
 IAtWgt=           1           1          16           1           1          16           1           1          16           1
 AtmWgt=   1.0078250   1.0078250  15.9949146   1.0078250   1.0078250  15.9949146   1.0078250   1.0078250  15.9949146   1.0078250
 NucSpn=           1           1           0           1           1           0           1           1           0           1
 AtZEff=   0.0000000   0.0000000   0.0000000   0.0000000   0.0000000   0.0000000   0.0000000   0.0000000   0.0000000   0.0000000
 NQMom=    0.0000000   0.0000000   0.0000000   0.0000000   0.0000000   0.0000000   0.0000000   0.0000000   0.0000000   0.0000000
 NMagM=    2.7928460   2.7928460   0.0000000   2.7928460   2.7928460   0.0000000   2.7928460   2.7928460   0.0000000   2.7928460
 AtZNuc=   1.0000000   1.0000000   8.0000000   1.0000000   1.0000000   8.0000000   1.0000000   1.0000000   8.0000000   1.0000000

  Atom        31          32          33          34          35          36          37          38          39          40
 IAtWgt=           1          16           1           1          16           1           1          16           1           1
 AtmWgt=   1.0078250  15.9949146   1.0078250   1.0078250  15.9949146   1.0078250   1.0078250  15.9949146   1.0078250   1.0078250
 NucSpn=           1           0           1           1           0           1           1           0           1           1
 AtZEff=   0.0000000   0.0000000   0.0000000   0.0000000   0.0000000   0.0000000   0.0000000   0.0000000   0.0000000   0.0000000
 NQMom=    0.0000000   0.0000000   0.0000000   0.0000000   0.0000000   0.0000000   0.0000000   0.0000000   0.0000000   0.0000000
 NMagM=    2.7928460   0.0000000   2.7928460   2.7928460   0.0000000   2.7928460   2.7928460   0.0000000   2.7928460   2.7928460
 AtZNuc=   1.0000000   8.0000000   1.0000000   1.0000000   8.0000000   1.0000000   1.0000000   8.0000000   1.0000000   1.0000000

  Atom        41          42          43          44          45          46          47          48          49          50
 IAtWgt=          16           1           1          16           1           1          16           1           1          16
 AtmWgt=  15.9949146   1.0078250   1.0078250  15.9949146   1.0078250   1.0078250  15.9949146   1.0078250   1.0078250  15.9949146
 NucSpn=           0           1           1           0           1           1           0           1           1           0
 AtZEff=   0.0000000   0.0000000   0.0000000   0.0000000   0.0000000   0.0000000   0.0000000   0.0000000   0.0000000   0.0000000
 NQMom=    0.0000000   0.0000000   0.0000000   0.0000000   0.0000000   0.0000000   0.0000000   0.0000000   0.0000000   0.0000000
 NMagM=    0.0000000   2.7928460   2.7928460   0.0000000   2.7928460   2.7928460   0.0000000   2.7928460   2.7928460   0.0000000
 AtZNuc=   8.0000000   1.0000000   1.0000000   8.0000000   1.0000000   1.0000000   8.0000000   1.0000000   1.0000000   8.0000000

  Atom        51          52          53          54          55          56          57          58          59          60
 IAtWgt=           1           1          16           1           1          16           1           1          16           1
 AtmWgt=   1.0078250   1.0078250  15.9949146   1.0078250   1.0078250  15.9949146   1.0078250   1.0078250  15.9949146   1.0078250
 NucSpn=           1           1           0           1           1           0           1           1           0           1
 AtZEff=   0.0000000   0.0000000   0.0000000   0.0000000   0.0000000   0.0000000   0.0000000   0.0000000   0.0000000   0.0000000
 NQMom=    0.0000000   0.0000000   0.0000000   0.0000000   0.0000000   0.0000000   0.0000000   0.0000000   0.0000000   0.0000000
 NMagM=    2.7928460   2.7928460   0.0000000   2.7928460   2.7928460   0.0000000   2.7928460   2.7928460   0.0000000   2.7928460
 AtZNuc=   1.0000000   1.0000000   8.0000000   1.0000000   1.0000000   8.0000000   1.0000000   1.0000000   8.0000000   1.0000000

  Atom        61          62          63          64          65          66          67          68          69          70
 IAtWgt=           1          16           1           1          16           1           1          16           1           1
 AtmWgt=   1.0078250  15.9949146   1.0078250   1.0078250  15.9949146   1.0078250   1.0078250  15.9949146   1.0078250   1.0078250
 NucSpn=           1           0           1           1           0           1           1           0           1           1
 AtZEff=   0.0000000   0.0000000   0.0000000   0.0000000   0.0000000   0.0000000   0.0000000   0.0000000   0.0000000   0.0000000
 NQMom=    0.0000000   0.0000000   0.0000000   0.0000000   0.0000000   0.0000000   0.0000000   0.0000000   0.0000000   0.0000000
 NMagM=    2.7928460   0.0000000   2.7928460   2.7928460   0.0000000   2.7928460   2.7928460   0.0000000   2.7928460   2.7928460
 AtZNuc=   1.0000000   8.0000000   1.0000000   1.0000000   8.0000000   1.0000000   1.0000000   8.0000000   1.0000000   1.0000000

  Atom        71          72          73          74          75          76          77          78          79          80
 IAtWgt=          16           1           1          16           1           1          16           1           1          16
 AtmWgt=  15.9949146   1.0078250   1.0078250  15.9949146   1.0078250   1.0078250  15.9949146   1.0078250   1.0078250  15.9949146
 NucSpn=           0           1           1           0           1           1           0           1           1           0
 AtZEff=   0.0000000   0.0000000   0.0000000   0.0000000   0.0000000   0.0000000   0.0000000   0.0000000   0.0000000   0.0000000
 NQMom=    0.0000000   0.0000000   0.0000000   0.0000000   0.0000000   0.0000000   0.0000000   0.0000000   0.0000000   0.0000000
 NMagM=    0.0000000   2.7928460   2.7928460   0.0000000   2.7928460   2.7928460   0.0000000   2.7928460   2.7928460   0.0000000
 AtZNuc=   8.0000000   1.0000000   1.0000000   8.0000000   1.0000000   1.0000000   8.0000000   1.0000000   1.0000000   8.0000000

  Atom        81          82          83          84          85          86          87          88          89          90
 IAtWgt=           1           1          16           1           1          16           1           1          16           1
 AtmWgt=   1.0078250   1.0078250  15.9949146   1.0078250   1.0078250  15.9949146   1.0078250   1.0078250  15.9949146   1.0078250
 NucSpn=           1           1           0           1           1           0           1           1           0           1
 AtZEff=   0.0000000   0.0000000   0.0000000   0.0000000   0.0000000   0.0000000   0.0000000   0.0000000   0.0000000   0.0000000
 NQMom=    0.0000000   0.0000000   0.0000000   0.0000000   0.0000000   0.0000000   0.0000000   0.0000000   0.0000000   0.0000000
 NMagM=    2.7928460   2.7928460   0.0000000   2.7928460   2.7928460   0.0000000   2.7928460   2.7928460   0.0000000   2.7928460
 AtZNuc=   1.0000000   1.0000000   8.0000000   1.0000000   1.0000000   8.0000000   1.0000000   1.0000000   8.0000000   1.0000000

  Atom        91          92          93          94          95          96          97          98          99         100
 IAtWgt=           1          16           1           1          16           1           1          16           1           1
 AtmWgt=   1.0078250  15.9949146   1.0078250   1.0078250  15.9949146   1.0078250   1.0078250  15.9949146   1.0078250   1.0078250
 NucSpn=           1           0           1           1           0           1           1           0           1           1
 AtZEff=   0.0000000   0.0000000   0.0000000   0.0000000   0.0000000   0.0000000   0.0000000   0.0000000   0.0000000   0.0000000
 NQMom=    0.0000000   0.0000000   0.0000000   0.0000000   0.0000000   0.0000000   0.0000000   0.0000000   0.0000000   0.0000000
 NMagM=    2.7928460   0.0000000   2.7928460   2.7928460   0.0000000   2.7928460   2.7928460   0.0000000   2.7928460   2.7928460
 AtZNuc=   1.0000000   8.0000000   1.0000000   1.0000000   8.0000000   1.0000000   1.0000000   8.0000000   1.0000000   1.0000000

  Atom       101         102         103         104         105         106         107         108         109         110
 IAtWgt=          16           1           1          16           1           1          16           1           1          16
 AtmWgt=  15.9949146   1.0078250   1.0078250  15.9949146   1.0078250   1.0078250  15.9949146   1.0078250   1.0078250  15.9949146
 NucSpn=           0           1           1           0           1           1           0           1           1           0
 AtZEff=   0.0000000   0.0000000   0.0000000   0.0000000   0.0000000   0.0000000   0.0000000   0.0000000   0.0000000   0.0000000
 NQMom=    0.0000000   0.0000000   0.0000000   0.0000000   0.0000000   0.0000000   0.0000000   0.0000000   0.0000000   0.0000000
 NMagM=    0.0000000   2.7928460   2.7928460   0.0000000   2.7928460   2.7928460   0.0000000   2.7928460   2.7928460   0.0000000
 AtZNuc=   8.0000000   1.0000000   1.0000000   8.0000000   1.0000000   1.0000000   8.0000000   1.0000000   1.0000000   8.0000000

  Atom       111         112         113         114         115         116         117         118         119         120
 IAtWgt=           1           1          16           1           1          16           1           1          16           1
 AtmWgt=   1.0078250   1.0078250  15.9949146   1.0078250   1.0078250  15.9949146   1.0078250   1.0078250  15.9949146   1.0078250
 NucSpn=           1           1           0           1           1           0           1           1           0           1
 AtZEff=   0.0000000   0.0000000   0.0000000   0.0000000   0.0000000   0.0000000   0.0000000   0.0000000   0.0000000   0.0000000
 NQMom=    0.0000000   0.0000000   0.0000000   0.0000000   0.0000000   0.0000000   0.0000000   0.0000000   0.0000000   0.0000000
 NMagM=    2.7928460   2.7928460   0.0000000   2.7928460   2.7928460   0.0000000   2.7928460   2.7928460   0.0000000   2.7928460
 AtZNuc=   1.0000000   1.0000000   8.0000000   1.0000000   1.0000000   8.0000000   1.0000000   1.0000000   8.0000000   1.0000000

  Atom       121         122         123         124         125         126         127         128         129         130
 IAtWgt=           1          16           1           1          16           1           1          16           1           1
 AtmWgt=   1.0078250  15.9949146   1.0078250   1.0078250  15.9949146   1.0078250   1.0078250  15.9949146   1.0078250   1.0078250
 NucSpn=           1           0           1           1           0           1           1           0           1           1
 AtZEff=   0.0000000   0.0000000   0.0000000   0.0000000   0.0000000   0.0000000   0.0000000   0.0000000   0.0000000   0.0000000
 NQMom=    0.0000000   0.0000000   0.0000000   0.0000000   0.0000000   0.0000000   0.0000000   0.0000000   0.0000000   0.0000000
 NMagM=    2.7928460   0.0000000   2.7928460   2.7928460   0.0000000   2.7928460   2.7928460   0.0000000   2.7928460   2.7928460
 AtZNuc=   1.0000000   8.0000000   1.0000000   1.0000000   8.0000000   1.0000000   1.0000000   8.0000000   1.0000000   1.0000000

  Atom       131         132         133         134         135         136         137         138         139         140
 IAtWgt=          16           1           1          16           1           1          16           1           1          16
 AtmWgt=  15.9949146   1.0078250   1.0078250  15.9949146   1.0078250   1.0078250  15.9949146   1.0078250   1.0078250  15.9949146
 NucSpn=           0           1           1           0           1           1           0           1           1           0
 AtZEff=   0.0000000   0.0000000   0.0000000   0.0000000   0.0000000   0.0000000   0.0000000   0.0000000   0.0000000   0.0000000
 NQMom=    0.0000000   0.0000000   0.0000000   0.0000000   0.0000000   0.0000000   0.0000000   0.0000000   0.0000000   0.0000000
 NMagM=    0.0000000   2.7928460   2.7928460   0.0000000   2.7928460   2.7928460   0.0000000   2.7928460   2.7928460   0.0000000
 AtZNuc=   8.0000000   1.0000000   1.0000000   8.0000000   1.0000000   1.0000000   8.0000000   1.0000000   1.0000000   8.0000000

  Atom       141         142         143         144         145         146         147         148         149         150
 IAtWgt=           1           1          16           1           1          16           1           1          16           1
 AtmWgt=   1.0078250   1.0078250  15.9949146   1.0078250   1.0078250  15.9949146   1.0078250   1.0078250  15.9949146   1.0078250
 NucSpn=           1           1           0           1           1           0           1           1           0           1
 AtZEff=   0.0000000   0.0000000   0.0000000   0.0000000   0.0000000   0.0000000   0.0000000   0.0000000   0.0000000   0.0000000
 NQMom=    0.0000000   0.0000000   0.0000000   0.0000000   0.0000000   0.0000000   0.0000000   0.0000000   0.0000000   0.0000000
 NMagM=    2.7928460   2.7928460   0.0000000   2.7928460   2.7928460   0.0000000   2.7928460   2.7928460   0.0000000   2.7928460
 AtZNuc=   1.0000000   1.0000000   8.0000000   1.0000000   1.0000000   8.0000000   1.0000000   1.0000000   8.0000000   1.0000000

  Atom       151         152         153         154         155         156         157         158         159         160
 IAtWgt=           1          16           1           1          16           1           1          16           1           1
 AtmWgt=   1.0078250  15.9949146   1.0078250   1.0078250  15.9949146   1.0078250   1.0078250  15.9949146   1.0078250   1.0078250
 NucSpn=           1           0           1           1           0           1           1           0           1           1
 AtZEff=   0.0000000   0.0000000   0.0000000   0.0000000   0.0000000   0.0000000   0.0000000   0.0000000   0.0000000   0.0000000
 NQMom=    0.0000000   0.0000000   0.0000000   0.0000000   0.0000000   0.0000000   0.0000000   0.0000000   0.0000000   0.0000000
 NMagM=    2.7928460   0.0000000   2.7928460   2.7928460   0.0000000   2.7928460   2.7928460   0.0000000   2.7928460   2.7928460
 AtZNuc=   1.0000000   8.0000000   1.0000000   1.0000000   8.0000000   1.0000000   1.0000000   8.0000000   1.0000000   1.0000000

  Atom       161         162         163         164         165         166         167         168         169         170
 IAtWgt=          16           1           1          16           1           1          16           1           1          16
 AtmWgt=  15.9949146   1.0078250   1.0078250  15.9949146   1.0078250   1.0078250  15.9949146   1.0078250   1.0078250  15.9949146
 NucSpn=           0           1           1           0           1           1           0           1           1           0
 AtZEff=   0.0000000   0.0000000   0.0000000   0.0000000   0.0000000   0.0000000   0.0000000   0.0000000   0.0000000   0.0000000
 NQMom=    0.0000000   0.0000000   0.0000000   0.0000000   0.0000000   0.0000000   0.0000000   0.0000000   0.0000000   0.0000000
 NMagM=    0.0000000   2.7928460   2.7928460   0.0000000   2.7928460   2.7928460   0.0000000   2.7928460   2.7928460   0.0000000
 AtZNuc=   8.0000000   1.0000000   1.0000000   8.0000000   1.0000000   1.0000000   8.0000000   1.0000000   1.0000000   8.0000000

  Atom       171         172         173         174         175         176         177         178         179         180
 IAtWgt=           1           1          16           1           1          16           1           1          16           1
 AtmWgt=   1.0078250   1.0078250  15.9949146   1.0078250   1.0078250  15.9949146   1.0078250   1.0078250  15.9949146   1.0078250
 NucSpn=           1           1           0           1           1           0           1           1           0           1
 AtZEff=   0.0000000   0.0000000   0.0000000   0.0000000   0.0000000   0.0000000   0.0000000   0.0000000   0.0000000   0.0000000
 NQMom=    0.0000000   0.0000000   0.0000000   0.0000000   0.0000000   0.0000000   0.0000000   0.0000000   0.0000000   0.0000000
 NMagM=    2.7928460   2.7928460   0.0000000   2.7928460   2.7928460   0.0000000   2.7928460   2.7928460   0.0000000   2.7928460
 AtZNuc=   1.0000000   1.0000000   8.0000000   1.0000000   1.0000000   8.0000000   1.0000000   1.0000000   8.0000000   1.0000000

  Atom       181         182         183         184         185         186         187         188         189         190
 IAtWgt=           1          16           1           1          16           1           1          16           1           1
 AtmWgt=   1.0078250  15.9949146   1.0078250   1.0078250  15.9949146   1.0078250   1.0078250  15.9949146   1.0078250   1.0078250
 NucSpn=           1           0           1           1           0           1           1           0           1           1
 AtZEff=   0.0000000   0.0000000   0.0000000   0.0000000   0.0000000   0.0000000   0.0000000   0.0000000   0.0000000   0.0000000
 NQMom=    0.0000000   0.0000000   0.0000000   0.0000000   0.0000000   0.0000000   0.0000000   0.0000000   0.0000000   0.0000000
 NMagM=    2.7928460   0.0000000   2.7928460   2.7928460   0.0000000   2.7928460   2.7928460   0.0000000   2.7928460   2.7928460
 AtZNuc=   1.0000000   8.0000000   1.0000000   1.0000000   8.0000000   1.0000000   1.0000000   8.0000000   1.0000000   1.0000000

  Atom       191         192         193         194         195         196         197         198         199         200
 IAtWgt=          16           1           1          16           1           1          16           1           1          16
 AtmWgt=  15.9949146   1.0078250   1.0078250  15.9949146   1.0078250   1.0078250  15.9949146   1.0078250   1.0078250  15.9949146
 NucSpn=           0           1           1           0           1           1           0           1           1           0
 AtZEff=   0.0000000   0.0000000   0.0000000   0.0000000   0.0000000   0.0000000   0.0000000   0.0000000   0.0000000   0.0000000
 NQMom=    0.0000000   0.0000000   0.0000000   0.0000000   0.0000000   0.0000000   0.0000000   0.0000000   0.0000000   0.0000000
 NMagM=    0.0000000   2.7928460   2.7928460   0.0000000   2.7928460   2.7928460   0.0000000   2.7928460   2.7928460   0.0000000
 AtZNuc=   8.0000000   1.0000000   1.0000000   8.0000000   1.0000000   1.0000000   8.0000000   1.0000000   1.0000000   8.0000000

  Atom       201         202         203         204         205         206         207         208         209         210
 IAtWgt=           1           1          16           1           1          16           1           1          16           1
 AtmWgt=   1.0078250   1.0078250  15.9949146   1.0078250   1.0078250  15.9949146   1.0078250   1.0078250  15.9949146   1.0078250
 NucSpn=           1           1           0           1           1           0           1           1           0           1
 AtZEff=   0.0000000   0.0000000   0.0000000   0.0000000   0.0000000   0.0000000   0.0000000   0.0000000   0.0000000   0.0000000
 NQMom=    0.0000000   0.0000000   0.0000000   0.0000000   0.0000000   0.0000000   0.0000000   0.0000000   0.0000000   0.0000000
 NMagM=    2.7928460   2.7928460   0.0000000   2.7928460   2.7928460   0.0000000   2.7928460   2.7928460   0.0000000   2.7928460
 AtZNuc=   1.0000000   1.0000000   8.0000000   1.0000000   1.0000000   8.0000000   1.0000000   1.0000000   8.0000000   1.0000000

  Atom       211         212         213         214         215         216         217         218         219         220
 IAtWgt=           1          16           1           1          16           1           1          16           1           1
 AtmWgt=   1.0078250  15.9949146   1.0078250   1.0078250  15.9949146   1.0078250   1.0078250  15.9949146   1.0078250   1.0078250
 NucSpn=           1           0           1           1           0           1           1           0           1           1
 AtZEff=   0.0000000   0.0000000   0.0000000   0.0000000   0.0000000   0.0000000   0.0000000   0.0000000   0.0000000   0.0000000
 NQMom=    0.0000000   0.0000000   0.0000000   0.0000000   0.0000000   0.0000000   0.0000000   0.0000000   0.0000000   0.0000000
 NMagM=    2.7928460   0.0000000   2.7928460   2.7928460   0.0000000   2.7928460   2.7928460   0.0000000   2.7928460   2.7928460
 AtZNuc=   1.0000000   8.0000000   1.0000000   1.0000000   8.0000000   1.0000000   1.0000000   8.0000000   1.0000000   1.0000000

  Atom       221         222         223         224         225         226         227         228         229         230
 IAtWgt=          16           1           1          16           1           1          16           1           1          16
 AtmWgt=  15.9949146   1.0078250   1.0078250  15.9949146   1.0078250   1.0078250  15.9949146   1.0078250   1.0078250  15.9949146
 NucSpn=           0           1           1           0           1           1           0           1           1           0
 AtZEff=   0.0000000   0.0000000   0.0000000   0.0000000   0.0000000   0.0000000   0.0000000   0.0000000   0.0000000   0.0000000
 NQMom=    0.0000000   0.0000000   0.0000000   0.0000000   0.0000000   0.0000000   0.0000000   0.0000000   0.0000000   0.0000000
 NMagM=    0.0000000   2.7928460   2.7928460   0.0000000   2.7928460   2.7928460   0.0000000   2.7928460   2.7928460   0.0000000
 AtZNuc=   8.0000000   1.0000000   1.0000000   8.0000000   1.0000000   1.0000000   8.0000000   1.0000000   1.0000000   8.0000000

  Atom       231         232         233         234         235         236         237         238         239         240
 IAtWgt=           1           1          16           1           1          16           1           1          16           1
 AtmWgt=   1.0078250   1.0078250  15.9949146   1.0078250   1.0078250  15.9949146   1.0078250   1.0078250  15.9949146   1.0078250
 NucSpn=           1           1           0           1           1           0           1           1           0           1
 AtZEff=   0.0000000   0.0000000   0.0000000   0.0000000   0.0000000   0.0000000   0.0000000   0.0000000   0.0000000   0.0000000
 NQMom=    0.0000000   0.0000000   0.0000000   0.0000000   0.0000000   0.0000000   0.0000000   0.0000000   0.0000000   0.0000000
 NMagM=    2.7928460   2.7928460   0.0000000   2.7928460   2.7928460   0.0000000   2.7928460   2.7928460   0.0000000   2.7928460
 AtZNuc=   1.0000000   1.0000000   8.0000000   1.0000000   1.0000000   8.0000000   1.0000000   1.0000000   8.0000000   1.0000000

  Atom       241         242         243         244         245         246         247         248         249         250
 IAtWgt=           1          16           1           1          16           1           1          16           1           1
 AtmWgt=   1.0078250  15.9949146   1.0078250   1.0078250  15.9949146   1.0078250   1.0078250  15.9949146   1.0078250   1.0078250
 NucSpn=           1           0           1           1           0           1           1           0           1           1
 AtZEff=   0.0000000   0.0000000   0.0000000   0.0000000   0.0000000   0.0000000   0.0000000   0.0000000   0.0000000   0.0000000
 NQMom=    0.0000000   0.0000000   0.0000000   0.0000000   0.0000000   0.0000000   0.0000000   0.0000000   0.0000000   0.0000000
 NMagM=    2.7928460   0.0000000   2.7928460   2.7928460   0.0000000   2.7928460   2.7928460   0.0000000   2.7928460   2.7928460
 AtZNuc=   1.0000000   8.0000000   1.0000000   1.0000000   8.0000000   1.0000000   1.0000000   8.0000000   1.0000000   1.0000000

  Atom       251         252         253         254         255         256         257         258         259         260
 IAtWgt=          16           1           1          16           1           1          16           1           1          16
 AtmWgt=  15.9949146   1.0078250   1.0078250  15.9949146   1.0078250   1.0078250  15.9949146   1.0078250   1.0078250  15.9949146
 NucSpn=           0           1           1           0           1           1           0           1           1           0
 AtZEff=   0.0000000   0.0000000   0.0000000   0.0000000   0.0000000   0.0000000   0.0000000   0.0000000   0.0000000   0.0000000
 NQMom=    0.0000000   0.0000000   0.0000000   0.0000000   0.0000000   0.0000000   0.0000000   0.0000000   0.0000000   0.0000000
 NMagM=    0.0000000   2.7928460   2.7928460   0.0000000   2.7928460   2.7928460   0.0000000   2.7928460   2.7928460   0.0000000
 AtZNuc=   8.0000000   1.0000000   1.0000000   8.0000000   1.0000000   1.0000000   8.0000000   1.0000000   1.0000000   8.0000000

  Atom       261         262         263         264         265         266         267         268         269         270
 IAtWgt=           1           1          16           1           1          16           1           1          16           1
 AtmWgt=   1.0078250   1.0078250  15.9949146   1.0078250   1.0078250  15.9949146   1.0078250   1.0078250  15.9949146   1.0078250
 NucSpn=           1           1           0           1           1           0           1           1           0           1
 AtZEff=   0.0000000   0.0000000   0.0000000   0.0000000   0.0000000   0.0000000   0.0000000   0.0000000   0.0000000   0.0000000
 NQMom=    0.0000000   0.0000000   0.0000000   0.0000000   0.0000000   0.0000000   0.0000000   0.0000000   0.0000000   0.0000000
 NMagM=    2.7928460   2.7928460   0.0000000   2.7928460   2.7928460   0.0000000   2.7928460   2.7928460   0.0000000   2.7928460
 AtZNuc=   1.0000000   1.0000000   8.0000000   1.0000000   1.0000000   8.0000000   1.0000000   1.0000000   8.0000000   1.0000000

  Atom       271         272         273         274         275         276         277         278         279         280
 IAtWgt=           1          16           1           1          16           1           1          16           1           1
 AtmWgt=   1.0078250  15.9949146   1.0078250   1.0078250  15.9949146   1.0078250   1.0078250  15.9949146   1.0078250   1.0078250
 NucSpn=           1           0           1           1           0           1           1           0           1           1
 AtZEff=   0.0000000   0.0000000   0.0000000   0.0000000   0.0000000   0.0000000   0.0000000   0.0000000   0.0000000   0.0000000
 NQMom=    0.0000000   0.0000000   0.0000000   0.0000000   0.0000000   0.0000000   0.0000000   0.0000000   0.0000000   0.0000000
 NMagM=    2.7928460   0.0000000   2.7928460   2.7928460   0.0000000   2.7928460   2.7928460   0.0000000   2.7928460   2.7928460
 AtZNuc=   1.0000000   8.0000000   1.0000000   1.0000000   8.0000000   1.0000000   1.0000000   8.0000000   1.0000000   1.0000000

  Atom       281         282         283         284         285         286         287         288         289         290
 IAtWgt=          16           1           1          16           1           1          16           1           1          16
 AtmWgt=  15.9949146   1.0078250   1.0078250  15.9949146   1.0078250   1.0078250  15.9949146   1.0078250   1.0078250  15.9949146
 NucSpn=           0           1           1           0           1           1           0           1           1           0
 AtZEff=   0.0000000   0.0000000   0.0000000   0.0000000   0.0000000   0.0000000   0.0000000   0.0000000   0.0000000   0.0000000
 NQMom=    0.0000000   0.0000000   0.0000000   0.0000000   0.0000000   0.0000000   0.0000000   0.0000000   0.0000000   0.0000000
 NMagM=    0.0000000   2.7928460   2.7928460   0.0000000   2.7928460   2.7928460   0.0000000   2.7928460   2.7928460   0.0000000
 AtZNuc=   8.0000000   1.0000000   1.0000000   8.0000000   1.0000000   1.0000000   8.0000000   1.0000000   1.0000000   8.0000000

  Atom       291         292         293         294         295         296         297         298         299         300
 IAtWgt=           1           1          16           1           1          16           1           1          16           1
 AtmWgt=   1.0078250   1.0078250  15.9949146   1.0078250   1.0078250  15.9949146   1.0078250   1.0078250  15.9949146   1.0078250
 NucSpn=           1           1           0           1           1           0           1           1           0           1
 AtZEff=   0.0000000   0.0000000   0.0000000   0.0000000   0.0000000   0.0000000   0.0000000   0.0000000   0.0000000   0.0000000
 NQMom=    0.0000000   0.0000000   0.0000000   0.0000000   0.0000000   0.0000000   0.0000000   0.0000000   0.0000000   0.0000000
 NMagM=    2.7928460   2.7928460   0.0000000   2.7928460   2.7928460   0.0000000   2.7928460   2.7928460   0.0000000   2.7928460
 AtZNuc=   1.0000000   1.0000000   8.0000000   1.0000000   1.0000000   8.0000000   1.0000000   1.0000000   8.0000000   1.0000000

  Atom       301         302         303         304         305         306         307         308         309         310
 IAtWgt=           1          16           1           1          16           1           1          16           1           1
 AtmWgt=   1.0078250  15.9949146   1.0078250   1.0078250  15.9949146   1.0078250   1.0078250  15.9949146   1.0078250   1.0078250
 NucSpn=           1           0           1           1           0           1           1           0           1           1
 AtZEff=   0.0000000   0.0000000   0.0000000   0.0000000   0.0000000   0.0000000   0.0000000   0.0000000   0.0000000   0.0000000
 NQMom=    0.0000000   0.0000000   0.0000000   0.0000000   0.0000000   0.0000000   0.0000000   0.0000000   0.0000000   0.0000000
 NMagM=    2.7928460   0.0000000   2.7928460   2.7928460   0.0000000   2.7928460   2.7928460   0.0000000   2.7928460   2.7928460
 AtZNuc=   1.0000000   8.0000000   1.0000000   1.0000000   8.0000000   1.0000000   1.0000000   8.0000000   1.0000000   1.0000000

  Atom       311         312         313         314         315         316         317         318         319         320
 IAtWgt=          16           1           1          16           1           1          16           1           1          16
 AtmWgt=  15.9949146   1.0078250   1.0078250  15.9949146   1.0078250   1.0078250  15.9949146   1.0078250   1.0078250  15.9949146
 NucSpn=           0           1           1           0           1           1           0           1           1           0
 AtZEff=   0.0000000   0.0000000   0.0000000   0.0000000   0.0000000   0.0000000   0.0000000   0.0000000   0.0000000   0.0000000
 NQMom=    0.0000000   0.0000000   0.0000000   0.0000000   0.0000000   0.0000000   0.0000000   0.0000000   0.0000000   0.0000000
 NMagM=    0.0000000   2.7928460   2.7928460   0.0000000   2.7928460   2.7928460   0.0000000   2.7928460   2.7928460   0.0000000
 AtZNuc=   8.0000000   1.0000000   1.0000000   8.0000000   1.0000000   1.0000000   8.0000000   1.0000000   1.0000000   8.0000000

  Atom       321         322         323         324         325         326         327         328         329         330
 IAtWgt=           1           1          16           1           1          16           1           1          16           1
 AtmWgt=   1.0078250   1.0078250  15.9949146   1.0078250   1.0078250  15.9949146   1.0078250   1.0078250  15.9949146   1.0078250
 NucSpn=           1           1           0           1           1           0           1           1           0           1
 AtZEff=   0.0000000   0.0000000   0.0000000   0.0000000   0.0000000   0.0000000   0.0000000   0.0000000   0.0000000   0.0000000
 NQMom=    0.0000000   0.0000000   0.0000000   0.0000000   0.0000000   0.0000000   0.0000000   0.0000000   0.0000000   0.0000000
 NMagM=    2.7928460   2.7928460   0.0000000   2.7928460   2.7928460   0.0000000   2.7928460   2.7928460   0.0000000   2.7928460
 AtZNuc=   1.0000000   1.0000000   8.0000000   1.0000000   1.0000000   8.0000000   1.0000000   1.0000000   8.0000000   1.0000000

  Atom       331         332         333         334         335         336         337         338         339         340
 IAtWgt=           1          16           1           1          16           1           1          16           1           1
 AtmWgt=   1.0078250  15.9949146   1.0078250   1.0078250  15.9949146   1.0078250   1.0078250  15.9949146   1.0078250   1.0078250
 NucSpn=           1           0           1           1           0           1           1           0           1           1
 AtZEff=   0.0000000   0.0000000   0.0000000   0.0000000   0.0000000   0.0000000   0.0000000   0.0000000   0.0000000   0.0000000
 NQMom=    0.0000000   0.0000000   0.0000000   0.0000000   0.0000000   0.0000000   0.0000000   0.0000000   0.0000000   0.0000000
 NMagM=    2.7928460   0.0000000   2.7928460   2.7928460   0.0000000   2.7928460   2.7928460   0.0000000   2.7928460   2.7928460
 AtZNuc=   1.0000000   8.0000000   1.0000000   1.0000000   8.0000000   1.0000000   1.0000000   8.0000000   1.0000000   1.0000000

  Atom       341         342         343         344         345         346         347         348         349         350
 IAtWgt=          16           1           1          16           1           1          16           1           1          16
 AtmWgt=  15.9949146   1.0078250   1.0078250  15.9949146   1.0078250   1.0078250  15.9949146   1.0078250   1.0078250  15.9949146
 NucSpn=           0           1           1           0           1           1           0           1           1           0
 AtZEff=   0.0000000   0.0000000   0.0000000   0.0000000   0.0000000   0.0000000   0.0000000   0.0000000   0.0000000   0.0000000
 NQMom=    0.0000000   0.0000000   0.0000000   0.0000000   0.0000000   0.0000000   0.0000000   0.0000000   0.0000000   0.0000000
 NMagM=    0.0000000   2.7928460   2.7928460   0.0000000   2.7928460   2.7928460   0.0000000   2.7928460   2.7928460   0.0000000
 AtZNuc=   8.0000000   1.0000000   1.0000000   8.0000000   1.0000000   1.0000000   8.0000000   1.0000000   1.0000000   8.0000000

  Atom       351         352         353         354         355         356         357         358         359         360
 IAtWgt=           1           1          16           1           1          16           1           1          16           1
 AtmWgt=   1.0078250   1.0078250  15.9949146   1.0078250   1.0078250  15.9949146   1.0078250   1.0078250  15.9949146   1.0078250
 NucSpn=           1           1           0           1           1           0           1           1           0           1
 AtZEff=   0.0000000   0.0000000   0.0000000   0.0000000   0.0000000   0.0000000   0.0000000   0.0000000   0.0000000   0.0000000
 NQMom=    0.0000000   0.0000000   0.0000000   0.0000000   0.0000000   0.0000000   0.0000000   0.0000000   0.0000000   0.0000000
 NMagM=    2.7928460   2.7928460   0.0000000   2.7928460   2.7928460   0.0000000   2.7928460   2.7928460   0.0000000   2.7928460
 AtZNuc=   1.0000000   1.0000000   8.0000000   1.0000000   1.0000000   8.0000000   1.0000000   1.0000000   8.0000000   1.0000000

  Atom       361         362         363         364         365         366         367         368         369         370
 IAtWgt=           1          16           1           1          16           1           1          16           1           1
 AtmWgt=   1.0078250  15.9949146   1.0078250   1.0078250  15.9949146   1.0078250   1.0078250  15.9949146   1.0078250   1.0078250
 NucSpn=           1           0           1           1           0           1           1           0           1           1
 AtZEff=   0.0000000   0.0000000   0.0000000   0.0000000   0.0000000   0.0000000   0.0000000   0.0000000   0.0000000   0.0000000
 NQMom=    0.0000000   0.0000000   0.0000000   0.0000000   0.0000000   0.0000000   0.0000000   0.0000000   0.0000000   0.0000000
 NMagM=    2.7928460   0.0000000   2.7928460   2.7928460   0.0000000   2.7928460   2.7928460   0.0000000   2.7928460   2.7928460
 AtZNuc=   1.0000000   8.0000000   1.0000000   1.0000000   8.0000000   1.0000000   1.0000000   8.0000000   1.0000000   1.0000000

  Atom       371         372         373         374         375         376         377         378         379         380
 IAtWgt=          16           1           1          16           1           1          16           1           1          16
 AtmWgt=  15.9949146   1.0078250   1.0078250  15.9949146   1.0078250   1.0078250  15.9949146   1.0078250   1.0078250  15.9949146
 NucSpn=           0           1           1           0           1           1           0           1           1           0
 AtZEff=   0.0000000   0.0000000   0.0000000   0.0000000   0.0000000   0.0000000   0.0000000   0.0000000   0.0000000   0.0000000
 NQMom=    0.0000000   0.0000000   0.0000000   0.0000000   0.0000000   0.0000000   0.0000000   0.0000000   0.0000000   0.0000000
 NMagM=    0.0000000   2.7928460   2.7928460   0.0000000   2.7928460   2.7928460   0.0000000   2.7928460   2.7928460   0.0000000
 AtZNuc=   8.0000000   1.0000000   1.0000000   8.0000000   1.0000000   1.0000000   8.0000000   1.0000000   1.0000000   8.0000000

  Atom       381         382         383         384         385
 IAtWgt=           1           1          16           1           1
 AtmWgt=   1.0078250   1.0078250  15.9949146   1.0078250   1.0078250
 NucSpn=           1           1           0           1           1
 AtZEff=   0.0000000   0.0000000   0.0000000   0.0000000   0.0000000
 NQMom=    0.0000000   0.0000000   0.0000000   0.0000000   0.0000000
 NMagM=    2.7928460   2.7928460   0.0000000   2.7928460   2.7928460
 AtZNuc=   1.0000000   1.0000000   8.0000000   1.0000000   1.0000000
 Leave Link  101 at Thu May 10 04:11:09 2018, MaxMem= 14763950080 cpu:        31.1
 (Enter /cm/shared/gaussian/g09.e01/intel64-sandybridge/g09/l103.exe)

 GradGradGradGradGradGradGradGradGradGradGradGradGradGradGradGradGradGrad
 Berny optimization.
 Initialization pass.
 Trust Radius=3.00D-01 FncErr=1.00D-07 GrdErr=1.00D-07
 Number of steps in this run=      2 maximum allowed number of steps=      2.
 GradGradGradGradGradGradGradGradGradGradGradGradGradGradGradGradGradGrad

 Leave Link  103 at Thu May 10 04:11:09 2018, MaxMem= 14763950080 cpu:         3.6
 (Enter /cm/shared/gaussian/g09.e01/intel64-sandybridge/g09/l202.exe)
 Symmetry turned off by external request.
 Stoichiometry    BrH256O128(1-)
 Framework group  C1[X(BrH256O128)]
 Deg. of freedom  1149
 Full point group                 C1      NOp   1
                          Input orientation:                          
 ---------------------------------------------------------------------
 Center     Atomic      Atomic             Coordinates (Angstroms)
 Number     Number       Type             X           Y           Z
 ---------------------------------------------------------------------
      1         35           0       20.000000   20.000000   20.000000
      2          8           0       21.500000   19.060000   22.680000
      3          1           0       21.500000   18.100000   22.720000
      4          1           0       20.870000   19.270000   21.990000
      5          8           0       19.060000   17.030000   21.150000
      6          1           0       19.320000   17.920000   20.920000
      7          1           0       18.110000   17.020000   21.070000
      8          8           0       21.210000   22.080000   17.650000
      9          1           0       21.100000   21.310000   18.210000
     10          1           0       20.470000   22.650000   17.880000
     11          8           0       20.750000   22.830000   21.050000
     12          1           0       19.960000   22.820000   20.500000
     13          1           0       21.220000   22.040000   20.800000
     14          8           0       18.550000   20.400000   16.920000
     15          1           0       19.130000   19.760000   16.510000
     16          1           0       18.660000   20.250000   17.860000
     17          8           0       18.640000   17.370000   18.360000
     18          1           0       19.420000   17.490000   18.890000
     19          1           0       18.950000   16.890000   17.580000
     20          8           0       18.000000   19.870000   23.160000
     21          1           0       18.470000   20.080000   22.360000
     22          1           0       17.470000   19.110000   22.940000
     23          8           0       21.420000   16.990000   18.790000
     24          1           0       21.760000   17.640000   19.410000
     25          1           0       22.120000   16.330000   18.730000
     26          8           0       16.690000   22.000000   19.490000
     27          1           0       17.540000   22.170000   19.090000
     28          1           0       16.840000   21.250000   20.060000
     29          8           0       16.630000   19.080000   20.520000
     30          1           0       16.880000   18.570000   19.750000
     31          1           0       15.670000   19.080000   20.500000
     32          8           0       23.300000   18.410000   20.170000
     33          1           0       23.950000   17.710000   20.190000
     34          1           0       23.370000   18.820000   21.040000
     35          8           0       23.350000   19.760000   16.930000
     36          1           0       22.940000   19.760000   16.070000
     37          1           0       22.730000   19.290000   17.490000
     38          8           0       19.160000   23.550000   18.860000
     39          1           0       18.450000   23.950000   19.360000
     40          1           0       19.320000   24.170000   18.150000
     41          8           0       24.220000   21.430000   19.050000
     42          1           0       23.710000   20.950000   19.710000
     43          1           0       23.810000   21.200000   18.220000
     44          8           0       22.830000   21.550000   23.180000
     45          1           0       22.190000   22.260000   23.270000
     46          1           0       22.300000   20.770000   23.030000
     47          8           0       20.570000   18.530000   15.990000
     48          1           0       20.240000   17.850000   15.410000
     49          1           0       20.900000   18.050000   16.750000
     50          8           0       21.820000   16.380000   22.010000
     51          1           0       22.280000   15.620000   21.670000
     52          1           0       21.070000   16.490000   21.420000
     53          8           0       18.660000   23.840000   22.320000
     54          1           0       18.810000   23.150000   22.970000
     55          1           0       19.490000   23.890000   21.840000
     56          8           0       19.030000   22.170000   24.360000
     57          1           0       18.920000   21.240000   24.150000
     58          1           0       19.720000   22.180000   25.020000
     59          8           0       20.540000   19.340000   25.190000
     60          1           0       21.220000   19.040000   25.780000
     61          1           0       20.940000   19.320000   24.320000
     62          8           0       19.630000   16.800000   23.970000
     63          1           0       19.930000   16.510000   23.110000
     64          1           0       19.650000   17.760000   23.920000
     65          8           0       21.200000   21.120000   14.970000
     66          1           0       20.790000   20.440000   15.500000
     67          1           0       20.820000   21.940000   15.280000
     68          8           0       16.380000   22.350000   22.830000
     69          1           0       17.040000   21.720000   23.110000
     70          1           0       16.440000   22.350000   21.880000
     71          8           0       16.080000   17.300000   17.200000
     72          1           0       17.020000   17.340000   17.410000
     73          1           0       15.830000   16.400000   17.430000
     74          8           0       22.380000   25.160000   20.300000
     75          1           0       23.240000   24.760000   20.350000
     76          1           0       21.770000   24.450000   20.510000
     77          8           0       16.260000   19.600000   15.470000
     78          1           0       17.130000   19.800000   15.810000
     79          1           0       16.050000   18.740000   15.840000
     80          8           0       22.650000   23.790000   16.120000
     81          1           0       22.600000   23.010000   16.680000
     82          1           0       21.750000   23.940000   15.840000
     83          8           0       24.890000   23.920000   20.110000
     84          1           0       25.610000   24.160000   19.520000
     85          1           0       24.660000   23.020000   19.850000
     86          8           0       25.160000   17.820000   16.890000
     87          1           0       25.900000   17.920000   17.500000
     88          1           0       24.630000   18.610000   17.030000
     89          8           0       14.060000   22.710000   18.960000
     90          1           0       13.610000   22.500000   19.780000
     91          1           0       14.980000   22.530000   19.140000
     92          8           0       18.990000   16.450000   15.540000
     93          1           0       19.100000   16.560000   14.600000
     94          1           0       18.980000   15.510000   15.670000
     95          8           0       16.920000   24.910000   19.550000
     96          1           0       17.070000   25.850000   19.640000
     97          1           0       16.220000   24.720000   20.170000
     98          8           0       15.490000   17.800000   23.670000
     99          1           0       15.650000   18.740000   23.730000
    100          1           0       14.550000   17.720000   23.540000
    101          8           0       17.900000   25.120000   16.760000
    102          1           0       17.370000   25.900000   16.580000
    103          1           0       17.520000   24.760000   17.560000
    104          8           0       22.910000   15.530000   16.530000
    105          1           0       23.640000   14.980000   16.250000
    106          1           0       23.300000   16.390000   16.700000
    107          8           0       18.660000   14.300000   18.820000
    108          1           0       17.890000   14.580000   18.320000
    109          1           0       18.340000   14.200000   19.720000
    110          8           0       15.120000   22.130000   16.140000
    111          1           0       15.180000   21.250000   15.780000
    112          1           0       15.130000   22.000000   17.090000
    113          8           0       20.010000   24.000000   15.420000
    114          1           0       20.190000   24.590000   14.690000
    115          1           0       19.210000   24.360000   15.820000
    116          8           0       14.780000   20.510000   24.360000
    117          1           0       15.060000   21.030000   23.610000
    118          1           0       14.950000   21.080000   25.120000
    119          8           0       21.340000   26.020000   17.680000
    120          1           0       21.830000   25.730000   18.450000
    121          1           0       21.910000   25.810000   16.940000
    122          8           0       13.820000   19.690000   20.660000
    123          1           0       13.190000   20.410000   20.720000
    124          1           0       13.380000   19.030000   20.110000
    125          8           0       23.600000   15.890000   24.420000
    126          1           0       23.500000   16.470000   25.170000
    127          1           0       22.800000   16.010000   23.910000
    128          8           0       16.120000   25.070000   23.150000
    129          1           0       16.910000   24.680000   22.780000
    130          1           0       15.510000   24.340000   23.240000
    131          8           0       26.330000   20.760000   21.580000
    132          1           0       26.160000   21.090000   20.700000
    133          1           0       26.790000   21.470000   22.030000
    134          8           0       24.950000   16.230000   21.610000
    135          1           0       24.430000   15.960000   22.370000
    136          1           0       24.590000   15.710000   20.890000
    137          8           0       25.610000   18.330000   23.080000
    138          1           0       25.740000   19.130000   22.570000
    139          1           0       25.560000   17.640000   22.420000
    140          8           0       17.500000   22.860000   14.440000
    141          1           0       18.060000   23.410000   14.980000
    142          1           0       16.730000   22.690000   14.970000
    143          8           0       19.640000   13.900000   16.320000
    144          1           0       19.830000   14.250000   17.190000
    145          1           0       19.280000   13.030000   16.490000
    146          8           0       25.330000   22.500000   24.420000
    147          1           0       25.670000   22.950000   23.640000
    148          1           0       24.600000   21.980000   24.090000
    149          8           0       13.610000   17.640000   18.920000
    150          1           0       13.340000   16.720000   18.900000
    151          1           0       14.210000   17.720000   18.180000
    152          8           0       26.330000   18.400000   19.390000
    153          1           0       26.290000   18.450000   20.340000
    154          1           0       26.740000   19.220000   19.120000
    155          8           0       17.240000   16.520000   25.300000
    156          1           0       16.660000   16.840000   24.610000
    157          1           0       17.990000   16.160000   24.830000
    158          8           0       25.420000   23.580000   16.700000
    159          1           0       25.490000   23.470000   15.750000
    160          1           0       24.480000   23.510000   16.880000
    161          8           0       20.310000   27.130000   21.460000
    162          1           0       20.700000   26.420000   20.950000
    163          1           0       20.430000   26.860000   22.370000
    164          8           0       20.830000   16.230000   26.440000
    165          1           0       21.570000   16.810000   26.570000
    166          1           0       20.420000   16.540000   25.630000
    167          8           0       22.690000   14.060000   21.180000
    168          1           0       22.770000   13.690000   20.300000
    169          1           0       22.410000   13.330000   21.730000
    170          8           0       19.740000   13.700000   23.300000
    171          1           0       18.990000   14.280000   23.340000
    172          1           0       19.870000   13.520000   22.370000
    173          8           0       20.080000   12.720000   20.910000
    174          1           0       20.030000   13.300000   20.150000
    175          1           0       19.690000   11.900000   20.610000
    176          8           0       18.750000   20.630000   27.020000
    177          1           0       18.840000   19.750000   26.640000
    178          1           0       19.540000   21.090000   26.750000
    179          8           0       22.140000   13.170000   17.940000
    180          1           0       22.920000   12.680000   17.670000
    181          1           0       22.190000   13.980000   17.440000
    182          8           0       17.290000   24.750000   25.510000
    183          1           0       16.610000   24.810000   24.850000
    184          1           0       17.680000   23.880000   25.380000
    185          8           0       25.190000   24.730000   22.580000
    186          1           0       25.180000   24.510000   21.640000
    187          1           0       25.870000   25.390000   22.670000
    188          8           0       16.900000   14.460000   23.120000
    189          1           0       16.040000   14.760000   22.820000
    190          1           0       17.080000   13.690000   22.590000
    191          8           0       20.760000   22.680000   26.540000
    192          1           0       21.520000   22.770000   27.120000
    193          1           0       20.300000   23.510000   26.630000
    194          8           0       16.110000   14.190000   17.870000
    195          1           0       15.230000   13.820000   17.820000
    196          1           0       16.520000   13.940000   17.040000
    197          8           0       16.340000   20.070000   12.670000
    198          1           0       16.360000   20.030000   13.620000
    199          1           0       17.240000   20.280000   12.410000
    200          8           0       15.980000   21.480000   26.700000
    201          1           0       16.850000   21.080000   26.680000
    202          1           0       16.120000   22.340000   27.100000
    203          8           0       25.480000   18.980000   26.070000
    204          1           0       25.370000   19.080000   25.120000
    205          1           0       26.280000   19.480000   26.260000
    206          8           0       23.980000   24.620000   25.480000
    207          1           0       23.240000   24.660000   24.870000
[...]
   X336      28.49707  -0.00178   0.00000  -0.00073  -0.00092  28.49615
   Y336      50.98481  -0.00912   0.00000  -0.00707  -0.00732  50.97749
   Z336      41.32831  -0.00152   0.00000  -0.00326  -0.00319  41.32512
   X337      30.80254   0.01311   0.00000   0.01013   0.00993  30.81247
   Y337      52.68556   0.00300   0.00000   0.00618   0.00593  52.69150
   Z337      41.40390   0.00315   0.00000   0.00452   0.00462  41.40851
   X338      52.85564  -0.00886   0.00000  -0.00235  -0.00251  52.85313
   Y338      42.48104   0.00102   0.00000   0.00203   0.00183  42.48287
   Z338      43.38811  -0.00116   0.00000  -0.00188  -0.00193  43.38618
   X339      54.57529   0.01255   0.00000   0.00888   0.00872  54.58401
   Y339      41.98971  -0.00976   0.00000  -0.01293  -0.01313  41.97659
   Z339      43.16134  -0.00127   0.00000  -0.00001  -0.00007  43.16127
   X340      52.93123  -0.00190   0.00000  -0.00278  -0.00294  52.92829
   Y340      44.08731   0.00566   0.00000   0.00583   0.00562  44.09293
   Z340      44.21959   0.00231   0.00000   0.00187   0.00183  44.22142
   X341      51.28717   0.00302   0.00000   0.00086   0.00071  51.28788
   Y341      40.30786  -0.01416   0.00000  -0.01352  -0.01381  40.29405
   Z341      49.83208   0.01136   0.00000   0.00290   0.00282  49.83490
   X342      52.98792   0.00461   0.00000   0.00263   0.00248  52.99040
   Y342      40.79919   0.00073   0.00000  -0.00088  -0.00116  40.79803
   Z342      49.45413  -0.00343   0.00000  -0.00394  -0.00402  49.45012
   X343      50.28561  -0.01204   0.00000  -0.01110  -0.01125  50.27436
   Y343      41.08265   0.00820   0.00000   0.00564   0.00536  41.08801
   Z343      48.52817  -0.01192   0.00000  -0.00601  -0.00608  48.52209
   X344      45.12666  -0.01007   0.00000  -0.01088  -0.01107  45.11559
   Y344      51.23048   0.00270   0.00000   0.01034   0.01009  51.24057
   Z344      45.24004   0.01150   0.00000   0.00688   0.00694  45.24699
   X345      46.90300   0.00302   0.00000  -0.00382  -0.00401  46.89899
   Y345      51.04150  -0.00364   0.00000  -0.00630  -0.00654  51.03497
   Z345      44.97548  -0.00099   0.00000   0.00135   0.00140  44.97689
   X346      44.52195   0.00208   0.00000   0.00617   0.00598  44.52793
   Y346      52.00526   0.00661   0.00000   0.00701   0.00678  52.01204
   Z346      43.72826  -0.01443   0.00000  -0.01556  -0.01549  43.71278
   X347      26.60734  -0.01653   0.00000  -0.00855  -0.00873  26.59861
   Y347      49.75649  -0.00465   0.00000  -0.01199  -0.01231  49.74418
   Z347      46.63844   0.01152   0.00000   0.01116   0.01122  46.64966
   X348      27.47662   0.00231   0.00000   0.00015  -0.00003  27.47659
   Y348      50.83363   0.00209   0.00000   0.00176   0.00143  50.83507
   Z348      47.81007   0.00054   0.00000  -0.00098  -0.00090  47.80917
   X349      27.91125   0.01604   0.00000   0.01227   0.01208  27.92334
   Y349      49.13288   0.00514   0.00000   0.01584   0.01554  49.14842
   Z349      45.56130  -0.01435   0.00000  -0.01455  -0.01449  45.54681
   X350      33.65602  -0.00359   0.00000   0.00119   0.00109  33.65711
   Y350      20.35235  -0.01441   0.00000  -0.01011  -0.01036  20.34199
   Z350      42.76450  -0.01075   0.00000  -0.00981  -0.01010  42.75440
   X351      34.90324   0.00640   0.00000   0.00345   0.00335  34.90659
   Y351      20.27676   0.00604   0.00000   0.00901   0.00875  20.28551
   Z351      44.06841   0.00771   0.00000   0.00538   0.00508  44.07349
   X352      33.31587   0.00008   0.00000   0.00095   0.00085  33.31672
   Y352      22.10980   0.00968   0.00000   0.00421   0.00396  22.11375
   Z352      42.55663   0.00009   0.00000  -0.00004  -0.00032  42.55632
   X353      50.15333   0.00641   0.00000   0.01329   0.01310  50.16643
   Y353      49.88877   0.00830   0.00000  -0.00186  -0.00200  49.88677
   Z353      37.32209   0.01936   0.00000   0.00857   0.00860  37.33070
   X354      50.68245   0.01510   0.00000   0.01956   0.01937  50.70183
   Y354      48.75493  -0.01991   0.00000  -0.01840  -0.01853  48.73641
   Z354      36.03708  -0.01767   0.00000  -0.01179  -0.01176  36.02531
   X355      51.47614  -0.00005   0.00000   0.00695   0.00676  51.48290
   Y355      49.79428   0.00080   0.00000   0.00087   0.00072  49.79500
   Z355      38.56931  -0.00239   0.00000   0.00186   0.00189  38.57120
   X356      44.88100   0.00401   0.00000  -0.00102  -0.00117  44.87982
   Y356      29.21517  -0.01240   0.00000  -0.01090  -0.01089  29.20428
   Z356      22.80899   0.00770   0.00000   0.00658   0.00638  22.81537
   X357      44.10621  -0.00608   0.00000  -0.00477  -0.00492  44.10129
   Y357      29.64980   0.00670   0.00000   0.00694   0.00697  29.65677
   Z357      21.24052  -0.00614   0.00000  -0.00086  -0.00106  21.23946
   X358      44.57864  -0.00059   0.00000   0.00138   0.00123  44.57987
   Y358      30.63246   0.00688   0.00000   0.00600   0.00601  30.63847
   Z358      23.90504  -0.00052   0.00000  -0.00320  -0.00339  23.90165
   X359      30.67026   0.00417   0.00000   0.00225   0.00209  30.67235
   Y359      45.63689  -0.01175   0.00000  -0.00948  -0.00986  45.62703
   Z359      52.81785   0.01225   0.00000   0.00646   0.00647  52.82432
   X360      29.27186  -0.00917   0.00000  -0.00893  -0.00909  29.26277
   Y360      46.69513   0.00073   0.00000  -0.00490  -0.00529  46.68984
   Z360      53.25248   0.00032   0.00000  -0.00033  -0.00030  53.25218
   X361      31.01041   0.00629   0.00000   0.00951   0.00935  31.01976
   Y361      46.03373   0.01027   0.00000   0.01409   0.01373  46.04746
   Z361      51.07930  -0.01187   0.00000  -0.00488  -0.00487  51.07443
   X362      55.42567  -0.00185   0.00000  -0.00212  -0.00227  55.42339
   Y362      37.75673   0.02659   0.00000   0.02241   0.02223  37.77896
   Z362      41.91413  -0.01685   0.00000  -0.01717  -0.01729  41.89684
   X363      54.12176   0.00005   0.00000   0.00927   0.00912  54.13088
   Y363      37.22760  -0.00653   0.00000  -0.00309  -0.00328  37.22432
   Z363      43.06686   0.01068   0.00000   0.00890   0.00878  43.07564
   X364      56.57840   0.00562   0.00000   0.00030   0.00015  56.57855
   Y364      36.37723  -0.01030   0.00000  -0.00097  -0.00114  36.37608
   Z364      41.87633   0.00222   0.00000   0.00144   0.00131  41.87764
   X365      53.98948  -0.01300   0.00000  -0.00778  -0.00793  53.98155
   Y365      33.03241  -0.01654   0.00000  -0.01352  -0.01358  33.01883
   Z365      32.23873   0.00081   0.00000   0.00069   0.00052  32.23925
   X366      55.61464   0.01176   0.00000   0.00781   0.00766  55.62230
   Y366      32.76785  -0.00067   0.00000  -0.00103  -0.00108  32.76677
   Z366      31.52063  -0.00497   0.00000  -0.00352  -0.00369  31.51694
   X367      53.98948   0.00021   0.00000  -0.00146  -0.00161  53.98786
   Y367      34.77096   0.01192   0.00000   0.00503   0.00495  34.77591
   Z367      32.76785   0.00172   0.00000  -0.00111  -0.00125  32.76660
   X368      31.82299  -0.00344   0.00000  -0.00253  -0.00274  31.82025
   Y368      52.23203  -0.01098   0.00000  -0.00721  -0.00732  52.22471
   Z368      30.53797   0.00397   0.00000  -0.00053  -0.00045  30.53753
   X369      31.40725  -0.00279   0.00000  -0.00351  -0.00372  31.40353
   Y369      52.28872   0.00543   0.00000   0.00837   0.00827  52.29700
   Z369      28.78053  -0.00928   0.00000  -0.00848  -0.00839  28.77213
   X370      32.57888   0.00457   0.00000   0.00364   0.00343  32.58231
   Y370      53.83830   0.00768   0.00000   0.00301   0.00290  53.84119
   Z370      30.87813   0.00039   0.00000  -0.00023  -0.00012  30.87800
   X371      27.68449  -0.00734   0.00000  -0.00018  -0.00031  27.68418
   Y371      27.24985   0.00407   0.00000   0.00472   0.00462  27.25447
   Z371      28.02464   0.01299   0.00000   0.01370   0.01349  28.03813
   X372      28.74273   0.00695   0.00000   0.00375   0.00361  28.74635
   Y372      28.04354   0.00409   0.00000   0.00264   0.00256  28.04610
   Z372      26.79632  -0.00780   0.00000  -0.00434  -0.00454  26.79178
   X373      28.28920   0.00193   0.00000  -0.00034  -0.00047  28.28873
   Y373      25.54910  -0.00715   0.00000  -0.00529  -0.00539  25.54371
   Z373      28.11912  -0.00371   0.00000  -0.00601  -0.00624  28.11288
   X374      27.53331  -0.01318   0.00000  -0.00619  -0.00637  27.52694
   Y374      41.98971   0.02141   0.00000   0.01148   0.01145  42.00116
   Z374      23.30032   0.00464   0.00000   0.00358   0.00355  23.30388
   X375      26.87191  -0.00159   0.00000  -0.00130  -0.00149  26.87042
   Y375      41.91413  -0.00128   0.00000  -0.00087  -0.00089  41.91323
   Z375      21.61847  -0.00560   0.00000  -0.00425  -0.00428  21.61419
   X376      28.61045   0.01891   0.00000   0.01562   0.01544  28.62589
   Y376      40.55352  -0.02046   0.00000  -0.01117  -0.01121  40.54231
   Z376      23.43260   0.00182   0.00000   0.00236   0.00231  23.43491
   X377      51.45724   0.01097   0.00000   0.00384   0.00372  51.46096
   Y377      26.26719  -0.01546   0.00000  -0.00905  -0.00923  26.25796
   Z377      41.42280  -0.01950   0.00000  -0.01909  -0.01934  41.40346
   X378      50.09664  -0.00916   0.00000  -0.00077  -0.00088  50.09576
   Y378      26.02153   0.00380   0.00000   0.00603   0.00583  26.02735
   Z378      42.59443   0.01331   0.00000   0.01045   0.01021  42.60463
   X379      51.70291  -0.00193   0.00000  -0.00293  -0.00305  51.69985
   Y379      28.04354   0.01493   0.00000   0.00951   0.00933  28.05286
   Z379      41.36611   0.00471   0.00000   0.00671   0.00648  41.37259
   X380      52.09975  -0.00176   0.00000   0.00181   0.00164  52.10139
   Y380      39.06064  -0.00189   0.00000   0.00063   0.00061  39.06125
   Z380      28.04354   0.01934   0.00000   0.01420   0.01410  28.05764
   X381      51.26827  -0.00789   0.00000  -0.00713  -0.00731  51.26096
   Y381      39.34410   0.00249   0.00000   0.00144   0.00143  39.34553
   Z381      26.47506  -0.01016   0.00000  -0.00140  -0.00149  26.47357
   X382      53.85719   0.01164   0.00000   0.00948   0.00931  53.86650
   Y382      39.15513   0.00012   0.00000  -0.00075  -0.00076  39.15437
   Z382      27.66559  -0.00664   0.00000  -0.00784  -0.00794  27.65765
   X383      25.24674   0.00425   0.00000   0.00457   0.00441  25.25115
   Y383      43.53929   0.01387   0.00000   0.01181   0.01145  43.55074
   Z383      50.02105   0.00004   0.00000  -0.00607  -0.00608  50.01497
   X384      23.64047  -0.00885   0.00000  -0.00774  -0.00790  23.63258
   Y384      43.40701  -0.00351   0.00000  -0.00469  -0.00505  43.40196
   Z384      49.20847  -0.00222   0.00000   0.00042   0.00042  49.20888
   X385      25.98373   0.00577   0.00000   0.00580   0.00565  25.98938
   Y385      41.89523  -0.00901   0.00000  -0.00364  -0.00400  41.89123
   Z385      49.85098   0.00296   0.00000   0.00712   0.00710  49.85807
         Item               Value     Threshold  Converged?
 Maximum Force            0.035657     0.000450     NO 
 RMS     Force            0.010355     0.000300     NO 
 Maximum Displacement     0.031449     0.001800     NO 
 RMS     Displacement     0.008849     0.001200     NO 
 Predicted change in Energy=-7.205153D-02
 GradGradGradGradGradGradGradGradGradGradGradGradGradGradGradGradGradGrad

 Leave Link  103 at Thu May 10 06:44:09 2018, MaxMem= 14763950080 cpu:      3070.6
 (Enter /cm/shared/gaussian/g09.e01/intel64-sandybridge/g09/l9999.exe)
 1\1\GINC-POPLE08\Force\RPBE1PBE\CC-pVDZ\Br1H256O128(1-)\M.PELUSO\10-Ma
 y-2018\0\\#p PBE1PBE/cc-pvDZ force Counterpoise=2 noSymm\\forces on ch
 loride comput - NWATER: 128\\-1,1\Br,20.,20.,20.\O,21.5,19.06,22.68\H,
 21.5,18.1,22.72\H,20.87,19.27,21.99\O,19.06,17.03,21.15\H,19.32,17.92,
 20.92\H,18.11,17.02,21.07\O,21.21,22.08,17.65\H,21.1,21.31,18.21\H,20.
 47,22.65,17.88\O,20.75,22.83,21.05\H,19.96,22.82,20.5\H,21.22,22.04,20
 .8\O,18.55,20.4,16.92\H,19.13,19.76,16.51\H,18.66,20.25,17.86\O,18.64,
 17.37,18.36\H,19.42,17.49,18.89\H,18.95,16.89,17.58\O,18.,19.87,23.16\
 H,18.47,20.08,22.36\H,17.47,19.11,22.94\O,21.42,16.99,18.79\H,21.76,17
 .64,19.41\H,22.12,16.33,18.73\O,16.69,22.,19.49\H,17.54,22.17,19.09\H,
 16.84,21.25,20.06\O,16.63,19.08,20.52\H,16.88,18.57,19.75\H,15.67,19.0
 8,20.5\O,23.3,18.41,20.17\H,23.95,17.71,20.19\H,23.37,18.82,21.04\O,23
 .35,19.76,16.93\H,22.94,19.76,16.07\H,22.73,19.29,17.49\O,19.16,23.55,
 18.86\H,18.45,23.95,19.36\H,19.32,24.17,18.15\O,24.22,21.43,19.05\H,23
 .71,20.95,19.71\H,23.81,21.2,18.22\O,22.83,21.55,23.18\H,22.19,22.26,2
 3.27\H,22.3,20.77,23.03\O,20.57,18.53,15.99\H,20.24,17.85,15.41\H,20.9
 ,18.05,16.75\O,21.82,16.38,22.01\H,22.28,15.62,21.67\H,21.07,16.49,21.
 42\O,18.66,23.84,22.32\H,18.81,23.15,22.97\H,19.49,23.89,21.84\O,19.03
 ,22.17,24.36\H,18.92,21.24,24.15\H,19.72,22.18,25.02\O,20.54,19.34,25.
 19\H,21.22,19.04,25.78\H,20.94,19.32,24.32\O,19.63,16.8,23.97\H,19.93,
 16.51,23.11\H,19.65,17.76,23.92\O,21.2,21.12,14.97\H,20.79,20.44,15.5\
 H,20.82,21.94,15.28\O,16.38,22.35,22.83\H,17.04,21.72,23.11\H,16.44,22
 .35,21.88\O,16.08,17.3,17.2\H,17.02,17.34,17.41\H,15.83,16.4,17.43\O,2
 2.38,25.16,20.3\H,23.24,24.76,20.35\H,21.77,24.45,20.51\O,16.26,19.6,1
 5.47\H,17.13,19.8,15.81\H,16.05,18.74,15.84\O,22.65,23.79,16.12\H,22.6
 ,23.01,16.68\H,21.75,23.94,15.84\O,24.89,23.92,20.11\H,25.61,24.16,19.
 52\H,24.66,23.02,19.85\O,25.16,17.82,16.89\H,25.9,17.92,17.5\H,24.63,1
 8.61,17.03\O,14.06,22.71,18.96\H,13.61,22.5,19.78\H,14.98,22.53,19.14\
 O,18.99,16.45,15.54\H,19.1,16.56,14.6\H,18.98,15.51,15.67\O,16.92,24.9
 1,19.55\H,17.07,25.85,19.64\H,16.22,24.72,20.17\O,15.49,17.8,23.67\H,1
 5.65,18.74,23.73\H,14.55,17.72,23.54\O,17.9,25.12,16.76\H,17.37,25.9,1
 6.58\H,17.52,24.76,17.56\O,22.91,15.53,16.53\H,23.64,14.98,16.25\H,23.
 3,16.39,16.7\O,18.66,14.3,18.82\H,17.89,14.58,18.32\H,18.34,14.2,19.72
 \O,15.12,22.13,16.14\H,15.18,21.25,15.78\H,15.13,22.,17.09\O,20.01,24.
 ,15.42\H,20.19,24.59,14.69\H,19.21,24.36,15.82\O,14.78,20.51,24.36\H,1
 5.06,21.03,23.61\H,14.95,21.08,25.12\O,21.34,26.02,17.68\H,21.83,25.73
 ,18.45\H,21.91,25.81,16.94\O,13.82,19.69,20.66\H,13.19,20.41,20.72\H,1
 3.38,19.03,20.11\O,23.6,15.89,24.42\H,23.5,16.47,25.17\H,22.8,16.01,23
 .91\O,16.12,25.07,23.15\H,16.91,24.68,22.78\H,15.51,24.34,23.24\O,26.3
 3,20.76,21.58\H,26.16,21.09,20.7\H,26.79,21.47,22.03\O,24.95,16.23,21.
 61\H,24.43,15.96,22.37\H,24.59,15.71,20.89\O,25.61,18.33,23.08\H,25.74
 ,19.13,22.57\H,25.56,17.64,22.42\O,17.5,22.86,14.44\H,18.06,23.41,14.9
 8\H,16.73,22.69,14.97\O,19.64,13.9,16.32\H,19.83,14.25,17.19\H,19.28,1
 3.03,16.49\O,25.33,22.5,24.42\H,25.67,22.95,23.64\H,24.6,21.98,24.09\O
 ,13.61,17.64,18.92\H,13.34,16.72,18.9\H,14.21,17.72,18.18\O,26.33,18.4
 ,19.39\H,26.29,18.45,20.34\H,26.74,19.22,19.12\O,17.24,16.52,25.3\H,16
 .66,16.84,24.61\H,17.99,16.16,24.83\O,25.42,23.58,16.7\H,25.49,23.47,1
 5.75\H,24.48,23.51,16.88\O,20.31,27.13,21.46\H,20.7,26.42,20.95\H,20.4
 3,26.86,22.37\O,20.83,16.23,26.44\H,21.57,16.81,26.57\H,20.42,16.54,25
 .63\O,22.69,14.06,21.18\H,22.77,13.69,20.3\H,22.41,13.33,21.73\O,19.74
 ,13.7,23.3\H,18.99,14.28,23.34\H,19.87,13.52,22.37\O,20.08,12.72,20.91
 \H,20.03,13.3,20.15\H,19.69,11.9,20.61\O,18.75,20.63,27.02\H,18.84,19.
 75,26.64\H,19.54,21.09,26.75\O,22.14,13.17,17.94\H,22.92,12.68,17.67\H
 ,22.19,13.98,17.44\O,17.29,24.75,25.51\H,16.61,24.81,24.85\H,17.68,23.
 88,25.38\O,25.19,24.73,22.58\H,25.18,24.51,21.64\H,25.87,25.39,22.67\O
 ,16.9,14.46,23.12\H,16.04,14.76,22.82\H,17.08,13.69,22.59\O,20.76,22.6
 8,26.54\H,21.52,22.77,27.12\H,20.3,23.51,26.63\O,16.11,14.19,17.87\H,1
 5.23,13.82,17.82\H,16.52,13.94,17.04\O,16.34,20.07,12.67\H,16.36,20.03
 ,13.62\H,17.24,20.28,12.41\O,15.98,21.48,26.7\H,16.85,21.08,26.68\H,16
 .12,22.34,27.1\O,25.48,18.98,26.07\H,25.37,19.08,25.12\H,26.28,19.48,2
 6.26\O,23.98,24.62,25.48\H,23.24,24.66,24.87\H,24.68,24.21,24.98\O,21.
 01,26.18,24.1\H,20.97,26.32,25.04\H,21.75,26.72,23.8\O,24.17,23.22,13.
 79\H,23.78,22.37,13.6\H,23.6,23.6,14.47\O,23.04,17.97,26.57\H,23.87,18
 .41,26.37\H,22.94,18.06,27.51\O,25.64,15.11,18.75\H,26.3,14.95,18.08\H
 ,26.14,15.3,19.54\O,18.74,19.89,11.97\H,19.51,20.32,11.59\H,19.1,19.18
 ,12.5\O,20.61,17.4,12.49\H,21.37,17.91,12.78\H,20.88,16.49,12.59\O,12.
 83,18.56,23.59\H,13.24,19.42,23.52\H,12.8,18.39,24.54\O,24.19,27.26,19
 .27\H,25.09,26.93,19.28\H,23.71,26.71,19.88\O,13.7,25.02,17.36\H,14.43
 ,25.23,16.78\H,13.99,24.26,17.86\O,12.46,21.54,16.86\H,12.86,21.95,16.
 1\H,12.85,21.98,17.62\O,13.85,19.23,13.95\H,14.73,19.42,14.29\H,13.89,
 19.53,13.04\O,16.56,13.01,20.48\H,15.7,13.43,20.53\H,16.56,12.57,19.63
 \O,18.45,16.89,27.73\H,19.33,16.59,27.49\H,17.98,16.92,26.9\O,20.85,14
 .57,13.81\H,21.49,13.93,13.49\H,20.58,14.22,14.66\O,20.59,21.85,11.57\
 H,19.95,22.28,11.\H,20.44,22.24,12.44\O,17.55,27.47,18.98\H,18.08,27.6
 5,18.2\H,16.91,28.18,18.99\O,22.89,18.56,12.31\H,22.88,19.46,12.63\H,2
 3.14,18.64,11.38\O,13.78,24.88,20.83\H,13.56,24.49,21.67\H,13.27,24.37
 ,20.19\O,13.75,23.91,23.37\H,13.14,23.18,23.29\H,13.58,24.28,24.23\O,2
 4.52,13.31,17.05\H,24.82,13.88,17.75\H,25.32,12.87,16.74\O,14.23,14.33
 ,21.04\H,13.99,14.57,21.94\H,13.4,14.38,20.56\O,21.02,28.63,17.09\H,20
 .91,27.74,17.44\H,21.95,28.69,16.88\O,26.45,16.5,14.53\H,25.88,16.98,1
 5.13\H,27.29,16.96,14.57\O,18.13,28.45,22.37\H,18.09,28.07,23.25\H,18.
 84,27.98,21.94\O,19.11,13.81,26.28\H,20.04,13.75,26.5\H,18.9,14.73,26.
 4\O,18.04,27.2,25.12\H,17.31,27.6,25.58\H,17.87,26.26,25.16\O,15.11,25
 .14,14.94\H,15.42,24.36,14.48\H,15.87,25.73,14.94\O,11.33,17.4,21.31\H
 ,12.12,17.58,21.82\H,11.66,17.12,20.45\O,27.66,24.12,18.38\H,28.04,23.
 36,18.83\H,27.23,23.74,17.61\O,25.57,13.93,24.14\H,26.04,14.37,24.85\H
 ,24.68,14.29,24.19\O,15.89,14.13,26.06\H,16.54,14.74,25.72\H,16.36,13.
 3,26.14\O,15.47,17.73,27.69\H,15.37,17.08,28.37\H,16.03,17.32,27.03\O,
 11.83,22.3,20.74\H,11.31,21.7,20.21\H,11.19,22.87,21.16\O,28.27,20.11,
 17.54\H,28.78,20.81,17.96\H,27.89,20.52,16.76\O,17.96,23.31,11.44\H,17
 .54,22.58,10.99\H,17.79,23.15,12.37\O,28.78,21.99,19.86\H,29.63,22.25,
 20.21\H,28.44,21.37,20.5\O,28.28,18.74,24.29\H,28.51,18.55,25.2\H,27.3
 3,18.61,24.25\O,23.4,21.27,11.82\H,23.94,22.05,11.71\H,22.51,21.61,11.
 9\O,18.04,18.97,29.15\H,18.31,18.11,28.83\H,18.29,19.58,28.45\O,19.88,
 11.19,17.07\H,20.27,10.34,16.87\H,20.57,11.67,17.54\O,12.83,16.99,15.7
 3\H,12.9,17.7,15.09\H,13.51,16.36,15.48\O,20.56,25.21,13.02\H,20.01,25
 .57,12.32\H,21.44,25.54,12.84\O,15.34,27.9,21.83\H,15.08,26.98,21.87\H
 ,16.3,27.88,21.91\O,27.97,22.48,22.96\H,28.88,22.22,22.84\H,28.01,23.3
 3,23.4\O,27.14,21.33,26.37\H,28.04,21.59,26.17\H,26.61,21.74,25.68\O,2
 3.88,27.11,23.94\H,24.82,27.01,23.8\H,23.56,27.52,23.14\O,14.08,26.33,
 24.68\H,14.54,26.9,25.3\H,14.77,26.,24.11\O,17.81,10.77,22.63\H,18.47,
 10.73,23.32\H,17.63,11.7,22.52\O,26.54,26.4,19.75\H,26.82,25.8,19.07\H
 ,27.24,26.35,20.41\O,23.75,15.46,12.07\H,23.34,15.69,11.24\H,23.59,16.
 21,12.65\O,16.23,24.15,27.95\H,15.49,24.71,28.18\H,16.41,24.36,27.03\O
 ,29.33,19.98,22.18\H,28.64,19.7,22.79\H,29.94,19.25,22.16\O,28.57,17.4
 8,17.06\H,29.43,17.34,16.68\H,28.57,18.4,17.34\O,16.84,27.64,16.16\H,1
 6.62,27.67,15.23\H,17.24,28.49,16.34\O,14.65,14.42,14.83\H,15.21,14.84
 ,14.18\H,14.97,13.52,14.88\O,14.57,22.22,12.33\H,14.22,22.18,11.44\H,1
 5.14,21.46,12.4\O,27.23,13.9,21.92\H,26.51,13.77,22.54\H,27.36,14.84,2
 1.89\O,27.57,20.67,14.84\H,27.13,20.82,14.01\H,28.5,20.72,14.64\O,13.3
 6,23.04,26.47\H,12.51,22.97,26.04\H,13.75,22.17,26.38\\Version=ES64L-G
 09RevE.01\HF=-9773.4051598\RMSD=1.283e-09\RMSF=1.035e-02\Dipole=13.083
 4133,-6.3572308,-7.7634051\Quadrupole=1118.6553407,-503.3249238,-615.3
 304169,-1106.5868292,-1211.2767576,-1943.601778\PG=C01 [X(Br1H256O128)
 ]\\@


 THE THINKER DIES, BUT HIS THOUGHTS ARE BEYOND THE 
 REACH OF DESTRUCTION.  MEN ARE MORTAL; BUT IDEAS 
 ARE IMMORTAL.
                              -- WALTER LIPPMANN
 Job cpu time:       6 days 16 hours 36 minutes 55.4 seconds.
 File lengths (MBytes):  RWF=   7285 Int=      0 D2E=      0 Chk=   2411 Scr=      1
 Normal termination of Gaussian 09 at Thu May 10 06:44:37 2018.
