 Entering Gaussian System, Link 0=/cm/shared/gaussian/g09.e01/intel64-sandybridge/g09/g09
 Initial command:
 /cm/shared/gaussian/g09.e01/intel64-sandybridge/g09/l1.exe "/local/scratch/m.peluso/128_wat/order/Gau-18173.inp" -scrdir="/local/scratch/m.peluso/128_wat/order/"
 Entering Link 1 = /cm/shared/gaussian/g09.e01/intel64-sandybridge/g09/l1.exe PID=     18174.
  
 Copyright (c) 1988,1990,1992,1993,1995,1998,2003,2009,2015,
            Gaussian, Inc.  All Rights Reserved.
  
 This is part of the Gaussian(R) 09 program.  It is based on
 the Gaussian(R) 03 system (copyright 2003, Gaussian, Inc.),
 the Gaussian(R) 98 system (copyright 1998, Gaussian, Inc.),
 the Gaussian(R) 94 system (copyright 1995, Gaussian, Inc.),
 the Gaussian 92(TM) system (copyright 1992, Gaussian, Inc.),
 the Gaussian 90(TM) system (copyright 1990, Gaussian, Inc.),
 the Gaussian 88(TM) system (copyright 1988, Gaussian, Inc.),
 the Gaussian 86(TM) system (copyright 1986, Carnegie Mellon
 University), and the Gaussian 82(TM) system (copyright 1983,
 Carnegie Mellon University). Gaussian is a federally registered
 trademark of Gaussian, Inc.
  
 This software contains proprietary and confidential information,
 including trade secrets, belonging to Gaussian, Inc.
  
 This software is provided under written license and may be
 used, copied, transmitted, or stored only in accord with that
 written license.
  
 The following legend is applicable only to US Government
 contracts under FAR:
  
                    RESTRICTED RIGHTS LEGEND
  
 Use, reproduction and disclosure by the US Government is
 subject to restrictions as set forth in subparagraphs (a)
 and (c) of the Commercial Computer Software - Restricted
 Rights clause in FAR 52.227-19.
  
 Gaussian, Inc.
 340 Quinnipiac St., Bldg. 40, Wallingford CT 06492
  
  
 ---------------------------------------------------------------
 Warning -- This program may not be used in any manner that
 competes with the business of Gaussian, Inc. or will provide
 assistance to any competitor of Gaussian, Inc.  The licensee
 of this program is prohibited from giving any competitor of
 Gaussian, Inc. access to this program.  By using this program,
 the user acknowledges that Gaussian, Inc. is engaged in the
 business of creating and licensing software in the field of
 computational chemistry and represents and warrants to the
 licensee that it is not a competitor of Gaussian, Inc. and that
 it will not use this program in any manner prohibited above.
 ---------------------------------------------------------------
  

 Cite this work as:
 Gaussian 09, Revision E.01,
 M. J. Frisch, G. W. Trucks, H. B. Schlegel, G. E. Scuseria, 
 M. A. Robb, J. R. Cheeseman, G. Scalmani, V. Barone, B. Mennucci, 
 G. A. Petersson, H. Nakatsuji, M. Caricato, X. Li, H. P. Hratchian, 
 A. F. Izmaylov, J. Bloino, G. Zheng, J. L. Sonnenberg, M. Hada, 
 M. Ehara, K. Toyota, R. Fukuda, J. Hasegawa, M. Ishida, T. Nakajima, 
 Y. Honda, O. Kitao, H. Nakai, T. Vreven, J. A. Montgomery, Jr., 
 J. E. Peralta, F. Ogliaro, M. Bearpark, J. J. Heyd, E. Brothers, 
 K. N. Kudin, V. N. Staroverov, T. Keith, R. Kobayashi, J. Normand, 
 K. Raghavachari, A. Rendell, J. C. Burant, S. S. Iyengar, J. Tomasi, 
 M. Cossi, N. Rega, J. M. Millam, M. Klene, J. E. Knox, J. B. Cross, 
 V. Bakken, C. Adamo, J. Jaramillo, R. Gomperts, R. E. Stratmann, 
 O. Yazyev, A. J. Austin, R. Cammi, C. Pomelli, J. W. Ochterski, 
 R. L. Martin, K. Morokuma, V. G. Zakrzewski, G. A. Voth, 
 P. Salvador, J. J. Dannenberg, S. Dapprich, A. D. Daniels, 
 O. Farkas, J. B. Foresman, J. V. Ortiz, J. Cioslowski, 
 and D. J. Fox, Gaussian, Inc., Wallingford CT, 2013.
 
 ******************************************
 Gaussian 09:  ES64L-G09RevE.01 30-Nov-2015
                14-May-2018 
 ******************************************
 %Mem=110GB
 %NProcShared=64
 Will use up to   64 processors via shared memory.
 %chk=snap34.chk
 ----------------------------------------------
 #p PBE1PBE/cc-pvDZ force Counterpoise=2 noSymm
 ----------------------------------------------
 1/10=7,30=1,38=1,62=2/1,3;
 2/12=2,15=1,17=6,18=5,40=1/2;
 1/10=7,30=1,38=1,53=2,62=2,63=101/22;
 3/5=16,11=2,16=1,25=1,30=1,71=1,74=-13/1,2,3;
 4//1;
 5/5=2,38=5/2;
 6/7=2,8=2,9=2,10=2,28=1/1;
 7/7=1,29=1,30=1,33=-1/1,2,3,16;
 1/10=7,30=1,53=2,62=2,63=101/22;
 3/5=7,6=11,11=2,16=1,25=1,30=1,71=1,74=-13,82=7/1,2,3;
 4//1;
 5/5=2,38=5/2;
 6/7=2,8=2,9=2,10=2,28=1/1;
 7/7=1,29=1,30=1,33=-1/1,2,3,16;
 1/10=7,30=1,53=2,62=2,63=101/22(-5);
 7/9=1,29=1,44=-1/16;
 1/10=7,30=1,62=2/3;
 99//99;
 Leave Link    1 at Mon May 14 14:48:45 2018, MaxMem= 14763950080 cpu:         7.4
 (Enter /cm/shared/gaussian/g09.e01/intel64-sandybridge/g09/l101.exe)
 ---------------------------------------
 forces on chloride comput - NWATER: 128
 ---------------------------------------
 Symbolic Z-matrix:
 Charge = -1 Multiplicity = 1 in supermolecule
 Charge = -1 Multiplicity = 1 in fragment      1.
 Charge =  0 Multiplicity = 1 in fragment      2.
 Br(Fragment=1)        20.       20.       20. 
 O(Fragment=2)         17.15     21.36     19.38 
 H(Fragment=2)         17.9      20.76     19.36 
 H(Fragment=2)         16.53     20.94     19.97 
 O(Fragment=2)         18.04     17.37     19.42 
 H(Fragment=2)         18.58     18.16     19.48 
 H(Fragment=2)         17.17     17.7      19.17 
 O(Fragment=2)         20.76     19.24     16.88 
 H(Fragment=2)         20.26     19.45     17.67 
 H(Fragment=2)         20.4      18.42     16.57 
 O(Fragment=2)         22.64     21.68     21.17 
 H(Fragment=2)         21.77     21.32     20.99 
 H(Fragment=2)         22.7      21.71     22.13 
 O(Fragment=2)         18.95     18.32     22.8 
 H(Fragment=2)         19.28     18.96     23.42 
 H(Fragment=2)         19.19     18.67     21.94 
 O(Fragment=2)         22.99     19.75     18.55 
 H(Fragment=2)         22.37     19.78     19.27 
 H(Fragment=2)         22.45     19.72     17.76 
 O(Fragment=2)         22.22     17.45     20.6 
 H(Fragment=2)         21.67     18.13     20.23 
 H(Fragment=2)         22.91     17.92     21.06 
 O(Fragment=2)         18.42     22.28     22.31 
 H(Fragment=2)         18.79     21.64     21.7 
 H(Fragment=2)         17.93     21.75     22.95 
 O(Fragment=2)         18.7      23.28     18.16 
 H(Fragment=2)         18.35     22.42     18.39 
 H(Fragment=2)         19.63     23.23     18.4 
 O(Fragment=2)         18.02     24.52     20.46 
 H(Fragment=2)         17.7      24.29     19.59 
 H(Fragment=2)         18.21     23.67     20.87 
 O(Fragment=2)         23.54     22.2      17.72 
 H(Fragment=2)         24.41     22.55     17.91 
 H(Fragment=2)         23.52     21.35     18.17 
 O(Fragment=2)         23.87     19.05     22.13 
 H(Fragment=2)         24.7      18.96     22.59 
 H(Fragment=2)         23.51     19.88     22.45 
 O(Fragment=2)         17.04     16.39     22.68 
 H(Fragment=2)         16.98     16.47     23.63 
 H(Fragment=2)         17.73     17.01     22.43 
 O(Fragment=2)         23.83     16.49     18.48 
 H(Fragment=2)         23.39     16.66     17.65 
 H(Fragment=2)         23.37     17.05     19.11 
 O(Fragment=2)         22.98     24.34     20.69 
 H(Fragment=2)         23.88     24.52     20.39 
 H(Fragment=2)         22.96     23.39     20.8 
 O(Fragment=2)         19.75     20.24     24.57 
 H(Fragment=2)         20.05     21.15     24.52 
 H(Fragment=2)         20.38     19.81     25.15 
 O(Fragment=2)         21.46     24.11     18.2 
 H(Fragment=2)         21.84     24.29     19.06 
 H(Fragment=2)         22.06     23.5      17.79 
 O(Fragment=2)         18.18     15.09     17.91 
 H(Fragment=2)         17.39     14.69     18.28 
 H(Fragment=2)         18.35     15.85     18.48 
 O(Fragment=2)         15.23     20.28     20.7 
 H(Fragment=2)         14.48     20.52     21.25 
 H(Fragment=2)         15.11     19.35     20.53 
 O(Fragment=2)         25.64     19.41     19.1 
 H(Fragment=2)         26.1      19.52     18.26 
 H(Fragment=2)         24.71     19.4      18.85 
 O(Fragment=2)         15.25     21.82     17.53 
 H(Fragment=2)         14.46     21.37     17.81 
 H(Fragment=2)         15.8      21.85     18.31 
 O(Fragment=2)         17.14     20.48     24.64 
 H(Fragment=2)         17.15     21.18     25.29 
 H(Fragment=2)         18.06     20.28     24.49 
 O(Fragment=2)         22.61     16.19     23.44 
 H(Fragment=2)         22.75     16.96     23.99 
 H(Fragment=2)         22.54     16.53     22.55 
 O(Fragment=2)         21.48     16.3      16.56 
 H(Fragment=2)         21.67     16.35     15.62 
 H(Fragment=2)         20.52     16.36     16.61 
 O(Fragment=2)         22.63     14.74     20.77 
 H(Fragment=2)         23.54     14.68     20.48 
 H(Fragment=2)         22.41     15.67     20.7 
 O(Fragment=2)         22.84     21.47     23.89 
 H(Fragment=2)         22.2      22.03     24.33 
 H(Fragment=2)         23.34     21.07     24.6 
 O(Fragment=2)         19.84     17.12     25.19 
 H(Fragment=2)         20.47     17.75     25.54 
 H(Fragment=2)         19.85     17.28     24.24 
 O(Fragment=2)         21.6      19.89     14.21 
 H(Fragment=2)         22.52     19.61     14.19 
 H(Fragment=2)         21.39     19.96     15.14 
 O(Fragment=2)         25.69     21.53     20.92 
 H(Fragment=2)         24.74     21.44     21.03 
 H(Fragment=2)         25.97     20.68     20.58 
 O(Fragment=2)         18.9      23.48     15.2 
 H(Fragment=2)         19.77     23.78     14.93 
 H(Fragment=2)         19.01     23.24     16.12 
 O(Fragment=2)         19.03     16.88     15.67 
 H(Fragment=2)         18.89     16.15     15.06 
 H(Fragment=2)         18.14     17.15     15.92 
 O(Fragment=2)         15.09     17.66     18.72 
 H(Fragment=2)         14.14     17.73     18.69 
 H(Fragment=2)         15.26     17.03     19.43 
 O(Fragment=2)         20.16     14.09     20.1 
 H(Fragment=2)         19.97     14.45     19.24 
 H(Fragment=2)         21.08     14.32     20.26 
 O(Fragment=2)         23.07     22.93     15.01 
 H(Fragment=2)         22.41     23.62     15.01 
 H(Fragment=2)         22.93     22.46     15.83 
 O(Fragment=2)         17.69     25.14     23.13 
 H(Fragment=2)         17.9      24.89     22.23 
 H(Fragment=2)         17.       24.53     23.4 
 O(Fragment=2)         21.16     22.92     25.15 
 H(Fragment=2)         20.64     23.7      24.93 
 H(Fragment=2)         21.01     22.8      26.09 
 O(Fragment=2)         25.75     17.14     20.66 
 H(Fragment=2)         25.82     18.06     20.39 
 H(Fragment=2)         25.11     16.77     20.06 
 O(Fragment=2)         16.43     22.12     15.03 
 H(Fragment=2)         16.07     22.12     15.92 
 H(Fragment=2)         17.16     22.74     15.07 
 O(Fragment=2)         14.8      19.08     24.58 
 H(Fragment=2)         15.       18.41     25.23 
 H(Fragment=2)         15.64     19.5      24.39 
 O(Fragment=2)         21.27     26.89     18.9 
 H(Fragment=2)         21.07     26.02     18.57 
 H(Fragment=2)         21.06     26.85     19.83 
 O(Fragment=2)         15.71     17.66     15.74 
 H(Fragment=2)         15.36     17.44     16.6 
 H(Fragment=2)         15.01     18.17     15.32 
 O(Fragment=2)         17.59     13.76     21.45 
 H(Fragment=2)         18.41     13.75     20.96 
 H(Fragment=2)         17.69     14.49     22.06 
 O(Fragment=2)         17.27     19.53     13.9 
 H(Fragment=2)         16.9      18.96     14.57 
 H(Fragment=2)         17.02     20.41     14.18 
 O(Fragment=2)         14.96     15.69     20.92 
 H(Fragment=2)         14.23     16.26     21.15 
 H(Fragment=2)         15.56     15.75     21.66 
 O(Fragment=2)         23.44     18.09     25.04 
 H(Fragment=2)         23.77     18.98     25.09 
 H(Fragment=2)         22.8      18.02     25.75 
 O(Fragment=2)         20.32     25.38     24.34 
 H(Fragment=2)         20.49     26.3      24.12 
 H(Fragment=2)         19.55     25.15     23.8 
 O(Fragment=2)         20.26     13.15     22.72 
 H(Fragment=2)         20.03     12.37     22.21 
 H(Fragment=2)         20.16     13.88     22.11 
 O(Fragment=2)         23.86     18.71     14.89 
 H(Fragment=2)         24.71     18.84     15.31 
 H(Fragment=2)         23.77     17.76     14.82 
 O(Fragment=2)         19.52     27.38     20.77 
 H(Fragment=2)         19.21     26.53     20.47 
 H(Fragment=2)         18.83     27.7      21.35 
 O(Fragment=2)         21.03     19.13     26.46 
 H(Fragment=2)         20.28     19.44     26.96 
 H(Fragment=2)         21.76     19.13     27.08 
 O(Fragment=2)         15.73     14.4      18.68 
 H(Fragment=2)         14.98     13.83     18.82 
 H(Fragment=2)         15.95     14.73     19.55 
 O(Fragment=2)         17.24     16.4      25.44 
 H(Fragment=2)         16.99     16.03     26.29 
 H(Fragment=2)         18.19     16.53     25.5 
 O(Fragment=2)         20.78     17.87     12.54 
 H(Fragment=2)         20.81     18.38     13.35 
 H(Fragment=2)         21.61     17.4      12.53 
 O(Fragment=2)         26.43     22.65     23.18 
 H(Fragment=2)         26.16     22.16     22.41 
 H(Fragment=2)         26.78     21.99     23.78 
 O(Fragment=2)         23.47     26.74     22.4 
 H(Fragment=2)         23.09     25.89     22.19 
 H(Fragment=2)         24.16     26.86     21.74 
 O(Fragment=2)         26.52     22.6      18.32 
 H(Fragment=2)         26.68     22.28     19.21 
 H(Fragment=2)         26.42     21.81     17.79 
 O(Fragment=2)         13.24     18.04     22.31 
 H(Fragment=2)         12.5      17.71     22.82 
 H(Fragment=2)         13.76     18.55     22.94 
 O(Fragment=2)         23.9      24.06     25.43 
 H(Fragment=2)         23.44     23.24     25.23 
 H(Fragment=2)         24.13     24.41     24.57 
 O(Fragment=2)         25.38     14.32     19.09 
 H(Fragment=2)         24.84     15.03     18.75 
 H(Fragment=2)         26.16     14.31     18.53 
 O(Fragment=2)         26.36     20.23     16.62 
 H(Fragment=2)         26.25     19.28     16.58 
 H(Fragment=2)         27.01     20.42     15.95 
 O(Fragment=2)         17.3      22.49     26.23 
 H(Fragment=2)         16.83     23.04     26.86 
 H(Fragment=2)         18.23     22.62     26.43 
 O(Fragment=2)         25.26     24.86     19.61 
 H(Fragment=2)         25.61     24.66     18.73 
 H(Fragment=2)         26.04     25.06     20.13 
 O(Fragment=2)         13.24     21.46     22.19 
 H(Fragment=2)         13.28     21.6      23.13 
 H(Fragment=2)         13.2      22.35     21.82 
 O(Fragment=2)         24.84     20.55     25.42 
 H(Fragment=2)         24.81     20.82     26.34 
 H(Fragment=2)         25.78     20.51     25.22 
 O(Fragment=2)         22.57     13.64     24.55 
 H(Fragment=2)         22.48     14.5      24.12 
 H(Fragment=2)         22.04     13.05     24.02 
 O(Fragment=2)         26.07     17.45     16.56 
 H(Fragment=2)         25.61     16.63     16.75 
 H(Fragment=2)         26.89     17.39     17.05 
 O(Fragment=2)         13.6      24.19     21.09 
 H(Fragment=2)         14.21     24.14     21.82 
 H(Fragment=2)         13.35     25.11     21.05 
 O(Fragment=2)         21.23     24.83     14.52 
 H(Fragment=2)         21.42     25.75     14.69 
 H(Fragment=2)         21.17     24.77     13.56 
 O(Fragment=2)         22.4      16.15     14.09 
 H(Fragment=2)         22.11     15.25     13.91 
 H(Fragment=2)         23.14     16.28     13.49 
 O(Fragment=2)         24.23     21.36     13.21 
 H(Fragment=2)         24.04     20.45     13.45 
 H(Fragment=2)         24.02     21.87     13.99 
 O(Fragment=2)         18.06     26.9      17.01 
 H(Fragment=2)         18.04     27.74     16.56 
 H(Fragment=2)         18.69     27.01     17.72 
 O(Fragment=2)         17.38     25.64     14.36 
 H(Fragment=2)         17.57     24.93     13.74 
 H(Fragment=2)         17.8      25.36     15.17 
 O(Fragment=2)         25.57     23.48     14.88 
 H(Fragment=2)         25.94     22.72     15.34 
 H(Fragment=2)         24.62     23.38     14.97 
 O(Fragment=2)         13.78     23.96     16.06 
 H(Fragment=2)         14.01     23.1      16.4 
 H(Fragment=2)         12.95     23.83     15.61 
 O(Fragment=2)         21.72     22.03     12.11 
 H(Fragment=2)         22.66     21.93     12.27 
 H(Fragment=2)         21.33     21.28     12.56 
 O(Fragment=2)         24.18     14.34     15.73 
 H(Fragment=2)         23.25     14.56     15.66 
 H(Fragment=2)         24.57     14.7      14.93 
 O(Fragment=2)         26.59     15.35     22.52 
 H(Fragment=2)         25.97     15.34     23.25 
 H(Fragment=2)         26.3      16.07     21.97 
 O(Fragment=2)         19.36     12.24     16.87 
 H(Fragment=2)         18.72     11.66     17.29 
 H(Fragment=2)         19.77     12.69     17.6 
 O(Fragment=2)         15.66     14.79     15.31 
 H(Fragment=2)         15.67     15.74     15.26 
 H(Fragment=2)         15.95     14.59     16.2 
 O(Fragment=2)         14.9      24.19     24.04 
 H(Fragment=2)         14.39     23.52     24.5 
 H(Fragment=2)         15.42     24.6      24.73 
 O(Fragment=2)         15.41     26.45     17.39 
 H(Fragment=2)         15.26     25.55     17.1 
 H(Fragment=2)         16.35     26.58     17.29 
 O(Fragment=2)         12.37     18.02     19.34 
 H(Fragment=2)         11.63     17.92     18.74 
 H(Fragment=2)         12.06     18.64     20. 
 O(Fragment=2)         18.71     19.44     11.6 
 H(Fragment=2)         18.14     19.77     12.3 
 H(Fragment=2)         19.38     18.94     12.06 
 O(Fragment=2)         12.07     22.8      19.3 
 H(Fragment=2)         12.77     23.24     19.78 
 H(Fragment=2)         11.51     22.43     19.98 
 O(Fragment=2)         25.49     15.56     25. 
 H(Fragment=2)         24.75     16.17     25.07 
 H(Fragment=2)         25.16     14.75     25.38 
 O(Fragment=2)         15.41     13.02     22.49 
 H(Fragment=2)         16.27     13.45     22.52 
 H(Fragment=2)         15.06     13.25     21.63 
 O(Fragment=2)         18.69     19.21     27.81 
 H(Fragment=2)         17.86     18.82     27.57 
 H(Fragment=2)         18.88     18.86     28.68 
 O(Fragment=2)         18.09     27.42     24.38 
 H(Fragment=2)         17.23     27.78     24.62 
 H(Fragment=2)         17.89     26.53     24.06 
 O(Fragment=2)         13.33     21.7      25.05 
 H(Fragment=2)         13.77     20.87     24.91 
 H(Fragment=2)         12.64     21.5      25.68 
 O(Fragment=2)         12.51     20.87     17.2 
 H(Fragment=2)         11.79     20.64     16.61 
 H(Fragment=2)         12.1      20.95     18.06 
 O(Fragment=2)         19.82     22.73     27.61 
 H(Fragment=2)         20.47     23.43     27.63 
 H(Fragment=2)         20.04     22.16     28.34 
 O(Fragment=2)         28.2      18.06     18.37 
 H(Fragment=2)         28.93     18.61     18.06 
 H(Fragment=2)         27.91     18.48     19.18 
 O(Fragment=2)         18.68     15.23     13.52 
 H(Fragment=2)         18.74     14.28     13.54 
 H(Fragment=2)         19.12     15.48     12.71 
 O(Fragment=2)         14.24     21.5      13.21 
 H(Fragment=2)         14.89     21.73     13.87 
 H(Fragment=2)         14.7      21.64     12.38 
 O(Fragment=2)         13.58     19.31     14.77 
 H(Fragment=2)         13.12     19.72     15.5 
 H(Fragment=2)         13.71     20.02     14.14 
 O(Fragment=2)         19.15     12.86     25.18 
 H(Fragment=2)         19.51     13.73     25.31 
 H(Fragment=2)         19.48     12.59     24.32 
 O(Fragment=2)         28.27     19.19     21.57 
 H(Fragment=2)         29.15     19.21     21.96 
 H(Fragment=2)         27.85     18.43     21.98 
 O(Fragment=2)         11.24     19.76     21.06 
 H(Fragment=2)         11.42     18.93     21.52 
 H(Fragment=2)         11.79     20.4      21.5 
 O(Fragment=2)         25.79     18.04     26.99 
 H(Fragment=2)         25.37     18.49     26.25 
 H(Fragment=2)         26.01     18.75     27.6 
 O(Fragment=2)         28.52     21.1      19.75 
 H(Fragment=2)         28.38     20.34     20.32 
 H(Fragment=2)         28.81     20.73     18.92 
 O(Fragment=2)         16.45     16.63     12.78 
 H(Fragment=2)         16.76     17.53     12.65 
 H(Fragment=2)         17.25     16.11     12.8 
 O(Fragment=2)         22.74     28.17     17.02 
 H(Fragment=2)         23.43     27.52     16.87 
 H(Fragment=2)         22.23     27.81     17.75 
 O(Fragment=2)         21.51     27.95     23.95 
 H(Fragment=2)         21.96     27.55     23.2 
 H(Fragment=2)         22.19     28.47     24.38 
 O(Fragment=2)         21.41     24.76     27.45 
 H(Fragment=2)         21.94     24.97     28.22 
 H(Fragment=2)         22.05     24.66     26.74 
 O(Fragment=2)         21.       14.28     26.8 
 H(Fragment=2)         21.14     15.2      27.02 
 H(Fragment=2)         21.47     14.16     25.97 
 O(Fragment=2)         19.64     29.37     18.85 
 H(Fragment=2)         19.34     30.09     19.4 
 H(Fragment=2)         19.53     28.59     19.39 
 O(Fragment=2)         27.43     20.69     24.71 
 H(Fragment=2)         28.07     20.78     25.42 
 H(Fragment=2)         27.59     19.81     24.37 
 O(Fragment=2)         25.28     27.95     19.59 
 H(Fragment=2)         25.2      27.09     19.18 
 H(Fragment=2)         24.45     28.38     19.41 
 O(Fragment=2)         17.49     12.7      14.4 
 H(Fragment=2)         17.96     12.81     15.23 
 H(Fragment=2)         16.7      13.24     14.5 
 O(Fragment=2)         22.52     18.57     28.44 
 H(Fragment=2)         22.68     18.66     29.38 
 H(Fragment=2)         22.91     17.72     28.21 
 O(Fragment=2)         27.11     25.16     23.84 
 H(Fragment=2)         26.98     24.21     23.77 
 H(Fragment=2)         27.25     25.45     22.94 
 O(Fragment=2)         28.54     15.43     20.12 
 H(Fragment=2)         28.52     16.17     19.52 
 H(Fragment=2)         27.78     15.56     20.69 
 O(Fragment=2)         14.56     21.33     28.08 
 H(Fragment=2)         14.88     22.18     28.37 
 H(Fragment=2)         15.32     20.91     27.67 
 O(Fragment=2)         20.91     24.57     11.84 
 H(Fragment=2)         21.2      23.66     11.81 
 H(Fragment=2)         21.38     24.99     11.12 
 O(Fragment=2)         14.94     17.54     27.09 
 H(Fragment=2)         14.02     17.45     26.84 
 H(Fragment=2)         15.28     16.65     27.07 
 O(Fragment=2)         18.99     26.75     26.87 
 H(Fragment=2)         18.52     26.92     26.05 
 H(Fragment=2)         19.71     26.17     26.62 
 O(Fragment=2)         19.46     16.09     11. 
 H(Fragment=2)         19.19     16.58     10.22 
 H(Fragment=2)         19.98     16.71     11.51 
 O(Fragment=2)         29.16     22.96     21.92 
 H(Fragment=2)         29.08     22.43     21.12 
 H(Fragment=2)         28.26     23.21     22.12 
 O(Fragment=2)         19.62     10.91     20.88 
 H(Fragment=2)         19.5      10.67     19.96 
 H(Fragment=2)         18.85     10.55     21.32 
 O(Fragment=2)         12.08     16.9      15.13 
 H(Fragment=2)         11.63     16.88     14.29 
 H(Fragment=2)         12.67     17.66     15.06 
 O(Fragment=2)         28.53     24.58     18.22 
 H(Fragment=2)         28.13     25.4      17.94 
 H(Fragment=2)         27.98     23.9      17.82 
 O(Fragment=2)         12.15     25.22     18.18 
 H(Fragment=2)         12.8      25.1      17.48 
 H(Fragment=2)         11.97     24.33     18.49 
 O(Fragment=2)         26.54     12.88     21.11 
 H(Fragment=2)         26.78     13.68     21.58 
 H(Fragment=2)         26.16     13.2      20.28 
 O(Fragment=2)         21.73     13.43     13.81 
 H(Fragment=2)         21.46     12.55     14.1 
 H(Fragment=2)         21.31     13.54     12.96 
 O(Fragment=2)         23.62     11.       19.89 
 H(Fragment=2)         23.77     11.39     19.03 
 H(Fragment=2)         23.9      11.67     20.51 
 O(Fragment=2)         18.07     24.43     11.63 
 H(Fragment=2)         18.1      25.03     10.88 
 H(Fragment=2)         18.93     24.52     12.04 
 O(Fragment=2)         28.04     17.87     24.12 
 H(Fragment=2)         28.81     17.33     23.97 
 H(Fragment=2)         27.5      17.35     24.72 
 O(Fragment=2)         16.28     11.       17.34 
 H(Fragment=2)         16.24     11.96     17.3 
 H(Fragment=2)         16.35     10.8      18.27 
 
 NAtoms=    385 NQM=      385 NQMF=       0 NMMI=      0 NMMIF=      0
                NMic=       0 NMicF=      0.
                    Isotopes and Nuclear Properties:
 (Nuclear quadrupole moments (NQMom) in fm**2, nuclear magnetic moments (NMagM)
  in nuclear magnetons)

  Atom         1           2           3           4           5           6           7           8           9          10
 IAtWgt=          79          16           1           1          16           1           1          16           1           1
 AtmWgt=  78.9183361  15.9949146   1.0078250   1.0078250  15.9949146   1.0078250   1.0078250  15.9949146   1.0078250   1.0078250
 NucSpn=           3           0           1           1           0           1           1           0           1           1
 AtZEff=   0.0000000   0.0000000   0.0000000   0.0000000   0.0000000   0.0000000   0.0000000   0.0000000   0.0000000   0.0000000
 NQMom=   31.3000000   0.0000000   0.0000000   0.0000000   0.0000000   0.0000000   0.0000000   0.0000000   0.0000000   0.0000000
 NMagM=    2.1063990   0.0000000   2.7928460   2.7928460   0.0000000   2.7928460   2.7928460   0.0000000   2.7928460   2.7928460
 AtZNuc=  35.0000000   8.0000000   1.0000000   1.0000000   8.0000000   1.0000000   1.0000000   8.0000000   1.0000000   1.0000000

  Atom        11          12          13          14          15          16          17          18          19          20
 IAtWgt=          16           1           1          16           1           1          16           1           1          16
 AtmWgt=  15.9949146   1.0078250   1.0078250  15.9949146   1.0078250   1.0078250  15.9949146   1.0078250   1.0078250  15.9949146
 NucSpn=           0           1           1           0           1           1           0           1           1           0
 AtZEff=   0.0000000   0.0000000   0.0000000   0.0000000   0.0000000   0.0000000   0.0000000   0.0000000   0.0000000   0.0000000
 NQMom=    0.0000000   0.0000000   0.0000000   0.0000000   0.0000000   0.0000000   0.0000000   0.0000000   0.0000000   0.0000000
 NMagM=    0.0000000   2.7928460   2.7928460   0.0000000   2.7928460   2.7928460   0.0000000   2.7928460   2.7928460   0.0000000
 AtZNuc=   8.0000000   1.0000000   1.0000000   8.0000000   1.0000000   1.0000000   8.0000000   1.0000000   1.0000000   8.0000000

  Atom        21          22          23          24          25          26          27          28          29          30
 IAtWgt=           1           1          16           1           1          16           1           1          16           1
 AtmWgt=   1.0078250   1.0078250  15.9949146   1.0078250   1.0078250  15.9949146   1.0078250   1.0078250  15.9949146   1.0078250
 NucSpn=           1           1           0           1           1           0           1           1           0           1
 AtZEff=   0.0000000   0.0000000   0.0000000   0.0000000   0.0000000   0.0000000   0.0000000   0.0000000   0.0000000   0.0000000
 NQMom=    0.0000000   0.0000000   0.0000000   0.0000000   0.0000000   0.0000000   0.0000000   0.0000000   0.0000000   0.0000000
 NMagM=    2.7928460   2.7928460   0.0000000   2.7928460   2.7928460   0.0000000   2.7928460   2.7928460   0.0000000   2.7928460
 AtZNuc=   1.0000000   1.0000000   8.0000000   1.0000000   1.0000000   8.0000000   1.0000000   1.0000000   8.0000000   1.0000000

  Atom        31          32          33          34          35          36          37          38          39          40
 IAtWgt=           1          16           1           1          16           1           1          16           1           1
 AtmWgt=   1.0078250  15.9949146   1.0078250   1.0078250  15.9949146   1.0078250   1.0078250  15.9949146   1.0078250   1.0078250
 NucSpn=           1           0           1           1           0           1           1           0           1           1
 AtZEff=   0.0000000   0.0000000   0.0000000   0.0000000   0.0000000   0.0000000   0.0000000   0.0000000   0.0000000   0.0000000
 NQMom=    0.0000000   0.0000000   0.0000000   0.0000000   0.0000000   0.0000000   0.0000000   0.0000000   0.0000000   0.0000000
 NMagM=    2.7928460   0.0000000   2.7928460   2.7928460   0.0000000   2.7928460   2.7928460   0.0000000   2.7928460   2.7928460
 AtZNuc=   1.0000000   8.0000000   1.0000000   1.0000000   8.0000000   1.0000000   1.0000000   8.0000000   1.0000000   1.0000000

  Atom        41          42          43          44          45          46          47          48          49          50
 IAtWgt=          16           1           1          16           1           1          16           1           1          16
 AtmWgt=  15.9949146   1.0078250   1.0078250  15.9949146   1.0078250   1.0078250  15.9949146   1.0078250   1.0078250  15.9949146
 NucSpn=           0           1           1           0           1           1           0           1           1           0
 AtZEff=   0.0000000   0.0000000   0.0000000   0.0000000   0.0000000   0.0000000   0.0000000   0.0000000   0.0000000   0.0000000
 NQMom=    0.0000000   0.0000000   0.0000000   0.0000000   0.0000000   0.0000000   0.0000000   0.0000000   0.0000000   0.0000000
 NMagM=    0.0000000   2.7928460   2.7928460   0.0000000   2.7928460   2.7928460   0.0000000   2.7928460   2.7928460   0.0000000
 AtZNuc=   8.0000000   1.0000000   1.0000000   8.0000000   1.0000000   1.0000000   8.0000000   1.0000000   1.0000000   8.0000000

  Atom        51          52          53          54          55          56          57          58          59          60
 IAtWgt=           1           1          16           1           1          16           1           1          16           1
 AtmWgt=   1.0078250   1.0078250  15.9949146   1.0078250   1.0078250  15.9949146   1.0078250   1.0078250  15.9949146   1.0078250
 NucSpn=           1           1           0           1           1           0           1           1           0           1
 AtZEff=   0.0000000   0.0000000   0.0000000   0.0000000   0.0000000   0.0000000   0.0000000   0.0000000   0.0000000   0.0000000
 NQMom=    0.0000000   0.0000000   0.0000000   0.0000000   0.0000000   0.0000000   0.0000000   0.0000000   0.0000000   0.0000000
 NMagM=    2.7928460   2.7928460   0.0000000   2.7928460   2.7928460   0.0000000   2.7928460   2.7928460   0.0000000   2.7928460
 AtZNuc=   1.0000000   1.0000000   8.0000000   1.0000000   1.0000000   8.0000000   1.0000000   1.0000000   8.0000000   1.0000000

  Atom        61          62          63          64          65          66          67          68          69          70
 IAtWgt=           1          16           1           1          16           1           1          16           1           1
 AtmWgt=   1.0078250  15.9949146   1.0078250   1.0078250  15.9949146   1.0078250   1.0078250  15.9949146   1.0078250   1.0078250
 NucSpn=           1           0           1           1           0           1           1           0           1           1
 AtZEff=   0.0000000   0.0000000   0.0000000   0.0000000   0.0000000   0.0000000   0.0000000   0.0000000   0.0000000   0.0000000
 NQMom=    0.0000000   0.0000000   0.0000000   0.0000000   0.0000000   0.0000000   0.0000000   0.0000000   0.0000000   0.0000000
 NMagM=    2.7928460   0.0000000   2.7928460   2.7928460   0.0000000   2.7928460   2.7928460   0.0000000   2.7928460   2.7928460
 AtZNuc=   1.0000000   8.0000000   1.0000000   1.0000000   8.0000000   1.0000000   1.0000000   8.0000000   1.0000000   1.0000000

  Atom        71          72          73          74          75          76          77          78          79          80
 IAtWgt=          16           1           1          16           1           1          16           1           1          16
 AtmWgt=  15.9949146   1.0078250   1.0078250  15.9949146   1.0078250   1.0078250  15.9949146   1.0078250   1.0078250  15.9949146
 NucSpn=           0           1           1           0           1           1           0           1           1           0
 AtZEff=   0.0000000   0.0000000   0.0000000   0.0000000   0.0000000   0.0000000   0.0000000   0.0000000   0.0000000   0.0000000
 NQMom=    0.0000000   0.0000000   0.0000000   0.0000000   0.0000000   0.0000000   0.0000000   0.0000000   0.0000000   0.0000000
 NMagM=    0.0000000   2.7928460   2.7928460   0.0000000   2.7928460   2.7928460   0.0000000   2.7928460   2.7928460   0.0000000
 AtZNuc=   8.0000000   1.0000000   1.0000000   8.0000000   1.0000000   1.0000000   8.0000000   1.0000000   1.0000000   8.0000000

  Atom        81          82          83          84          85          86          87          88          89          90
 IAtWgt=           1           1          16           1           1          16           1           1          16           1
 AtmWgt=   1.0078250   1.0078250  15.9949146   1.0078250   1.0078250  15.9949146   1.0078250   1.0078250  15.9949146   1.0078250
 NucSpn=           1           1           0           1           1           0           1           1           0           1
 AtZEff=   0.0000000   0.0000000   0.0000000   0.0000000   0.0000000   0.0000000   0.0000000   0.0000000   0.0000000   0.0000000
 NQMom=    0.0000000   0.0000000   0.0000000   0.0000000   0.0000000   0.0000000   0.0000000   0.0000000   0.0000000   0.0000000
 NMagM=    2.7928460   2.7928460   0.0000000   2.7928460   2.7928460   0.0000000   2.7928460   2.7928460   0.0000000   2.7928460
 AtZNuc=   1.0000000   1.0000000   8.0000000   1.0000000   1.0000000   8.0000000   1.0000000   1.0000000   8.0000000   1.0000000

  Atom        91          92          93          94          95          96          97          98          99         100
 IAtWgt=           1          16           1           1          16           1           1          16           1           1
 AtmWgt=   1.0078250  15.9949146   1.0078250   1.0078250  15.9949146   1.0078250   1.0078250  15.9949146   1.0078250   1.0078250
 NucSpn=           1           0           1           1           0           1           1           0           1           1
 AtZEff=   0.0000000   0.0000000   0.0000000   0.0000000   0.0000000   0.0000000   0.0000000   0.0000000   0.0000000   0.0000000
 NQMom=    0.0000000   0.0000000   0.0000000   0.0000000   0.0000000   0.0000000   0.0000000   0.0000000   0.0000000   0.0000000
 NMagM=    2.7928460   0.0000000   2.7928460   2.7928460   0.0000000   2.7928460   2.7928460   0.0000000   2.7928460   2.7928460
 AtZNuc=   1.0000000   8.0000000   1.0000000   1.0000000   8.0000000   1.0000000   1.0000000   8.0000000   1.0000000   1.0000000

  Atom       101         102         103         104         105         106         107         108         109         110
 IAtWgt=          16           1           1          16           1           1          16           1           1          16
 AtmWgt=  15.9949146   1.0078250   1.0078250  15.9949146   1.0078250   1.0078250  15.9949146   1.0078250   1.0078250  15.9949146
 NucSpn=           0           1           1           0           1           1           0           1           1           0
 AtZEff=   0.0000000   0.0000000   0.0000000   0.0000000   0.0000000   0.0000000   0.0000000   0.0000000   0.0000000   0.0000000
 NQMom=    0.0000000   0.0000000   0.0000000   0.0000000   0.0000000   0.0000000   0.0000000   0.0000000   0.0000000   0.0000000
 NMagM=    0.0000000   2.7928460   2.7928460   0.0000000   2.7928460   2.7928460   0.0000000   2.7928460   2.7928460   0.0000000
 AtZNuc=   8.0000000   1.0000000   1.0000000   8.0000000   1.0000000   1.0000000   8.0000000   1.0000000   1.0000000   8.0000000

  Atom       111         112         113         114         115         116         117         118         119         120
 IAtWgt=           1           1          16           1           1          16           1           1          16           1
 AtmWgt=   1.0078250   1.0078250  15.9949146   1.0078250   1.0078250  15.9949146   1.0078250   1.0078250  15.9949146   1.0078250
 NucSpn=           1           1           0           1           1           0           1           1           0           1
 AtZEff=   0.0000000   0.0000000   0.0000000   0.0000000   0.0000000   0.0000000   0.0000000   0.0000000   0.0000000   0.0000000
 NQMom=    0.0000000   0.0000000   0.0000000   0.0000000   0.0000000   0.0000000   0.0000000   0.0000000   0.0000000   0.0000000
 NMagM=    2.7928460   2.7928460   0.0000000   2.7928460   2.7928460   0.0000000   2.7928460   2.7928460   0.0000000   2.7928460
 AtZNuc=   1.0000000   1.0000000   8.0000000   1.0000000   1.0000000   8.0000000   1.0000000   1.0000000   8.0000000   1.0000000

  Atom       121         122         123         124         125         126         127         128         129         130
 IAtWgt=           1          16           1           1          16           1           1          16           1           1
 AtmWgt=   1.0078250  15.9949146   1.0078250   1.0078250  15.9949146   1.0078250   1.0078250  15.9949146   1.0078250   1.0078250
 NucSpn=           1           0           1           1           0           1           1           0           1           1
 AtZEff=   0.0000000   0.0000000   0.0000000   0.0000000   0.0000000   0.0000000   0.0000000   0.0000000   0.0000000   0.0000000
 NQMom=    0.0000000   0.0000000   0.0000000   0.0000000   0.0000000   0.0000000   0.0000000   0.0000000   0.0000000   0.0000000
 NMagM=    2.7928460   0.0000000   2.7928460   2.7928460   0.0000000   2.7928460   2.7928460   0.0000000   2.7928460   2.7928460
 AtZNuc=   1.0000000   8.0000000   1.0000000   1.0000000   8.0000000   1.0000000   1.0000000   8.0000000   1.0000000   1.0000000

  Atom       131         132         133         134         135         136         137         138         139         140
 IAtWgt=          16           1           1          16           1           1          16           1           1          16
 AtmWgt=  15.9949146   1.0078250   1.0078250  15.9949146   1.0078250   1.0078250  15.9949146   1.0078250   1.0078250  15.9949146
 NucSpn=           0           1           1           0           1           1           0           1           1           0
 AtZEff=   0.0000000   0.0000000   0.0000000   0.0000000   0.0000000   0.0000000   0.0000000   0.0000000   0.0000000   0.0000000
 NQMom=    0.0000000   0.0000000   0.0000000   0.0000000   0.0000000   0.0000000   0.0000000   0.0000000   0.0000000   0.0000000
 NMagM=    0.0000000   2.7928460   2.7928460   0.0000000   2.7928460   2.7928460   0.0000000   2.7928460   2.7928460   0.0000000
 AtZNuc=   8.0000000   1.0000000   1.0000000   8.0000000   1.0000000   1.0000000   8.0000000   1.0000000   1.0000000   8.0000000

  Atom       141         142         143         144         145         146         147         148         149         150
 IAtWgt=           1           1          16           1           1          16           1           1          16           1
 AtmWgt=   1.0078250   1.0078250  15.9949146   1.0078250   1.0078250  15.9949146   1.0078250   1.0078250  15.9949146   1.0078250
 NucSpn=           1           1           0           1           1           0           1           1           0           1
 AtZEff=   0.0000000   0.0000000   0.0000000   0.0000000   0.0000000   0.0000000   0.0000000   0.0000000   0.0000000   0.0000000
 NQMom=    0.0000000   0.0000000   0.0000000   0.0000000   0.0000000   0.0000000   0.0000000   0.0000000   0.0000000   0.0000000
 NMagM=    2.7928460   2.7928460   0.0000000   2.7928460   2.7928460   0.0000000   2.7928460   2.7928460   0.0000000   2.7928460
 AtZNuc=   1.0000000   1.0000000   8.0000000   1.0000000   1.0000000   8.0000000   1.0000000   1.0000000   8.0000000   1.0000000

  Atom       151         152         153         154         155         156         157         158         159         160
 IAtWgt=           1          16           1           1          16           1           1          16           1           1
 AtmWgt=   1.0078250  15.9949146   1.0078250   1.0078250  15.9949146   1.0078250   1.0078250  15.9949146   1.0078250   1.0078250
 NucSpn=           1           0           1           1           0           1           1           0           1           1
 AtZEff=   0.0000000   0.0000000   0.0000000   0.0000000   0.0000000   0.0000000   0.0000000   0.0000000   0.0000000   0.0000000
 NQMom=    0.0000000   0.0000000   0.0000000   0.0000000   0.0000000   0.0000000   0.0000000   0.0000000   0.0000000   0.0000000
 NMagM=    2.7928460   0.0000000   2.7928460   2.7928460   0.0000000   2.7928460   2.7928460   0.0000000   2.7928460   2.7928460
 AtZNuc=   1.0000000   8.0000000   1.0000000   1.0000000   8.0000000   1.0000000   1.0000000   8.0000000   1.0000000   1.0000000

  Atom       161         162         163         164         165         166         167         168         169         170
 IAtWgt=          16           1           1          16           1           1          16           1           1          16
 AtmWgt=  15.9949146   1.0078250   1.0078250  15.9949146   1.0078250   1.0078250  15.9949146   1.0078250   1.0078250  15.9949146
 NucSpn=           0           1           1           0           1           1           0           1           1           0
 AtZEff=   0.0000000   0.0000000   0.0000000   0.0000000   0.0000000   0.0000000   0.0000000   0.0000000   0.0000000   0.0000000
 NQMom=    0.0000000   0.0000000   0.0000000   0.0000000   0.0000000   0.0000000   0.0000000   0.0000000   0.0000000   0.0000000
 NMagM=    0.0000000   2.7928460   2.7928460   0.0000000   2.7928460   2.7928460   0.0000000   2.7928460   2.7928460   0.0000000
 AtZNuc=   8.0000000   1.0000000   1.0000000   8.0000000   1.0000000   1.0000000   8.0000000   1.0000000   1.0000000   8.0000000

  Atom       171         172         173         174         175         176         177         178         179         180
 IAtWgt=           1           1          16           1           1          16           1           1          16           1
 AtmWgt=   1.0078250   1.0078250  15.9949146   1.0078250   1.0078250  15.9949146   1.0078250   1.0078250  15.9949146   1.0078250
 NucSpn=           1           1           0           1           1           0           1           1           0           1
 AtZEff=   0.0000000   0.0000000   0.0000000   0.0000000   0.0000000   0.0000000   0.0000000   0.0000000   0.0000000   0.0000000
 NQMom=    0.0000000   0.0000000   0.0000000   0.0000000   0.0000000   0.0000000   0.0000000   0.0000000   0.0000000   0.0000000
 NMagM=    2.7928460   2.7928460   0.0000000   2.7928460   2.7928460   0.0000000   2.7928460   2.7928460   0.0000000   2.7928460
 AtZNuc=   1.0000000   1.0000000   8.0000000   1.0000000   1.0000000   8.0000000   1.0000000   1.0000000   8.0000000   1.0000000

  Atom       181         182         183         184         185         186         187         188         189         190
 IAtWgt=           1          16           1           1          16           1           1          16           1           1
 AtmWgt=   1.0078250  15.9949146   1.0078250   1.0078250  15.9949146   1.0078250   1.0078250  15.9949146   1.0078250   1.0078250
 NucSpn=           1           0           1           1           0           1           1           0           1           1
 AtZEff=   0.0000000   0.0000000   0.0000000   0.0000000   0.0000000   0.0000000   0.0000000   0.0000000   0.0000000   0.0000000
 NQMom=    0.0000000   0.0000000   0.0000000   0.0000000   0.0000000   0.0000000   0.0000000   0.0000000   0.0000000   0.0000000
 NMagM=    2.7928460   0.0000000   2.7928460   2.7928460   0.0000000   2.7928460   2.7928460   0.0000000   2.7928460   2.7928460
 AtZNuc=   1.0000000   8.0000000   1.0000000   1.0000000   8.0000000   1.0000000   1.0000000   8.0000000   1.0000000   1.0000000

  Atom       191         192         193         194         195         196         197         198         199         200
 IAtWgt=          16           1           1          16           1           1          16           1           1          16
 AtmWgt=  15.9949146   1.0078250   1.0078250  15.9949146   1.0078250   1.0078250  15.9949146   1.0078250   1.0078250  15.9949146
 NucSpn=           0           1           1           0           1           1           0           1           1           0
 AtZEff=   0.0000000   0.0000000   0.0000000   0.0000000   0.0000000   0.0000000   0.0000000   0.0000000   0.0000000   0.0000000
 NQMom=    0.0000000   0.0000000   0.0000000   0.0000000   0.0000000   0.0000000   0.0000000   0.0000000   0.0000000   0.0000000
 NMagM=    0.0000000   2.7928460   2.7928460   0.0000000   2.7928460   2.7928460   0.0000000   2.7928460   2.7928460   0.0000000
 AtZNuc=   8.0000000   1.0000000   1.0000000   8.0000000   1.0000000   1.0000000   8.0000000   1.0000000   1.0000000   8.0000000

  Atom       201         202         203         204         205         206         207         208         209         210
 IAtWgt=           1           1          16           1           1          16           1           1          16           1
 AtmWgt=   1.0078250   1.0078250  15.9949146   1.0078250   1.0078250  15.9949146   1.0078250   1.0078250  15.9949146   1.0078250
 NucSpn=           1           1           0           1           1           0           1           1           0           1
 AtZEff=   0.0000000   0.0000000   0.0000000   0.0000000   0.0000000   0.0000000   0.0000000   0.0000000   0.0000000   0.0000000
 NQMom=    0.0000000   0.0000000   0.0000000   0.0000000   0.0000000   0.0000000   0.0000000   0.0000000   0.0000000   0.0000000
 NMagM=    2.7928460   2.7928460   0.0000000   2.7928460   2.7928460   0.0000000   2.7928460   2.7928460   0.0000000   2.7928460
 AtZNuc=   1.0000000   1.0000000   8.0000000   1.0000000   1.0000000   8.0000000   1.0000000   1.0000000   8.0000000   1.0000000

  Atom       211         212         213         214         215         216         217         218         219         220
 IAtWgt=           1          16           1           1          16           1           1          16           1           1
 AtmWgt=   1.0078250  15.9949146   1.0078250   1.0078250  15.9949146   1.0078250   1.0078250  15.9949146   1.0078250   1.0078250
 NucSpn=           1           0           1           1           0           1           1           0           1           1
 AtZEff=   0.0000000   0.0000000   0.0000000   0.0000000   0.0000000   0.0000000   0.0000000   0.0000000   0.0000000   0.0000000
 NQMom=    0.0000000   0.0000000   0.0000000   0.0000000   0.0000000   0.0000000   0.0000000   0.0000000   0.0000000   0.0000000
 NMagM=    2.7928460   0.0000000   2.7928460   2.7928460   0.0000000   2.7928460   2.7928460   0.0000000   2.7928460   2.7928460
 AtZNuc=   1.0000000   8.0000000   1.0000000   1.0000000   8.0000000   1.0000000   1.0000000   8.0000000   1.0000000   1.0000000

  Atom       221         222         223         224         225         226         227         228         229         230
 IAtWgt=          16           1           1          16           1           1          16           1           1          16
 AtmWgt=  15.9949146   1.0078250   1.0078250  15.9949146   1.0078250   1.0078250  15.9949146   1.0078250   1.0078250  15.9949146
 NucSpn=           0           1           1           0           1           1           0           1           1           0
 AtZEff=   0.0000000   0.0000000   0.0000000   0.0000000   0.0000000   0.0000000   0.0000000   0.0000000   0.0000000   0.0000000
 NQMom=    0.0000000   0.0000000   0.0000000   0.0000000   0.0000000   0.0000000   0.0000000   0.0000000   0.0000000   0.0000000
 NMagM=    0.0000000   2.7928460   2.7928460   0.0000000   2.7928460   2.7928460   0.0000000   2.7928460   2.7928460   0.0000000
 AtZNuc=   8.0000000   1.0000000   1.0000000   8.0000000   1.0000000   1.0000000   8.0000000   1.0000000   1.0000000   8.0000000

  Atom       231         232         233         234         235         236         237         238         239         240
 IAtWgt=           1           1          16           1           1          16           1           1          16           1
 AtmWgt=   1.0078250   1.0078250  15.9949146   1.0078250   1.0078250  15.9949146   1.0078250   1.0078250  15.9949146   1.0078250
 NucSpn=           1           1           0           1           1           0           1           1           0           1
 AtZEff=   0.0000000   0.0000000   0.0000000   0.0000000   0.0000000   0.0000000   0.0000000   0.0000000   0.0000000   0.0000000
 NQMom=    0.0000000   0.0000000   0.0000000   0.0000000   0.0000000   0.0000000   0.0000000   0.0000000   0.0000000   0.0000000
 NMagM=    2.7928460   2.7928460   0.0000000   2.7928460   2.7928460   0.0000000   2.7928460   2.7928460   0.0000000   2.7928460
 AtZNuc=   1.0000000   1.0000000   8.0000000   1.0000000   1.0000000   8.0000000   1.0000000   1.0000000   8.0000000   1.0000000

  Atom       241         242         243         244         245         246         247         248         249         250
 IAtWgt=           1          16           1           1          16           1           1          16           1           1
 AtmWgt=   1.0078250  15.9949146   1.0078250   1.0078250  15.9949146   1.0078250   1.0078250  15.9949146   1.0078250   1.0078250
 NucSpn=           1           0           1           1           0           1           1           0           1           1
 AtZEff=   0.0000000   0.0000000   0.0000000   0.0000000   0.0000000   0.0000000   0.0000000   0.0000000   0.0000000   0.0000000
 NQMom=    0.0000000   0.0000000   0.0000000   0.0000000   0.0000000   0.0000000   0.0000000   0.0000000   0.0000000   0.0000000
 NMagM=    2.7928460   0.0000000   2.7928460   2.7928460   0.0000000   2.7928460   2.7928460   0.0000000   2.7928460   2.7928460
 AtZNuc=   1.0000000   8.0000000   1.0000000   1.0000000   8.0000000   1.0000000   1.0000000   8.0000000   1.0000000   1.0000000

  Atom       251         252         253         254         255         256         257         258         259         260
 IAtWgt=          16           1           1          16           1           1          16           1           1          16
 AtmWgt=  15.9949146   1.0078250   1.0078250  15.9949146   1.0078250   1.0078250  15.9949146   1.0078250   1.0078250  15.9949146
 NucSpn=           0           1           1           0           1           1           0           1           1           0
 AtZEff=   0.0000000   0.0000000   0.0000000   0.0000000   0.0000000   0.0000000   0.0000000   0.0000000   0.0000000   0.0000000
 NQMom=    0.0000000   0.0000000   0.0000000   0.0000000   0.0000000   0.0000000   0.0000000   0.0000000   0.0000000   0.0000000
 NMagM=    0.0000000   2.7928460   2.7928460   0.0000000   2.7928460   2.7928460   0.0000000   2.7928460   2.7928460   0.0000000
 AtZNuc=   8.0000000   1.0000000   1.0000000   8.0000000   1.0000000   1.0000000   8.0000000   1.0000000   1.0000000   8.0000000

  Atom       261         262         263         264         265         266         267         268         269         270
 IAtWgt=           1           1          16           1           1          16           1           1          16           1
 AtmWgt=   1.0078250   1.0078250  15.9949146   1.0078250   1.0078250  15.9949146   1.0078250   1.0078250  15.9949146   1.0078250
 NucSpn=           1           1           0           1           1           0           1           1           0           1
 AtZEff=   0.0000000   0.0000000   0.0000000   0.0000000   0.0000000   0.0000000   0.0000000   0.0000000   0.0000000   0.0000000
 NQMom=    0.0000000   0.0000000   0.0000000   0.0000000   0.0000000   0.0000000   0.0000000   0.0000000   0.0000000   0.0000000
 NMagM=    2.7928460   2.7928460   0.0000000   2.7928460   2.7928460   0.0000000   2.7928460   2.7928460   0.0000000   2.7928460
 AtZNuc=   1.0000000   1.0000000   8.0000000   1.0000000   1.0000000   8.0000000   1.0000000   1.0000000   8.0000000   1.0000000

  Atom       271         272         273         274         275         276         277         278         279         280
 IAtWgt=           1          16           1           1          16           1           1          16           1           1
 AtmWgt=   1.0078250  15.9949146   1.0078250   1.0078250  15.9949146   1.0078250   1.0078250  15.9949146   1.0078250   1.0078250
 NucSpn=           1           0           1           1           0           1           1           0           1           1
 AtZEff=   0.0000000   0.0000000   0.0000000   0.0000000   0.0000000   0.0000000   0.0000000   0.0000000   0.0000000   0.0000000
 NQMom=    0.0000000   0.0000000   0.0000000   0.0000000   0.0000000   0.0000000   0.0000000   0.0000000   0.0000000   0.0000000
 NMagM=    2.7928460   0.0000000   2.7928460   2.7928460   0.0000000   2.7928460   2.7928460   0.0000000   2.7928460   2.7928460
 AtZNuc=   1.0000000   8.0000000   1.0000000   1.0000000   8.0000000   1.0000000   1.0000000   8.0000000   1.0000000   1.0000000

  Atom       281         282         283         284         285         286         287         288         289         290
 IAtWgt=          16           1           1          16           1           1          16           1           1          16
 AtmWgt=  15.9949146   1.0078250   1.0078250  15.9949146   1.0078250   1.0078250  15.9949146   1.0078250   1.0078250  15.9949146
 NucSpn=           0           1           1           0           1           1           0           1           1           0
 AtZEff=   0.0000000   0.0000000   0.0000000   0.0000000   0.0000000   0.0000000   0.0000000   0.0000000   0.0000000   0.0000000
 NQMom=    0.0000000   0.0000000   0.0000000   0.0000000   0.0000000   0.0000000   0.0000000   0.0000000   0.0000000   0.0000000
 NMagM=    0.0000000   2.7928460   2.7928460   0.0000000   2.7928460   2.7928460   0.0000000   2.7928460   2.7928460   0.0000000
 AtZNuc=   8.0000000   1.0000000   1.0000000   8.0000000   1.0000000   1.0000000   8.0000000   1.0000000   1.0000000   8.0000000

  Atom       291         292         293         294         295         296         297         298         299         300
 IAtWgt=           1           1          16           1           1          16           1           1          16           1
 AtmWgt=   1.0078250   1.0078250  15.9949146   1.0078250   1.0078250  15.9949146   1.0078250   1.0078250  15.9949146   1.0078250
 NucSpn=           1           1           0           1           1           0           1           1           0           1
 AtZEff=   0.0000000   0.0000000   0.0000000   0.0000000   0.0000000   0.0000000   0.0000000   0.0000000   0.0000000   0.0000000
 NQMom=    0.0000000   0.0000000   0.0000000   0.0000000   0.0000000   0.0000000   0.0000000   0.0000000   0.0000000   0.0000000
 NMagM=    2.7928460   2.7928460   0.0000000   2.7928460   2.7928460   0.0000000   2.7928460   2.7928460   0.0000000   2.7928460
 AtZNuc=   1.0000000   1.0000000   8.0000000   1.0000000   1.0000000   8.0000000   1.0000000   1.0000000   8.0000000   1.0000000

  Atom       301         302         303         304         305         306         307         308         309         310
 IAtWgt=           1          16           1           1          16           1           1          16           1           1
 AtmWgt=   1.0078250  15.9949146   1.0078250   1.0078250  15.9949146   1.0078250   1.0078250  15.9949146   1.0078250   1.0078250
 NucSpn=           1           0           1           1           0           1           1           0           1           1
 AtZEff=   0.0000000   0.0000000   0.0000000   0.0000000   0.0000000   0.0000000   0.0000000   0.0000000   0.0000000   0.0000000
 NQMom=    0.0000000   0.0000000   0.0000000   0.0000000   0.0000000   0.0000000   0.0000000   0.0000000   0.0000000   0.0000000
 NMagM=    2.7928460   0.0000000   2.7928460   2.7928460   0.0000000   2.7928460   2.7928460   0.0000000   2.7928460   2.7928460
 AtZNuc=   1.0000000   8.0000000   1.0000000   1.0000000   8.0000000   1.0000000   1.0000000   8.0000000   1.0000000   1.0000000

  Atom       311         312         313         314         315         316         317         318         319         320
 IAtWgt=          16           1           1          16           1           1          16           1           1          16
 AtmWgt=  15.9949146   1.0078250   1.0078250  15.9949146   1.0078250   1.0078250  15.9949146   1.0078250   1.0078250  15.9949146
 NucSpn=           0           1           1           0           1           1           0           1           1           0
 AtZEff=   0.0000000   0.0000000   0.0000000   0.0000000   0.0000000   0.0000000   0.0000000   0.0000000   0.0000000   0.0000000
 NQMom=    0.0000000   0.0000000   0.0000000   0.0000000   0.0000000   0.0000000   0.0000000   0.0000000   0.0000000   0.0000000
 NMagM=    0.0000000   2.7928460   2.7928460   0.0000000   2.7928460   2.7928460   0.0000000   2.7928460   2.7928460   0.0000000
 AtZNuc=   8.0000000   1.0000000   1.0000000   8.0000000   1.0000000   1.0000000   8.0000000   1.0000000   1.0000000   8.0000000

  Atom       321         322         323         324         325         326         327         328         329         330
 IAtWgt=           1           1          16           1           1          16           1           1          16           1
 AtmWgt=   1.0078250   1.0078250  15.9949146   1.0078250   1.0078250  15.9949146   1.0078250   1.0078250  15.9949146   1.0078250
 NucSpn=           1           1           0           1           1           0           1           1           0           1
 AtZEff=   0.0000000   0.0000000   0.0000000   0.0000000   0.0000000   0.0000000   0.0000000   0.0000000   0.0000000   0.0000000
 NQMom=    0.0000000   0.0000000   0.0000000   0.0000000   0.0000000   0.0000000   0.0000000   0.0000000   0.0000000   0.0000000
 NMagM=    2.7928460   2.7928460   0.0000000   2.7928460   2.7928460   0.0000000   2.7928460   2.7928460   0.0000000   2.7928460
 AtZNuc=   1.0000000   1.0000000   8.0000000   1.0000000   1.0000000   8.0000000   1.0000000   1.0000000   8.0000000   1.0000000

  Atom       331         332         333         334         335         336         337         338         339         340
 IAtWgt=           1          16           1           1          16           1           1          16           1           1
 AtmWgt=   1.0078250  15.9949146   1.0078250   1.0078250  15.9949146   1.0078250   1.0078250  15.9949146   1.0078250   1.0078250
 NucSpn=           1           0           1           1           0           1           1           0           1           1
 AtZEff=   0.0000000   0.0000000   0.0000000   0.0000000   0.0000000   0.0000000   0.0000000   0.0000000   0.0000000   0.0000000
 NQMom=    0.0000000   0.0000000   0.0000000   0.0000000   0.0000000   0.0000000   0.0000000   0.0000000   0.0000000   0.0000000
 NMagM=    2.7928460   0.0000000   2.7928460   2.7928460   0.0000000   2.7928460   2.7928460   0.0000000   2.7928460   2.7928460
 AtZNuc=   1.0000000   8.0000000   1.0000000   1.0000000   8.0000000   1.0000000   1.0000000   8.0000000   1.0000000   1.0000000

  Atom       341         342         343         344         345         346         347         348         349         350
 IAtWgt=          16           1           1          16           1           1          16           1           1          16
 AtmWgt=  15.9949146   1.0078250   1.0078250  15.9949146   1.0078250   1.0078250  15.9949146   1.0078250   1.0078250  15.9949146
 NucSpn=           0           1           1           0           1           1           0           1           1           0
 AtZEff=   0.0000000   0.0000000   0.0000000   0.0000000   0.0000000   0.0000000   0.0000000   0.0000000   0.0000000   0.0000000
 NQMom=    0.0000000   0.0000000   0.0000000   0.0000000   0.0000000   0.0000000   0.0000000   0.0000000   0.0000000   0.0000000
 NMagM=    0.0000000   2.7928460   2.7928460   0.0000000   2.7928460   2.7928460   0.0000000   2.7928460   2.7928460   0.0000000
 AtZNuc=   8.0000000   1.0000000   1.0000000   8.0000000   1.0000000   1.0000000   8.0000000   1.0000000   1.0000000   8.0000000

  Atom       351         352         353         354         355         356         357         358         359         360
 IAtWgt=           1           1          16           1           1          16           1           1          16           1
 AtmWgt=   1.0078250   1.0078250  15.9949146   1.0078250   1.0078250  15.9949146   1.0078250   1.0078250  15.9949146   1.0078250
 NucSpn=           1           1           0           1           1           0           1           1           0           1
 AtZEff=   0.0000000   0.0000000   0.0000000   0.0000000   0.0000000   0.0000000   0.0000000   0.0000000   0.0000000   0.0000000
 NQMom=    0.0000000   0.0000000   0.0000000   0.0000000   0.0000000   0.0000000   0.0000000   0.0000000   0.0000000   0.0000000
 NMagM=    2.7928460   2.7928460   0.0000000   2.7928460   2.7928460   0.0000000   2.7928460   2.7928460   0.0000000   2.7928460
 AtZNuc=   1.0000000   1.0000000   8.0000000   1.0000000   1.0000000   8.0000000   1.0000000   1.0000000   8.0000000   1.0000000

  Atom       361         362         363         364         365         366         367         368         369         370
 IAtWgt=           1          16           1           1          16           1           1          16           1           1
 AtmWgt=   1.0078250  15.9949146   1.0078250   1.0078250  15.9949146   1.0078250   1.0078250  15.9949146   1.0078250   1.0078250
 NucSpn=           1           0           1           1           0           1           1           0           1           1
 AtZEff=   0.0000000   0.0000000   0.0000000   0.0000000   0.0000000   0.0000000   0.0000000   0.0000000   0.0000000   0.0000000
 NQMom=    0.0000000   0.0000000   0.0000000   0.0000000   0.0000000   0.0000000   0.0000000   0.0000000   0.0000000   0.0000000
 NMagM=    2.7928460   0.0000000   2.7928460   2.7928460   0.0000000   2.7928460   2.7928460   0.0000000   2.7928460   2.7928460
 AtZNuc=   1.0000000   8.0000000   1.0000000   1.0000000   8.0000000   1.0000000   1.0000000   8.0000000   1.0000000   1.0000000

  Atom       371         372         373         374         375         376         377         378         379         380
 IAtWgt=          16           1           1          16           1           1          16           1           1          16
 AtmWgt=  15.9949146   1.0078250   1.0078250  15.9949146   1.0078250   1.0078250  15.9949146   1.0078250   1.0078250  15.9949146
 NucSpn=           0           1           1           0           1           1           0           1           1           0
 AtZEff=   0.0000000   0.0000000   0.0000000   0.0000000   0.0000000   0.0000000   0.0000000   0.0000000   0.0000000   0.0000000
 NQMom=    0.0000000   0.0000000   0.0000000   0.0000000   0.0000000   0.0000000   0.0000000   0.0000000   0.0000000   0.0000000
 NMagM=    0.0000000   2.7928460   2.7928460   0.0000000   2.7928460   2.7928460   0.0000000   2.7928460   2.7928460   0.0000000
 AtZNuc=   8.0000000   1.0000000   1.0000000   8.0000000   1.0000000   1.0000000   8.0000000   1.0000000   1.0000000   8.0000000

  Atom       381         382         383         384         385
 IAtWgt=           1           1          16           1           1
 AtmWgt=   1.0078250   1.0078250  15.9949146   1.0078250   1.0078250
 NucSpn=           1           1           0           1           1
 AtZEff=   0.0000000   0.0000000   0.0000000   0.0000000   0.0000000
 NQMom=    0.0000000   0.0000000   0.0000000   0.0000000   0.0000000
 NMagM=    2.7928460   2.7928460   0.0000000   2.7928460   2.7928460
 AtZNuc=   1.0000000   1.0000000   8.0000000   1.0000000   1.0000000
 Leave Link  101 at Mon May 14 14:48:46 2018, MaxMem= 14763950080 cpu:        37.9
 (Enter /cm/shared/gaussian/g09.e01/intel64-sandybridge/g09/l103.exe)

 GradGradGradGradGradGradGradGradGradGradGradGradGradGradGradGradGradGrad
 Berny optimization.
 Initialization pass.
 Trust Radius=3.00D-01 FncErr=1.00D-07 GrdErr=1.00D-07
 Number of steps in this run=      2 maximum allowed number of steps=      2.
 GradGradGradGradGradGradGradGradGradGradGradGradGradGradGradGradGradGrad

 Leave Link  103 at Mon May 14 14:48:46 2018, MaxMem= 14763950080 cpu:         5.9
 (Enter /cm/shared/gaussian/g09.e01/intel64-sandybridge/g09/l202.exe)
 Symmetry turned off by external request.
 Stoichiometry    BrH256O128(1-)
 Framework group  C1[X(BrH256O128)]
 Deg. of freedom  1149
 Full point group                 C1      NOp   1
                          Input orientation:                          
 ---------------------------------------------------------------------
 Center     Atomic      Atomic             Coordinates (Angstroms)
 Number     Number       Type             X           Y           Z
 ---------------------------------------------------------------------
      1         35           0       20.000000   20.000000   20.000000
      2          8           0       17.150000   21.360000   19.380000
      3          1           0       17.900000   20.760000   19.360000
      4          1           0       16.530000   20.940000   19.970000
      5          8           0       18.040000   17.370000   19.420000
      6          1           0       18.580000   18.160000   19.480000
      7          1           0       17.170000   17.700000   19.170000
      8          8           0       20.760000   19.240000   16.880000
      9          1           0       20.260000   19.450000   17.670000
     10          1           0       20.400000   18.420000   16.570000
     11          8           0       22.640000   21.680000   21.170000
     12          1           0       21.770000   21.320000   20.990000
     13          1           0       22.700000   21.710000   22.130000
     14          8           0       18.950000   18.320000   22.800000
     15          1           0       19.280000   18.960000   23.420000
     16          1           0       19.190000   18.670000   21.940000
     17          8           0       22.990000   19.750000   18.550000
     18          1           0       22.370000   19.780000   19.270000
     19          1           0       22.450000   19.720000   17.760000
     20          8           0       22.220000   17.450000   20.600000
     21          1           0       21.670000   18.130000   20.230000
     22          1           0       22.910000   17.920000   21.060000
     23          8           0       18.420000   22.280000   22.310000
     24          1           0       18.790000   21.640000   21.700000
     25          1           0       17.930000   21.750000   22.950000
     26          8           0       18.700000   23.280000   18.160000
     27          1           0       18.350000   22.420000   18.390000
     28          1           0       19.630000   23.230000   18.400000
     29          8           0       18.020000   24.520000   20.460000
     30          1           0       17.700000   24.290000   19.590000
     31          1           0       18.210000   23.670000   20.870000
     32          8           0       23.540000   22.200000   17.720000
     33          1           0       24.410000   22.550000   17.910000
     34          1           0       23.520000   21.350000   18.170000
     35          8           0       23.870000   19.050000   22.130000
     36          1           0       24.700000   18.960000   22.590000
     37          1           0       23.510000   19.880000   22.450000
     38          8           0       17.040000   16.390000   22.680000
     39          1           0       16.980000   16.470000   23.630000
     40          1           0       17.730000   17.010000   22.430000
     41          8           0       23.830000   16.490000   18.480000
     42          1           0       23.390000   16.660000   17.650000
     43          1           0       23.370000   17.050000   19.110000
     44          8           0       22.980000   24.340000   20.690000
     45          1           0       23.880000   24.520000   20.390000
     46          1           0       22.960000   23.390000   20.800000
     47          8           0       19.750000   20.240000   24.570000
     48          1           0       20.050000   21.150000   24.520000
     49          1           0       20.380000   19.810000   25.150000
     50          8           0       21.460000   24.110000   18.200000
     51          1           0       21.840000   24.290000   19.060000
     52          1           0       22.060000   23.500000   17.790000
     53          8           0       18.180000   15.090000   17.910000
     54          1           0       17.390000   14.690000   18.280000
     55          1           0       18.350000   15.850000   18.480000
     56          8           0       15.230000   20.280000   20.700000
     57          1           0       14.480000   20.520000   21.250000
     58          1           0       15.110000   19.350000   20.530000
     59          8           0       25.640000   19.410000   19.100000
     60          1           0       26.100000   19.520000   18.260000
     61          1           0       24.710000   19.400000   18.850000
     62          8           0       15.250000   21.820000   17.530000
     63          1           0       14.460000   21.370000   17.810000
     64          1           0       15.800000   21.850000   18.310000
     65          8           0       17.140000   20.480000   24.640000
     66          1           0       17.150000   21.180000   25.290000
     67          1           0       18.060000   20.280000   24.490000
     68          8           0       22.610000   16.190000   23.440000
     69          1           0       22.750000   16.960000   23.990000
     70          1           0       22.540000   16.530000   22.550000
     71          8           0       21.480000   16.300000   16.560000
     72          1           0       21.670000   16.350000   15.620000
     73          1           0       20.520000   16.360000   16.610000
     74          8           0       22.630000   14.740000   20.770000
     75          1           0       23.540000   14.680000   20.480000
     76          1           0       22.410000   15.670000   20.700000
     77          8           0       22.840000   21.470000   23.890000
     78          1           0       22.200000   22.030000   24.330000
     79          1           0       23.340000   21.070000   24.600000
     80          8           0       19.840000   17.120000   25.190000
     81          1           0       20.470000   17.750000   25.540000
     82          1           0       19.850000   17.280000   24.240000
     83          8           0       21.600000   19.890000   14.210000
     84          1           0       22.520000   19.610000   14.190000
     85          1           0       21.390000   19.960000   15.140000
     86          8           0       25.690000   21.530000   20.920000
     87          1           0       24.740000   21.440000   21.030000
     88          1           0       25.970000   20.680000   20.580000
     89          8           0       18.900000   23.480000   15.200000
     90          1           0       19.770000   23.780000   14.930000
     91          1           0       19.010000   23.240000   16.120000
     92          8           0       19.030000   16.880000   15.670000
     93          1           0       18.890000   16.150000   15.060000
     94          1           0       18.140000   17.150000   15.920000
     95          8           0       15.090000   17.660000   18.720000
     96          1           0       14.140000   17.730000   18.690000
     97          1           0       15.260000   17.030000   19.430000
     98          8           0       20.160000   14.090000   20.100000
     99          1           0       19.970000   14.450000   19.240000
    100          1           0       21.080000   14.320000   20.260000
    101          8           0       23.070000   22.930000   15.010000
    102          1           0       22.410000   23.620000   15.010000
    103          1           0       22.930000   22.460000   15.830000
    104          8           0       17.690000   25.140000   23.130000
    105          1           0       17.900000   24.890000   22.230000
    106          1           0       17.000000   24.530000   23.400000
    107          8           0       21.160000   22.920000   25.150000
    108          1           0       20.640000   23.700000   24.930000
    109          1           0       21.010000   22.800000   26.090000
    110          8           0       25.750000   17.140000   20.660000
    111          1           0       25.820000   18.060000   20.390000
    112          1           0       25.110000   16.770000   20.060000
    113          8           0       16.430000   22.120000   15.030000
    114          1           0       16.070000   22.120000   15.920000
    115          1           0       17.160000   22.740000   15.070000
    116          8           0       14.800000   19.080000   24.580000
    117          1           0       15.000000   18.410000   25.230000
    118          1           0       15.640000   19.500000   24.390000
    119          8           0       21.270000   26.890000   18.900000
    120          1           0       21.070000   26.020000   18.570000
    121          1           0       21.060000   26.850000   19.830000
    122          8           0       15.710000   17.660000   15.740000
    123          1           0       15.360000   17.440000   16.600000
    124          1           0       15.010000   18.170000   15.320000
    125          8           0       17.590000   13.760000   21.450000
    126          1           0       18.410000   13.750000   20.960000
    127          1           0       17.690000   14.490000   22.060000
    128          8           0       17.270000   19.530000   13.900000
    129          1           0       16.900000   18.960000   14.570000
    130          1           0       17.020000   20.410000   14.180000
    131          8           0       14.960000   15.690000   20.920000
    132          1           0       14.230000   16.260000   21.150000
    133          1           0       15.560000   15.750000   21.660000
    134          8           0       23.440000   18.090000   25.040000
    135          1           0       23.770000   18.980000   25.090000
    136          1           0       22.800000   18.020000   25.750000
    137          8           0       20.320000   25.380000   24.340000
    138          1           0       20.490000   26.300000   24.120000
    139          1           0       19.550000   25.150000   23.800000
    140          8           0       20.260000   13.150000   22.720000
    141          1           0       20.030000   12.370000   22.210000
    142          1           0       20.160000   13.880000   22.110000
    143          8           0       23.860000   18.710000   14.890000
    144          1           0       24.710000   18.840000   15.310000
    145          1           0       23.770000   17.760000   14.820000
    146          8           0       19.520000   27.380000   20.770000
    147          1           0       19.210000   26.530000   20.470000
    148          1           0       18.830000   27.700000   21.350000
    149          8           0       21.030000   19.130000   26.460000
    150          1           0       20.280000   19.440000   26.960000
    151          1           0       21.760000   19.130000   27.080000
    152          8           0       15.730000   14.400000   18.680000
    153          1           0       14.980000   13.830000   18.820000
    154          1           0       15.950000   14.730000   19.550000
    155          8           0       17.240000   16.400000   25.440000
    156          1           0       16.990000   16.030000   26.290000
    157          1           0       18.190000   16.530000   25.500000
    158          8           0       20.780000   17.870000   12.540000
    159          1           0       20.810000   18.380000   13.350000
    160          1           0       21.610000   17.400000   12.530000
    161          8           0       26.430000   22.650000   23.180000
    162          1           0       26.160000   22.160000   22.410000
    163          1           0       26.780000   21.990000   23.780000
    164          8           0       23.470000   26.740000   22.400000
    165          1           0       23.090000   25.890000   22.190000
    166          1           0       24.160000   26.860000   21.740000
    167          8           0       26.520000   22.600000   18.320000
    168          1           0       26.680000   22.280000   19.210000
    169          1           0       26.420000   21.810000   17.790000
    170          8           0       13.240000   18.040000   22.310000
    171          1           0       12.500000   17.710000   22.820000
    172          1           0       13.760000   18.550000   22.940000
    173          8           0       23.900000   24.060000   25.430000
    174          1           0       23.440000   23.240000   25.230000
    175          1           0       24.130000   24.410000   24.570000
    176          8           0       25.380000   14.320000   19.090000
    177          1           0       24.840000   15.030000   18.750000
    178          1           0       26.160000   14.310000   18.530000
    179          8           0       26.360000   20.230000   16.620000
    180          1           0       26.250000   19.280000   16.580000
    181          1           0       27.010000   20.420000   15.950000
    182          8           0       17.300000   22.490000   26.230000
    183          1           0       16.830000   23.040000   26.860000
    184          1           0       18.230000   22.620000   26.430000
    185          8           0       25.260000   24.860000   19.610000
    186          1           0       25.610000   24.660000   18.730000
    187          1           0       26.040000   25.060000   20.130000
    188          8           0       13.240000   21.460000   22.190000
    189          1           0       13.280000   21.600000   23.130000
    190          1           0       13.200000   22.350000   21.820000
    191          8           0       24.840000   20.550000   25.420000
    192          1           0       24.810000   20.820000   26.340000
    193          1           0       25.780000   20.510000   25.220000
    194          8           0       22.570000   13.640000   24.550000
    195          1           0       22.480000   14.500000   24.120000
    196          1           0       22.040000   13.050000   24.020000
    197          8           0       26.070000   17.450000   16.560000
    198          1           0       25.610000   16.630000   16.750000
    199          1           0       26.890000   17.390000   17.050000
    200          8           0       13.600000   24.190000   21.090000
    201          1           0       14.210000   24.140000   21.820000
    202          1           0       13.350000   25.110000   21.050000
    203          8           0       21.230000   24.830000   14.520000
    204          1           0       21.420000   25.750000   14.690000
    205          1           0       21.170000   24.770000   13.560000
    206          8           0       22.400000   16.150000   14.090000
    207          1           0       22.110000   15.250000   13.910000
[...]
   X336      53.89499  -0.00309   0.00000  -0.00482  -0.00413  53.89086
   Y336      30.55687   0.01113   0.00000   0.00842   0.00897  30.56585
   Z336      36.88745  -0.00815   0.00000  -0.00676  -0.00592  36.88154
   X337      52.49659  -0.00584   0.00000  -0.00375  -0.00314  52.49346
   Y337      29.40414  -0.00132   0.00000  -0.00455  -0.00410  29.40004
   Z337      39.09843   0.00352   0.00000   0.00119   0.00192  39.10036
   X338      27.51441  -0.01019   0.00000  -0.00580  -0.00664  27.50777
   Y338      40.30786  -0.00850   0.00000  -0.00384  -0.00493  40.30293
   Z338      53.06351  -0.00213   0.00000  -0.00151  -0.00217  53.06134
   X339      28.11912   0.00503   0.00000   0.00416   0.00320  28.12232
   Y339      41.91413   0.00861   0.00000   0.00504   0.00397  41.91810
   Z339      53.61153   0.00296   0.00000   0.00227   0.00168  53.61321
   X340      28.95060   0.00488   0.00000   0.00374   0.00299  28.95360
   Y340      39.51417  -0.00071   0.00000   0.00093  -0.00007  39.51410
   Z340      52.28872  -0.00309   0.00000  -0.00284  -0.00341  52.28531
   X341      39.51417  -0.00859   0.00000  -0.00153  -0.00079  39.51338
   Y341      46.43057   0.02686   0.00000   0.01274   0.01274  46.44331
   Z341      22.37436   0.00703   0.00000   0.00632   0.00650  22.38086
   X342      40.06219   0.00559   0.00000  -0.00257  -0.00173  40.06046
   Y342      44.71092  -0.03744   0.00000  -0.02885  -0.02882  44.68210
   Z342      22.31767   0.00196   0.00000   0.00462   0.00481  22.32247
   X343      40.40234   0.00270   0.00000   0.00132   0.00210  40.40444
   Y343      47.22426   0.00541   0.00000   0.00689   0.00696  47.23122
   Z343      21.01375  -0.00438   0.00000  -0.00333  -0.00308  21.01067
   X344      28.23251   0.00433   0.00000   0.00313   0.00279  28.23530
   Y344      33.14580   0.01659   0.00000   0.01319   0.01217  33.15796
   Z344      51.19268   0.00172   0.00000   0.00080   0.00009  51.19277
   X345      26.49396  -0.00858   0.00000  -0.00625  -0.00655  26.48741
   Y345      32.97572  -0.00288   0.00000  -0.00145  -0.00256  32.97316
   Z345      50.72025   0.00075   0.00000   0.00447   0.00364  50.72389
   X346      28.87502   0.00108   0.00000  -0.00147  -0.00171  28.87330
   Y346      31.46394  -0.01147   0.00000  -0.00469  -0.00568  31.45826
   Z346      51.15489  -0.00266   0.00000  -0.00336  -0.00406  51.15083
   X347      35.88590  -0.00488   0.00000  -0.00660  -0.00785  35.87805
   Y347      50.55017  -0.00309   0.00000  -0.00881  -0.00942  50.54075
   Z347      50.77694   0.02402   0.00000   0.02102   0.02103  50.79797
   X348      34.99773   0.00449   0.00000   0.01452   0.01336  35.01109
   Y348      50.87143   0.00443   0.00000   0.00731   0.00668  50.87811
   Z348      49.22737  -0.01321   0.00000  -0.00751  -0.00754  49.21983
   X349      37.24650   0.00538   0.00000   0.00460   0.00344  37.24994
   Y349      49.45413  -0.00232   0.00000   0.00156   0.00103  49.45516
   Z349      50.30451  -0.00626   0.00000  -0.00546  -0.00538  50.29913
   X350      36.77407   0.00096   0.00000   0.00947   0.01117  36.78524
   Y350      30.40569  -0.02255   0.00000  -0.01849  -0.01861  30.38709
   Z350      20.78699  -0.00632   0.00000  -0.00559  -0.00581  20.78118
   X351      36.26384  -0.00528   0.00000  -0.01016  -0.00842  36.25542
   Y351      31.33166   0.00429   0.00000   0.00218   0.00205  31.33371
   Z351      19.31300   0.00140   0.00000   0.00658   0.00633  19.31933
   X352      37.75673   0.00369   0.00000  -0.00542  -0.00385  37.75288
   Y352      31.57732   0.02009   0.00000   0.01989   0.01981  31.59713
   Z352      21.75075   0.00651   0.00000   0.00252   0.00237  21.75312
   X353      55.10441   0.01362   0.00000   0.00883   0.00855  55.11296
   Y353      43.38811  -0.00230   0.00000  -0.00410  -0.00354  43.38457
   Z353      41.42280   0.00266   0.00000   0.00119   0.00230  41.42510
   X354      54.95324  -0.00176   0.00000  -0.00162  -0.00175  54.95148
   Y354      42.38656   0.00036   0.00000   0.00274   0.00331  42.38986
   Z354      39.91102  -0.00641   0.00000  -0.00811  -0.00703  39.90398
   X355      53.40366  -0.01159   0.00000  -0.00590  -0.00623  53.39743
   Y355      43.86054  -0.00014   0.00000  -0.00392  -0.00346  43.85708
   Z355      41.80074   0.00506   0.00000   0.00603   0.00703  41.80777
   X356      37.07643   0.00559   0.00000   0.00072   0.00178  37.07820
   Y356      20.61691   0.00370   0.00000   0.00209   0.00171  20.61863
   Z356      39.45748   0.00710   0.00000   0.00841   0.00806  39.46554
   X357      36.84966   0.00152   0.00000   0.00342   0.00461  36.85427
   Y357      20.16338   0.00104   0.00000   0.00431   0.00395  20.16732
   Z357      37.71893  -0.00503   0.00000  -0.00103  -0.00140  37.71753
   X358      35.62134  -0.00855   0.00000  -0.00986  -0.00881  35.61252
   Y358      19.93661  -0.00340   0.00000  -0.00287  -0.00334  19.93327
   Z358      40.28896   0.00227   0.00000   0.00146   0.00101  40.28998
   X359      22.82789  -0.00239   0.00000  -0.00838  -0.00725  22.82064
   Y359      31.93637  -0.00398   0.00000   0.00248   0.00150  31.93787
   Z359      28.59156   0.01810   0.00000   0.01721   0.01614  28.60770
   X360      21.97751  -0.00167   0.00000   0.00176   0.00299  21.98051
   Y360      31.89858   0.00125   0.00000   0.00090  -0.00011  31.89847
   Z360      27.00419  -0.01074   0.00000  -0.00462  -0.00574  26.99845
   X361      23.94283   0.00374   0.00000   0.00270   0.00376  23.94659
   Y361      33.37256   0.00319   0.00000   0.00034  -0.00058  33.37198
   Z361      28.45928  -0.00807   0.00000  -0.01063  -0.01161  28.44767
   X362      53.91389   0.00827   0.00000   0.00422   0.00421  53.91810
   Y362      46.44947  -0.00176   0.00000  -0.00059   0.00000  46.44947
   Z362      34.43081   0.00747   0.00000   0.00388   0.00496  34.43577
   X363      53.15800  -0.00361   0.00000  -0.00118  -0.00124  53.15675
   Y363      47.99904   0.00859   0.00000   0.00587   0.00643  48.00548
   Z363      33.90169  -0.00543   0.00000  -0.00664  -0.00559  33.89610
   X364      52.87454  -0.00680   0.00000  -0.00679  -0.00668  52.86785
   Y364      45.16445  -0.00525   0.00000  -0.00422  -0.00367  45.16079
   Z364      33.67492   0.00061   0.00000   0.00432   0.00531  33.68023
   X365      22.96017  -0.00480   0.00000  -0.00211  -0.00219  22.95799
   Y365      47.65889   0.01652   0.00000   0.01631   0.01525  47.67414
   Z365      34.35522   0.00453   0.00000   0.00450   0.00367  34.35890
   X366      24.18849   0.00750   0.00000   0.00653   0.00656  24.19505
   Y366      47.43213  -0.00325   0.00000  -0.00151  -0.00248  47.42964
   Z366      33.03241  -0.00343   0.00000   0.00136   0.00060  33.03302
   X367      22.62002  -0.00408   0.00000  -0.00669  -0.00670  22.61332
   Y367      45.97704  -0.00630   0.00000   0.00067  -0.00042  45.97662
   Z367      34.94104  -0.00387   0.00000  -0.00824  -0.00912  34.93192
   X368      50.15333   0.00014   0.00000   0.00363   0.00446  50.15779
   Y368      24.33967  -0.01840   0.00000  -0.01656  -0.01625  24.32342
   Z368      39.89212  -0.00669   0.00000  -0.00333  -0.00281  39.88931
   X369      50.60687  -0.00308   0.00000  -0.00908  -0.00839  50.59848
   Y369      25.85145   0.01051   0.00000   0.00327   0.00360  25.85505
   Z369      40.78029   0.00548   0.00000   0.00327   0.00383  40.78412
   X370      49.43524  -0.00077   0.00000  -0.00349  -0.00259  49.43264
   Y370      24.94438   0.00173   0.00000   0.00145   0.00174  24.94613
   Z370      38.32365   0.00799   0.00000   0.01053   0.01101  38.33466
   X371      41.06375   0.00851   0.00000   0.00527   0.00690  41.07065
   Y371      25.37902   0.00584   0.00000   0.00660   0.00663  25.38565
   Z371      26.09712   0.00284   0.00000  -0.00411  -0.00414  26.09298
   X372      40.55352  -0.00202   0.00000  -0.00288  -0.00120  40.55233
   Y372      23.71606   0.00238   0.00000   0.00818   0.00818  23.72424
   Z372      26.64514   0.00455   0.00000   0.00772   0.00764  26.65277
   X373      40.27006  -0.00888   0.00000  -0.01155  -0.00983  40.26023
   Y373      25.58689  -0.00335   0.00000  -0.00622  -0.00621  25.58068
   Z373      24.49085  -0.01091   0.00000  -0.00964  -0.00972  24.48113
   X374      44.63533  -0.00677   0.00000  -0.00715  -0.00599  44.62934
   Y374      20.78699  -0.01415   0.00000  -0.00840  -0.00835  20.77863
   Z374      37.58665  -0.00001   0.00000   0.00008   0.00020  37.58685
   X375      44.91879   0.00294   0.00000   0.00229   0.00351  44.92230
   Y375      21.52398   0.00725   0.00000   0.00727   0.00736  21.53134
   Z375      35.96149  -0.00478   0.00000  -0.00131  -0.00116  35.96033
   X376      45.16445   0.00601   0.00000   0.00535   0.00637  45.17083
   Y376      22.05310   0.00894   0.00000   0.00456   0.00462  22.05773
   Z376      38.75828   0.00551   0.00000   0.00212   0.00230  38.76058
   X377      34.14735  -0.01666   0.00000  -0.01334  -0.01256  34.13479
   Y377      46.16601  -0.00703   0.00000  -0.00523  -0.00551  46.16050
   Z377      21.97751   0.00079   0.00000   0.00375   0.00359  21.98111
   X378      34.20404   0.00208   0.00000   0.00036   0.00117  34.20521
   Y378      47.29985   0.00292   0.00000   0.00199   0.00173  47.30157
   Z378      20.56022   0.00110   0.00000   0.00460   0.00446  20.56468
   X379      35.77252   0.01379   0.00000   0.00930   0.01002  35.78253
   Y379      46.33608   0.00223   0.00000   0.00068   0.00048  46.33656
   Z379      22.75230  -0.00232   0.00000  -0.00868  -0.00873  22.74357
   X380      52.98792  -0.00860   0.00000  -0.00582  -0.00584  52.98208
   Y380      33.76941   0.02115   0.00000   0.01539   0.01577  33.78518
   Z380      45.58019  -0.00167   0.00000   0.00195   0.00278  45.58297
   X381      54.44301   0.00957   0.00000   0.00203   0.00208  54.44509
   Y381      32.74895  -0.01063   0.00000  -0.00636  -0.00590  32.74305
   Z381      45.29674  -0.00173   0.00000  -0.00198  -0.00108  45.29566
   X382      51.96747  -0.00774   0.00000  -0.00808  -0.00812  51.95934
   Y382      32.78675  -0.01080   0.00000  -0.01067  -0.01037  32.77638
   Z382      46.71403   0.00377   0.00000  -0.00179  -0.00104  46.71299
   X383      30.76474   0.00478   0.00000   0.00668   0.00814  30.77288
   Y383      20.78699  -0.00319   0.00000  -0.00084  -0.00146  20.78553
   Z383      32.76785  -0.01131   0.00000  -0.00511  -0.00584  32.76201
   X384      30.68915  -0.00034   0.00000  -0.00131   0.00006  30.68922
   Y384      22.60112   0.00511   0.00000   0.00432   0.00369  22.60482
   Z384      32.69226   0.00139   0.00000   0.00185   0.00113  32.69339
   X385      30.89702  -0.00084   0.00000  -0.00322  -0.00185  30.89517
   Y385      20.40904   0.00130   0.00000   0.00407   0.00343  20.41247
   Z385      34.52530   0.01220   0.00000   0.00952   0.00878  34.53408
         Item               Value     Threshold  Converged?
 Maximum Force            0.037439     0.000450     NO 
 RMS     Force            0.010309     0.000300     NO 
 Maximum Displacement     0.028824     0.001800     NO 
 RMS     Displacement     0.008807     0.001200     NO 
 Predicted change in Energy=-7.228998D-02
 GradGradGradGradGradGradGradGradGradGradGradGradGradGradGradGradGradGrad

 Leave Link  103 at Mon May 14 18:35:36 2018, MaxMem= 14763950080 cpu:      3318.8
 (Enter /cm/shared/gaussian/g09.e01/intel64-sandybridge/g09/l9999.exe)
 1\1\GINC-POPLE01\Force\RPBE1PBE\CC-pVDZ\Br1H256O128(1-)\M.PELUSO\14-Ma
 y-2018\0\\#p PBE1PBE/cc-pvDZ force Counterpoise=2 noSymm\\forces on ch
 loride comput - NWATER: 128\\-1,1\Br,20.,20.,20.\O,17.15,21.36,19.38\H
 ,17.9,20.76,19.36\H,16.53,20.94,19.97\O,18.04,17.37,19.42\H,18.58,18.1
 6,19.48\H,17.17,17.7,19.17\O,20.76,19.24,16.88\H,20.26,19.45,17.67\H,2
 0.4,18.42,16.57\O,22.64,21.68,21.17\H,21.77,21.32,20.99\H,22.7,21.71,2
 2.13\O,18.95,18.32,22.8\H,19.28,18.96,23.42\H,19.19,18.67,21.94\O,22.9
 9,19.75,18.55\H,22.37,19.78,19.27\H,22.45,19.72,17.76\O,22.22,17.45,20
 .6\H,21.67,18.13,20.23\H,22.91,17.92,21.06\O,18.42,22.28,22.31\H,18.79
 ,21.64,21.7\H,17.93,21.75,22.95\O,18.7,23.28,18.16\H,18.35,22.42,18.39
 \H,19.63,23.23,18.4\O,18.02,24.52,20.46\H,17.7,24.29,19.59\H,18.21,23.
 67,20.87\O,23.54,22.2,17.72\H,24.41,22.55,17.91\H,23.52,21.35,18.17\O,
 23.87,19.05,22.13\H,24.7,18.96,22.59\H,23.51,19.88,22.45\O,17.04,16.39
 ,22.68\H,16.98,16.47,23.63\H,17.73,17.01,22.43\O,23.83,16.49,18.48\H,2
 3.39,16.66,17.65\H,23.37,17.05,19.11\O,22.98,24.34,20.69\H,23.88,24.52
 ,20.39\H,22.96,23.39,20.8\O,19.75,20.24,24.57\H,20.05,21.15,24.52\H,20
 .38,19.81,25.15\O,21.46,24.11,18.2\H,21.84,24.29,19.06\H,22.06,23.5,17
 .79\O,18.18,15.09,17.91\H,17.39,14.69,18.28\H,18.35,15.85,18.48\O,15.2
 3,20.28,20.7\H,14.48,20.52,21.25\H,15.11,19.35,20.53\O,25.64,19.41,19.
 1\H,26.1,19.52,18.26\H,24.71,19.4,18.85\O,15.25,21.82,17.53\H,14.46,21
 .37,17.81\H,15.8,21.85,18.31\O,17.14,20.48,24.64\H,17.15,21.18,25.29\H
 ,18.06,20.28,24.49\O,22.61,16.19,23.44\H,22.75,16.96,23.99\H,22.54,16.
 53,22.55\O,21.48,16.3,16.56\H,21.67,16.35,15.62\H,20.52,16.36,16.61\O,
 22.63,14.74,20.77\H,23.54,14.68,20.48\H,22.41,15.67,20.7\O,22.84,21.47
 ,23.89\H,22.2,22.03,24.33\H,23.34,21.07,24.6\O,19.84,17.12,25.19\H,20.
 47,17.75,25.54\H,19.85,17.28,24.24\O,21.6,19.89,14.21\H,22.52,19.61,14
 .19\H,21.39,19.96,15.14\O,25.69,21.53,20.92\H,24.74,21.44,21.03\H,25.9
 7,20.68,20.58\O,18.9,23.48,15.2\H,19.77,23.78,14.93\H,19.01,23.24,16.1
 2\O,19.03,16.88,15.67\H,18.89,16.15,15.06\H,18.14,17.15,15.92\O,15.09,
 17.66,18.72\H,14.14,17.73,18.69\H,15.26,17.03,19.43\O,20.16,14.09,20.1
 \H,19.97,14.45,19.24\H,21.08,14.32,20.26\O,23.07,22.93,15.01\H,22.41,2
 3.62,15.01\H,22.93,22.46,15.83\O,17.69,25.14,23.13\H,17.9,24.89,22.23\
 H,17.,24.53,23.4\O,21.16,22.92,25.15\H,20.64,23.7,24.93\H,21.01,22.8,2
 6.09\O,25.75,17.14,20.66\H,25.82,18.06,20.39\H,25.11,16.77,20.06\O,16.
 43,22.12,15.03\H,16.07,22.12,15.92\H,17.16,22.74,15.07\O,14.8,19.08,24
 .58\H,15.,18.41,25.23\H,15.64,19.5,24.39\O,21.27,26.89,18.9\H,21.07,26
 .02,18.57\H,21.06,26.85,19.83\O,15.71,17.66,15.74\H,15.36,17.44,16.6\H
 ,15.01,18.17,15.32\O,17.59,13.76,21.45\H,18.41,13.75,20.96\H,17.69,14.
 49,22.06\O,17.27,19.53,13.9\H,16.9,18.96,14.57\H,17.02,20.41,14.18\O,1
 4.96,15.69,20.92\H,14.23,16.26,21.15\H,15.56,15.75,21.66\O,23.44,18.09
 ,25.04\H,23.77,18.98,25.09\H,22.8,18.02,25.75\O,20.32,25.38,24.34\H,20
 .49,26.3,24.12\H,19.55,25.15,23.8\O,20.26,13.15,22.72\H,20.03,12.37,22
 .21\H,20.16,13.88,22.11\O,23.86,18.71,14.89\H,24.71,18.84,15.31\H,23.7
 7,17.76,14.82\O,19.52,27.38,20.77\H,19.21,26.53,20.47\H,18.83,27.7,21.
 35\O,21.03,19.13,26.46\H,20.28,19.44,26.96\H,21.76,19.13,27.08\O,15.73
 ,14.4,18.68\H,14.98,13.83,18.82\H,15.95,14.73,19.55\O,17.24,16.4,25.44
 \H,16.99,16.03,26.29\H,18.19,16.53,25.5\O,20.78,17.87,12.54\H,20.81,18
 .38,13.35\H,21.61,17.4,12.53\O,26.43,22.65,23.18\H,26.16,22.16,22.41\H
 ,26.78,21.99,23.78\O,23.47,26.74,22.4\H,23.09,25.89,22.19\H,24.16,26.8
 6,21.74\O,26.52,22.6,18.32\H,26.68,22.28,19.21\H,26.42,21.81,17.79\O,1
 3.24,18.04,22.31\H,12.5,17.71,22.82\H,13.76,18.55,22.94\O,23.9,24.06,2
 5.43\H,23.44,23.24,25.23\H,24.13,24.41,24.57\O,25.38,14.32,19.09\H,24.
 84,15.03,18.75\H,26.16,14.31,18.53\O,26.36,20.23,16.62\H,26.25,19.28,1
 6.58\H,27.01,20.42,15.95\O,17.3,22.49,26.23\H,16.83,23.04,26.86\H,18.2
 3,22.62,26.43\O,25.26,24.86,19.61\H,25.61,24.66,18.73\H,26.04,25.06,20
 .13\O,13.24,21.46,22.19\H,13.28,21.6,23.13\H,13.2,22.35,21.82\O,24.84,
 20.55,25.42\H,24.81,20.82,26.34\H,25.78,20.51,25.22\O,22.57,13.64,24.5
 5\H,22.48,14.5,24.12\H,22.04,13.05,24.02\O,26.07,17.45,16.56\H,25.61,1
 6.63,16.75\H,26.89,17.39,17.05\O,13.6,24.19,21.09\H,14.21,24.14,21.82\
 H,13.35,25.11,21.05\O,21.23,24.83,14.52\H,21.42,25.75,14.69\H,21.17,24
 .77,13.56\O,22.4,16.15,14.09\H,22.11,15.25,13.91\H,23.14,16.28,13.49\O
 ,24.23,21.36,13.21\H,24.04,20.45,13.45\H,24.02,21.87,13.99\O,18.06,26.
 9,17.01\H,18.04,27.74,16.56\H,18.69,27.01,17.72\O,17.38,25.64,14.36\H,
 17.57,24.93,13.74\H,17.8,25.36,15.17\O,25.57,23.48,14.88\H,25.94,22.72
 ,15.34\H,24.62,23.38,14.97\O,13.78,23.96,16.06\H,14.01,23.1,16.4\H,12.
 95,23.83,15.61\O,21.72,22.03,12.11\H,22.66,21.93,12.27\H,21.33,21.28,1
 2.56\O,24.18,14.34,15.73\H,23.25,14.56,15.66\H,24.57,14.7,14.93\O,26.5
 9,15.35,22.52\H,25.97,15.34,23.25\H,26.3,16.07,21.97\O,19.36,12.24,16.
 87\H,18.72,11.66,17.29\H,19.77,12.69,17.6\O,15.66,14.79,15.31\H,15.67,
 15.74,15.26\H,15.95,14.59,16.2\O,14.9,24.19,24.04\H,14.39,23.52,24.5\H
 ,15.42,24.6,24.73\O,15.41,26.45,17.39\H,15.26,25.55,17.1\H,16.35,26.58
 ,17.29\O,12.37,18.02,19.34\H,11.63,17.92,18.74\H,12.06,18.64,20.\O,18.
 71,19.44,11.6\H,18.14,19.77,12.3\H,19.38,18.94,12.06\O,12.07,22.8,19.3
 \H,12.77,23.24,19.78\H,11.51,22.43,19.98\O,25.49,15.56,25.\H,24.75,16.
 17,25.07\H,25.16,14.75,25.38\O,15.41,13.02,22.49\H,16.27,13.45,22.52\H
 ,15.06,13.25,21.63\O,18.69,19.21,27.81\H,17.86,18.82,27.57\H,18.88,18.
 86,28.68\O,18.09,27.42,24.38\H,17.23,27.78,24.62\H,17.89,26.53,24.06\O
 ,13.33,21.7,25.05\H,13.77,20.87,24.91\H,12.64,21.5,25.68\O,12.51,20.87
 ,17.2\H,11.79,20.64,16.61\H,12.1,20.95,18.06\O,19.82,22.73,27.61\H,20.
 47,23.43,27.63\H,20.04,22.16,28.34\O,28.2,18.06,18.37\H,28.93,18.61,18
 .06\H,27.91,18.48,19.18\O,18.68,15.23,13.52\H,18.74,14.28,13.54\H,19.1
 2,15.48,12.71\O,14.24,21.5,13.21\H,14.89,21.73,13.87\H,14.7,21.64,12.3
 8\O,13.58,19.31,14.77\H,13.12,19.72,15.5\H,13.71,20.02,14.14\O,19.15,1
 2.86,25.18\H,19.51,13.73,25.31\H,19.48,12.59,24.32\O,28.27,19.19,21.57
 \H,29.15,19.21,21.96\H,27.85,18.43,21.98\O,11.24,19.76,21.06\H,11.42,1
 8.93,21.52\H,11.79,20.4,21.5\O,25.79,18.04,26.99\H,25.37,18.49,26.25\H
 ,26.01,18.75,27.6\O,28.52,21.1,19.75\H,28.38,20.34,20.32\H,28.81,20.73
 ,18.92\O,16.45,16.63,12.78\H,16.76,17.53,12.65\H,17.25,16.11,12.8\O,22
 .74,28.17,17.02\H,23.43,27.52,16.87\H,22.23,27.81,17.75\O,21.51,27.95,
 23.95\H,21.96,27.55,23.2\H,22.19,28.47,24.38\O,21.41,24.76,27.45\H,21.
 94,24.97,28.22\H,22.05,24.66,26.74\O,21.,14.28,26.8\H,21.14,15.2,27.02
 \H,21.47,14.16,25.97\O,19.64,29.37,18.85\H,19.34,30.09,19.4\H,19.53,28
 .59,19.39\O,27.43,20.69,24.71\H,28.07,20.78,25.42\H,27.59,19.81,24.37\
 O,25.28,27.95,19.59\H,25.2,27.09,19.18\H,24.45,28.38,19.41\O,17.49,12.
 7,14.4\H,17.96,12.81,15.23\H,16.7,13.24,14.5\O,22.52,18.57,28.44\H,22.
 68,18.66,29.38\H,22.91,17.72,28.21\O,27.11,25.16,23.84\H,26.98,24.21,2
 3.77\H,27.25,25.45,22.94\O,28.54,15.43,20.12\H,28.52,16.17,19.52\H,27.
 78,15.56,20.69\O,14.56,21.33,28.08\H,14.88,22.18,28.37\H,15.32,20.91,2
 7.67\O,20.91,24.57,11.84\H,21.2,23.66,11.81\H,21.38,24.99,11.12\O,14.9
 4,17.54,27.09\H,14.02,17.45,26.84\H,15.28,16.65,27.07\O,18.99,26.75,26
 .87\H,18.52,26.92,26.05\H,19.71,26.17,26.62\O,19.46,16.09,11.\H,19.19,
 16.58,10.22\H,19.98,16.71,11.51\O,29.16,22.96,21.92\H,29.08,22.43,21.1
 2\H,28.26,23.21,22.12\O,19.62,10.91,20.88\H,19.5,10.67,19.96\H,18.85,1
 0.55,21.32\O,12.08,16.9,15.13\H,11.63,16.88,14.29\H,12.67,17.66,15.06\
 O,28.53,24.58,18.22\H,28.13,25.4,17.94\H,27.98,23.9,17.82\O,12.15,25.2
 2,18.18\H,12.8,25.1,17.48\H,11.97,24.33,18.49\O,26.54,12.88,21.11\H,26
 .78,13.68,21.58\H,26.16,13.2,20.28\O,21.73,13.43,13.81\H,21.46,12.55,1
 4.1\H,21.31,13.54,12.96\O,23.62,11.,19.89\H,23.77,11.39,19.03\H,23.9,1
 1.67,20.51\O,18.07,24.43,11.63\H,18.1,25.03,10.88\H,18.93,24.52,12.04\
 O,28.04,17.87,24.12\H,28.81,17.33,23.97\H,27.5,17.35,24.72\O,16.28,11.
 ,17.34\H,16.24,11.96,17.3\H,16.35,10.8,18.27\\Version=ES64L-G09RevE.01
 \HF=-9773.4147822\RMSD=1.333e-09\RMSF=1.031e-02\Dipole=4.8715623,-0.26
 27089,14.5225622\Quadrupole=-56.5371465,-733.8746674,790.4118139,-1286
 .3794319,-814.0045314,-822.9874776\PG=C01 [X(Br1H256O128)]\\@


 ...THOSE SCIENCES ARE VAIN AND FULL OF ERRORS WHICH 
 ARE NOT BORN FROM EXPERIMENT, THE MOTHER OF CERTAINTY...

                          -- LEONARDO DA VINCI, 1452-1519
 Job cpu time:       9 days 22 hours 21 minutes 27.3 seconds.
 File lengths (MBytes):  RWF=   7285 Int=      0 D2E=      0 Chk=   2411 Scr=      1
 Normal termination of Gaussian 09 at Mon May 14 18:35:59 2018.
