 Entering Gaussian System, Link 0=/cm/shared/gaussian/g09.e01/intel64-sandybridge/g09/g09
 Initial command:
 /cm/shared/gaussian/g09.e01/intel64-sandybridge/g09/l1.exe "/local/scratch/m.peluso/128_wat/Gau-8828.inp" -scrdir="/local/scratch/m.peluso/128_wat/"
 Entering Link 1 = /cm/shared/gaussian/g09.e01/intel64-sandybridge/g09/l1.exe PID=      8829.
  
 Copyright (c) 1988,1990,1992,1993,1995,1998,2003,2009,2015,
            Gaussian, Inc.  All Rights Reserved.
  
 This is part of the Gaussian(R) 09 program.  It is based on
 the Gaussian(R) 03 system (copyright 2003, Gaussian, Inc.),
 the Gaussian(R) 98 system (copyright 1998, Gaussian, Inc.),
 the Gaussian(R) 94 system (copyright 1995, Gaussian, Inc.),
 the Gaussian 92(TM) system (copyright 1992, Gaussian, Inc.),
 the Gaussian 90(TM) system (copyright 1990, Gaussian, Inc.),
 the Gaussian 88(TM) system (copyright 1988, Gaussian, Inc.),
 the Gaussian 86(TM) system (copyright 1986, Carnegie Mellon
 University), and the Gaussian 82(TM) system (copyright 1983,
 Carnegie Mellon University). Gaussian is a federally registered
 trademark of Gaussian, Inc.
  
 This software contains proprietary and confidential information,
 including trade secrets, belonging to Gaussian, Inc.
  
 This software is provided under written license and may be
 used, copied, transmitted, or stored only in accord with that
 written license.
  
 The following legend is applicable only to US Government
 contracts under FAR:
  
                    RESTRICTED RIGHTS LEGEND
  
 Use, reproduction and disclosure by the US Government is
 subject to restrictions as set forth in subparagraphs (a)
 and (c) of the Commercial Computer Software - Restricted
 Rights clause in FAR 52.227-19.
  
 Gaussian, Inc.
 340 Quinnipiac St., Bldg. 40, Wallingford CT 06492
  
  
 ---------------------------------------------------------------
 Warning -- This program may not be used in any manner that
 competes with the business of Gaussian, Inc. or will provide
 assistance to any competitor of Gaussian, Inc.  The licensee
 of this program is prohibited from giving any competitor of
 Gaussian, Inc. access to this program.  By using this program,
 the user acknowledges that Gaussian, Inc. is engaged in the
 business of creating and licensing software in the field of
 computational chemistry and represents and warrants to the
 licensee that it is not a competitor of Gaussian, Inc. and that
 it will not use this program in any manner prohibited above.
 ---------------------------------------------------------------
  

 Cite this work as:
 Gaussian 09, Revision E.01,
 M. J. Frisch, G. W. Trucks, H. B. Schlegel, G. E. Scuseria, 
 M. A. Robb, J. R. Cheeseman, G. Scalmani, V. Barone, B. Mennucci, 
 G. A. Petersson, H. Nakatsuji, M. Caricato, X. Li, H. P. Hratchian, 
 A. F. Izmaylov, J. Bloino, G. Zheng, J. L. Sonnenberg, M. Hada, 
 M. Ehara, K. Toyota, R. Fukuda, J. Hasegawa, M. Ishida, T. Nakajima, 
 Y. Honda, O. Kitao, H. Nakai, T. Vreven, J. A. Montgomery, Jr., 
 J. E. Peralta, F. Ogliaro, M. Bearpark, J. J. Heyd, E. Brothers, 
 K. N. Kudin, V. N. Staroverov, T. Keith, R. Kobayashi, J. Normand, 
 K. Raghavachari, A. Rendell, J. C. Burant, S. S. Iyengar, J. Tomasi, 
 M. Cossi, N. Rega, J. M. Millam, M. Klene, J. E. Knox, J. B. Cross, 
 V. Bakken, C. Adamo, J. Jaramillo, R. Gomperts, R. E. Stratmann, 
 O. Yazyev, A. J. Austin, R. Cammi, C. Pomelli, J. W. Ochterski, 
 R. L. Martin, K. Morokuma, V. G. Zakrzewski, G. A. Voth, 
 P. Salvador, J. J. Dannenberg, S. Dapprich, A. D. Daniels, 
 O. Farkas, J. B. Foresman, J. V. Ortiz, J. Cioslowski, 
 and D. J. Fox, Gaussian, Inc., Wallingford CT, 2013.
 
 ******************************************
 Gaussian 09:  ES64L-G09RevE.01 30-Nov-2015
                17-May-2018 
 ******************************************
 %Mem=110GB
 %NProcShared=64
 Will use up to   64 processors via shared memory.
 %chk=snap54.chk
 ----------------------------------------------
 #p PBE1PBE/cc-pvDZ force Counterpoise=2 noSymm
 ----------------------------------------------
 1/10=7,30=1,38=1,62=2/1,3;
 2/12=2,15=1,17=6,18=5,40=1/2;
 1/10=7,30=1,38=1,53=2,62=2,63=101/22;
 3/5=16,11=2,16=1,25=1,30=1,71=1,74=-13/1,2,3;
 4//1;
 5/5=2,38=5/2;
 6/7=2,8=2,9=2,10=2,28=1/1;
 7/7=1,29=1,30=1,33=-1/1,2,3,16;
 1/10=7,30=1,53=2,62=2,63=101/22;
 3/5=7,6=11,11=2,16=1,25=1,30=1,71=1,74=-13,82=7/1,2,3;
 4//1;
 5/5=2,38=5/2;
 6/7=2,8=2,9=2,10=2,28=1/1;
 7/7=1,29=1,30=1,33=-1/1,2,3,16;
 1/10=7,30=1,53=2,62=2,63=101/22(-5);
 7/9=1,29=1,44=-1/16;
 1/10=7,30=1,62=2/3;
 99//99;
 Leave Link    1 at Thu May 17 15:05:56 2018, MaxMem= 14763950080 cpu:         7.4
 (Enter /cm/shared/gaussian/g09.e01/intel64-sandybridge/g09/l101.exe)
 ---------------------------------------
 forces on chloride comput - NWATER: 128
 ---------------------------------------
 Symbolic Z-matrix:
 Charge = -1 Multiplicity = 1 in supermolecule
 Charge = -1 Multiplicity = 1 in fragment      1.
 Charge =  0 Multiplicity = 1 in fragment      2.
 Br(Fragment=1)        20.       20.       20. 
 O(Fragment=2)         21.36     22.89     19.67 
 H(Fragment=2)         22.12     22.81     19.09 
 H(Fragment=2)         20.97     22.02     19.67 
 O(Fragment=2)         18.65     17.81     21.98 
 H(Fragment=2)         18.21     18.3      22.68 
 H(Fragment=2)         18.88     18.47     21.33 
 O(Fragment=2)         22.96     20.36     21.39 
 H(Fragment=2)         22.91     19.9      22.22 
 H(Fragment=2)         22.08     20.28     21.02 
 O(Fragment=2)         17.61     18.29     18.51 
 H(Fragment=2)         16.9      18.07     19.12 
 H(Fragment=2)         18.2      18.84     19.02 
 O(Fragment=2)         22.06     17.43     19.45 
 H(Fragment=2)         21.68     17.03     18.66 
 H(Fragment=2)         21.58     18.25     19.55 
 O(Fragment=2)         17.21     21.84     19.42 
 H(Fragment=2)         16.72     21.7      20.23 
 H(Fragment=2)         18.04     21.37     19.55 
 O(Fragment=2)         18.15     21.36     22.58 
 H(Fragment=2)         18.21     20.63     23.2 
 H(Fragment=2)         18.94     21.29     22.04 
 O(Fragment=2)         19.29     20.       16.49 
 H(Fragment=2)         18.62     19.38     16.78 
 H(Fragment=2)         19.79     20.2      17.28 
 O(Fragment=2)         21.48     22.29     22.66 
 H(Fragment=2)         22.31     21.93     22.36 
 H(Fragment=2)         21.04     22.59     21.86 
 O(Fragment=2)         20.98     17.28     23.38 
 H(Fragment=2)         20.72     17.71     24.19 
 H(Fragment=2)         20.19     17.3      22.84 
 O(Fragment=2)         19.53     23.85     17.54 
 H(Fragment=2)         19.17     24.64     17.93 
 H(Fragment=2)         20.24     23.6      18.12 
 O(Fragment=2)         16.52     20.16     16.8 
 H(Fragment=2)         16.8      19.58     17.51 
 H(Fragment=2)         15.89     20.76     17.21 
 O(Fragment=2)         15.82     18.37     20.52 
 H(Fragment=2)         15.11     18.03     21.07 
 H(Fragment=2)         15.88     19.3      20.73 
 O(Fragment=2)         23.74     21.43     16.83 
 H(Fragment=2)         23.18     21.87     16.19 
 H(Fragment=2)         23.21     20.7      17.16 
 O(Fragment=2)         15.66     20.69     21.94 
 H(Fragment=2)         16.47     20.82     22.43 
 H(Fragment=2)         15.15     20.09     22.49 
 O(Fragment=2)         18.42     16.29     16.61 
 H(Fragment=2)         17.7      15.68     16.76 
 H(Fragment=2)         18.32     16.96     17.3 
 O(Fragment=2)         19.76     14.64     21.46 
 H(Fragment=2)         20.71     14.67     21.6 
 H(Fragment=2)         19.5      15.56     21.36 
 O(Fragment=2)         23.47     18.89     23.53 
 H(Fragment=2)         22.8      18.22     23.38 
 H(Fragment=2)         24.29     18.39     23.59 
 O(Fragment=2)         25.57     20.95     20.21 
 H(Fragment=2)         24.79     20.47     20.48 
 H(Fragment=2)         25.24     21.78     19.85 
 O(Fragment=2)         17.94     19.32     24.36 
 H(Fragment=2)         18.49     18.74     24.88 
 H(Fragment=2)         17.3      19.66     24.98 
 O(Fragment=2)         16.39     15.84     21.48 
 H(Fragment=2)         16.46     15.35     20.66 
 H(Fragment=2)         16.6      16.74     21.25 
 O(Fragment=2)         20.85     25.85     19.48 
 H(Fragment=2)         19.93     26.11     19.4 
 H(Fragment=2)         20.82     24.92     19.69 
 O(Fragment=2)         20.24     22.73     25.14 
 H(Fragment=2)         20.7      21.94     25.4 
 H(Fragment=2)         20.28     22.74     24.18 
 O(Fragment=2)         17.74     22.22     15.31 
 H(Fragment=2)         17.32     21.51     15.8 
 H(Fragment=2)         18.68     22.05     15.42 
 O(Fragment=2)         19.66     20.5      13.91 
 H(Fragment=2)         19.47     20.25     14.82 
 H(Fragment=2)         18.91     20.18     13.41 
 O(Fragment=2)         15.21     23.63     18.52 
 H(Fragment=2)         15.73     22.9      18.85 
 H(Fragment=2)         15.76     24.04     17.86 
 O(Fragment=2)         25.47     17.51     19.82 
 H(Fragment=2)         25.66     18.38     19.47 
 H(Fragment=2)         24.59     17.31     19.51 
 O(Fragment=2)         17.24     24.97     22.46 
 H(Fragment=2)         17.93     25.62     22.57 
 H(Fragment=2)         17.36     24.66     21.56 
 O(Fragment=2)         22.15     24.87     23.62 
 H(Fragment=2)         22.       23.96     23.39 
 H(Fragment=2)         23.05     25.04     23.33 
 O(Fragment=2)         21.78     21.86     15.01 
 H(Fragment=2)         21.67     22.58     14.39 
 H(Fragment=2)         21.3      21.14     14.62 
 O(Fragment=2)         20.07     16.54     14.62 
 H(Fragment=2)         19.55     16.73     15.4 
 H(Fragment=2)         20.98     16.68     14.9 
 O(Fragment=2)         25.23     21.44     23.6 
 H(Fragment=2)         24.69     20.77     23.17 
 H(Fragment=2)         25.18     21.22     24.53 
 O(Fragment=2)         17.93     15.95     24.03 
 H(Fragment=2)         17.7      16.84     24.29 
 H(Fragment=2)         17.58     15.87     23.14 
 O(Fragment=2)         22.12     20.25     25.62 
 H(Fragment=2)         21.98     19.61     26.31 
 H(Fragment=2)         22.77     19.84     25.04 
 O(Fragment=2)         25.38     22.92     18.4 
 H(Fragment=2)         24.77     22.46     17.81 
 H(Fragment=2)         26.08     23.23     17.83 
 O(Fragment=2)         13.8      18.25     18.04 
 H(Fragment=2)         13.78     19.16     17.75 
 H(Fragment=2)         14.61     18.18     18.54 
 O(Fragment=2)         25.27     18.95     17.46 
 H(Fragment=2)         25.53     18.03     17.52 
 H(Fragment=2)         25.22     19.13     16.53 
 O(Fragment=2)         22.57     15.4      24.44 
 H(Fragment=2)         22.41     16.08     23.78 
 H(Fragment=2)         21.72     15.29     24.87 
 O(Fragment=2)         25.47     16.96     22.68 
 H(Fragment=2)         25.18     17.47     21.92 
 H(Fragment=2)         25.8      16.15     22.3 
 O(Fragment=2)         16.9      24.56     16.58 
 H(Fragment=2)         16.92     25.27     15.94 
 H(Fragment=2)         17.22     23.79     16.11 
 O(Fragment=2)         19.9      25.14     15.11 
 H(Fragment=2)         19.48     24.56     15.75 
 H(Fragment=2)         19.29     25.88     15.02 
 O(Fragment=2)         18.02     25.85     18.91 
 H(Fragment=2)         17.43     25.53     18.23 
 H(Fragment=2)         17.49     26.45     19.43 
 O(Fragment=2)         16.44     23.09     25.18 
 H(Fragment=2)         16.94     23.85     25.47 
 H(Fragment=2)         16.43     23.15     24.23 
 O(Fragment=2)         19.46     18.02     26.03 
 H(Fragment=2)         19.05     17.31     26.52 
 H(Fragment=2)         20.13     18.37     26.62 
 O(Fragment=2)         22.73     16.88     15.03 
 H(Fragment=2)         23.31     16.34     15.56 
 H(Fragment=2)         23.3      17.51     14.6 
 O(Fragment=2)         19.62     13.14     18.04 
 H(Fragment=2)         20.36     13.75     18.04 
 H(Fragment=2)         19.54     12.86     17.13 
 O(Fragment=2)         19.72     26.42     22.86 
 H(Fragment=2)         19.91     27.05     22.16 
 H(Fragment=2)         20.53     25.92     22.96 
 O(Fragment=2)         13.83     18.25     22.24 
 H(Fragment=2)         13.06     18.44     21.71 
 H(Fragment=2)         13.75     18.84     22.99 
 O(Fragment=2)         18.46     12.68     20.34 
 H(Fragment=2)         18.83     12.78     19.46 
 H(Fragment=2)         18.93     13.32     20.88 
 O(Fragment=2)         15.3      20.31     14.03 
 H(Fragment=2)         15.42     21.2      13.69 
 H(Fragment=2)         15.37     20.41     14.98 
 O(Fragment=2)         13.73     21.22     17.41 
 H(Fragment=2)         13.28     21.65     16.68 
 H(Fragment=2)         13.26     21.51     18.19 
 O(Fragment=2)         27.4      20.84     22.06 
 H(Fragment=2)         26.88     21.16     22.8 
 H(Fragment=2)         26.79     20.83     21.32 
 O(Fragment=2)         25.33     23.97     22.55 
 H(Fragment=2)         25.39     23.17     23.08 
 H(Fragment=2)         25.99     24.56     22.93 
 O(Fragment=2)         25.72     25.       20.1 
 H(Fragment=2)         25.44     24.35     19.45 
 H(Fragment=2)         25.56     24.57     20.94 
 O(Fragment=2)         22.96     26.77     21.07 
 H(Fragment=2)         22.17     26.66     20.55 
 H(Fragment=2)         23.66     26.4      20.53 
 O(Fragment=2)         19.22     25.2      25.66 
 H(Fragment=2)         19.85     24.51     25.45 
 H(Fragment=2)         19.1      25.68     24.85 
 O(Fragment=2)         25.07     16.03     16.96 
 H(Fragment=2)         24.94     15.47     17.73 
 H(Fragment=2)         25.97     15.85     16.68 
 O(Fragment=2)         27.84     20.99     18.48 
 H(Fragment=2)         26.92     20.82     18.68 
 H(Fragment=2)         27.82     21.43     17.63 
 O(Fragment=2)         16.24     14.64     17.02 
 H(Fragment=2)         16.23     14.19     16.17 
 H(Fragment=2)         15.38     14.46     17.4 
 O(Fragment=2)         19.37     14.26     25.46 
 H(Fragment=2)         19.64     14.92     26.1 
 H(Fragment=2)         18.89     14.75     24.8 
 O(Fragment=2)         15.92     20.19     25.93 
 H(Fragment=2)         15.75     19.86     26.81 
 H(Fragment=2)         16.14     21.11     26.05 
 O(Fragment=2)         23.29     13.71     22.61 
 H(Fragment=2)         23.04     12.8      22.75 
 H(Fragment=2)         22.87     14.19     23.33 
 O(Fragment=2)         25.4      19.79     14.8 
 H(Fragment=2)         25.67     20.52     15.35 
 H(Fragment=2)         24.78     20.17     14.18 
 O(Fragment=2)         22.14     24.47     26.65 
 H(Fragment=2)         23.01     24.66     26.29 
 H(Fragment=2)         21.68     24.02     25.94 
 O(Fragment=2)         20.35     27.97     17.78 
 H(Fragment=2)         20.58     27.16     18.23 
 H(Fragment=2)         21.19     28.3      17.44 
 O(Fragment=2)         21.5      17.45     12.3 
 H(Fragment=2)         21.04     17.28     13.12 
 H(Fragment=2)         21.89     16.6      12.07 
 O(Fragment=2)         27.36     15.8      20.32 
 H(Fragment=2)         28.1      16.31     20.62 
 H(Fragment=2)         26.65     16.44     20.2 
 O(Fragment=2)         17.6      19.94     12.25 
 H(Fragment=2)         17.66     19.04     11.92 
 H(Fragment=2)         17.04     19.87     13.03 
 O(Fragment=2)         23.55     13.       18.75 
 H(Fragment=2)         23.08     12.21     19. 
 H(Fragment=2)         23.08     13.34     17.99 
 O(Fragment=2)         13.67     23.04     24.23 
 H(Fragment=2)         13.95     23.16     25.13 
 H(Fragment=2)         13.88     22.12     24.03 
 O(Fragment=2)         22.93     20.01     12.56 
 H(Fragment=2)         22.61     19.16     12.85 
 H(Fragment=2)         23.74     19.81     12.08 
 O(Fragment=2)         13.45     16.74     15.65 
 H(Fragment=2)         13.85     17.4      16.21 
 H(Fragment=2)         12.54     17.01     15.58 
 O(Fragment=2)         13.6      20.23     24.27 
 H(Fragment=2)         14.19     20.18     25.02 
 H(Fragment=2)         12.77     19.91     24.6 
 O(Fragment=2)         14.55     25.7      23.56 
 H(Fragment=2)         14.25     25.04     24.18 
 H(Fragment=2)         15.2      25.24     23.02 
 O(Fragment=2)         24.93     21.09     26.22 
 H(Fragment=2)         25.42     20.33     26.53 
 H(Fragment=2)         24.06     21.01     26.62 
 O(Fragment=2)         19.96     24.2      12.66 
 H(Fragment=2)         20.85     24.08     12.32 
 H(Fragment=2)         20.1      24.48     13.57 
 O(Fragment=2)         19.       11.99     23.41 
 H(Fragment=2)         18.6      12.26     24.24 
 H(Fragment=2)         19.42     12.78     23.08 
 O(Fragment=2)         21.67     18.49     27.56 
 H(Fragment=2)         21.5      18.68     28.49 
 H(Fragment=2)         22.6      18.26     27.53 
 O(Fragment=2)         13.32     16.04     23.53 
 H(Fragment=2)         13.42     16.67     22.81 
 H(Fragment=2)         13.84     16.41     24.24 
 O(Fragment=2)         12.56     24.04     18.76 
 H(Fragment=2)         13.43     24.1      18.38 
 H(Fragment=2)         12.72     23.92     19.7 
 O(Fragment=2)         17.98     21.48     27.86 
 H(Fragment=2)         18.74     22.       27.59 
 H(Fragment=2)         18.35     20.77     28.38 
 O(Fragment=2)         15.76     12.3      19.9 
 H(Fragment=2)         15.5      12.16     20.81 
 H(Fragment=2)         16.65     12.63     19.95 
 O(Fragment=2)         14.48     17.27     25.73 
 H(Fragment=2)         14.92     18.07     26.01 
 H(Fragment=2)         14.85     16.58     26.28 
 O(Fragment=2)         12.24     23.24     21.48 
 H(Fragment=2)         12.89     23.26     22.19 
 H(Fragment=2)         11.96     22.33     21.44 
 O(Fragment=2)         24.8      15.9      26.23 
 H(Fragment=2)         24.11     15.61     26.83 
 H(Fragment=2)         24.44     15.73     25.36 
 O(Fragment=2)         22.73     21.22     28.17 
 H(Fragment=2)         22.75     21.5      29.08 
 H(Fragment=2)         22.06     21.76     27.76 
 O(Fragment=2)         15.05     12.87     22.47 
 H(Fragment=2)         15.35     13.75     22.72 
 H(Fragment=2)         15.11     12.36     23.27 
 O(Fragment=2)         19.96     13.85     13.1 
 H(Fragment=2)         20.11     14.48     13.8 
 H(Fragment=2)         20.72     13.95     12.52 
 O(Fragment=2)         25.89     13.86     22.58 
 H(Fragment=2)         24.95     13.78     22.42 
 H(Fragment=2)         25.98     13.8      23.53 
 O(Fragment=2)         19.17     22.07     11.35 
 H(Fragment=2)         19.23     22.74     12.02 
 H(Fragment=2)         19.04     21.25     11.83 
 O(Fragment=2)         27.43     18.87     24.42 
 H(Fragment=2)         27.05     18.01     24.58 
 H(Fragment=2)         27.49     18.93     23.47 
 O(Fragment=2)         21.59     11.26     19.44 
 H(Fragment=2)         21.22     11.26     20.32 
 H(Fragment=2)         20.98     11.77     18.92 
 O(Fragment=2)         22.59     12.74     16.08 
 H(Fragment=2)         22.99     12.02     15.59 
 H(Fragment=2)         22.6      13.47     15.47 
 O(Fragment=2)         11.09     18.08     17.92 
 H(Fragment=2)         10.92     18.33     17.01 
 H(Fragment=2)         12.04     18.13     18.01 
 O(Fragment=2)         11.64     20.93     20.5 
 H(Fragment=2)         10.94     21.12     19.88 
 H(Fragment=2)         11.43     20.05     20.83 
 O(Fragment=2)         22.24     22.4      11.53 
 H(Fragment=2)         21.42     22.12     11.12 
 H(Fragment=2)         22.47     21.67     12.11 
 O(Fragment=2)         15.48     22.94     12.92 
 H(Fragment=2)         16.43     22.87     12.84 
 H(Fragment=2)         15.33     23.85     13.17 
 O(Fragment=2)         14.       26.84     17.62 
 H(Fragment=2)         13.11     26.69     17.93 
 H(Fragment=2)         14.55     26.33     18.22 
 O(Fragment=2)         14.       13.74     18.47 
 H(Fragment=2)         14.75     13.33     18.9 
 H(Fragment=2)         13.55     13.03     18.03 
 O(Fragment=2)         28.88     22.81     20.54 
 H(Fragment=2)         28.31     22.13     20.88 
 H(Fragment=2)         29.08     22.54     19.64 
 O(Fragment=2)         17.99     15.98     27.38 
 H(Fragment=2)         17.27     15.35     27.32 
 H(Fragment=2)         18.71     15.47     27.76 
 O(Fragment=2)         19.81     28.58     21.27 
 H(Fragment=2)         19.61     28.72     20.35 
 H(Fragment=2)         20.34     29.34     21.52 
 O(Fragment=2)         11.27     18.1      21.19 
 H(Fragment=2)         10.72     17.4      21.55 
 H(Fragment=2)         11.58     17.75     20.35 
 O(Fragment=2)         16.32     27.9      20.66 
 H(Fragment=2)         16.81     28.68     20.91 
 H(Fragment=2)         15.74     27.73     21.39 
 O(Fragment=2)         27.45     22.9      16.41 
 H(Fragment=2)         28.29     23.33     16.21 
 H(Fragment=2)         26.99     22.87     15.57 
 O(Fragment=2)         12.22     15.29     19.9 
 H(Fragment=2)         12.79     15.09     19.16 
 H(Fragment=2)         12.34     14.55     20.49 
 O(Fragment=2)         20.53     23.22     28.52 
 H(Fragment=2)         21.07     23.72     27.89 
 H(Fragment=2)         19.74     23.75     28.63 
 O(Fragment=2)         23.16     13.95     13.64 
 H(Fragment=2)         23.07     13.75     12.71 
 H(Fragment=2)         23.55     14.83     13.66 
 O(Fragment=2)         24.44     18.52     27.61 
 H(Fragment=2)         24.68     18.87     28.47 
 H(Fragment=2)         24.73     17.61     27.64 
 O(Fragment=2)         26.82     18.16     13.17 
 H(Fragment=2)         26.3      18.73     13.73 
 H(Fragment=2)         27.69     18.56     13.16 
 O(Fragment=2)         19.75     12.09     15.71 
 H(Fragment=2)         20.6      11.67     15.82 
 H(Fragment=2)         19.76     12.41     14.81 
 O(Fragment=2)         26.06     27.48     18.91 
 H(Fragment=2)         26.95     27.82     19.03 
 H(Fragment=2)         26.07     26.64     19.36 
 O(Fragment=2)         14.54     25.42     15.08 
 H(Fragment=2)         15.23     25.94     14.66 
 H(Fragment=2)         14.43     25.83     15.95 
 O(Fragment=2)         29.74     19.36     19.23 
 H(Fragment=2)         29.37     18.68     19.79 
 H(Fragment=2)         28.99     19.88     18.96 
 O(Fragment=2)         17.08     26.44     14.33 
 H(Fragment=2)         17.55     27.27     14.47 
 H(Fragment=2)         17.23     26.23     13.41 
 O(Fragment=2)         22.95     25.9      13.64 
 H(Fragment=2)         22.79     26.57     12.98 
 H(Fragment=2)         23.15     25.11     13.15 
 O(Fragment=2)         18.37     17.49     11.21 
 H(Fragment=2)         17.96     16.64     11.35 
 H(Fragment=2)         19.3      17.33     11.32 
 O(Fragment=2)         17.4      14.68     12.43 
 H(Fragment=2)         16.72     14.43     13.05 
 H(Fragment=2)         18.22     14.54     12.9 
 O(Fragment=2)         25.35     27.94     22.82 
 H(Fragment=2)         25.29     28.87     22.61 
 H(Fragment=2)         24.77     27.51     22.19 
 O(Fragment=2)         18.58     25.09     28.41 
 H(Fragment=2)         18.49     25.17     27.46 
 H(Fragment=2)         17.71     24.8      28.7 
 O(Fragment=2)         22.27     28.67     23.5 
 H(Fragment=2)         22.59     27.92     24. 
 H(Fragment=2)         22.7      28.6      22.65 
 O(Fragment=2)         21.3      28.42     14.86 
 H(Fragment=2)         22.13     28.89     14.93 
 H(Fragment=2)         21.55     27.5      14.77 
 O(Fragment=2)         24.6      23.64     12.11 
 H(Fragment=2)         24.71     23.83     11.18 
 H(Fragment=2)         23.97     22.92     12.14 
 O(Fragment=2)         15.12     22.1      28.49 
 H(Fragment=2)         15.14     21.26     28.94 
 H(Fragment=2)         16.02     22.22     28.17 
 O(Fragment=2)         15.99     18.18     28.37 
 H(Fragment=2)         15.27     17.69     28.76 
 H(Fragment=2)         16.74     17.59     28.45 
 O(Fragment=2)         20.04     11.95     26.48 
 H(Fragment=2)         19.23     11.52     26.2 
 H(Fragment=2)         20.06     12.77     26. 
 O(Fragment=2)         15.21     17.12     11.94 
 H(Fragment=2)         15.13     16.73     11.07 
 H(Fragment=2)         15.64     16.45     12.47 
 O(Fragment=2)         26.63     22.67     13.89 
 H(Fragment=2)         27.05     21.9      13.5 
 H(Fragment=2)         26.05     23.       13.2 
 
 NAtoms=    385 NQM=      385 NQMF=       0 NMMI=      0 NMMIF=      0
                NMic=       0 NMicF=      0.
                    Isotopes and Nuclear Properties:
 (Nuclear quadrupole moments (NQMom) in fm**2, nuclear magnetic moments (NMagM)
  in nuclear magnetons)

  Atom         1           2           3           4           5           6           7           8           9          10
 IAtWgt=          79          16           1           1          16           1           1          16           1           1
 AtmWgt=  78.9183361  15.9949146   1.0078250   1.0078250  15.9949146   1.0078250   1.0078250  15.9949146   1.0078250   1.0078250
 NucSpn=           3           0           1           1           0           1           1           0           1           1
 AtZEff=   0.0000000   0.0000000   0.0000000   0.0000000   0.0000000   0.0000000   0.0000000   0.0000000   0.0000000   0.0000000
 NQMom=   31.3000000   0.0000000   0.0000000   0.0000000   0.0000000   0.0000000   0.0000000   0.0000000   0.0000000   0.0000000
 NMagM=    2.1063990   0.0000000   2.7928460   2.7928460   0.0000000   2.7928460   2.7928460   0.0000000   2.7928460   2.7928460
 AtZNuc=  35.0000000   8.0000000   1.0000000   1.0000000   8.0000000   1.0000000   1.0000000   8.0000000   1.0000000   1.0000000

  Atom        11          12          13          14          15          16          17          18          19          20
 IAtWgt=          16           1           1          16           1           1          16           1           1          16
 AtmWgt=  15.9949146   1.0078250   1.0078250  15.9949146   1.0078250   1.0078250  15.9949146   1.0078250   1.0078250  15.9949146
 NucSpn=           0           1           1           0           1           1           0           1           1           0
 AtZEff=   0.0000000   0.0000000   0.0000000   0.0000000   0.0000000   0.0000000   0.0000000   0.0000000   0.0000000   0.0000000
 NQMom=    0.0000000   0.0000000   0.0000000   0.0000000   0.0000000   0.0000000   0.0000000   0.0000000   0.0000000   0.0000000
 NMagM=    0.0000000   2.7928460   2.7928460   0.0000000   2.7928460   2.7928460   0.0000000   2.7928460   2.7928460   0.0000000
 AtZNuc=   8.0000000   1.0000000   1.0000000   8.0000000   1.0000000   1.0000000   8.0000000   1.0000000   1.0000000   8.0000000

  Atom        21          22          23          24          25          26          27          28          29          30
 IAtWgt=           1           1          16           1           1          16           1           1          16           1
 AtmWgt=   1.0078250   1.0078250  15.9949146   1.0078250   1.0078250  15.9949146   1.0078250   1.0078250  15.9949146   1.0078250
 NucSpn=           1           1           0           1           1           0           1           1           0           1
 AtZEff=   0.0000000   0.0000000   0.0000000   0.0000000   0.0000000   0.0000000   0.0000000   0.0000000   0.0000000   0.0000000
 NQMom=    0.0000000   0.0000000   0.0000000   0.0000000   0.0000000   0.0000000   0.0000000   0.0000000   0.0000000   0.0000000
 NMagM=    2.7928460   2.7928460   0.0000000   2.7928460   2.7928460   0.0000000   2.7928460   2.7928460   0.0000000   2.7928460
 AtZNuc=   1.0000000   1.0000000   8.0000000   1.0000000   1.0000000   8.0000000   1.0000000   1.0000000   8.0000000   1.0000000

  Atom        31          32          33          34          35          36          37          38          39          40
 IAtWgt=           1          16           1           1          16           1           1          16           1           1
 AtmWgt=   1.0078250  15.9949146   1.0078250   1.0078250  15.9949146   1.0078250   1.0078250  15.9949146   1.0078250   1.0078250
 NucSpn=           1           0           1           1           0           1           1           0           1           1
 AtZEff=   0.0000000   0.0000000   0.0000000   0.0000000   0.0000000   0.0000000   0.0000000   0.0000000   0.0000000   0.0000000
 NQMom=    0.0000000   0.0000000   0.0000000   0.0000000   0.0000000   0.0000000   0.0000000   0.0000000   0.0000000   0.0000000
 NMagM=    2.7928460   0.0000000   2.7928460   2.7928460   0.0000000   2.7928460   2.7928460   0.0000000   2.7928460   2.7928460
 AtZNuc=   1.0000000   8.0000000   1.0000000   1.0000000   8.0000000   1.0000000   1.0000000   8.0000000   1.0000000   1.0000000

  Atom        41          42          43          44          45          46          47          48          49          50
 IAtWgt=          16           1           1          16           1           1          16           1           1          16
 AtmWgt=  15.9949146   1.0078250   1.0078250  15.9949146   1.0078250   1.0078250  15.9949146   1.0078250   1.0078250  15.9949146
 NucSpn=           0           1           1           0           1           1           0           1           1           0
 AtZEff=   0.0000000   0.0000000   0.0000000   0.0000000   0.0000000   0.0000000   0.0000000   0.0000000   0.0000000   0.0000000
 NQMom=    0.0000000   0.0000000   0.0000000   0.0000000   0.0000000   0.0000000   0.0000000   0.0000000   0.0000000   0.0000000
 NMagM=    0.0000000   2.7928460   2.7928460   0.0000000   2.7928460   2.7928460   0.0000000   2.7928460   2.7928460   0.0000000
 AtZNuc=   8.0000000   1.0000000   1.0000000   8.0000000   1.0000000   1.0000000   8.0000000   1.0000000   1.0000000   8.0000000

  Atom        51          52          53          54          55          56          57          58          59          60
 IAtWgt=           1           1          16           1           1          16           1           1          16           1
 AtmWgt=   1.0078250   1.0078250  15.9949146   1.0078250   1.0078250  15.9949146   1.0078250   1.0078250  15.9949146   1.0078250
 NucSpn=           1           1           0           1           1           0           1           1           0           1
 AtZEff=   0.0000000   0.0000000   0.0000000   0.0000000   0.0000000   0.0000000   0.0000000   0.0000000   0.0000000   0.0000000
 NQMom=    0.0000000   0.0000000   0.0000000   0.0000000   0.0000000   0.0000000   0.0000000   0.0000000   0.0000000   0.0000000
 NMagM=    2.7928460   2.7928460   0.0000000   2.7928460   2.7928460   0.0000000   2.7928460   2.7928460   0.0000000   2.7928460
 AtZNuc=   1.0000000   1.0000000   8.0000000   1.0000000   1.0000000   8.0000000   1.0000000   1.0000000   8.0000000   1.0000000

  Atom        61          62          63          64          65          66          67          68          69          70
 IAtWgt=           1          16           1           1          16           1           1          16           1           1
 AtmWgt=   1.0078250  15.9949146   1.0078250   1.0078250  15.9949146   1.0078250   1.0078250  15.9949146   1.0078250   1.0078250
 NucSpn=           1           0           1           1           0           1           1           0           1           1
 AtZEff=   0.0000000   0.0000000   0.0000000   0.0000000   0.0000000   0.0000000   0.0000000   0.0000000   0.0000000   0.0000000
 NQMom=    0.0000000   0.0000000   0.0000000   0.0000000   0.0000000   0.0000000   0.0000000   0.0000000   0.0000000   0.0000000
 NMagM=    2.7928460   0.0000000   2.7928460   2.7928460   0.0000000   2.7928460   2.7928460   0.0000000   2.7928460   2.7928460
 AtZNuc=   1.0000000   8.0000000   1.0000000   1.0000000   8.0000000   1.0000000   1.0000000   8.0000000   1.0000000   1.0000000

  Atom        71          72          73          74          75          76          77          78          79          80
 IAtWgt=          16           1           1          16           1           1          16           1           1          16
 AtmWgt=  15.9949146   1.0078250   1.0078250  15.9949146   1.0078250   1.0078250  15.9949146   1.0078250   1.0078250  15.9949146
 NucSpn=           0           1           1           0           1           1           0           1           1           0
 AtZEff=   0.0000000   0.0000000   0.0000000   0.0000000   0.0000000   0.0000000   0.0000000   0.0000000   0.0000000   0.0000000
 NQMom=    0.0000000   0.0000000   0.0000000   0.0000000   0.0000000   0.0000000   0.0000000   0.0000000   0.0000000   0.0000000
 NMagM=    0.0000000   2.7928460   2.7928460   0.0000000   2.7928460   2.7928460   0.0000000   2.7928460   2.7928460   0.0000000
 AtZNuc=   8.0000000   1.0000000   1.0000000   8.0000000   1.0000000   1.0000000   8.0000000   1.0000000   1.0000000   8.0000000

  Atom        81          82          83          84          85          86          87          88          89          90
 IAtWgt=           1           1          16           1           1          16           1           1          16           1
 AtmWgt=   1.0078250   1.0078250  15.9949146   1.0078250   1.0078250  15.9949146   1.0078250   1.0078250  15.9949146   1.0078250
 NucSpn=           1           1           0           1           1           0           1           1           0           1
 AtZEff=   0.0000000   0.0000000   0.0000000   0.0000000   0.0000000   0.0000000   0.0000000   0.0000000   0.0000000   0.0000000
 NQMom=    0.0000000   0.0000000   0.0000000   0.0000000   0.0000000   0.0000000   0.0000000   0.0000000   0.0000000   0.0000000
 NMagM=    2.7928460   2.7928460   0.0000000   2.7928460   2.7928460   0.0000000   2.7928460   2.7928460   0.0000000   2.7928460
 AtZNuc=   1.0000000   1.0000000   8.0000000   1.0000000   1.0000000   8.0000000   1.0000000   1.0000000   8.0000000   1.0000000

  Atom        91          92          93          94          95          96          97          98          99         100
 IAtWgt=           1          16           1           1          16           1           1          16           1           1
 AtmWgt=   1.0078250  15.9949146   1.0078250   1.0078250  15.9949146   1.0078250   1.0078250  15.9949146   1.0078250   1.0078250
 NucSpn=           1           0           1           1           0           1           1           0           1           1
 AtZEff=   0.0000000   0.0000000   0.0000000   0.0000000   0.0000000   0.0000000   0.0000000   0.0000000   0.0000000   0.0000000
 NQMom=    0.0000000   0.0000000   0.0000000   0.0000000   0.0000000   0.0000000   0.0000000   0.0000000   0.0000000   0.0000000
 NMagM=    2.7928460   0.0000000   2.7928460   2.7928460   0.0000000   2.7928460   2.7928460   0.0000000   2.7928460   2.7928460
 AtZNuc=   1.0000000   8.0000000   1.0000000   1.0000000   8.0000000   1.0000000   1.0000000   8.0000000   1.0000000   1.0000000

  Atom       101         102         103         104         105         106         107         108         109         110
 IAtWgt=          16           1           1          16           1           1          16           1           1          16
 AtmWgt=  15.9949146   1.0078250   1.0078250  15.9949146   1.0078250   1.0078250  15.9949146   1.0078250   1.0078250  15.9949146
 NucSpn=           0           1           1           0           1           1           0           1           1           0
 AtZEff=   0.0000000   0.0000000   0.0000000   0.0000000   0.0000000   0.0000000   0.0000000   0.0000000   0.0000000   0.0000000
 NQMom=    0.0000000   0.0000000   0.0000000   0.0000000   0.0000000   0.0000000   0.0000000   0.0000000   0.0000000   0.0000000
 NMagM=    0.0000000   2.7928460   2.7928460   0.0000000   2.7928460   2.7928460   0.0000000   2.7928460   2.7928460   0.0000000
 AtZNuc=   8.0000000   1.0000000   1.0000000   8.0000000   1.0000000   1.0000000   8.0000000   1.0000000   1.0000000   8.0000000

  Atom       111         112         113         114         115         116         117         118         119         120
 IAtWgt=           1           1          16           1           1          16           1           1          16           1
 AtmWgt=   1.0078250   1.0078250  15.9949146   1.0078250   1.0078250  15.9949146   1.0078250   1.0078250  15.9949146   1.0078250
 NucSpn=           1           1           0           1           1           0           1           1           0           1
 AtZEff=   0.0000000   0.0000000   0.0000000   0.0000000   0.0000000   0.0000000   0.0000000   0.0000000   0.0000000   0.0000000
 NQMom=    0.0000000   0.0000000   0.0000000   0.0000000   0.0000000   0.0000000   0.0000000   0.0000000   0.0000000   0.0000000
 NMagM=    2.7928460   2.7928460   0.0000000   2.7928460   2.7928460   0.0000000   2.7928460   2.7928460   0.0000000   2.7928460
 AtZNuc=   1.0000000   1.0000000   8.0000000   1.0000000   1.0000000   8.0000000   1.0000000   1.0000000   8.0000000   1.0000000

  Atom       121         122         123         124         125         126         127         128         129         130
 IAtWgt=           1          16           1           1          16           1           1          16           1           1
 AtmWgt=   1.0078250  15.9949146   1.0078250   1.0078250  15.9949146   1.0078250   1.0078250  15.9949146   1.0078250   1.0078250
 NucSpn=           1           0           1           1           0           1           1           0           1           1
 AtZEff=   0.0000000   0.0000000   0.0000000   0.0000000   0.0000000   0.0000000   0.0000000   0.0000000   0.0000000   0.0000000
 NQMom=    0.0000000   0.0000000   0.0000000   0.0000000   0.0000000   0.0000000   0.0000000   0.0000000   0.0000000   0.0000000
 NMagM=    2.7928460   0.0000000   2.7928460   2.7928460   0.0000000   2.7928460   2.7928460   0.0000000   2.7928460   2.7928460
 AtZNuc=   1.0000000   8.0000000   1.0000000   1.0000000   8.0000000   1.0000000   1.0000000   8.0000000   1.0000000   1.0000000

  Atom       131         132         133         134         135         136         137         138         139         140
 IAtWgt=          16           1           1          16           1           1          16           1           1          16
 AtmWgt=  15.9949146   1.0078250   1.0078250  15.9949146   1.0078250   1.0078250  15.9949146   1.0078250   1.0078250  15.9949146
 NucSpn=           0           1           1           0           1           1           0           1           1           0
 AtZEff=   0.0000000   0.0000000   0.0000000   0.0000000   0.0000000   0.0000000   0.0000000   0.0000000   0.0000000   0.0000000
 NQMom=    0.0000000   0.0000000   0.0000000   0.0000000   0.0000000   0.0000000   0.0000000   0.0000000   0.0000000   0.0000000
 NMagM=    0.0000000   2.7928460   2.7928460   0.0000000   2.7928460   2.7928460   0.0000000   2.7928460   2.7928460   0.0000000
 AtZNuc=   8.0000000   1.0000000   1.0000000   8.0000000   1.0000000   1.0000000   8.0000000   1.0000000   1.0000000   8.0000000

  Atom       141         142         143         144         145         146         147         148         149         150
 IAtWgt=           1           1          16           1           1          16           1           1          16           1
 AtmWgt=   1.0078250   1.0078250  15.9949146   1.0078250   1.0078250  15.9949146   1.0078250   1.0078250  15.9949146   1.0078250
 NucSpn=           1           1           0           1           1           0           1           1           0           1
 AtZEff=   0.0000000   0.0000000   0.0000000   0.0000000   0.0000000   0.0000000   0.0000000   0.0000000   0.0000000   0.0000000
 NQMom=    0.0000000   0.0000000   0.0000000   0.0000000   0.0000000   0.0000000   0.0000000   0.0000000   0.0000000   0.0000000
 NMagM=    2.7928460   2.7928460   0.0000000   2.7928460   2.7928460   0.0000000   2.7928460   2.7928460   0.0000000   2.7928460
 AtZNuc=   1.0000000   1.0000000   8.0000000   1.0000000   1.0000000   8.0000000   1.0000000   1.0000000   8.0000000   1.0000000

  Atom       151         152         153         154         155         156         157         158         159         160
 IAtWgt=           1          16           1           1          16           1           1          16           1           1
 AtmWgt=   1.0078250  15.9949146   1.0078250   1.0078250  15.9949146   1.0078250   1.0078250  15.9949146   1.0078250   1.0078250
 NucSpn=           1           0           1           1           0           1           1           0           1           1
 AtZEff=   0.0000000   0.0000000   0.0000000   0.0000000   0.0000000   0.0000000   0.0000000   0.0000000   0.0000000   0.0000000
 NQMom=    0.0000000   0.0000000   0.0000000   0.0000000   0.0000000   0.0000000   0.0000000   0.0000000   0.0000000   0.0000000
 NMagM=    2.7928460   0.0000000   2.7928460   2.7928460   0.0000000   2.7928460   2.7928460   0.0000000   2.7928460   2.7928460
 AtZNuc=   1.0000000   8.0000000   1.0000000   1.0000000   8.0000000   1.0000000   1.0000000   8.0000000   1.0000000   1.0000000

  Atom       161         162         163         164         165         166         167         168         169         170
 IAtWgt=          16           1           1          16           1           1          16           1           1          16
 AtmWgt=  15.9949146   1.0078250   1.0078250  15.9949146   1.0078250   1.0078250  15.9949146   1.0078250   1.0078250  15.9949146
 NucSpn=           0           1           1           0           1           1           0           1           1           0
 AtZEff=   0.0000000   0.0000000   0.0000000   0.0000000   0.0000000   0.0000000   0.0000000   0.0000000   0.0000000   0.0000000
 NQMom=    0.0000000   0.0000000   0.0000000   0.0000000   0.0000000   0.0000000   0.0000000   0.0000000   0.0000000   0.0000000
 NMagM=    0.0000000   2.7928460   2.7928460   0.0000000   2.7928460   2.7928460   0.0000000   2.7928460   2.7928460   0.0000000
 AtZNuc=   8.0000000   1.0000000   1.0000000   8.0000000   1.0000000   1.0000000   8.0000000   1.0000000   1.0000000   8.0000000

  Atom       171         172         173         174         175         176         177         178         179         180
 IAtWgt=           1           1          16           1           1          16           1           1          16           1
 AtmWgt=   1.0078250   1.0078250  15.9949146   1.0078250   1.0078250  15.9949146   1.0078250   1.0078250  15.9949146   1.0078250
 NucSpn=           1           1           0           1           1           0           1           1           0           1
 AtZEff=   0.0000000   0.0000000   0.0000000   0.0000000   0.0000000   0.0000000   0.0000000   0.0000000   0.0000000   0.0000000
 NQMom=    0.0000000   0.0000000   0.0000000   0.0000000   0.0000000   0.0000000   0.0000000   0.0000000   0.0000000   0.0000000
 NMagM=    2.7928460   2.7928460   0.0000000   2.7928460   2.7928460   0.0000000   2.7928460   2.7928460   0.0000000   2.7928460
 AtZNuc=   1.0000000   1.0000000   8.0000000   1.0000000   1.0000000   8.0000000   1.0000000   1.0000000   8.0000000   1.0000000

  Atom       181         182         183         184         185         186         187         188         189         190
 IAtWgt=           1          16           1           1          16           1           1          16           1           1
 AtmWgt=   1.0078250  15.9949146   1.0078250   1.0078250  15.9949146   1.0078250   1.0078250  15.9949146   1.0078250   1.0078250
 NucSpn=           1           0           1           1           0           1           1           0           1           1
 AtZEff=   0.0000000   0.0000000   0.0000000   0.0000000   0.0000000   0.0000000   0.0000000   0.0000000   0.0000000   0.0000000
 NQMom=    0.0000000   0.0000000   0.0000000   0.0000000   0.0000000   0.0000000   0.0000000   0.0000000   0.0000000   0.0000000
 NMagM=    2.7928460   0.0000000   2.7928460   2.7928460   0.0000000   2.7928460   2.7928460   0.0000000   2.7928460   2.7928460
 AtZNuc=   1.0000000   8.0000000   1.0000000   1.0000000   8.0000000   1.0000000   1.0000000   8.0000000   1.0000000   1.0000000

  Atom       191         192         193         194         195         196         197         198         199         200
 IAtWgt=          16           1           1          16           1           1          16           1           1          16
 AtmWgt=  15.9949146   1.0078250   1.0078250  15.9949146   1.0078250   1.0078250  15.9949146   1.0078250   1.0078250  15.9949146
 NucSpn=           0           1           1           0           1           1           0           1           1           0
 AtZEff=   0.0000000   0.0000000   0.0000000   0.0000000   0.0000000   0.0000000   0.0000000   0.0000000   0.0000000   0.0000000
 NQMom=    0.0000000   0.0000000   0.0000000   0.0000000   0.0000000   0.0000000   0.0000000   0.0000000   0.0000000   0.0000000
 NMagM=    0.0000000   2.7928460   2.7928460   0.0000000   2.7928460   2.7928460   0.0000000   2.7928460   2.7928460   0.0000000
 AtZNuc=   8.0000000   1.0000000   1.0000000   8.0000000   1.0000000   1.0000000   8.0000000   1.0000000   1.0000000   8.0000000

  Atom       201         202         203         204         205         206         207         208         209         210
 IAtWgt=           1           1          16           1           1          16           1           1          16           1
 AtmWgt=   1.0078250   1.0078250  15.9949146   1.0078250   1.0078250  15.9949146   1.0078250   1.0078250  15.9949146   1.0078250
 NucSpn=           1           1           0           1           1           0           1           1           0           1
 AtZEff=   0.0000000   0.0000000   0.0000000   0.0000000   0.0000000   0.0000000   0.0000000   0.0000000   0.0000000   0.0000000
 NQMom=    0.0000000   0.0000000   0.0000000   0.0000000   0.0000000   0.0000000   0.0000000   0.0000000   0.0000000   0.0000000
 NMagM=    2.7928460   2.7928460   0.0000000   2.7928460   2.7928460   0.0000000   2.7928460   2.7928460   0.0000000   2.7928460
 AtZNuc=   1.0000000   1.0000000   8.0000000   1.0000000   1.0000000   8.0000000   1.0000000   1.0000000   8.0000000   1.0000000

  Atom       211         212         213         214         215         216         217         218         219         220
 IAtWgt=           1          16           1           1          16           1           1          16           1           1
 AtmWgt=   1.0078250  15.9949146   1.0078250   1.0078250  15.9949146   1.0078250   1.0078250  15.9949146   1.0078250   1.0078250
 NucSpn=           1           0           1           1           0           1           1           0           1           1
 AtZEff=   0.0000000   0.0000000   0.0000000   0.0000000   0.0000000   0.0000000   0.0000000   0.0000000   0.0000000   0.0000000
 NQMom=    0.0000000   0.0000000   0.0000000   0.0000000   0.0000000   0.0000000   0.0000000   0.0000000   0.0000000   0.0000000
 NMagM=    2.7928460   0.0000000   2.7928460   2.7928460   0.0000000   2.7928460   2.7928460   0.0000000   2.7928460   2.7928460
 AtZNuc=   1.0000000   8.0000000   1.0000000   1.0000000   8.0000000   1.0000000   1.0000000   8.0000000   1.0000000   1.0000000

  Atom       221         222         223         224         225         226         227         228         229         230
 IAtWgt=          16           1           1          16           1           1          16           1           1          16
 AtmWgt=  15.9949146   1.0078250   1.0078250  15.9949146   1.0078250   1.0078250  15.9949146   1.0078250   1.0078250  15.9949146
 NucSpn=           0           1           1           0           1           1           0           1           1           0
 AtZEff=   0.0000000   0.0000000   0.0000000   0.0000000   0.0000000   0.0000000   0.0000000   0.0000000   0.0000000   0.0000000
 NQMom=    0.0000000   0.0000000   0.0000000   0.0000000   0.0000000   0.0000000   0.0000000   0.0000000   0.0000000   0.0000000
 NMagM=    0.0000000   2.7928460   2.7928460   0.0000000   2.7928460   2.7928460   0.0000000   2.7928460   2.7928460   0.0000000
 AtZNuc=   8.0000000   1.0000000   1.0000000   8.0000000   1.0000000   1.0000000   8.0000000   1.0000000   1.0000000   8.0000000

  Atom       231         232         233         234         235         236         237         238         239         240
 IAtWgt=           1           1          16           1           1          16           1           1          16           1
 AtmWgt=   1.0078250   1.0078250  15.9949146   1.0078250   1.0078250  15.9949146   1.0078250   1.0078250  15.9949146   1.0078250
 NucSpn=           1           1           0           1           1           0           1           1           0           1
 AtZEff=   0.0000000   0.0000000   0.0000000   0.0000000   0.0000000   0.0000000   0.0000000   0.0000000   0.0000000   0.0000000
 NQMom=    0.0000000   0.0000000   0.0000000   0.0000000   0.0000000   0.0000000   0.0000000   0.0000000   0.0000000   0.0000000
 NMagM=    2.7928460   2.7928460   0.0000000   2.7928460   2.7928460   0.0000000   2.7928460   2.7928460   0.0000000   2.7928460
 AtZNuc=   1.0000000   1.0000000   8.0000000   1.0000000   1.0000000   8.0000000   1.0000000   1.0000000   8.0000000   1.0000000

  Atom       241         242         243         244         245         246         247         248         249         250
 IAtWgt=           1          16           1           1          16           1           1          16           1           1
 AtmWgt=   1.0078250  15.9949146   1.0078250   1.0078250  15.9949146   1.0078250   1.0078250  15.9949146   1.0078250   1.0078250
 NucSpn=           1           0           1           1           0           1           1           0           1           1
 AtZEff=   0.0000000   0.0000000   0.0000000   0.0000000   0.0000000   0.0000000   0.0000000   0.0000000   0.0000000   0.0000000
 NQMom=    0.0000000   0.0000000   0.0000000   0.0000000   0.0000000   0.0000000   0.0000000   0.0000000   0.0000000   0.0000000
 NMagM=    2.7928460   0.0000000   2.7928460   2.7928460   0.0000000   2.7928460   2.7928460   0.0000000   2.7928460   2.7928460
 AtZNuc=   1.0000000   8.0000000   1.0000000   1.0000000   8.0000000   1.0000000   1.0000000   8.0000000   1.0000000   1.0000000

  Atom       251         252         253         254         255         256         257         258         259         260
 IAtWgt=          16           1           1          16           1           1          16           1           1          16
 AtmWgt=  15.9949146   1.0078250   1.0078250  15.9949146   1.0078250   1.0078250  15.9949146   1.0078250   1.0078250  15.9949146
 NucSpn=           0           1           1           0           1           1           0           1           1           0
 AtZEff=   0.0000000   0.0000000   0.0000000   0.0000000   0.0000000   0.0000000   0.0000000   0.0000000   0.0000000   0.0000000
 NQMom=    0.0000000   0.0000000   0.0000000   0.0000000   0.0000000   0.0000000   0.0000000   0.0000000   0.0000000   0.0000000
 NMagM=    0.0000000   2.7928460   2.7928460   0.0000000   2.7928460   2.7928460   0.0000000   2.7928460   2.7928460   0.0000000
 AtZNuc=   8.0000000   1.0000000   1.0000000   8.0000000   1.0000000   1.0000000   8.0000000   1.0000000   1.0000000   8.0000000

  Atom       261         262         263         264         265         266         267         268         269         270
 IAtWgt=           1           1          16           1           1          16           1           1          16           1
 AtmWgt=   1.0078250   1.0078250  15.9949146   1.0078250   1.0078250  15.9949146   1.0078250   1.0078250  15.9949146   1.0078250
 NucSpn=           1           1           0           1           1           0           1           1           0           1
 AtZEff=   0.0000000   0.0000000   0.0000000   0.0000000   0.0000000   0.0000000   0.0000000   0.0000000   0.0000000   0.0000000
 NQMom=    0.0000000   0.0000000   0.0000000   0.0000000   0.0000000   0.0000000   0.0000000   0.0000000   0.0000000   0.0000000
 NMagM=    2.7928460   2.7928460   0.0000000   2.7928460   2.7928460   0.0000000   2.7928460   2.7928460   0.0000000   2.7928460
 AtZNuc=   1.0000000   1.0000000   8.0000000   1.0000000   1.0000000   8.0000000   1.0000000   1.0000000   8.0000000   1.0000000

  Atom       271         272         273         274         275         276         277         278         279         280
 IAtWgt=           1          16           1           1          16           1           1          16           1           1
 AtmWgt=   1.0078250  15.9949146   1.0078250   1.0078250  15.9949146   1.0078250   1.0078250  15.9949146   1.0078250   1.0078250
 NucSpn=           1           0           1           1           0           1           1           0           1           1
 AtZEff=   0.0000000   0.0000000   0.0000000   0.0000000   0.0000000   0.0000000   0.0000000   0.0000000   0.0000000   0.0000000
 NQMom=    0.0000000   0.0000000   0.0000000   0.0000000   0.0000000   0.0000000   0.0000000   0.0000000   0.0000000   0.0000000
 NMagM=    2.7928460   0.0000000   2.7928460   2.7928460   0.0000000   2.7928460   2.7928460   0.0000000   2.7928460   2.7928460
 AtZNuc=   1.0000000   8.0000000   1.0000000   1.0000000   8.0000000   1.0000000   1.0000000   8.0000000   1.0000000   1.0000000

  Atom       281         282         283         284         285         286         287         288         289         290
 IAtWgt=          16           1           1          16           1           1          16           1           1          16
 AtmWgt=  15.9949146   1.0078250   1.0078250  15.9949146   1.0078250   1.0078250  15.9949146   1.0078250   1.0078250  15.9949146
 NucSpn=           0           1           1           0           1           1           0           1           1           0
 AtZEff=   0.0000000   0.0000000   0.0000000   0.0000000   0.0000000   0.0000000   0.0000000   0.0000000   0.0000000   0.0000000
 NQMom=    0.0000000   0.0000000   0.0000000   0.0000000   0.0000000   0.0000000   0.0000000   0.0000000   0.0000000   0.0000000
 NMagM=    0.0000000   2.7928460   2.7928460   0.0000000   2.7928460   2.7928460   0.0000000   2.7928460   2.7928460   0.0000000
 AtZNuc=   8.0000000   1.0000000   1.0000000   8.0000000   1.0000000   1.0000000   8.0000000   1.0000000   1.0000000   8.0000000

  Atom       291         292         293         294         295         296         297         298         299         300
 IAtWgt=           1           1          16           1           1          16           1           1          16           1
 AtmWgt=   1.0078250   1.0078250  15.9949146   1.0078250   1.0078250  15.9949146   1.0078250   1.0078250  15.9949146   1.0078250
 NucSpn=           1           1           0           1           1           0           1           1           0           1
 AtZEff=   0.0000000   0.0000000   0.0000000   0.0000000   0.0000000   0.0000000   0.0000000   0.0000000   0.0000000   0.0000000
 NQMom=    0.0000000   0.0000000   0.0000000   0.0000000   0.0000000   0.0000000   0.0000000   0.0000000   0.0000000   0.0000000
 NMagM=    2.7928460   2.7928460   0.0000000   2.7928460   2.7928460   0.0000000   2.7928460   2.7928460   0.0000000   2.7928460
 AtZNuc=   1.0000000   1.0000000   8.0000000   1.0000000   1.0000000   8.0000000   1.0000000   1.0000000   8.0000000   1.0000000

  Atom       301         302         303         304         305         306         307         308         309         310
 IAtWgt=           1          16           1           1          16           1           1          16           1           1
 AtmWgt=   1.0078250  15.9949146   1.0078250   1.0078250  15.9949146   1.0078250   1.0078250  15.9949146   1.0078250   1.0078250
 NucSpn=           1           0           1           1           0           1           1           0           1           1
 AtZEff=   0.0000000   0.0000000   0.0000000   0.0000000   0.0000000   0.0000000   0.0000000   0.0000000   0.0000000   0.0000000
 NQMom=    0.0000000   0.0000000   0.0000000   0.0000000   0.0000000   0.0000000   0.0000000   0.0000000   0.0000000   0.0000000
 NMagM=    2.7928460   0.0000000   2.7928460   2.7928460   0.0000000   2.7928460   2.7928460   0.0000000   2.7928460   2.7928460
 AtZNuc=   1.0000000   8.0000000   1.0000000   1.0000000   8.0000000   1.0000000   1.0000000   8.0000000   1.0000000   1.0000000

  Atom       311         312         313         314         315         316         317         318         319         320
 IAtWgt=          16           1           1          16           1           1          16           1           1          16
 AtmWgt=  15.9949146   1.0078250   1.0078250  15.9949146   1.0078250   1.0078250  15.9949146   1.0078250   1.0078250  15.9949146
 NucSpn=           0           1           1           0           1           1           0           1           1           0
 AtZEff=   0.0000000   0.0000000   0.0000000   0.0000000   0.0000000   0.0000000   0.0000000   0.0000000   0.0000000   0.0000000
 NQMom=    0.0000000   0.0000000   0.0000000   0.0000000   0.0000000   0.0000000   0.0000000   0.0000000   0.0000000   0.0000000
 NMagM=    0.0000000   2.7928460   2.7928460   0.0000000   2.7928460   2.7928460   0.0000000   2.7928460   2.7928460   0.0000000
 AtZNuc=   8.0000000   1.0000000   1.0000000   8.0000000   1.0000000   1.0000000   8.0000000   1.0000000   1.0000000   8.0000000

  Atom       321         322         323         324         325         326         327         328         329         330
 IAtWgt=           1           1          16           1           1          16           1           1          16           1
 AtmWgt=   1.0078250   1.0078250  15.9949146   1.0078250   1.0078250  15.9949146   1.0078250   1.0078250  15.9949146   1.0078250
 NucSpn=           1           1           0           1           1           0           1           1           0           1
 AtZEff=   0.0000000   0.0000000   0.0000000   0.0000000   0.0000000   0.0000000   0.0000000   0.0000000   0.0000000   0.0000000
 NQMom=    0.0000000   0.0000000   0.0000000   0.0000000   0.0000000   0.0000000   0.0000000   0.0000000   0.0000000   0.0000000
 NMagM=    2.7928460   2.7928460   0.0000000   2.7928460   2.7928460   0.0000000   2.7928460   2.7928460   0.0000000   2.7928460
 AtZNuc=   1.0000000   1.0000000   8.0000000   1.0000000   1.0000000   8.0000000   1.0000000   1.0000000   8.0000000   1.0000000

  Atom       331         332         333         334         335         336         337         338         339         340
 IAtWgt=           1          16           1           1          16           1           1          16           1           1
 AtmWgt=   1.0078250  15.9949146   1.0078250   1.0078250  15.9949146   1.0078250   1.0078250  15.9949146   1.0078250   1.0078250
 NucSpn=           1           0           1           1           0           1           1           0           1           1
 AtZEff=   0.0000000   0.0000000   0.0000000   0.0000000   0.0000000   0.0000000   0.0000000   0.0000000   0.0000000   0.0000000
 NQMom=    0.0000000   0.0000000   0.0000000   0.0000000   0.0000000   0.0000000   0.0000000   0.0000000   0.0000000   0.0000000
 NMagM=    2.7928460   0.0000000   2.7928460   2.7928460   0.0000000   2.7928460   2.7928460   0.0000000   2.7928460   2.7928460
 AtZNuc=   1.0000000   8.0000000   1.0000000   1.0000000   8.0000000   1.0000000   1.0000000   8.0000000   1.0000000   1.0000000

  Atom       341         342         343         344         345         346         347         348         349         350
 IAtWgt=          16           1           1          16           1           1          16           1           1          16
 AtmWgt=  15.9949146   1.0078250   1.0078250  15.9949146   1.0078250   1.0078250  15.9949146   1.0078250   1.0078250  15.9949146
 NucSpn=           0           1           1           0           1           1           0           1           1           0
 AtZEff=   0.0000000   0.0000000   0.0000000   0.0000000   0.0000000   0.0000000   0.0000000   0.0000000   0.0000000   0.0000000
 NQMom=    0.0000000   0.0000000   0.0000000   0.0000000   0.0000000   0.0000000   0.0000000   0.0000000   0.0000000   0.0000000
 NMagM=    0.0000000   2.7928460   2.7928460   0.0000000   2.7928460   2.7928460   0.0000000   2.7928460   2.7928460   0.0000000
 AtZNuc=   8.0000000   1.0000000   1.0000000   8.0000000   1.0000000   1.0000000   8.0000000   1.0000000   1.0000000   8.0000000

  Atom       351         352         353         354         355         356         357         358         359         360
 IAtWgt=           1           1          16           1           1          16           1           1          16           1
 AtmWgt=   1.0078250   1.0078250  15.9949146   1.0078250   1.0078250  15.9949146   1.0078250   1.0078250  15.9949146   1.0078250
 NucSpn=           1           1           0           1           1           0           1           1           0           1
 AtZEff=   0.0000000   0.0000000   0.0000000   0.0000000   0.0000000   0.0000000   0.0000000   0.0000000   0.0000000   0.0000000
 NQMom=    0.0000000   0.0000000   0.0000000   0.0000000   0.0000000   0.0000000   0.0000000   0.0000000   0.0000000   0.0000000
 NMagM=    2.7928460   2.7928460   0.0000000   2.7928460   2.7928460   0.0000000   2.7928460   2.7928460   0.0000000   2.7928460
 AtZNuc=   1.0000000   1.0000000   8.0000000   1.0000000   1.0000000   8.0000000   1.0000000   1.0000000   8.0000000   1.0000000

  Atom       361         362         363         364         365         366         367         368         369         370
 IAtWgt=           1          16           1           1          16           1           1          16           1           1
 AtmWgt=   1.0078250  15.9949146   1.0078250   1.0078250  15.9949146   1.0078250   1.0078250  15.9949146   1.0078250   1.0078250
 NucSpn=           1           0           1           1           0           1           1           0           1           1
 AtZEff=   0.0000000   0.0000000   0.0000000   0.0000000   0.0000000   0.0000000   0.0000000   0.0000000   0.0000000   0.0000000
 NQMom=    0.0000000   0.0000000   0.0000000   0.0000000   0.0000000   0.0000000   0.0000000   0.0000000   0.0000000   0.0000000
 NMagM=    2.7928460   0.0000000   2.7928460   2.7928460   0.0000000   2.7928460   2.7928460   0.0000000   2.7928460   2.7928460
 AtZNuc=   1.0000000   8.0000000   1.0000000   1.0000000   8.0000000   1.0000000   1.0000000   8.0000000   1.0000000   1.0000000

  Atom       371         372         373         374         375         376         377         378         379         380
 IAtWgt=          16           1           1          16           1           1          16           1           1          16
 AtmWgt=  15.9949146   1.0078250   1.0078250  15.9949146   1.0078250   1.0078250  15.9949146   1.0078250   1.0078250  15.9949146
 NucSpn=           0           1           1           0           1           1           0           1           1           0
 AtZEff=   0.0000000   0.0000000   0.0000000   0.0000000   0.0000000   0.0000000   0.0000000   0.0000000   0.0000000   0.0000000
 NQMom=    0.0000000   0.0000000   0.0000000   0.0000000   0.0000000   0.0000000   0.0000000   0.0000000   0.0000000   0.0000000
 NMagM=    0.0000000   2.7928460   2.7928460   0.0000000   2.7928460   2.7928460   0.0000000   2.7928460   2.7928460   0.0000000
 AtZNuc=   8.0000000   1.0000000   1.0000000   8.0000000   1.0000000   1.0000000   8.0000000   1.0000000   1.0000000   8.0000000

  Atom       381         382         383         384         385
 IAtWgt=           1           1          16           1           1
 AtmWgt=   1.0078250   1.0078250  15.9949146   1.0078250   1.0078250
 NucSpn=           1           1           0           1           1
 AtZEff=   0.0000000   0.0000000   0.0000000   0.0000000   0.0000000
 NQMom=    0.0000000   0.0000000   0.0000000   0.0000000   0.0000000
 NMagM=    2.7928460   2.7928460   0.0000000   2.7928460   2.7928460
 AtZNuc=   1.0000000   1.0000000   8.0000000   1.0000000   1.0000000
 Leave Link  101 at Thu May 17 15:05:56 2018, MaxMem= 14763950080 cpu:        36.4
 (Enter /cm/shared/gaussian/g09.e01/intel64-sandybridge/g09/l103.exe)

 GradGradGradGradGradGradGradGradGradGradGradGradGradGradGradGradGradGrad
 Berny optimization.
 Initialization pass.
 Trust Radius=3.00D-01 FncErr=1.00D-07 GrdErr=1.00D-07
 Number of steps in this run=      2 maximum allowed number of steps=      2.
 GradGradGradGradGradGradGradGradGradGradGradGradGradGradGradGradGradGrad

 Leave Link  103 at Thu May 17 15:05:57 2018, MaxMem= 14763950080 cpu:         5.2
 (Enter /cm/shared/gaussian/g09.e01/intel64-sandybridge/g09/l202.exe)
 Symmetry turned off by external request.
 Stoichiometry    BrH256O128(1-)
 Framework group  C1[X(BrH256O128)]
 Deg. of freedom  1149
 Full point group                 C1      NOp   1
                          Input orientation:                          
 ---------------------------------------------------------------------
 Center     Atomic      Atomic             Coordinates (Angstroms)
 Number     Number       Type             X           Y           Z
 ---------------------------------------------------------------------
      1         35           0       20.000000   20.000000   20.000000
      2          8           0       21.360000   22.890000   19.670000
      3          1           0       22.120000   22.810000   19.090000
      4          1           0       20.970000   22.020000   19.670000
      5          8           0       18.650000   17.810000   21.980000
      6          1           0       18.210000   18.300000   22.680000
      7          1           0       18.880000   18.470000   21.330000
      8          8           0       22.960000   20.360000   21.390000
      9          1           0       22.910000   19.900000   22.220000
     10          1           0       22.080000   20.280000   21.020000
     11          8           0       17.610000   18.290000   18.510000
     12          1           0       16.900000   18.070000   19.120000
     13          1           0       18.200000   18.840000   19.020000
     14          8           0       22.060000   17.430000   19.450000
     15          1           0       21.680000   17.030000   18.660000
     16          1           0       21.580000   18.250000   19.550000
     17          8           0       17.210000   21.840000   19.420000
     18          1           0       16.720000   21.700000   20.230000
     19          1           0       18.040000   21.370000   19.550000
     20          8           0       18.150000   21.360000   22.580000
     21          1           0       18.210000   20.630000   23.200000
     22          1           0       18.940000   21.290000   22.040000
     23          8           0       19.290000   20.000000   16.490000
     24          1           0       18.620000   19.380000   16.780000
     25          1           0       19.790000   20.200000   17.280000
     26          8           0       21.480000   22.290000   22.660000
     27          1           0       22.310000   21.930000   22.360000
     28          1           0       21.040000   22.590000   21.860000
     29          8           0       20.980000   17.280000   23.380000
     30          1           0       20.720000   17.710000   24.190000
     31          1           0       20.190000   17.300000   22.840000
     32          8           0       19.530000   23.850000   17.540000
     33          1           0       19.170000   24.640000   17.930000
     34          1           0       20.240000   23.600000   18.120000
     35          8           0       16.520000   20.160000   16.800000
     36          1           0       16.800000   19.580000   17.510000
     37          1           0       15.890000   20.760000   17.210000
     38          8           0       15.820000   18.370000   20.520000
     39          1           0       15.110000   18.030000   21.070000
     40          1           0       15.880000   19.300000   20.730000
     41          8           0       23.740000   21.430000   16.830000
     42          1           0       23.180000   21.870000   16.190000
     43          1           0       23.210000   20.700000   17.160000
     44          8           0       15.660000   20.690000   21.940000
     45          1           0       16.470000   20.820000   22.430000
     46          1           0       15.150000   20.090000   22.490000
     47          8           0       18.420000   16.290000   16.610000
     48          1           0       17.700000   15.680000   16.760000
     49          1           0       18.320000   16.960000   17.300000
     50          8           0       19.760000   14.640000   21.460000
     51          1           0       20.710000   14.670000   21.600000
     52          1           0       19.500000   15.560000   21.360000
     53          8           0       23.470000   18.890000   23.530000
     54          1           0       22.800000   18.220000   23.380000
     55          1           0       24.290000   18.390000   23.590000
     56          8           0       25.570000   20.950000   20.210000
     57          1           0       24.790000   20.470000   20.480000
     58          1           0       25.240000   21.780000   19.850000
     59          8           0       17.940000   19.320000   24.360000
     60          1           0       18.490000   18.740000   24.880000
     61          1           0       17.300000   19.660000   24.980000
     62          8           0       16.390000   15.840000   21.480000
     63          1           0       16.460000   15.350000   20.660000
     64          1           0       16.600000   16.740000   21.250000
     65          8           0       20.850000   25.850000   19.480000
     66          1           0       19.930000   26.110000   19.400000
     67          1           0       20.820000   24.920000   19.690000
     68          8           0       20.240000   22.730000   25.140000
     69          1           0       20.700000   21.940000   25.400000
     70          1           0       20.280000   22.740000   24.180000
     71          8           0       17.740000   22.220000   15.310000
     72          1           0       17.320000   21.510000   15.800000
     73          1           0       18.680000   22.050000   15.420000
     74          8           0       19.660000   20.500000   13.910000
     75          1           0       19.470000   20.250000   14.820000
     76          1           0       18.910000   20.180000   13.410000
     77          8           0       15.210000   23.630000   18.520000
     78          1           0       15.730000   22.900000   18.850000
     79          1           0       15.760000   24.040000   17.860000
     80          8           0       25.470000   17.510000   19.820000
     81          1           0       25.660000   18.380000   19.470000
     82          1           0       24.590000   17.310000   19.510000
     83          8           0       17.240000   24.970000   22.460000
     84          1           0       17.930000   25.620000   22.570000
     85          1           0       17.360000   24.660000   21.560000
     86          8           0       22.150000   24.870000   23.620000
     87          1           0       22.000000   23.960000   23.390000
     88          1           0       23.050000   25.040000   23.330000
     89          8           0       21.780000   21.860000   15.010000
     90          1           0       21.670000   22.580000   14.390000
     91          1           0       21.300000   21.140000   14.620000
     92          8           0       20.070000   16.540000   14.620000
     93          1           0       19.550000   16.730000   15.400000
     94          1           0       20.980000   16.680000   14.900000
     95          8           0       25.230000   21.440000   23.600000
     96          1           0       24.690000   20.770000   23.170000
     97          1           0       25.180000   21.220000   24.530000
     98          8           0       17.930000   15.950000   24.030000
     99          1           0       17.700000   16.840000   24.290000
    100          1           0       17.580000   15.870000   23.140000
    101          8           0       22.120000   20.250000   25.620000
    102          1           0       21.980000   19.610000   26.310000
    103          1           0       22.770000   19.840000   25.040000
    104          8           0       25.380000   22.920000   18.400000
    105          1           0       24.770000   22.460000   17.810000
    106          1           0       26.080000   23.230000   17.830000
    107          8           0       13.800000   18.250000   18.040000
    108          1           0       13.780000   19.160000   17.750000
    109          1           0       14.610000   18.180000   18.540000
    110          8           0       25.270000   18.950000   17.460000
    111          1           0       25.530000   18.030000   17.520000
    112          1           0       25.220000   19.130000   16.530000
    113          8           0       22.570000   15.400000   24.440000
    114          1           0       22.410000   16.080000   23.780000
    115          1           0       21.720000   15.290000   24.870000
    116          8           0       25.470000   16.960000   22.680000
    117          1           0       25.180000   17.470000   21.920000
    118          1           0       25.800000   16.150000   22.300000
    119          8           0       16.900000   24.560000   16.580000
    120          1           0       16.920000   25.270000   15.940000
    121          1           0       17.220000   23.790000   16.110000
    122          8           0       19.900000   25.140000   15.110000
    123          1           0       19.480000   24.560000   15.750000
    124          1           0       19.290000   25.880000   15.020000
    125          8           0       18.020000   25.850000   18.910000
    126          1           0       17.430000   25.530000   18.230000
    127          1           0       17.490000   26.450000   19.430000
    128          8           0       16.440000   23.090000   25.180000
    129          1           0       16.940000   23.850000   25.470000
    130          1           0       16.430000   23.150000   24.230000
    131          8           0       19.460000   18.020000   26.030000
    132          1           0       19.050000   17.310000   26.520000
    133          1           0       20.130000   18.370000   26.620000
    134          8           0       22.730000   16.880000   15.030000
    135          1           0       23.310000   16.340000   15.560000
    136          1           0       23.300000   17.510000   14.600000
    137          8           0       19.620000   13.140000   18.040000
    138          1           0       20.360000   13.750000   18.040000
    139          1           0       19.540000   12.860000   17.130000
    140          8           0       19.720000   26.420000   22.860000
    141          1           0       19.910000   27.050000   22.160000
    142          1           0       20.530000   25.920000   22.960000
    143          8           0       13.830000   18.250000   22.240000
    144          1           0       13.060000   18.440000   21.710000
    145          1           0       13.750000   18.840000   22.990000
    146          8           0       18.460000   12.680000   20.340000
    147          1           0       18.830000   12.780000   19.460000
    148          1           0       18.930000   13.320000   20.880000
    149          8           0       15.300000   20.310000   14.030000
    150          1           0       15.420000   21.200000   13.690000
    151          1           0       15.370000   20.410000   14.980000
    152          8           0       13.730000   21.220000   17.410000
    153          1           0       13.280000   21.650000   16.680000
    154          1           0       13.260000   21.510000   18.190000
    155          8           0       27.400000   20.840000   22.060000
    156          1           0       26.880000   21.160000   22.800000
    157          1           0       26.790000   20.830000   21.320000
    158          8           0       25.330000   23.970000   22.550000
    159          1           0       25.390000   23.170000   23.080000
    160          1           0       25.990000   24.560000   22.930000
    161          8           0       25.720000   25.000000   20.100000
    162          1           0       25.440000   24.350000   19.450000
    163          1           0       25.560000   24.570000   20.940000
    164          8           0       22.960000   26.770000   21.070000
    165          1           0       22.170000   26.660000   20.550000
    166          1           0       23.660000   26.400000   20.530000
    167          8           0       19.220000   25.200000   25.660000
    168          1           0       19.850000   24.510000   25.450000
    169          1           0       19.100000   25.680000   24.850000
    170          8           0       25.070000   16.030000   16.960000
    171          1           0       24.940000   15.470000   17.730000
    172          1           0       25.970000   15.850000   16.680000
    173          8           0       27.840000   20.990000   18.480000
    174          1           0       26.920000   20.820000   18.680000
    175          1           0       27.820000   21.430000   17.630000
    176          8           0       16.240000   14.640000   17.020000
    177          1           0       16.230000   14.190000   16.170000
    178          1           0       15.380000   14.460000   17.400000
    179          8           0       19.370000   14.260000   25.460000
    180          1           0       19.640000   14.920000   26.100000
    181          1           0       18.890000   14.750000   24.800000
    182          8           0       15.920000   20.190000   25.930000
    183          1           0       15.750000   19.860000   26.810000
    184          1           0       16.140000   21.110000   26.050000
    185          8           0       23.290000   13.710000   22.610000
    186          1           0       23.040000   12.800000   22.750000
    187          1           0       22.870000   14.190000   23.330000
    188          8           0       25.400000   19.790000   14.800000
    189          1           0       25.670000   20.520000   15.350000
    190          1           0       24.780000   20.170000   14.180000
    191          8           0       22.140000   24.470000   26.650000
    192          1           0       23.010000   24.660000   26.290000
    193          1           0       21.680000   24.020000   25.940000
    194          8           0       20.350000   27.970000   17.780000
    195          1           0       20.580000   27.160000   18.230000
    196          1           0       21.190000   28.300000   17.440000
    197          8           0       21.500000   17.450000   12.300000
    198          1           0       21.040000   17.280000   13.120000
    199          1           0       21.890000   16.600000   12.070000
    200          8           0       27.360000   15.800000   20.320000
    201          1           0       28.100000   16.310000   20.620000
    202          1           0       26.650000   16.440000   20.200000
    203          8           0       17.600000   19.940000   12.250000
    204          1           0       17.660000   19.040000   11.920000
    205          1           0       17.040000   19.870000   13.030000
    206          8           0       23.550000   13.000000   18.750000
    207          1           0       23.080000   12.210000   19.000000
[...]
   Z335      35.73472  -0.01260   0.00000  -0.00929  -0.00785  35.72687
   X336      50.92812   0.00276   0.00000   0.00254   0.00252  50.93064
   Y336      52.57218  -0.00052   0.00000  -0.00068  -0.00027  52.57191
   Z336      35.96149   0.00204   0.00000   0.00151   0.00312  35.96461
   X337      49.26516  -0.00059   0.00000  -0.00274  -0.00276  49.26240
   Y337      50.34230  -0.02205   0.00000  -0.01305  -0.01270  50.32960
   Z337      36.58510   0.01299   0.00000   0.00757   0.00895  36.59405
   X338      27.47662  -0.00629   0.00000  -0.00788  -0.00711  27.46951
   Y338      48.03684  -0.00703   0.00000  -0.00387  -0.00381  48.03303
   Z338      28.49707  -0.00810   0.00000  -0.00719  -0.00787  28.48920
   X339      28.78053   0.00284   0.00000   0.00043   0.00126  28.78179
   Y339      49.01950   0.00603   0.00000   0.00642   0.00654  49.02603
   Z339      27.70339   0.00299   0.00000   0.00637   0.00585  27.70923
   X340      27.26875  -0.00268   0.00000  -0.00542  -0.00481  27.26394
   Y340      48.81163   0.00370   0.00000   0.00194   0.00194  48.81357
   Z340      30.14113   0.00334   0.00000  -0.00037  -0.00104  30.14009
   X341      56.20046   0.02789   0.00000   0.01856   0.01891  56.21936
   Y341      36.58510  -0.01567   0.00000  -0.01587  -0.01534  36.56976
   Z341      36.33943   0.00147   0.00000  -0.00484  -0.00325  36.33618
   X342      55.50126  -0.00394   0.00000  -0.00304  -0.00276  55.49850
   Y342      35.30008  -0.00348   0.00000  -0.00306  -0.00258  35.29751
   Z342      37.39768   0.00590   0.00000   0.00627   0.00776  37.40544
   X343      54.78316  -0.01665   0.00000  -0.00388  -0.00351  54.77965
   Y343      37.56776   0.01435   0.00000   0.00906   0.00958  37.57733
   Z343      35.82921  -0.00542   0.00000  -0.00272  -0.00123  35.82798
   X344      32.27652   0.00162   0.00000   0.00379   0.00464  32.28117
   Y344      49.96436   0.00296   0.00000   0.00225   0.00248  49.96684
   Z344      27.07978   0.01109   0.00000   0.00630   0.00612  27.08590
   X345      33.16469  -0.00088   0.00000  -0.00227  -0.00148  33.16321
   Y345      51.53283   0.00464   0.00000   0.00750   0.00773  51.54057
   Z345      27.34434  -0.00073   0.00000  -0.00117  -0.00122  27.34312
   X346      32.55998   0.00521   0.00000   0.00617   0.00719  32.56718
   Y346      49.56752  -0.00450   0.00000  -0.00512  -0.00483  49.56269
   Z346      25.34123  -0.01114   0.00000  -0.00609  -0.00625  25.33498
   X347      43.36921  -0.00483   0.00000  -0.00737  -0.00636  43.36285
   Y347      48.94391   0.00939   0.00000   0.00497   0.00551  48.94941
   Z347      25.77586   0.01940   0.00000   0.01063   0.01144  25.78730
   X348      43.06686  -0.00173   0.00000  -0.00227  -0.00118  43.06568
   Y348      50.21002   0.00468   0.00000   0.00177   0.00234  50.21236
   Z348      24.52865  -0.01026   0.00000  -0.00940  -0.00858  24.52006
   X349      43.74716   0.00716   0.00000   0.00754   0.00867  43.75583
   Y349      47.45102  -0.01254   0.00000  -0.00577  -0.00518  47.44584
   Z349      24.84990  -0.01096   0.00000  -0.00683  -0.00604  24.84386
   X350      34.71427  -0.00979   0.00000  -0.00717  -0.00535  34.70892
   Y350      33.05131   0.01170   0.00000   0.00267   0.00314  33.05445
   Z350      21.18383  -0.00774   0.00000  -0.00806  -0.00854  21.17529
   X351      33.93948  -0.00886   0.00000  -0.01046  -0.00863  33.93085
   Y351      31.44504  -0.01298   0.00000  -0.00957  -0.00913  31.43592
   Z351      21.44839   0.00659   0.00000   0.00958   0.00897  21.45737
   X352      36.47171   0.01807   0.00000   0.01116   0.01297  36.48469
   Y352      32.74895  -0.00014   0.00000   0.00302   0.00353  32.75248
   Z352      21.39170   0.00466   0.00000   0.00597   0.00564  21.39734
   X353      32.88123  -0.01047   0.00000  -0.01142  -0.00968  32.87155
   Y353      27.74118   0.00960   0.00000   0.01003   0.01038  27.75156
   Z353      23.48930  -0.01602   0.00000  -0.00885  -0.00967  23.47963
   X354      31.59622  -0.00744   0.00000  -0.00763  -0.00599  31.59023
   Y354      27.26875  -0.00274   0.00000  -0.00211  -0.00182  27.26693
   Z354      24.66093   0.00711   0.00000   0.00578   0.00483  24.66576
   X355      34.43081   0.01411   0.00000   0.00738   0.00904  34.43985
   Y355      27.47662  -0.00371   0.00000  -0.00348  -0.00312  27.47350
   Z355      24.37747   0.00257   0.00000  -0.00550  -0.00618  24.37129
   X356      47.90456   0.00638   0.00000   0.00355   0.00287  47.90743
   Y356      52.79895  -0.00825   0.00000  -0.00714  -0.00703  52.79192
   Z356      43.12355   0.01132   0.00000   0.00574   0.00708  43.13063
   X357      47.79117  -0.00276   0.00000  -0.00237  -0.00306  47.78812
   Y357      54.55639   0.00688   0.00000   0.00168   0.00180  54.55820
   Z357      42.72671  -0.00409   0.00000  -0.00406  -0.00267  42.72403
   X358      46.80852  -0.00723   0.00000  -0.00548  -0.00603  46.80249
   Y358      51.98637  -0.00095   0.00000   0.00111   0.00123  51.98760
   Z358      41.93302  -0.00844   0.00000  -0.00779  -0.00658  41.92644
   X359      35.11111  -0.00369   0.00000  -0.00376  -0.00528  35.10583
   Y359      47.41323  -0.00470   0.00000  -0.00465  -0.00518  47.40805
   Z359      53.68712   0.01880   0.00000   0.00978   0.00978  53.69690
   X360      34.94104   0.00708   0.00000   0.01424   0.01289  34.95393
   Y360      47.56441   0.00478   0.00000   0.00627   0.00579  47.57019
   Z360      51.89188  -0.02265   0.00000  -0.01565  -0.01566  51.87622
   X361      33.46705  -0.00402   0.00000  -0.00711  -0.00866  33.45839
   Y361      46.86521   0.00016   0.00000   0.00041  -0.00018  46.86502
   Z361      54.23514   0.00154   0.00000   0.00193   0.00176  54.23690
   X362      42.08420  -0.01078   0.00000  -0.00457  -0.00540  42.07880
   Y362      54.17845   0.01660   0.00000   0.01481   0.01473  54.19318
   Z362      44.40856   0.00446   0.00000   0.00072   0.00157  44.41014
   X363      42.68891   0.00346   0.00000   0.00062  -0.00026  42.68865
   Y363      52.76115  -0.00786   0.00000  -0.00316  -0.00325  52.75791
   Z363      45.35343  -0.00102   0.00000  -0.00592  -0.00506  45.34837
   X364      42.89678   0.00665   0.00000   0.00522   0.00454  42.90132
   Y364      54.04617  -0.01042   0.00000  -0.01437  -0.01437  54.03179
   Z364      42.80230  -0.00780   0.00000  -0.00500  -0.00408  42.79822
   X365      40.25117  -0.01128   0.00000  -0.00723  -0.00655  40.24462
   Y365      53.70602   0.00686   0.00000   0.00211   0.00250  53.70852
   Z365      28.08133  -0.00216   0.00000  -0.00557  -0.00490  28.07643
   X366      41.81964   0.00831   0.00000   0.00538   0.00602  41.82566
   Y366      54.59419   0.00087   0.00000  -0.00193  -0.00150  54.59268
   Z366      28.21361   0.00026   0.00000  -0.00062   0.00022  28.21383
   X367      40.72360   0.00536   0.00000   0.00396   0.00469  40.72829
   Y367      51.96747  -0.01268   0.00000  -0.00996  -0.00955  51.95792
   Z367      27.91125   0.00215   0.00000   0.00447   0.00513  27.91639
   X368      46.48726   0.01895   0.00000   0.01884   0.02022  46.50748
   Y368      44.67313   0.00615   0.00000  -0.00255  -0.00184  44.67128
   Z368      22.88458   0.01954   0.00000   0.01418   0.01514  22.89973
   X369      46.69513  -0.00286   0.00000  -0.00490  -0.00338  46.69176
   Y369      45.03217   0.00021   0.00000   0.00002   0.00079  45.03296
   Z369      21.12714  -0.00959   0.00000  -0.00276  -0.00177  21.12537
   X370      45.29674  -0.01517   0.00000  -0.01657  -0.01517  45.28157
   Y370      43.31252  -0.00327   0.00000   0.00573   0.00641  43.31893
   Z370      22.94128  -0.00957   0.00000  -0.01359  -0.01278  22.92849
   X371      28.57266  -0.01000   0.00000  -0.00452  -0.00590  28.56675
   Y371      41.76295   0.00933   0.00000   0.00416   0.00346  41.76641
   Z371      53.83830  -0.00904   0.00000  -0.01008  -0.01085  53.82745
   X372      28.61045   0.00448   0.00000   0.00627   0.00485  28.61530
   Y372      40.17558  -0.00915   0.00000  -0.00304  -0.00377  40.17181
   Z372      54.68867   0.00642   0.00000   0.00559   0.00478  54.69345
   X373      30.27341   0.01043   0.00000   0.01092   0.00958  30.28299
   Y373      41.98971  -0.00335   0.00000  -0.00453  -0.00517  41.98455
   Z373      53.23359   0.00160   0.00000   0.00493   0.00432  53.23791
   X374      30.21672  -0.00192   0.00000  -0.00065  -0.00183  30.21489
   Y374      34.35522   0.01308   0.00000   0.00801   0.00735  34.36257
   Z374      53.61153  -0.00891   0.00000  -0.00712  -0.00797  53.60356
   X375      28.85612  -0.00933   0.00000  -0.00602  -0.00725  28.84887
   Y375      33.42926  -0.00447   0.00000  -0.00011  -0.00082  33.42843
   Z375      54.34852   0.00574   0.00000   0.00513   0.00413  54.35265
   X376      31.63402   0.01018   0.00000   0.00838   0.00721  31.64123
   Y376      33.24028  -0.00657   0.00000  -0.00238  -0.00300  33.23728
   Z376      53.76271  -0.00228   0.00000  -0.00490  -0.00566  53.75705
   X377      37.87011   0.00902   0.00000   0.00876   0.00820  37.87831
   Y377      22.58223  -0.02024   0.00000  -0.01383  -0.01419  22.56804
   Z377      50.03995   0.02045   0.00000   0.01872   0.01820  50.05814
   X378      36.33943  -0.00138   0.00000   0.00285   0.00236  36.34180
   Y378      21.76965  -0.00005   0.00000  -0.00067  -0.00104  21.76860
   Z378      49.51082  -0.00346   0.00000  -0.00180  -0.00248  49.50834
   X379      37.90791  -0.00546   0.00000  -0.00623  -0.00674  37.90116
   Y379      24.13180   0.01021   0.00000  -0.00189  -0.00222  24.12959
   Z379      49.13288  -0.01343   0.00000  -0.00914  -0.00961  49.12327
   X380      28.74273  -0.00410   0.00000  -0.00580  -0.00409  28.73865
   Y380      32.35211   0.01129   0.00000   0.00678   0.00706  32.35917
   Z380      22.56333   0.00260   0.00000   0.00330   0.00225  22.56558
   X381      28.59156   0.00199   0.00000   0.00224   0.00412  28.59567
   Y381      31.61512  -0.00520   0.00000  -0.00450  -0.00417  31.61095
   Z381      20.91927  -0.00533   0.00000  -0.00165  -0.00274  20.91653
   X382      29.55532   0.00517   0.00000   0.00367   0.00532  29.56063
   Y382      31.08599  -0.00593   0.00000  -0.00288  -0.00262  31.08338
   Z382      23.56488   0.00231   0.00000   0.00075  -0.00026  23.56462
   X383      50.32341   0.00670   0.00000  -0.00146  -0.00034  50.32306
   Y383      42.84009  -0.00871   0.00000  -0.00977  -0.00907  42.83102
   Z383      26.24830   0.00913   0.00000   0.00076   0.00201  26.25031
   X384      51.11709   0.00284   0.00000   0.00317   0.00439  51.12148
   Y384      41.38500  -0.00373   0.00000  -0.00596  -0.00521  41.37979
   Z384      25.51130  -0.00174   0.00000  -0.00435  -0.00307  25.50824
   X385      49.22737  -0.01447   0.00000  -0.01372  -0.01250  49.21486
   Y385      43.46370   0.01171   0.00000   0.01233   0.01304  43.47675
   Z385      24.94438  -0.01108   0.00000  -0.00658  -0.00541  24.93898
         Item               Value     Threshold  Converged?
 Maximum Force            0.038974     0.000450     NO 
 RMS     Force            0.010933     0.000300     NO 
 Maximum Displacement     0.030333     0.001800     NO 
 RMS     Displacement     0.008800     0.001200     NO 
 Predicted change in Energy=-7.616265D-02
 GradGradGradGradGradGradGradGradGradGradGradGradGradGradGradGradGradGrad

 Leave Link  103 at Thu May 17 17:45:11 2018, MaxMem= 14763950080 cpu:      3565.1
 (Enter /cm/shared/gaussian/g09.e01/intel64-sandybridge/g09/l9999.exe)
 1\1\GINC-POPLE04\Force\RPBE1PBE\CC-pVDZ\Br1H256O128(1-)\M.PELUSO\17-Ma
 y-2018\0\\#p PBE1PBE/cc-pvDZ force Counterpoise=2 noSymm\\forces on ch
 loride comput - NWATER: 128\\-1,1\Br,20.,20.,20.\O,21.36,22.89,19.67\H
 ,22.12,22.81,19.09\H,20.97,22.02,19.67\O,18.65,17.81,21.98\H,18.21,18.
 3,22.68\H,18.88,18.47,21.33\O,22.96,20.36,21.39\H,22.91,19.9,22.22\H,2
 2.08,20.28,21.02\O,17.61,18.29,18.51\H,16.9,18.07,19.12\H,18.2,18.84,1
 9.02\O,22.06,17.43,19.45\H,21.68,17.03,18.66\H,21.58,18.25,19.55\O,17.
 21,21.84,19.42\H,16.72,21.7,20.23\H,18.04,21.37,19.55\O,18.15,21.36,22
 .58\H,18.21,20.63,23.2\H,18.94,21.29,22.04\O,19.29,20.,16.49\H,18.62,1
 9.38,16.78\H,19.79,20.2,17.28\O,21.48,22.29,22.66\H,22.31,21.93,22.36\
 H,21.04,22.59,21.86\O,20.98,17.28,23.38\H,20.72,17.71,24.19\H,20.19,17
 .3,22.84\O,19.53,23.85,17.54\H,19.17,24.64,17.93\H,20.24,23.6,18.12\O,
 16.52,20.16,16.8\H,16.8,19.58,17.51\H,15.89,20.76,17.21\O,15.82,18.37,
 20.52\H,15.11,18.03,21.07\H,15.88,19.3,20.73\O,23.74,21.43,16.83\H,23.
 18,21.87,16.19\H,23.21,20.7,17.16\O,15.66,20.69,21.94\H,16.47,20.82,22
 .43\H,15.15,20.09,22.49\O,18.42,16.29,16.61\H,17.7,15.68,16.76\H,18.32
 ,16.96,17.3\O,19.76,14.64,21.46\H,20.71,14.67,21.6\H,19.5,15.56,21.36\
 O,23.47,18.89,23.53\H,22.8,18.22,23.38\H,24.29,18.39,23.59\O,25.57,20.
 95,20.21\H,24.79,20.47,20.48\H,25.24,21.78,19.85\O,17.94,19.32,24.36\H
 ,18.49,18.74,24.88\H,17.3,19.66,24.98\O,16.39,15.84,21.48\H,16.46,15.3
 5,20.66\H,16.6,16.74,21.25\O,20.85,25.85,19.48\H,19.93,26.11,19.4\H,20
 .82,24.92,19.69\O,20.24,22.73,25.14\H,20.7,21.94,25.4\H,20.28,22.74,24
 .18\O,17.74,22.22,15.31\H,17.32,21.51,15.8\H,18.68,22.05,15.42\O,19.66
 ,20.5,13.91\H,19.47,20.25,14.82\H,18.91,20.18,13.41\O,15.21,23.63,18.5
 2\H,15.73,22.9,18.85\H,15.76,24.04,17.86\O,25.47,17.51,19.82\H,25.66,1
 8.38,19.47\H,24.59,17.31,19.51\O,17.24,24.97,22.46\H,17.93,25.62,22.57
 \H,17.36,24.66,21.56\O,22.15,24.87,23.62\H,22.,23.96,23.39\H,23.05,25.
 04,23.33\O,21.78,21.86,15.01\H,21.67,22.58,14.39\H,21.3,21.14,14.62\O,
 20.07,16.54,14.62\H,19.55,16.73,15.4\H,20.98,16.68,14.9\O,25.23,21.44,
 23.6\H,24.69,20.77,23.17\H,25.18,21.22,24.53\O,17.93,15.95,24.03\H,17.
 7,16.84,24.29\H,17.58,15.87,23.14\O,22.12,20.25,25.62\H,21.98,19.61,26
 .31\H,22.77,19.84,25.04\O,25.38,22.92,18.4\H,24.77,22.46,17.81\H,26.08
 ,23.23,17.83\O,13.8,18.25,18.04\H,13.78,19.16,17.75\H,14.61,18.18,18.5
 4\O,25.27,18.95,17.46\H,25.53,18.03,17.52\H,25.22,19.13,16.53\O,22.57,
 15.4,24.44\H,22.41,16.08,23.78\H,21.72,15.29,24.87\O,25.47,16.96,22.68
 \H,25.18,17.47,21.92\H,25.8,16.15,22.3\O,16.9,24.56,16.58\H,16.92,25.2
 7,15.94\H,17.22,23.79,16.11\O,19.9,25.14,15.11\H,19.48,24.56,15.75\H,1
 9.29,25.88,15.02\O,18.02,25.85,18.91\H,17.43,25.53,18.23\H,17.49,26.45
 ,19.43\O,16.44,23.09,25.18\H,16.94,23.85,25.47\H,16.43,23.15,24.23\O,1
 9.46,18.02,26.03\H,19.05,17.31,26.52\H,20.13,18.37,26.62\O,22.73,16.88
 ,15.03\H,23.31,16.34,15.56\H,23.3,17.51,14.6\O,19.62,13.14,18.04\H,20.
 36,13.75,18.04\H,19.54,12.86,17.13\O,19.72,26.42,22.86\H,19.91,27.05,2
 2.16\H,20.53,25.92,22.96\O,13.83,18.25,22.24\H,13.06,18.44,21.71\H,13.
 75,18.84,22.99\O,18.46,12.68,20.34\H,18.83,12.78,19.46\H,18.93,13.32,2
 0.88\O,15.3,20.31,14.03\H,15.42,21.2,13.69\H,15.37,20.41,14.98\O,13.73
 ,21.22,17.41\H,13.28,21.65,16.68\H,13.26,21.51,18.19\O,27.4,20.84,22.0
 6\H,26.88,21.16,22.8\H,26.79,20.83,21.32\O,25.33,23.97,22.55\H,25.39,2
 3.17,23.08\H,25.99,24.56,22.93\O,25.72,25.,20.1\H,25.44,24.35,19.45\H,
 25.56,24.57,20.94\O,22.96,26.77,21.07\H,22.17,26.66,20.55\H,23.66,26.4
 ,20.53\O,19.22,25.2,25.66\H,19.85,24.51,25.45\H,19.1,25.68,24.85\O,25.
 07,16.03,16.96\H,24.94,15.47,17.73\H,25.97,15.85,16.68\O,27.84,20.99,1
 8.48\H,26.92,20.82,18.68\H,27.82,21.43,17.63\O,16.24,14.64,17.02\H,16.
 23,14.19,16.17\H,15.38,14.46,17.4\O,19.37,14.26,25.46\H,19.64,14.92,26
 .1\H,18.89,14.75,24.8\O,15.92,20.19,25.93\H,15.75,19.86,26.81\H,16.14,
 21.11,26.05\O,23.29,13.71,22.61\H,23.04,12.8,22.75\H,22.87,14.19,23.33
 \O,25.4,19.79,14.8\H,25.67,20.52,15.35\H,24.78,20.17,14.18\O,22.14,24.
 47,26.65\H,23.01,24.66,26.29\H,21.68,24.02,25.94\O,20.35,27.97,17.78\H
 ,20.58,27.16,18.23\H,21.19,28.3,17.44\O,21.5,17.45,12.3\H,21.04,17.28,
 13.12\H,21.89,16.6,12.07\O,27.36,15.8,20.32\H,28.1,16.31,20.62\H,26.65
 ,16.44,20.2\O,17.6,19.94,12.25\H,17.66,19.04,11.92\H,17.04,19.87,13.03
 \O,23.55,13.,18.75\H,23.08,12.21,19.\H,23.08,13.34,17.99\O,13.67,23.04
 ,24.23\H,13.95,23.16,25.13\H,13.88,22.12,24.03\O,22.93,20.01,12.56\H,2
 2.61,19.16,12.85\H,23.74,19.81,12.08\O,13.45,16.74,15.65\H,13.85,17.4,
 16.21\H,12.54,17.01,15.58\O,13.6,20.23,24.27\H,14.19,20.18,25.02\H,12.
 77,19.91,24.6\O,14.55,25.7,23.56\H,14.25,25.04,24.18\H,15.2,25.24,23.0
 2\O,24.93,21.09,26.22\H,25.42,20.33,26.53\H,24.06,21.01,26.62\O,19.96,
 24.2,12.66\H,20.85,24.08,12.32\H,20.1,24.48,13.57\O,19.,11.99,23.41\H,
 18.6,12.26,24.24\H,19.42,12.78,23.08\O,21.67,18.49,27.56\H,21.5,18.68,
 28.49\H,22.6,18.26,27.53\O,13.32,16.04,23.53\H,13.42,16.67,22.81\H,13.
 84,16.41,24.24\O,12.56,24.04,18.76\H,13.43,24.1,18.38\H,12.72,23.92,19
 .7\O,17.98,21.48,27.86\H,18.74,22.,27.59\H,18.35,20.77,28.38\O,15.76,1
 2.3,19.9\H,15.5,12.16,20.81\H,16.65,12.63,19.95\O,14.48,17.27,25.73\H,
 14.92,18.07,26.01\H,14.85,16.58,26.28\O,12.24,23.24,21.48\H,12.89,23.2
 6,22.19\H,11.96,22.33,21.44\O,24.8,15.9,26.23\H,24.11,15.61,26.83\H,24
 .44,15.73,25.36\O,22.73,21.22,28.17\H,22.75,21.5,29.08\H,22.06,21.76,2
 7.76\O,15.05,12.87,22.47\H,15.35,13.75,22.72\H,15.11,12.36,23.27\O,19.
 96,13.85,13.1\H,20.11,14.48,13.8\H,20.72,13.95,12.52\O,25.89,13.86,22.
 58\H,24.95,13.78,22.42\H,25.98,13.8,23.53\O,19.17,22.07,11.35\H,19.23,
 22.74,12.02\H,19.04,21.25,11.83\O,27.43,18.87,24.42\H,27.05,18.01,24.5
 8\H,27.49,18.93,23.47\O,21.59,11.26,19.44\H,21.22,11.26,20.32\H,20.98,
 11.77,18.92\O,22.59,12.74,16.08\H,22.99,12.02,15.59\H,22.6,13.47,15.47
 \O,11.09,18.08,17.92\H,10.92,18.33,17.01\H,12.04,18.13,18.01\O,11.64,2
 0.93,20.5\H,10.94,21.12,19.88\H,11.43,20.05,20.83\O,22.24,22.4,11.53\H
 ,21.42,22.12,11.12\H,22.47,21.67,12.11\O,15.48,22.94,12.92\H,16.43,22.
 87,12.84\H,15.33,23.85,13.17\O,14.,26.84,17.62\H,13.11,26.69,17.93\H,1
 4.55,26.33,18.22\O,14.,13.74,18.47\H,14.75,13.33,18.9\H,13.55,13.03,18
 .03\O,28.88,22.81,20.54\H,28.31,22.13,20.88\H,29.08,22.54,19.64\O,17.9
 9,15.98,27.38\H,17.27,15.35,27.32\H,18.71,15.47,27.76\O,19.81,28.58,21
 .27\H,19.61,28.72,20.35\H,20.34,29.34,21.52\O,11.27,18.1,21.19\H,10.72
 ,17.4,21.55\H,11.58,17.75,20.35\O,16.32,27.9,20.66\H,16.81,28.68,20.91
 \H,15.74,27.73,21.39\O,27.45,22.9,16.41\H,28.29,23.33,16.21\H,26.99,22
 .87,15.57\O,12.22,15.29,19.9\H,12.79,15.09,19.16\H,12.34,14.55,20.49\O
 ,20.53,23.22,28.52\H,21.07,23.72,27.89\H,19.74,23.75,28.63\O,23.16,13.
 95,13.64\H,23.07,13.75,12.71\H,23.55,14.83,13.66\O,24.44,18.52,27.61\H
 ,24.68,18.87,28.47\H,24.73,17.61,27.64\O,26.82,18.16,13.17\H,26.3,18.7
 3,13.73\H,27.69,18.56,13.16\O,19.75,12.09,15.71\H,20.6,11.67,15.82\H,1
 9.76,12.41,14.81\O,26.06,27.48,18.91\H,26.95,27.82,19.03\H,26.07,26.64
 ,19.36\O,14.54,25.42,15.08\H,15.23,25.94,14.66\H,14.43,25.83,15.95\O,2
 9.74,19.36,19.23\H,29.37,18.68,19.79\H,28.99,19.88,18.96\O,17.08,26.44
 ,14.33\H,17.55,27.27,14.47\H,17.23,26.23,13.41\O,22.95,25.9,13.64\H,22
 .79,26.57,12.98\H,23.15,25.11,13.15\O,18.37,17.49,11.21\H,17.96,16.64,
 11.35\H,19.3,17.33,11.32\O,17.4,14.68,12.43\H,16.72,14.43,13.05\H,18.2
 2,14.54,12.9\O,25.35,27.94,22.82\H,25.29,28.87,22.61\H,24.77,27.51,22.
 19\O,18.58,25.09,28.41\H,18.49,25.17,27.46\H,17.71,24.8,28.7\O,22.27,2
 8.67,23.5\H,22.59,27.92,24.\H,22.7,28.6,22.65\O,21.3,28.42,14.86\H,22.
 13,28.89,14.93\H,21.55,27.5,14.77\O,24.6,23.64,12.11\H,24.71,23.83,11.
 18\H,23.97,22.92,12.14\O,15.12,22.1,28.49\H,15.14,21.26,28.94\H,16.02,
 22.22,28.17\O,15.99,18.18,28.37\H,15.27,17.69,28.76\H,16.74,17.59,28.4
 5\O,20.04,11.95,26.48\H,19.23,11.52,26.2\H,20.06,12.77,26.\O,15.21,17.
 12,11.94\H,15.13,16.73,11.07\H,15.64,16.45,12.47\O,26.63,22.67,13.89\H
 ,27.05,21.9,13.5\H,26.05,23.,13.2\\Version=ES64L-G09RevE.01\HF=-9773.4
 005071\RMSD=1.542e-09\RMSF=1.093e-02\Dipole=-0.384787,-7.824735,3.1340
 445\Quadrupole=-36.1542623,-514.7365627,550.890825,-1701.7649675,-1472
 .9990937,-1674.2111058\PG=C01 [X(Br1H256O128)]\\@


 ... IT CAN BE VERY DIFFICULT, IN THESE COMPLEX TIMES,
 TO UNDERSTAND JUST HOW SCIENTISTS DO WHAT THEY DO.

                     DON MOSER IN THE FEBRUARY 1979 SMITHSONIAN
 Job cpu time:       6 days 22 hours 42 minutes 22.6 seconds.
 File lengths (MBytes):  RWF=   7285 Int=      0 D2E=      0 Chk=   2411 Scr=      1
 Normal termination of Gaussian 09 at Thu May 17 17:45:36 2018.
