 Entering Gaussian System, Link 0=/cm/shared/gaussian/g09.e01/intel64-sandybridge/g09/g09
 Initial command:
 /cm/shared/gaussian/g09.e01/intel64-sandybridge/g09/l1.exe "/local/scratch/m.peluso/128_wat/Gau-17304.inp" -scrdir="/local/scratch/m.peluso/128_wat/"
 Entering Link 1 = /cm/shared/gaussian/g09.e01/intel64-sandybridge/g09/l1.exe PID=     17305.
  
 Copyright (c) 1988,1990,1992,1993,1995,1998,2003,2009,2015,
            Gaussian, Inc.  All Rights Reserved.
  
 This is part of the Gaussian(R) 09 program.  It is based on
 the Gaussian(R) 03 system (copyright 2003, Gaussian, Inc.),
 the Gaussian(R) 98 system (copyright 1998, Gaussian, Inc.),
 the Gaussian(R) 94 system (copyright 1995, Gaussian, Inc.),
 the Gaussian 92(TM) system (copyright 1992, Gaussian, Inc.),
 the Gaussian 90(TM) system (copyright 1990, Gaussian, Inc.),
 the Gaussian 88(TM) system (copyright 1988, Gaussian, Inc.),
 the Gaussian 86(TM) system (copyright 1986, Carnegie Mellon
 University), and the Gaussian 82(TM) system (copyright 1983,
 Carnegie Mellon University). Gaussian is a federally registered
 trademark of Gaussian, Inc.
  
 This software contains proprietary and confidential information,
 including trade secrets, belonging to Gaussian, Inc.
  
 This software is provided under written license and may be
 used, copied, transmitted, or stored only in accord with that
 written license.
  
 The following legend is applicable only to US Government
 contracts under FAR:
  
                    RESTRICTED RIGHTS LEGEND
  
 Use, reproduction and disclosure by the US Government is
 subject to restrictions as set forth in subparagraphs (a)
 and (c) of the Commercial Computer Software - Restricted
 Rights clause in FAR 52.227-19.
  
 Gaussian, Inc.
 340 Quinnipiac St., Bldg. 40, Wallingford CT 06492
  
  
 ---------------------------------------------------------------
 Warning -- This program may not be used in any manner that
 competes with the business of Gaussian, Inc. or will provide
 assistance to any competitor of Gaussian, Inc.  The licensee
 of this program is prohibited from giving any competitor of
 Gaussian, Inc. access to this program.  By using this program,
 the user acknowledges that Gaussian, Inc. is engaged in the
 business of creating and licensing software in the field of
 computational chemistry and represents and warrants to the
 licensee that it is not a competitor of Gaussian, Inc. and that
 it will not use this program in any manner prohibited above.
 ---------------------------------------------------------------
  

 Cite this work as:
 Gaussian 09, Revision E.01,
 M. J. Frisch, G. W. Trucks, H. B. Schlegel, G. E. Scuseria, 
 M. A. Robb, J. R. Cheeseman, G. Scalmani, V. Barone, B. Mennucci, 
 G. A. Petersson, H. Nakatsuji, M. Caricato, X. Li, H. P. Hratchian, 
 A. F. Izmaylov, J. Bloino, G. Zheng, J. L. Sonnenberg, M. Hada, 
 M. Ehara, K. Toyota, R. Fukuda, J. Hasegawa, M. Ishida, T. Nakajima, 
 Y. Honda, O. Kitao, H. Nakai, T. Vreven, J. A. Montgomery, Jr., 
 J. E. Peralta, F. Ogliaro, M. Bearpark, J. J. Heyd, E. Brothers, 
 K. N. Kudin, V. N. Staroverov, T. Keith, R. Kobayashi, J. Normand, 
 K. Raghavachari, A. Rendell, J. C. Burant, S. S. Iyengar, J. Tomasi, 
 M. Cossi, N. Rega, J. M. Millam, M. Klene, J. E. Knox, J. B. Cross, 
 V. Bakken, C. Adamo, J. Jaramillo, R. Gomperts, R. E. Stratmann, 
 O. Yazyev, A. J. Austin, R. Cammi, C. Pomelli, J. W. Ochterski, 
 R. L. Martin, K. Morokuma, V. G. Zakrzewski, G. A. Voth, 
 P. Salvador, J. J. Dannenberg, S. Dapprich, A. D. Daniels, 
 O. Farkas, J. B. Foresman, J. V. Ortiz, J. Cioslowski, 
 and D. J. Fox, Gaussian, Inc., Wallingford CT, 2013.
 
 ******************************************
 Gaussian 09:  ES64L-G09RevE.01 30-Nov-2015
                 7-May-2018 
 ******************************************
 %Mem=110GB
 %NProcShared=64
 Will use up to   64 processors via shared memory.
 %chk=snap76.chk
 ----------------------------------------------
 #p PBE1PBE/cc-pvDZ force Counterpoise=2 noSymm
 ----------------------------------------------
 1/10=7,30=1,38=1,62=2/1,3;
 2/12=2,15=1,17=6,18=5,40=1/2;
 1/10=7,30=1,38=1,53=2,62=2,63=101/22;
 3/5=16,11=2,16=1,25=1,30=1,71=1,74=-13/1,2,3;
 4//1;
 5/5=2,38=5/2;
 6/7=2,8=2,9=2,10=2,28=1/1;
 7/7=1,29=1,30=1,33=-1/1,2,3,16;
 1/10=7,30=1,53=2,62=2,63=101/22;
 3/5=7,6=11,11=2,16=1,25=1,30=1,71=1,74=-13,82=7/1,2,3;
 4//1;
 5/5=2,38=5/2;
 6/7=2,8=2,9=2,10=2,28=1/1;
 7/7=1,29=1,30=1,33=-1/1,2,3,16;
 1/10=7,30=1,53=2,62=2,63=101/22(-5);
 7/9=1,29=1,44=-1/16;
 1/10=7,30=1,62=2/3;
 99//99;
 Leave Link    1 at Mon May  7 04:12:40 2018, MaxMem= 14763950080 cpu:         7.8
 (Enter /cm/shared/gaussian/g09.e01/intel64-sandybridge/g09/l101.exe)
 ---------------------------------------
 forces on chloride comput - NWATER: 128
 ---------------------------------------
 Symbolic Z-matrix:
 Charge = -1 Multiplicity = 1 in supermolecule
 Charge = -1 Multiplicity = 1 in fragment      1.
 Charge =  0 Multiplicity = 1 in fragment      2.
 Br(Fragment=1)        20.       20.       20. 
 O(Fragment=2)         19.03     19.88     16.92 
 H(Fragment=2)         19.23     19.9      17.86 
 H(Fragment=2)         18.11     19.61     16.87 
 O(Fragment=2)         18.22     20.43     22.79 
 H(Fragment=2)         18.9      20.44     22.12 
 H(Fragment=2)         18.49     19.74     23.39 
 O(Fragment=2)         20.62     23.27     20.03 
 H(Fragment=2)         20.53     22.38     20.38 
 H(Fragment=2)         19.8      23.43     19.57 
 O(Fragment=2)         21.08     20.38     23.19 
 H(Fragment=2)         21.03     20.44     22.23 
 H(Fragment=2)         21.34     19.47     23.35 
 O(Fragment=2)         16.68     20.19     19.41 
 H(Fragment=2)         17.47     19.81     19.78 
 H(Fragment=2)         16.32     19.5      18.85 
 O(Fragment=2)         22.88     18.01     20.38 
 H(Fragment=2)         22.17     18.62     20.17 
 H(Fragment=2)         23.23     17.75     19.53 
 O(Fragment=2)         18.27     22.88     18.79 
 H(Fragment=2)         18.52     21.96     18.7 
 H(Fragment=2)         17.45     22.85     19.28 
 O(Fragment=2)         19.69     16.31     19.53 
 H(Fragment=2)         19.79     17.23     19.28 
 H(Fragment=2)         19.69     16.32     20.48 
 O(Fragment=2)         23.27     19.56     18.22 
 H(Fragment=2)         22.49     19.55     17.67 
 H(Fragment=2)         23.06     20.18     18.93 
 O(Fragment=2)         22.2      17.86     22.96 
 H(Fragment=2)         22.58     18.01     22.1 
 H(Fragment=2)         22.92     17.52     23.49 
 O(Fragment=2)         22.1      22.76     17.38 
 H(Fragment=2)         21.53     23.12     18.05 
 H(Fragment=2)         21.87     23.23     16.58 
 O(Fragment=2)         21.49     20.62     15.81 
 H(Fragment=2)         20.57     20.48     16.06 
 H(Fragment=2)         21.78     21.33     16.38 
 O(Fragment=2)         23.31     23.28     21.01 
 H(Fragment=2)         22.38     23.24     20.77 
 H(Fragment=2)         23.41     24.14     21.41 
 O(Fragment=2)         16.55     17.4      21.21 
 H(Fragment=2)         17.43     17.03     21.29 
 H(Fragment=2)         16.13     16.85     20.54 
 O(Fragment=2)         16.28     22.94     20.87 
 H(Fragment=2)         15.41     23.1      21.23 
 H(Fragment=2)         16.58     22.13     21.28 
 O(Fragment=2)         19.12     16.15     22.35 
 H(Fragment=2)         19.93     16.56     22.65 
 H(Fragment=2)         18.87     15.55     23.05 
 O(Fragment=2)         21.12     23.34     23.57 
 H(Fragment=2)         20.18     23.22     23.72 
 H(Fragment=2)         21.46     22.45     23.44 
 O(Fragment=2)         18.58     16.83     16.23 
 H(Fragment=2)         17.89     16.26     15.89 
 H(Fragment=2)         18.38     16.92     17.17 
 O(Fragment=2)         19.69     24.56     17.12 
 H(Fragment=2)         19.27     23.81     17.54 
 H(Fragment=2)         19.19     25.32     17.44 
 O(Fragment=2)         24.37     22.61     18.74 
 H(Fragment=2)         23.56     22.39     18.27 
 H(Fragment=2)         24.09     22.79     19.63 
 O(Fragment=2)         15.48     21.01     22.71 
 H(Fragment=2)         16.16     20.36     22.87 
 H(Fragment=2)         14.92     20.62     22.05 
 O(Fragment=2)         18.48     23.33     23.57 
 H(Fragment=2)         17.74     23.94     23.51 
 H(Fragment=2)         18.07     22.47     23.66 
 O(Fragment=2)         16.6      21.97     16.15 
 H(Fragment=2)         15.69     22.26     16.07 
 H(Fragment=2)         16.84     22.15     17.05 
 O(Fragment=2)         16.26     18.57     17.08 
 H(Fragment=2)         15.4      18.86     16.77 
 H(Fragment=2)         16.07     17.8      17.62 
 O(Fragment=2)         14.49     21.87     18.57 
 H(Fragment=2)         14.27     22.79     18.7 
 H(Fragment=2)         15.34     21.76     19. 
 O(Fragment=2)         20.32     18.1      14.42 
 H(Fragment=2)         19.82     18.79     13.99 
 H(Fragment=2)         19.94     18.05     15.3 
 O(Fragment=2)         20.88     14.84     17.55 
 H(Fragment=2)         20.28     15.25     16.93 
 H(Fragment=2)         20.63     15.2      18.4 
 O(Fragment=2)         21.85     25.75     19.73 
 H(Fragment=2)         22.13     25.86     20.64 
 H(Fragment=2)         21.3      24.97     19.74 
 O(Fragment=2)         23.73     16.82     18. 
 H(Fragment=2)         23.53     15.9      17.81 
 H(Fragment=2)         23.55     17.27     17.18 
 O(Fragment=2)         23.22     14.92     21.13 
 H(Fragment=2)         22.37     14.49     21.19 
 H(Fragment=2)         23.04     15.71     20.62 
 O(Fragment=2)         21.61     20.6      26.03 
 H(Fragment=2)         21.93     19.71     26.21 
 H(Fragment=2)         21.3      20.56     25.13 
 O(Fragment=2)         17.59     14.39     18.91 
 H(Fragment=2)         17.99     13.52     18.9 
 H(Fragment=2)         18.33     14.99     18.85 
 O(Fragment=2)         15.86     18.05     23.78 
 H(Fragment=2)         16.21     17.28     24.22 
 H(Fragment=2)         15.93     17.85     22.85 
 O(Fragment=2)         15.8      16.46     18.69 
 H(Fragment=2)         15.1      16.28     18.07 
 H(Fragment=2)         16.28     15.64     18.77 
 O(Fragment=2)         26.65     20.13     19.88 
 H(Fragment=2)         26.87     20.24     20.8 
 H(Fragment=2)         25.74     20.41     19.8 
 O(Fragment=2)         25.91     19.67     16.89 
 H(Fragment=2)         26.23     18.82     16.58 
 H(Fragment=2)         25.14     19.46     17.41 
 O(Fragment=2)         22.86     17.34     15.54 
 H(Fragment=2)         22.81     16.4      15.41 
 H(Fragment=2)         22.1      17.69     15.08 
 O(Fragment=2)         24.41     21.92     15.45 
 H(Fragment=2)         25.18     22.47     15.59 
 H(Fragment=2)         24.42     21.31     16.19 
 O(Fragment=2)         20.06     16.55     25.33 
 H(Fragment=2)         20.62     15.92     24.87 
 H(Fragment=2)         20.57     17.36     25.35 
 O(Fragment=2)         16.79     25.92     20.44 
 H(Fragment=2)         15.84     25.91     20.57 
 H(Fragment=2)         17.12     25.22     21.01 
 O(Fragment=2)         16.75     19.97     14.22 
 H(Fragment=2)         17.07     19.2      14.7 
 H(Fragment=2)         16.63     20.64     14.9 
 O(Fragment=2)         23.09     19.73     13.55 
 H(Fragment=2)         22.55     19.85     14.33 
 H(Fragment=2)         23.49     18.86     13.67 
 O(Fragment=2)         13.81     20.17     20.72 
 H(Fragment=2)         13.55     19.77     19.89 
 H(Fragment=2)         13.66     21.11     20.6 
 O(Fragment=2)         21.83     14.98     24.1 
 H(Fragment=2)         21.51     14.43     23.38 
 H(Fragment=2)         22.46     15.57     23.69 
 O(Fragment=2)         15.8      22.05     25.28 
 H(Fragment=2)         15.73     21.1      25.31 
 H(Fragment=2)         15.82     22.26     24.34 
 O(Fragment=2)         24.02     25.29     17.69 
 H(Fragment=2)         23.2      25.35     18.17 
 H(Fragment=2)         24.37     24.42     17.92 
 O(Fragment=2)         13.54     17.96     21.92 
 H(Fragment=2)         14.14     18.06     22.66 
 H(Fragment=2)         13.66     18.75     21.4 
 O(Fragment=2)         22.45     23.15     26.13 
 H(Fragment=2)         21.93     23.42     25.37 
 H(Fragment=2)         22.24     22.23     26.25 
 O(Fragment=2)         16.34     19.25     26.25 
 H(Fragment=2)         16.1      18.92     25.39 
 H(Fragment=2)         16.8      18.52     26.67 
 O(Fragment=2)         16.99     16.16     25.31 
 H(Fragment=2)         17.94     16.21     25.19 
 H(Fragment=2)         16.87     15.51     26. 
 O(Fragment=2)         22.31     23.77     14.77 
 H(Fragment=2)         23.17     23.34     14.73 
 H(Fragment=2)         22.07     23.9      13.85 
 O(Fragment=2)         26.94     16.53     20.63 
 H(Fragment=2)         26.13     17.       20.82 
 H(Fragment=2)         26.99     16.52     19.68 
 O(Fragment=2)         24.51     17.03     24.27 
 H(Fragment=2)         25.4      16.71     24.09 
 H(Fragment=2)         24.19     16.47     24.98 
 O(Fragment=2)         19.46     26.3      23.63 
 H(Fragment=2)         20.22     25.75     23.83 
 H(Fragment=2)         19.69     26.73     22.8 
 O(Fragment=2)         19.48     20.92     12.38 
 H(Fragment=2)         18.61     20.68     12.69 
 H(Fragment=2)         19.98     21.13     13.17 
 O(Fragment=2)         13.32     18.48     18.54 
 H(Fragment=2)         13.1      17.65     18.97 
 H(Fragment=2)         12.91     18.42     17.68 
 O(Fragment=2)         12.82     20.84     16.8 
 H(Fragment=2)         12.01     20.72     17.28 
 H(Fragment=2)         13.49     20.94     17.47 
 O(Fragment=2)         18.33     26.77     18.35 
 H(Fragment=2)         17.69     26.59     19.04 
 H(Fragment=2)         18.06     27.61     17.99 
 O(Fragment=2)         20.94     13.27     21.95 
 H(Fragment=2)         21.19     12.39     21.65 
 H(Fragment=2)         20.05     13.16     22.27 
 O(Fragment=2)         19.56     15.25     13.95 
 H(Fragment=2)         19.76     16.18     14.02 
 H(Fragment=2)         19.01     15.06     14.71 
 O(Fragment=2)         23.31     25.93     22.2 
 H(Fragment=2)         23.95     26.44     21.71 
 H(Fragment=2)         23.46     26.18     23.11 
 O(Fragment=2)         19.56     26.03     14.76 
 H(Fragment=2)         19.82     25.61     15.58 
 H(Fragment=2)         18.6      26.09     14.81 
 O(Fragment=2)         14.41     15.13     21.3 
 H(Fragment=2)         14.2      16.04     21.49 
 H(Fragment=2)         13.83     14.89     20.57 
 O(Fragment=2)         21.34     27.45     17.68 
 H(Fragment=2)         21.72     26.82     18.29 
 H(Fragment=2)         20.4      27.42     17.85 
 O(Fragment=2)         19.43     25.06     26.28 
 H(Fragment=2)         18.65     25.04     26.83 
 H(Fragment=2)         19.13     24.72     25.43 
 O(Fragment=2)         22.5      12.65     18.14 
 H(Fragment=2)         21.72     13.18     17.98 
 H(Fragment=2)         22.17     11.87     18.59 
 O(Fragment=2)         26.96     24.04     19.34 
 H(Fragment=2)         26.09     23.92     18.95 
 H(Fragment=2)         27.54     23.5      18.8 
 O(Fragment=2)         16.51     13.44     21.63 
 H(Fragment=2)         15.71     13.9      21.88 
 H(Fragment=2)         16.55     13.53     20.68 
 O(Fragment=2)         13.32     23.08     21.37 
 H(Fragment=2)         13.57     23.92     21. 
 H(Fragment=2)         13.68     23.09     22.26 
 O(Fragment=2)         17.51     17.12     13.19 
 H(Fragment=2)         18.06     17.38     12.45 
 H(Fragment=2)         17.1      17.94     13.48 
 O(Fragment=2)         22.7      17.84     26.66 
 H(Fragment=2)         22.31     17.13     27.16 
 H(Fragment=2)         23.39     18.18     27.23 
 O(Fragment=2)         15.4      25.44     17.61 
 H(Fragment=2)         14.68     25.04     17.12 
 H(Fragment=2)         15.02     25.69     18.45 
 O(Fragment=2)         19.06     13.84     24.2 
 H(Fragment=2)         18.57     13.14     24.65 
 H(Fragment=2)         19.75     14.08     24.82 
 O(Fragment=2)         25.09     14.27     18.22 
 H(Fragment=2)         24.61     14.14     19.04 
 H(Fragment=2)         24.5      13.94     17.54 
 O(Fragment=2)         16.9      25.68     23.94 
 H(Fragment=2)         17.75     26.11     23.77 
 H(Fragment=2)         16.67     25.96     24.82 
 O(Fragment=2)         27.43     21.71     16.58 
 H(Fragment=2)         26.86     20.97     16.81 
 H(Fragment=2)         27.58     21.61     15.64 
 O(Fragment=2)         12.95     20.03     24.3 
 H(Fragment=2)         13.86     19.83     24.53 
 H(Fragment=2)         12.44     19.57     24.96 
 O(Fragment=2)         26.63     19.66     24.52 
 H(Fragment=2)         25.81     19.91     24.95 
 H(Fragment=2)         27.04     19.04     25.13 
 O(Fragment=2)         26.13     22.92     24.54 
 H(Fragment=2)         26.13     22.82     23.59 
 H(Fragment=2)         26.41     23.83     24.69 
 O(Fragment=2)         24.91     21.67     26.6 
 H(Fragment=2)         24.02     21.94     26.34 
 H(Fragment=2)         25.47     22.03     25.92 
 O(Fragment=2)         27.04     16.34     17.76 
 H(Fragment=2)         26.28     15.81     18. 
 H(Fragment=2)         27.05     16.32     16.8 
 O(Fragment=2)         14.55     24.29     23.62 
 H(Fragment=2)         15.08     25.05     23.37 
 H(Fragment=2)         14.51     24.33     24.58 
 O(Fragment=2)         17.1      14.36     15.42 
 H(Fragment=2)         16.71     14.4      14.55 
 H(Fragment=2)         16.41     13.99     15.98 
 O(Fragment=2)         26.03     17.2      15.1 
 H(Fragment=2)         26.6      17.01     14.35 
 H(Fragment=2)         25.18     17.41     14.71 
 O(Fragment=2)         16.98     26.53     15.66 
 H(Fragment=2)         16.46     26.01     16.27 
 H(Fragment=2)         17.28     27.28     16.17 
 O(Fragment=2)         26.61     23.82     22.07 
 H(Fragment=2)         26.34     24.73     22.1 
 H(Fragment=2)         26.94     23.69     21.18 
 O(Fragment=2)         24.34     25.63     25.02 
 H(Fragment=2)         23.83     24.82     25.02 
 H(Fragment=2)         24.54     25.79     25.95 
 O(Fragment=2)         13.92     23.45     16.06 
 H(Fragment=2)         13.6      24.06     15.4 
 H(Fragment=2)         13.28     22.74     16.07 
 O(Fragment=2)         20.18     12.56     15.11 
 H(Fragment=2)         19.72     13.19     15.65 
 H(Fragment=2)         19.94     12.78     14.21 
 O(Fragment=2)         22.15     19.97     28.64 
 H(Fragment=2)         21.77     20.43     27.9 
 H(Fragment=2)         22.61     20.65     29.14 
 O(Fragment=2)         16.12     23.27     12.62 
 H(Fragment=2)         15.34     23.03     12.12 
 H(Fragment=2)         16.18     22.62     13.32 
 O(Fragment=2)         24.86     12.85     22.52 
 H(Fragment=2)         24.16     12.26     22.78 
 H(Fragment=2)         24.45     13.46     21.92 
 O(Fragment=2)         19.22     14.81     27.33 
 H(Fragment=2)         19.95     14.55     27.88 
 H(Fragment=2)         19.55     15.55     26.82 
 O(Fragment=2)         22.23     15.29     13.45 
 H(Fragment=2)         21.3      15.09     13.57 
 H(Fragment=2)         22.59     14.51     13.03 
 O(Fragment=2)         24.08     22.06     12.24 
 H(Fragment=2)         23.25     22.53     12.15 
 H(Fragment=2)         23.92     21.42     12.93 
 O(Fragment=2)         15.91     22.41     27.83 
 H(Fragment=2)         16.26     22.4      26.94 
 H(Fragment=2)         15.37     21.62     27.88 
 O(Fragment=2)         22.74     26.86     15.01 
 H(Fragment=2)         22.86     25.91     14.98 
 H(Fragment=2)         22.02     26.99     15.63 
 O(Fragment=2)         18.44     18.45     28.01 
 H(Fragment=2)         17.82     17.86     28.45 
 H(Fragment=2)         19.22     18.44     28.58 
 O(Fragment=2)         13.54     15.58     17.16 
 H(Fragment=2)         12.59     15.51     17.3 
 H(Fragment=2)         13.62     16.11     16.37 
 O(Fragment=2)         15.54     13.57     25.04 
 H(Fragment=2)         16.21     14.11     24.61 
 H(Fragment=2)         14.71     13.97     24.77 
 O(Fragment=2)         18.87     21.41     28.49 
 H(Fragment=2)         18.01     21.55     28.09 
 H(Fragment=2)         19.06     20.49     28.32 
 O(Fragment=2)         28.95     21.66     18.84 
 H(Fragment=2)         28.61     21.75     17.96 
 H(Fragment=2)         28.3      21.14     19.31 
 O(Fragment=2)         26.96     16.19     23.7 
 H(Fragment=2)         27.13     16.53     22.82 
 H(Fragment=2)         27.72     15.63     23.88 
 O(Fragment=2)         13.19     17.77     15.53 
 H(Fragment=2)         13.58     17.48     14.7 
 H(Fragment=2)         12.26     17.84     15.34 
 O(Fragment=2)         19.33     28.77     21.48 
 H(Fragment=2)         18.98     28.37     20.68 
 H(Fragment=2)         19.51     29.67     21.23 
 O(Fragment=2)         28.37     20.54     22.61 
 H(Fragment=2)         27.83     20.34     23.37 
 H(Fragment=2)         28.88     21.31     22.87 
 O(Fragment=2)         13.48     25.52     20.12 
 H(Fragment=2)         12.69     25.02     19.88 
 H(Fragment=2)         13.16     26.4      20.3 
 O(Fragment=2)         21.9      19.39     11. 
 H(Fragment=2)         22.09     18.54     10.6 
 H(Fragment=2)         22.4      19.38     11.82 
 O(Fragment=2)         18.69     11.48     21.03 
 H(Fragment=2)         18.15     11.73     21.78 
 H(Fragment=2)         18.1      10.97     20.47 
 O(Fragment=2)         23.84     12.94     15.93 
 H(Fragment=2)         23.42     12.71     16.76 
 H(Fragment=2)         23.11     13.18     15.35 
 O(Fragment=2)         14.01     13.22     18.67 
 H(Fragment=2)         13.73     13.91     18.07 
 H(Fragment=2)         14.94     13.1      18.48 
 O(Fragment=2)         11.8      22.17     23.89 
 H(Fragment=2)         12.27     21.34     23.79 
 H(Fragment=2)         11.99     22.44     24.79 
 O(Fragment=2)         10.9      22.09     20.6 
 H(Fragment=2)         10.1      22.21     21.12 
 H(Fragment=2)         11.61     22.08     21.24 
 O(Fragment=2)         19.34     17.75     11.04 
 H(Fragment=2)         19.85     18.5      11.37 
 H(Fragment=2)         20.       17.13     10.73 
 O(Fragment=2)         26.35     25.05     15.89 
 H(Fragment=2)         26.55     24.81     14.99 
 H(Fragment=2)         25.48     25.45     15.84 
 O(Fragment=2)         22.12     25.49     27.16 
 H(Fragment=2)         22.56     24.66     26.99 
 H(Fragment=2)         21.22     25.36     26.87 
 O(Fragment=2)         25.71     27.54     17.67 
 H(Fragment=2)         26.54     27.27     17.29 
 H(Fragment=2)         25.16     26.76     17.63 
 O(Fragment=2)         23.94     17.35     12.38 
 H(Fragment=2)         23.25     16.69     12.39 
 H(Fragment=2)         24.59     17.01     11.76 
 O(Fragment=2)         20.68     23.43     28.81 
 H(Fragment=2)         20.06     22.7      28.78 
 H(Fragment=2)         20.52     23.91     28. 
 O(Fragment=2)         29.06     17.64     21.87 
 H(Fragment=2)         28.6      17.78     21.04 
 H(Fragment=2)         29.13     18.51     22.26 
 O(Fragment=2)         23.65     13.89     26.27 
 H(Fragment=2)         23.       13.19     26.24 
 H(Fragment=2)         23.93     14.       25.36 
 O(Fragment=2)         10.62     18.92     19.89 
 H(Fragment=2)         10.2      19.54     20.49 
 H(Fragment=2)         11.08     19.47     19.26 
 O(Fragment=2)         12.04     20.44     14.21 
 H(Fragment=2)         12.53     20.5      15.04 
 H(Fragment=2)         11.12     20.56     14.47 
 O(Fragment=2)         21.01     10.92     19.83 
 H(Fragment=2)         20.37     10.99     20.53 
 H(Fragment=2)         20.52     10.61     19.07 
 O(Fragment=2)         28.02     14.29     21.68 
 H(Fragment=2)         27.23     14.77     21.44 
 H(Fragment=2)         28.57     14.33     20.89 
 O(Fragment=2)         29.21     18.24     18.69 
 H(Fragment=2)         28.57     17.71     18.21 
 H(Fragment=2)         29.12     19.12     18.32 
 O(Fragment=2)         10.76     18.62     22.73 
 H(Fragment=2)         11.3      19.21     23.25 
 H(Fragment=2)         11.38     18.17     22.15 
 O(Fragment=2)         16.13     14.63     12.95 
 H(Fragment=2)         15.99     14.29     12.07 
 H(Fragment=2)         16.76     15.35     12.84 
 
 NAtoms=    385 NQM=      385 NQMF=       0 NMMI=      0 NMMIF=      0
                NMic=       0 NMicF=      0.
                    Isotopes and Nuclear Properties:
 (Nuclear quadrupole moments (NQMom) in fm**2, nuclear magnetic moments (NMagM)
  in nuclear magnetons)

  Atom         1           2           3           4           5           6           7           8           9          10
 IAtWgt=          79          16           1           1          16           1           1          16           1           1
 AtmWgt=  78.9183361  15.9949146   1.0078250   1.0078250  15.9949146   1.0078250   1.0078250  15.9949146   1.0078250   1.0078250
 NucSpn=           3           0           1           1           0           1           1           0           1           1
 AtZEff=   0.0000000   0.0000000   0.0000000   0.0000000   0.0000000   0.0000000   0.0000000   0.0000000   0.0000000   0.0000000
 NQMom=   31.3000000   0.0000000   0.0000000   0.0000000   0.0000000   0.0000000   0.0000000   0.0000000   0.0000000   0.0000000
 NMagM=    2.1063990   0.0000000   2.7928460   2.7928460   0.0000000   2.7928460   2.7928460   0.0000000   2.7928460   2.7928460
 AtZNuc=  35.0000000   8.0000000   1.0000000   1.0000000   8.0000000   1.0000000   1.0000000   8.0000000   1.0000000   1.0000000

  Atom        11          12          13          14          15          16          17          18          19          20
 IAtWgt=          16           1           1          16           1           1          16           1           1          16
 AtmWgt=  15.9949146   1.0078250   1.0078250  15.9949146   1.0078250   1.0078250  15.9949146   1.0078250   1.0078250  15.9949146
 NucSpn=           0           1           1           0           1           1           0           1           1           0
 AtZEff=   0.0000000   0.0000000   0.0000000   0.0000000   0.0000000   0.0000000   0.0000000   0.0000000   0.0000000   0.0000000
 NQMom=    0.0000000   0.0000000   0.0000000   0.0000000   0.0000000   0.0000000   0.0000000   0.0000000   0.0000000   0.0000000
 NMagM=    0.0000000   2.7928460   2.7928460   0.0000000   2.7928460   2.7928460   0.0000000   2.7928460   2.7928460   0.0000000
 AtZNuc=   8.0000000   1.0000000   1.0000000   8.0000000   1.0000000   1.0000000   8.0000000   1.0000000   1.0000000   8.0000000

  Atom        21          22          23          24          25          26          27          28          29          30
 IAtWgt=           1           1          16           1           1          16           1           1          16           1
 AtmWgt=   1.0078250   1.0078250  15.9949146   1.0078250   1.0078250  15.9949146   1.0078250   1.0078250  15.9949146   1.0078250
 NucSpn=           1           1           0           1           1           0           1           1           0           1
 AtZEff=   0.0000000   0.0000000   0.0000000   0.0000000   0.0000000   0.0000000   0.0000000   0.0000000   0.0000000   0.0000000
 NQMom=    0.0000000   0.0000000   0.0000000   0.0000000   0.0000000   0.0000000   0.0000000   0.0000000   0.0000000   0.0000000
 NMagM=    2.7928460   2.7928460   0.0000000   2.7928460   2.7928460   0.0000000   2.7928460   2.7928460   0.0000000   2.7928460
 AtZNuc=   1.0000000   1.0000000   8.0000000   1.0000000   1.0000000   8.0000000   1.0000000   1.0000000   8.0000000   1.0000000

  Atom        31          32          33          34          35          36          37          38          39          40
 IAtWgt=           1          16           1           1          16           1           1          16           1           1
 AtmWgt=   1.0078250  15.9949146   1.0078250   1.0078250  15.9949146   1.0078250   1.0078250  15.9949146   1.0078250   1.0078250
 NucSpn=           1           0           1           1           0           1           1           0           1           1
 AtZEff=   0.0000000   0.0000000   0.0000000   0.0000000   0.0000000   0.0000000   0.0000000   0.0000000   0.0000000   0.0000000
 NQMom=    0.0000000   0.0000000   0.0000000   0.0000000   0.0000000   0.0000000   0.0000000   0.0000000   0.0000000   0.0000000
 NMagM=    2.7928460   0.0000000   2.7928460   2.7928460   0.0000000   2.7928460   2.7928460   0.0000000   2.7928460   2.7928460
 AtZNuc=   1.0000000   8.0000000   1.0000000   1.0000000   8.0000000   1.0000000   1.0000000   8.0000000   1.0000000   1.0000000

  Atom        41          42          43          44          45          46          47          48          49          50
 IAtWgt=          16           1           1          16           1           1          16           1           1          16
 AtmWgt=  15.9949146   1.0078250   1.0078250  15.9949146   1.0078250   1.0078250  15.9949146   1.0078250   1.0078250  15.9949146
 NucSpn=           0           1           1           0           1           1           0           1           1           0
 AtZEff=   0.0000000   0.0000000   0.0000000   0.0000000   0.0000000   0.0000000   0.0000000   0.0000000   0.0000000   0.0000000
 NQMom=    0.0000000   0.0000000   0.0000000   0.0000000   0.0000000   0.0000000   0.0000000   0.0000000   0.0000000   0.0000000
 NMagM=    0.0000000   2.7928460   2.7928460   0.0000000   2.7928460   2.7928460   0.0000000   2.7928460   2.7928460   0.0000000
 AtZNuc=   8.0000000   1.0000000   1.0000000   8.0000000   1.0000000   1.0000000   8.0000000   1.0000000   1.0000000   8.0000000

  Atom        51          52          53          54          55          56          57          58          59          60
 IAtWgt=           1           1          16           1           1          16           1           1          16           1
 AtmWgt=   1.0078250   1.0078250  15.9949146   1.0078250   1.0078250  15.9949146   1.0078250   1.0078250  15.9949146   1.0078250
 NucSpn=           1           1           0           1           1           0           1           1           0           1
 AtZEff=   0.0000000   0.0000000   0.0000000   0.0000000   0.0000000   0.0000000   0.0000000   0.0000000   0.0000000   0.0000000
 NQMom=    0.0000000   0.0000000   0.0000000   0.0000000   0.0000000   0.0000000   0.0000000   0.0000000   0.0000000   0.0000000
 NMagM=    2.7928460   2.7928460   0.0000000   2.7928460   2.7928460   0.0000000   2.7928460   2.7928460   0.0000000   2.7928460
 AtZNuc=   1.0000000   1.0000000   8.0000000   1.0000000   1.0000000   8.0000000   1.0000000   1.0000000   8.0000000   1.0000000

  Atom        61          62          63          64          65          66          67          68          69          70
 IAtWgt=           1          16           1           1          16           1           1          16           1           1
 AtmWgt=   1.0078250  15.9949146   1.0078250   1.0078250  15.9949146   1.0078250   1.0078250  15.9949146   1.0078250   1.0078250
 NucSpn=           1           0           1           1           0           1           1           0           1           1
 AtZEff=   0.0000000   0.0000000   0.0000000   0.0000000   0.0000000   0.0000000   0.0000000   0.0000000   0.0000000   0.0000000
 NQMom=    0.0000000   0.0000000   0.0000000   0.0000000   0.0000000   0.0000000   0.0000000   0.0000000   0.0000000   0.0000000
 NMagM=    2.7928460   0.0000000   2.7928460   2.7928460   0.0000000   2.7928460   2.7928460   0.0000000   2.7928460   2.7928460
 AtZNuc=   1.0000000   8.0000000   1.0000000   1.0000000   8.0000000   1.0000000   1.0000000   8.0000000   1.0000000   1.0000000

  Atom        71          72          73          74          75          76          77          78          79          80
 IAtWgt=          16           1           1          16           1           1          16           1           1          16
 AtmWgt=  15.9949146   1.0078250   1.0078250  15.9949146   1.0078250   1.0078250  15.9949146   1.0078250   1.0078250  15.9949146
 NucSpn=           0           1           1           0           1           1           0           1           1           0
 AtZEff=   0.0000000   0.0000000   0.0000000   0.0000000   0.0000000   0.0000000   0.0000000   0.0000000   0.0000000   0.0000000
 NQMom=    0.0000000   0.0000000   0.0000000   0.0000000   0.0000000   0.0000000   0.0000000   0.0000000   0.0000000   0.0000000
 NMagM=    0.0000000   2.7928460   2.7928460   0.0000000   2.7928460   2.7928460   0.0000000   2.7928460   2.7928460   0.0000000
 AtZNuc=   8.0000000   1.0000000   1.0000000   8.0000000   1.0000000   1.0000000   8.0000000   1.0000000   1.0000000   8.0000000

  Atom        81          82          83          84          85          86          87          88          89          90
 IAtWgt=           1           1          16           1           1          16           1           1          16           1
 AtmWgt=   1.0078250   1.0078250  15.9949146   1.0078250   1.0078250  15.9949146   1.0078250   1.0078250  15.9949146   1.0078250
 NucSpn=           1           1           0           1           1           0           1           1           0           1
 AtZEff=   0.0000000   0.0000000   0.0000000   0.0000000   0.0000000   0.0000000   0.0000000   0.0000000   0.0000000   0.0000000
 NQMom=    0.0000000   0.0000000   0.0000000   0.0000000   0.0000000   0.0000000   0.0000000   0.0000000   0.0000000   0.0000000
 NMagM=    2.7928460   2.7928460   0.0000000   2.7928460   2.7928460   0.0000000   2.7928460   2.7928460   0.0000000   2.7928460
 AtZNuc=   1.0000000   1.0000000   8.0000000   1.0000000   1.0000000   8.0000000   1.0000000   1.0000000   8.0000000   1.0000000

  Atom        91          92          93          94          95          96          97          98          99         100
 IAtWgt=           1          16           1           1          16           1           1          16           1           1
 AtmWgt=   1.0078250  15.9949146   1.0078250   1.0078250  15.9949146   1.0078250   1.0078250  15.9949146   1.0078250   1.0078250
 NucSpn=           1           0           1           1           0           1           1           0           1           1
 AtZEff=   0.0000000   0.0000000   0.0000000   0.0000000   0.0000000   0.0000000   0.0000000   0.0000000   0.0000000   0.0000000
 NQMom=    0.0000000   0.0000000   0.0000000   0.0000000   0.0000000   0.0000000   0.0000000   0.0000000   0.0000000   0.0000000
 NMagM=    2.7928460   0.0000000   2.7928460   2.7928460   0.0000000   2.7928460   2.7928460   0.0000000   2.7928460   2.7928460
 AtZNuc=   1.0000000   8.0000000   1.0000000   1.0000000   8.0000000   1.0000000   1.0000000   8.0000000   1.0000000   1.0000000

  Atom       101         102         103         104         105         106         107         108         109         110
 IAtWgt=          16           1           1          16           1           1          16           1           1          16
 AtmWgt=  15.9949146   1.0078250   1.0078250  15.9949146   1.0078250   1.0078250  15.9949146   1.0078250   1.0078250  15.9949146
 NucSpn=           0           1           1           0           1           1           0           1           1           0
 AtZEff=   0.0000000   0.0000000   0.0000000   0.0000000   0.0000000   0.0000000   0.0000000   0.0000000   0.0000000   0.0000000
 NQMom=    0.0000000   0.0000000   0.0000000   0.0000000   0.0000000   0.0000000   0.0000000   0.0000000   0.0000000   0.0000000
 NMagM=    0.0000000   2.7928460   2.7928460   0.0000000   2.7928460   2.7928460   0.0000000   2.7928460   2.7928460   0.0000000
 AtZNuc=   8.0000000   1.0000000   1.0000000   8.0000000   1.0000000   1.0000000   8.0000000   1.0000000   1.0000000   8.0000000

  Atom       111         112         113         114         115         116         117         118         119         120
 IAtWgt=           1           1          16           1           1          16           1           1          16           1
 AtmWgt=   1.0078250   1.0078250  15.9949146   1.0078250   1.0078250  15.9949146   1.0078250   1.0078250  15.9949146   1.0078250
 NucSpn=           1           1           0           1           1           0           1           1           0           1
 AtZEff=   0.0000000   0.0000000   0.0000000   0.0000000   0.0000000   0.0000000   0.0000000   0.0000000   0.0000000   0.0000000
 NQMom=    0.0000000   0.0000000   0.0000000   0.0000000   0.0000000   0.0000000   0.0000000   0.0000000   0.0000000   0.0000000
 NMagM=    2.7928460   2.7928460   0.0000000   2.7928460   2.7928460   0.0000000   2.7928460   2.7928460   0.0000000   2.7928460
 AtZNuc=   1.0000000   1.0000000   8.0000000   1.0000000   1.0000000   8.0000000   1.0000000   1.0000000   8.0000000   1.0000000

  Atom       121         122         123         124         125         126         127         128         129         130
 IAtWgt=           1          16           1           1          16           1           1          16           1           1
 AtmWgt=   1.0078250  15.9949146   1.0078250   1.0078250  15.9949146   1.0078250   1.0078250  15.9949146   1.0078250   1.0078250
 NucSpn=           1           0           1           1           0           1           1           0           1           1
 AtZEff=   0.0000000   0.0000000   0.0000000   0.0000000   0.0000000   0.0000000   0.0000000   0.0000000   0.0000000   0.0000000
 NQMom=    0.0000000   0.0000000   0.0000000   0.0000000   0.0000000   0.0000000   0.0000000   0.0000000   0.0000000   0.0000000
 NMagM=    2.7928460   0.0000000   2.7928460   2.7928460   0.0000000   2.7928460   2.7928460   0.0000000   2.7928460   2.7928460
 AtZNuc=   1.0000000   8.0000000   1.0000000   1.0000000   8.0000000   1.0000000   1.0000000   8.0000000   1.0000000   1.0000000

  Atom       131         132         133         134         135         136         137         138         139         140
 IAtWgt=          16           1           1          16           1           1          16           1           1          16
 AtmWgt=  15.9949146   1.0078250   1.0078250  15.9949146   1.0078250   1.0078250  15.9949146   1.0078250   1.0078250  15.9949146
 NucSpn=           0           1           1           0           1           1           0           1           1           0
 AtZEff=   0.0000000   0.0000000   0.0000000   0.0000000   0.0000000   0.0000000   0.0000000   0.0000000   0.0000000   0.0000000
 NQMom=    0.0000000   0.0000000   0.0000000   0.0000000   0.0000000   0.0000000   0.0000000   0.0000000   0.0000000   0.0000000
 NMagM=    0.0000000   2.7928460   2.7928460   0.0000000   2.7928460   2.7928460   0.0000000   2.7928460   2.7928460   0.0000000
 AtZNuc=   8.0000000   1.0000000   1.0000000   8.0000000   1.0000000   1.0000000   8.0000000   1.0000000   1.0000000   8.0000000

  Atom       141         142         143         144         145         146         147         148         149         150
 IAtWgt=           1           1          16           1           1          16           1           1          16           1
 AtmWgt=   1.0078250   1.0078250  15.9949146   1.0078250   1.0078250  15.9949146   1.0078250   1.0078250  15.9949146   1.0078250
 NucSpn=           1           1           0           1           1           0           1           1           0           1
 AtZEff=   0.0000000   0.0000000   0.0000000   0.0000000   0.0000000   0.0000000   0.0000000   0.0000000   0.0000000   0.0000000
 NQMom=    0.0000000   0.0000000   0.0000000   0.0000000   0.0000000   0.0000000   0.0000000   0.0000000   0.0000000   0.0000000
 NMagM=    2.7928460   2.7928460   0.0000000   2.7928460   2.7928460   0.0000000   2.7928460   2.7928460   0.0000000   2.7928460
 AtZNuc=   1.0000000   1.0000000   8.0000000   1.0000000   1.0000000   8.0000000   1.0000000   1.0000000   8.0000000   1.0000000

  Atom       151         152         153         154         155         156         157         158         159         160
 IAtWgt=           1          16           1           1          16           1           1          16           1           1
 AtmWgt=   1.0078250  15.9949146   1.0078250   1.0078250  15.9949146   1.0078250   1.0078250  15.9949146   1.0078250   1.0078250
 NucSpn=           1           0           1           1           0           1           1           0           1           1
 AtZEff=   0.0000000   0.0000000   0.0000000   0.0000000   0.0000000   0.0000000   0.0000000   0.0000000   0.0000000   0.0000000
 NQMom=    0.0000000   0.0000000   0.0000000   0.0000000   0.0000000   0.0000000   0.0000000   0.0000000   0.0000000   0.0000000
 NMagM=    2.7928460   0.0000000   2.7928460   2.7928460   0.0000000   2.7928460   2.7928460   0.0000000   2.7928460   2.7928460
 AtZNuc=   1.0000000   8.0000000   1.0000000   1.0000000   8.0000000   1.0000000   1.0000000   8.0000000   1.0000000   1.0000000

  Atom       161         162         163         164         165         166         167         168         169         170
 IAtWgt=          16           1           1          16           1           1          16           1           1          16
 AtmWgt=  15.9949146   1.0078250   1.0078250  15.9949146   1.0078250   1.0078250  15.9949146   1.0078250   1.0078250  15.9949146
 NucSpn=           0           1           1           0           1           1           0           1           1           0
 AtZEff=   0.0000000   0.0000000   0.0000000   0.0000000   0.0000000   0.0000000   0.0000000   0.0000000   0.0000000   0.0000000
 NQMom=    0.0000000   0.0000000   0.0000000   0.0000000   0.0000000   0.0000000   0.0000000   0.0000000   0.0000000   0.0000000
 NMagM=    0.0000000   2.7928460   2.7928460   0.0000000   2.7928460   2.7928460   0.0000000   2.7928460   2.7928460   0.0000000
 AtZNuc=   8.0000000   1.0000000   1.0000000   8.0000000   1.0000000   1.0000000   8.0000000   1.0000000   1.0000000   8.0000000

  Atom       171         172         173         174         175         176         177         178         179         180
 IAtWgt=           1           1          16           1           1          16           1           1          16           1
 AtmWgt=   1.0078250   1.0078250  15.9949146   1.0078250   1.0078250  15.9949146   1.0078250   1.0078250  15.9949146   1.0078250
 NucSpn=           1           1           0           1           1           0           1           1           0           1
 AtZEff=   0.0000000   0.0000000   0.0000000   0.0000000   0.0000000   0.0000000   0.0000000   0.0000000   0.0000000   0.0000000
 NQMom=    0.0000000   0.0000000   0.0000000   0.0000000   0.0000000   0.0000000   0.0000000   0.0000000   0.0000000   0.0000000
 NMagM=    2.7928460   2.7928460   0.0000000   2.7928460   2.7928460   0.0000000   2.7928460   2.7928460   0.0000000   2.7928460
 AtZNuc=   1.0000000   1.0000000   8.0000000   1.0000000   1.0000000   8.0000000   1.0000000   1.0000000   8.0000000   1.0000000

  Atom       181         182         183         184         185         186         187         188         189         190
 IAtWgt=           1          16           1           1          16           1           1          16           1           1
 AtmWgt=   1.0078250  15.9949146   1.0078250   1.0078250  15.9949146   1.0078250   1.0078250  15.9949146   1.0078250   1.0078250
 NucSpn=           1           0           1           1           0           1           1           0           1           1
 AtZEff=   0.0000000   0.0000000   0.0000000   0.0000000   0.0000000   0.0000000   0.0000000   0.0000000   0.0000000   0.0000000
 NQMom=    0.0000000   0.0000000   0.0000000   0.0000000   0.0000000   0.0000000   0.0000000   0.0000000   0.0000000   0.0000000
 NMagM=    2.7928460   0.0000000   2.7928460   2.7928460   0.0000000   2.7928460   2.7928460   0.0000000   2.7928460   2.7928460
 AtZNuc=   1.0000000   8.0000000   1.0000000   1.0000000   8.0000000   1.0000000   1.0000000   8.0000000   1.0000000   1.0000000

  Atom       191         192         193         194         195         196         197         198         199         200
 IAtWgt=          16           1           1          16           1           1          16           1           1          16
 AtmWgt=  15.9949146   1.0078250   1.0078250  15.9949146   1.0078250   1.0078250  15.9949146   1.0078250   1.0078250  15.9949146
 NucSpn=           0           1           1           0           1           1           0           1           1           0
 AtZEff=   0.0000000   0.0000000   0.0000000   0.0000000   0.0000000   0.0000000   0.0000000   0.0000000   0.0000000   0.0000000
 NQMom=    0.0000000   0.0000000   0.0000000   0.0000000   0.0000000   0.0000000   0.0000000   0.0000000   0.0000000   0.0000000
 NMagM=    0.0000000   2.7928460   2.7928460   0.0000000   2.7928460   2.7928460   0.0000000   2.7928460   2.7928460   0.0000000
 AtZNuc=   8.0000000   1.0000000   1.0000000   8.0000000   1.0000000   1.0000000   8.0000000   1.0000000   1.0000000   8.0000000

  Atom       201         202         203         204         205         206         207         208         209         210
 IAtWgt=           1           1          16           1           1          16           1           1          16           1
 AtmWgt=   1.0078250   1.0078250  15.9949146   1.0078250   1.0078250  15.9949146   1.0078250   1.0078250  15.9949146   1.0078250
 NucSpn=           1           1           0           1           1           0           1           1           0           1
 AtZEff=   0.0000000   0.0000000   0.0000000   0.0000000   0.0000000   0.0000000   0.0000000   0.0000000   0.0000000   0.0000000
 NQMom=    0.0000000   0.0000000   0.0000000   0.0000000   0.0000000   0.0000000   0.0000000   0.0000000   0.0000000   0.0000000
 NMagM=    2.7928460   2.7928460   0.0000000   2.7928460   2.7928460   0.0000000   2.7928460   2.7928460   0.0000000   2.7928460
 AtZNuc=   1.0000000   1.0000000   8.0000000   1.0000000   1.0000000   8.0000000   1.0000000   1.0000000   8.0000000   1.0000000

  Atom       211         212         213         214         215         216         217         218         219         220
 IAtWgt=           1          16           1           1          16           1           1          16           1           1
 AtmWgt=   1.0078250  15.9949146   1.0078250   1.0078250  15.9949146   1.0078250   1.0078250  15.9949146   1.0078250   1.0078250
 NucSpn=           1           0           1           1           0           1           1           0           1           1
 AtZEff=   0.0000000   0.0000000   0.0000000   0.0000000   0.0000000   0.0000000   0.0000000   0.0000000   0.0000000   0.0000000
 NQMom=    0.0000000   0.0000000   0.0000000   0.0000000   0.0000000   0.0000000   0.0000000   0.0000000   0.0000000   0.0000000
 NMagM=    2.7928460   0.0000000   2.7928460   2.7928460   0.0000000   2.7928460   2.7928460   0.0000000   2.7928460   2.7928460
 AtZNuc=   1.0000000   8.0000000   1.0000000   1.0000000   8.0000000   1.0000000   1.0000000   8.0000000   1.0000000   1.0000000

  Atom       221         222         223         224         225         226         227         228         229         230
 IAtWgt=          16           1           1          16           1           1          16           1           1          16
 AtmWgt=  15.9949146   1.0078250   1.0078250  15.9949146   1.0078250   1.0078250  15.9949146   1.0078250   1.0078250  15.9949146
 NucSpn=           0           1           1           0           1           1           0           1           1           0
 AtZEff=   0.0000000   0.0000000   0.0000000   0.0000000   0.0000000   0.0000000   0.0000000   0.0000000   0.0000000   0.0000000
 NQMom=    0.0000000   0.0000000   0.0000000   0.0000000   0.0000000   0.0000000   0.0000000   0.0000000   0.0000000   0.0000000
 NMagM=    0.0000000   2.7928460   2.7928460   0.0000000   2.7928460   2.7928460   0.0000000   2.7928460   2.7928460   0.0000000
 AtZNuc=   8.0000000   1.0000000   1.0000000   8.0000000   1.0000000   1.0000000   8.0000000   1.0000000   1.0000000   8.0000000

  Atom       231         232         233         234         235         236         237         238         239         240
 IAtWgt=           1           1          16           1           1          16           1           1          16           1
 AtmWgt=   1.0078250   1.0078250  15.9949146   1.0078250   1.0078250  15.9949146   1.0078250   1.0078250  15.9949146   1.0078250
 NucSpn=           1           1           0           1           1           0           1           1           0           1
 AtZEff=   0.0000000   0.0000000   0.0000000   0.0000000   0.0000000   0.0000000   0.0000000   0.0000000   0.0000000   0.0000000
 NQMom=    0.0000000   0.0000000   0.0000000   0.0000000   0.0000000   0.0000000   0.0000000   0.0000000   0.0000000   0.0000000
 NMagM=    2.7928460   2.7928460   0.0000000   2.7928460   2.7928460   0.0000000   2.7928460   2.7928460   0.0000000   2.7928460
 AtZNuc=   1.0000000   1.0000000   8.0000000   1.0000000   1.0000000   8.0000000   1.0000000   1.0000000   8.0000000   1.0000000

  Atom       241         242         243         244         245         246         247         248         249         250
 IAtWgt=           1          16           1           1          16           1           1          16           1           1
 AtmWgt=   1.0078250  15.9949146   1.0078250   1.0078250  15.9949146   1.0078250   1.0078250  15.9949146   1.0078250   1.0078250
 NucSpn=           1           0           1           1           0           1           1           0           1           1
 AtZEff=   0.0000000   0.0000000   0.0000000   0.0000000   0.0000000   0.0000000   0.0000000   0.0000000   0.0000000   0.0000000
 NQMom=    0.0000000   0.0000000   0.0000000   0.0000000   0.0000000   0.0000000   0.0000000   0.0000000   0.0000000   0.0000000
 NMagM=    2.7928460   0.0000000   2.7928460   2.7928460   0.0000000   2.7928460   2.7928460   0.0000000   2.7928460   2.7928460
 AtZNuc=   1.0000000   8.0000000   1.0000000   1.0000000   8.0000000   1.0000000   1.0000000   8.0000000   1.0000000   1.0000000

  Atom       251         252         253         254         255         256         257         258         259         260
 IAtWgt=          16           1           1          16           1           1          16           1           1          16
 AtmWgt=  15.9949146   1.0078250   1.0078250  15.9949146   1.0078250   1.0078250  15.9949146   1.0078250   1.0078250  15.9949146
 NucSpn=           0           1           1           0           1           1           0           1           1           0
 AtZEff=   0.0000000   0.0000000   0.0000000   0.0000000   0.0000000   0.0000000   0.0000000   0.0000000   0.0000000   0.0000000
 NQMom=    0.0000000   0.0000000   0.0000000   0.0000000   0.0000000   0.0000000   0.0000000   0.0000000   0.0000000   0.0000000
 NMagM=    0.0000000   2.7928460   2.7928460   0.0000000   2.7928460   2.7928460   0.0000000   2.7928460   2.7928460   0.0000000
 AtZNuc=   8.0000000   1.0000000   1.0000000   8.0000000   1.0000000   1.0000000   8.0000000   1.0000000   1.0000000   8.0000000

  Atom       261         262         263         264         265         266         267         268         269         270
 IAtWgt=           1           1          16           1           1          16           1           1          16           1
 AtmWgt=   1.0078250   1.0078250  15.9949146   1.0078250   1.0078250  15.9949146   1.0078250   1.0078250  15.9949146   1.0078250
 NucSpn=           1           1           0           1           1           0           1           1           0           1
 AtZEff=   0.0000000   0.0000000   0.0000000   0.0000000   0.0000000   0.0000000   0.0000000   0.0000000   0.0000000   0.0000000
 NQMom=    0.0000000   0.0000000   0.0000000   0.0000000   0.0000000   0.0000000   0.0000000   0.0000000   0.0000000   0.0000000
 NMagM=    2.7928460   2.7928460   0.0000000   2.7928460   2.7928460   0.0000000   2.7928460   2.7928460   0.0000000   2.7928460
 AtZNuc=   1.0000000   1.0000000   8.0000000   1.0000000   1.0000000   8.0000000   1.0000000   1.0000000   8.0000000   1.0000000

  Atom       271         272         273         274         275         276         277         278         279         280
 IAtWgt=           1          16           1           1          16           1           1          16           1           1
 AtmWgt=   1.0078250  15.9949146   1.0078250   1.0078250  15.9949146   1.0078250   1.0078250  15.9949146   1.0078250   1.0078250
 NucSpn=           1           0           1           1           0           1           1           0           1           1
 AtZEff=   0.0000000   0.0000000   0.0000000   0.0000000   0.0000000   0.0000000   0.0000000   0.0000000   0.0000000   0.0000000
 NQMom=    0.0000000   0.0000000   0.0000000   0.0000000   0.0000000   0.0000000   0.0000000   0.0000000   0.0000000   0.0000000
 NMagM=    2.7928460   0.0000000   2.7928460   2.7928460   0.0000000   2.7928460   2.7928460   0.0000000   2.7928460   2.7928460
 AtZNuc=   1.0000000   8.0000000   1.0000000   1.0000000   8.0000000   1.0000000   1.0000000   8.0000000   1.0000000   1.0000000

  Atom       281         282         283         284         285         286         287         288         289         290
 IAtWgt=          16           1           1          16           1           1          16           1           1          16
 AtmWgt=  15.9949146   1.0078250   1.0078250  15.9949146   1.0078250   1.0078250  15.9949146   1.0078250   1.0078250  15.9949146
 NucSpn=           0           1           1           0           1           1           0           1           1           0
 AtZEff=   0.0000000   0.0000000   0.0000000   0.0000000   0.0000000   0.0000000   0.0000000   0.0000000   0.0000000   0.0000000
 NQMom=    0.0000000   0.0000000   0.0000000   0.0000000   0.0000000   0.0000000   0.0000000   0.0000000   0.0000000   0.0000000
 NMagM=    0.0000000   2.7928460   2.7928460   0.0000000   2.7928460   2.7928460   0.0000000   2.7928460   2.7928460   0.0000000
 AtZNuc=   8.0000000   1.0000000   1.0000000   8.0000000   1.0000000   1.0000000   8.0000000   1.0000000   1.0000000   8.0000000

  Atom       291         292         293         294         295         296         297         298         299         300
 IAtWgt=           1           1          16           1           1          16           1           1          16           1
 AtmWgt=   1.0078250   1.0078250  15.9949146   1.0078250   1.0078250  15.9949146   1.0078250   1.0078250  15.9949146   1.0078250
 NucSpn=           1           1           0           1           1           0           1           1           0           1
 AtZEff=   0.0000000   0.0000000   0.0000000   0.0000000   0.0000000   0.0000000   0.0000000   0.0000000   0.0000000   0.0000000
 NQMom=    0.0000000   0.0000000   0.0000000   0.0000000   0.0000000   0.0000000   0.0000000   0.0000000   0.0000000   0.0000000
 NMagM=    2.7928460   2.7928460   0.0000000   2.7928460   2.7928460   0.0000000   2.7928460   2.7928460   0.0000000   2.7928460
 AtZNuc=   1.0000000   1.0000000   8.0000000   1.0000000   1.0000000   8.0000000   1.0000000   1.0000000   8.0000000   1.0000000

  Atom       301         302         303         304         305         306         307         308         309         310
 IAtWgt=           1          16           1           1          16           1           1          16           1           1
 AtmWgt=   1.0078250  15.9949146   1.0078250   1.0078250  15.9949146   1.0078250   1.0078250  15.9949146   1.0078250   1.0078250
 NucSpn=           1           0           1           1           0           1           1           0           1           1
 AtZEff=   0.0000000   0.0000000   0.0000000   0.0000000   0.0000000   0.0000000   0.0000000   0.0000000   0.0000000   0.0000000
 NQMom=    0.0000000   0.0000000   0.0000000   0.0000000   0.0000000   0.0000000   0.0000000   0.0000000   0.0000000   0.0000000
 NMagM=    2.7928460   0.0000000   2.7928460   2.7928460   0.0000000   2.7928460   2.7928460   0.0000000   2.7928460   2.7928460
 AtZNuc=   1.0000000   8.0000000   1.0000000   1.0000000   8.0000000   1.0000000   1.0000000   8.0000000   1.0000000   1.0000000

  Atom       311         312         313         314         315         316         317         318         319         320
 IAtWgt=          16           1           1          16           1           1          16           1           1          16
 AtmWgt=  15.9949146   1.0078250   1.0078250  15.9949146   1.0078250   1.0078250  15.9949146   1.0078250   1.0078250  15.9949146
 NucSpn=           0           1           1           0           1           1           0           1           1           0
 AtZEff=   0.0000000   0.0000000   0.0000000   0.0000000   0.0000000   0.0000000   0.0000000   0.0000000   0.0000000   0.0000000
 NQMom=    0.0000000   0.0000000   0.0000000   0.0000000   0.0000000   0.0000000   0.0000000   0.0000000   0.0000000   0.0000000
 NMagM=    0.0000000   2.7928460   2.7928460   0.0000000   2.7928460   2.7928460   0.0000000   2.7928460   2.7928460   0.0000000
 AtZNuc=   8.0000000   1.0000000   1.0000000   8.0000000   1.0000000   1.0000000   8.0000000   1.0000000   1.0000000   8.0000000

  Atom       321         322         323         324         325         326         327         328         329         330
 IAtWgt=           1           1          16           1           1          16           1           1          16           1
 AtmWgt=   1.0078250   1.0078250  15.9949146   1.0078250   1.0078250  15.9949146   1.0078250   1.0078250  15.9949146   1.0078250
 NucSpn=           1           1           0           1           1           0           1           1           0           1
 AtZEff=   0.0000000   0.0000000   0.0000000   0.0000000   0.0000000   0.0000000   0.0000000   0.0000000   0.0000000   0.0000000
 NQMom=    0.0000000   0.0000000   0.0000000   0.0000000   0.0000000   0.0000000   0.0000000   0.0000000   0.0000000   0.0000000
 NMagM=    2.7928460   2.7928460   0.0000000   2.7928460   2.7928460   0.0000000   2.7928460   2.7928460   0.0000000   2.7928460
 AtZNuc=   1.0000000   1.0000000   8.0000000   1.0000000   1.0000000   8.0000000   1.0000000   1.0000000   8.0000000   1.0000000

  Atom       331         332         333         334         335         336         337         338         339         340
 IAtWgt=           1          16           1           1          16           1           1          16           1           1
 AtmWgt=   1.0078250  15.9949146   1.0078250   1.0078250  15.9949146   1.0078250   1.0078250  15.9949146   1.0078250   1.0078250
 NucSpn=           1           0           1           1           0           1           1           0           1           1
 AtZEff=   0.0000000   0.0000000   0.0000000   0.0000000   0.0000000   0.0000000   0.0000000   0.0000000   0.0000000   0.0000000
 NQMom=    0.0000000   0.0000000   0.0000000   0.0000000   0.0000000   0.0000000   0.0000000   0.0000000   0.0000000   0.0000000
 NMagM=    2.7928460   0.0000000   2.7928460   2.7928460   0.0000000   2.7928460   2.7928460   0.0000000   2.7928460   2.7928460
 AtZNuc=   1.0000000   8.0000000   1.0000000   1.0000000   8.0000000   1.0000000   1.0000000   8.0000000   1.0000000   1.0000000

  Atom       341         342         343         344         345         346         347         348         349         350
 IAtWgt=          16           1           1          16           1           1          16           1           1          16
 AtmWgt=  15.9949146   1.0078250   1.0078250  15.9949146   1.0078250   1.0078250  15.9949146   1.0078250   1.0078250  15.9949146
 NucSpn=           0           1           1           0           1           1           0           1           1           0
 AtZEff=   0.0000000   0.0000000   0.0000000   0.0000000   0.0000000   0.0000000   0.0000000   0.0000000   0.0000000   0.0000000
 NQMom=    0.0000000   0.0000000   0.0000000   0.0000000   0.0000000   0.0000000   0.0000000   0.0000000   0.0000000   0.0000000
 NMagM=    0.0000000   2.7928460   2.7928460   0.0000000   2.7928460   2.7928460   0.0000000   2.7928460   2.7928460   0.0000000
 AtZNuc=   8.0000000   1.0000000   1.0000000   8.0000000   1.0000000   1.0000000   8.0000000   1.0000000   1.0000000   8.0000000

  Atom       351         352         353         354         355         356         357         358         359         360
 IAtWgt=           1           1          16           1           1          16           1           1          16           1
 AtmWgt=   1.0078250   1.0078250  15.9949146   1.0078250   1.0078250  15.9949146   1.0078250   1.0078250  15.9949146   1.0078250
 NucSpn=           1           1           0           1           1           0           1           1           0           1
 AtZEff=   0.0000000   0.0000000   0.0000000   0.0000000   0.0000000   0.0000000   0.0000000   0.0000000   0.0000000   0.0000000
 NQMom=    0.0000000   0.0000000   0.0000000   0.0000000   0.0000000   0.0000000   0.0000000   0.0000000   0.0000000   0.0000000
 NMagM=    2.7928460   2.7928460   0.0000000   2.7928460   2.7928460   0.0000000   2.7928460   2.7928460   0.0000000   2.7928460
 AtZNuc=   1.0000000   1.0000000   8.0000000   1.0000000   1.0000000   8.0000000   1.0000000   1.0000000   8.0000000   1.0000000

  Atom       361         362         363         364         365         366         367         368         369         370
 IAtWgt=           1          16           1           1          16           1           1          16           1           1
 AtmWgt=   1.0078250  15.9949146   1.0078250   1.0078250  15.9949146   1.0078250   1.0078250  15.9949146   1.0078250   1.0078250
 NucSpn=           1           0           1           1           0           1           1           0           1           1
 AtZEff=   0.0000000   0.0000000   0.0000000   0.0000000   0.0000000   0.0000000   0.0000000   0.0000000   0.0000000   0.0000000
 NQMom=    0.0000000   0.0000000   0.0000000   0.0000000   0.0000000   0.0000000   0.0000000   0.0000000   0.0000000   0.0000000
 NMagM=    2.7928460   0.0000000   2.7928460   2.7928460   0.0000000   2.7928460   2.7928460   0.0000000   2.7928460   2.7928460
 AtZNuc=   1.0000000   8.0000000   1.0000000   1.0000000   8.0000000   1.0000000   1.0000000   8.0000000   1.0000000   1.0000000

  Atom       371         372         373         374         375         376         377         378         379         380
 IAtWgt=          16           1           1          16           1           1          16           1           1          16
 AtmWgt=  15.9949146   1.0078250   1.0078250  15.9949146   1.0078250   1.0078250  15.9949146   1.0078250   1.0078250  15.9949146
 NucSpn=           0           1           1           0           1           1           0           1           1           0
 AtZEff=   0.0000000   0.0000000   0.0000000   0.0000000   0.0000000   0.0000000   0.0000000   0.0000000   0.0000000   0.0000000
 NQMom=    0.0000000   0.0000000   0.0000000   0.0000000   0.0000000   0.0000000   0.0000000   0.0000000   0.0000000   0.0000000
 NMagM=    0.0000000   2.7928460   2.7928460   0.0000000   2.7928460   2.7928460   0.0000000   2.7928460   2.7928460   0.0000000
 AtZNuc=   8.0000000   1.0000000   1.0000000   8.0000000   1.0000000   1.0000000   8.0000000   1.0000000   1.0000000   8.0000000

  Atom       381         382         383         384         385
 IAtWgt=           1           1          16           1           1
 AtmWgt=   1.0078250   1.0078250  15.9949146   1.0078250   1.0078250
 NucSpn=           1           1           0           1           1
 AtZEff=   0.0000000   0.0000000   0.0000000   0.0000000   0.0000000
 NQMom=    0.0000000   0.0000000   0.0000000   0.0000000   0.0000000
 NMagM=    2.7928460   2.7928460   0.0000000   2.7928460   2.7928460
 AtZNuc=   1.0000000   1.0000000   8.0000000   1.0000000   1.0000000
 Leave Link  101 at Mon May  7 04:12:40 2018, MaxMem= 14763950080 cpu:        32.9
 (Enter /cm/shared/gaussian/g09.e01/intel64-sandybridge/g09/l103.exe)

 GradGradGradGradGradGradGradGradGradGradGradGradGradGradGradGradGradGrad
 Berny optimization.
 Initialization pass.
 Trust Radius=3.00D-01 FncErr=1.00D-07 GrdErr=1.00D-07
 Number of steps in this run=      2 maximum allowed number of steps=      2.
 GradGradGradGradGradGradGradGradGradGradGradGradGradGradGradGradGradGrad

 Leave Link  103 at Mon May  7 04:12:40 2018, MaxMem= 14763950080 cpu:         3.7
 (Enter /cm/shared/gaussian/g09.e01/intel64-sandybridge/g09/l202.exe)
 Symmetry turned off by external request.
 Stoichiometry    BrH256O128(1-)
 Framework group  C1[X(BrH256O128)]
 Deg. of freedom  1149
 Full point group                 C1      NOp   1
                          Input orientation:                          
 ---------------------------------------------------------------------
 Center     Atomic      Atomic             Coordinates (Angstroms)
 Number     Number       Type             X           Y           Z
 ---------------------------------------------------------------------
      1         35           0       20.000000   20.000000   20.000000
      2          8           0       19.030000   19.880000   16.920000
      3          1           0       19.230000   19.900000   17.860000
      4          1           0       18.110000   19.610000   16.870000
      5          8           0       18.220000   20.430000   22.790000
      6          1           0       18.900000   20.440000   22.120000
      7          1           0       18.490000   19.740000   23.390000
      8          8           0       20.620000   23.270000   20.030000
      9          1           0       20.530000   22.380000   20.380000
     10          1           0       19.800000   23.430000   19.570000
     11          8           0       21.080000   20.380000   23.190000
     12          1           0       21.030000   20.440000   22.230000
     13          1           0       21.340000   19.470000   23.350000
     14          8           0       16.680000   20.190000   19.410000
     15          1           0       17.470000   19.810000   19.780000
     16          1           0       16.320000   19.500000   18.850000
     17          8           0       22.880000   18.010000   20.380000
     18          1           0       22.170000   18.620000   20.170000
     19          1           0       23.230000   17.750000   19.530000
     20          8           0       18.270000   22.880000   18.790000
     21          1           0       18.520000   21.960000   18.700000
     22          1           0       17.450000   22.850000   19.280000
     23          8           0       19.690000   16.310000   19.530000
     24          1           0       19.790000   17.230000   19.280000
     25          1           0       19.690000   16.320000   20.480000
     26          8           0       23.270000   19.560000   18.220000
     27          1           0       22.490000   19.550000   17.670000
     28          1           0       23.060000   20.180000   18.930000
     29          8           0       22.200000   17.860000   22.960000
     30          1           0       22.580000   18.010000   22.100000
     31          1           0       22.920000   17.520000   23.490000
     32          8           0       22.100000   22.760000   17.380000
     33          1           0       21.530000   23.120000   18.050000
     34          1           0       21.870000   23.230000   16.580000
     35          8           0       21.490000   20.620000   15.810000
     36          1           0       20.570000   20.480000   16.060000
     37          1           0       21.780000   21.330000   16.380000
     38          8           0       23.310000   23.280000   21.010000
     39          1           0       22.380000   23.240000   20.770000
     40          1           0       23.410000   24.140000   21.410000
     41          8           0       16.550000   17.400000   21.210000
     42          1           0       17.430000   17.030000   21.290000
     43          1           0       16.130000   16.850000   20.540000
     44          8           0       16.280000   22.940000   20.870000
     45          1           0       15.410000   23.100000   21.230000
     46          1           0       16.580000   22.130000   21.280000
     47          8           0       19.120000   16.150000   22.350000
     48          1           0       19.930000   16.560000   22.650000
     49          1           0       18.870000   15.550000   23.050000
     50          8           0       21.120000   23.340000   23.570000
     51          1           0       20.180000   23.220000   23.720000
     52          1           0       21.460000   22.450000   23.440000
     53          8           0       18.580000   16.830000   16.230000
     54          1           0       17.890000   16.260000   15.890000
     55          1           0       18.380000   16.920000   17.170000
     56          8           0       19.690000   24.560000   17.120000
     57          1           0       19.270000   23.810000   17.540000
     58          1           0       19.190000   25.320000   17.440000
     59          8           0       24.370000   22.610000   18.740000
     60          1           0       23.560000   22.390000   18.270000
     61          1           0       24.090000   22.790000   19.630000
     62          8           0       15.480000   21.010000   22.710000
     63          1           0       16.160000   20.360000   22.870000
     64          1           0       14.920000   20.620000   22.050000
     65          8           0       18.480000   23.330000   23.570000
     66          1           0       17.740000   23.940000   23.510000
     67          1           0       18.070000   22.470000   23.660000
     68          8           0       16.600000   21.970000   16.150000
     69          1           0       15.690000   22.260000   16.070000
     70          1           0       16.840000   22.150000   17.050000
     71          8           0       16.260000   18.570000   17.080000
     72          1           0       15.400000   18.860000   16.770000
     73          1           0       16.070000   17.800000   17.620000
     74          8           0       14.490000   21.870000   18.570000
     75          1           0       14.270000   22.790000   18.700000
     76          1           0       15.340000   21.760000   19.000000
     77          8           0       20.320000   18.100000   14.420000
     78          1           0       19.820000   18.790000   13.990000
     79          1           0       19.940000   18.050000   15.300000
     80          8           0       20.880000   14.840000   17.550000
     81          1           0       20.280000   15.250000   16.930000
     82          1           0       20.630000   15.200000   18.400000
     83          8           0       21.850000   25.750000   19.730000
     84          1           0       22.130000   25.860000   20.640000
     85          1           0       21.300000   24.970000   19.740000
     86          8           0       23.730000   16.820000   18.000000
     87          1           0       23.530000   15.900000   17.810000
     88          1           0       23.550000   17.270000   17.180000
     89          8           0       23.220000   14.920000   21.130000
     90          1           0       22.370000   14.490000   21.190000
     91          1           0       23.040000   15.710000   20.620000
     92          8           0       21.610000   20.600000   26.030000
     93          1           0       21.930000   19.710000   26.210000
     94          1           0       21.300000   20.560000   25.130000
     95          8           0       17.590000   14.390000   18.910000
     96          1           0       17.990000   13.520000   18.900000
     97          1           0       18.330000   14.990000   18.850000
     98          8           0       15.860000   18.050000   23.780000
     99          1           0       16.210000   17.280000   24.220000
    100          1           0       15.930000   17.850000   22.850000
    101          8           0       15.800000   16.460000   18.690000
    102          1           0       15.100000   16.280000   18.070000
    103          1           0       16.280000   15.640000   18.770000
    104          8           0       26.650000   20.130000   19.880000
    105          1           0       26.870000   20.240000   20.800000
    106          1           0       25.740000   20.410000   19.800000
    107          8           0       25.910000   19.670000   16.890000
    108          1           0       26.230000   18.820000   16.580000
    109          1           0       25.140000   19.460000   17.410000
    110          8           0       22.860000   17.340000   15.540000
    111          1           0       22.810000   16.400000   15.410000
    112          1           0       22.100000   17.690000   15.080000
    113          8           0       24.410000   21.920000   15.450000
    114          1           0       25.180000   22.470000   15.590000
    115          1           0       24.420000   21.310000   16.190000
    116          8           0       20.060000   16.550000   25.330000
    117          1           0       20.620000   15.920000   24.870000
    118          1           0       20.570000   17.360000   25.350000
    119          8           0       16.790000   25.920000   20.440000
    120          1           0       15.840000   25.910000   20.570000
    121          1           0       17.120000   25.220000   21.010000
    122          8           0       16.750000   19.970000   14.220000
    123          1           0       17.070000   19.200000   14.700000
    124          1           0       16.630000   20.640000   14.900000
    125          8           0       23.090000   19.730000   13.550000
    126          1           0       22.550000   19.850000   14.330000
    127          1           0       23.490000   18.860000   13.670000
    128          8           0       13.810000   20.170000   20.720000
    129          1           0       13.550000   19.770000   19.890000
    130          1           0       13.660000   21.110000   20.600000
    131          8           0       21.830000   14.980000   24.100000
    132          1           0       21.510000   14.430000   23.380000
    133          1           0       22.460000   15.570000   23.690000
    134          8           0       15.800000   22.050000   25.280000
    135          1           0       15.730000   21.100000   25.310000
    136          1           0       15.820000   22.260000   24.340000
    137          8           0       24.020000   25.290000   17.690000
    138          1           0       23.200000   25.350000   18.170000
    139          1           0       24.370000   24.420000   17.920000
    140          8           0       13.540000   17.960000   21.920000
    141          1           0       14.140000   18.060000   22.660000
    142          1           0       13.660000   18.750000   21.400000
    143          8           0       22.450000   23.150000   26.130000
    144          1           0       21.930000   23.420000   25.370000
    145          1           0       22.240000   22.230000   26.250000
    146          8           0       16.340000   19.250000   26.250000
    147          1           0       16.100000   18.920000   25.390000
    148          1           0       16.800000   18.520000   26.670000
    149          8           0       16.990000   16.160000   25.310000
    150          1           0       17.940000   16.210000   25.190000
    151          1           0       16.870000   15.510000   26.000000
    152          8           0       22.310000   23.770000   14.770000
    153          1           0       23.170000   23.340000   14.730000
    154          1           0       22.070000   23.900000   13.850000
    155          8           0       26.940000   16.530000   20.630000
    156          1           0       26.130000   17.000000   20.820000
    157          1           0       26.990000   16.520000   19.680000
    158          8           0       24.510000   17.030000   24.270000
    159          1           0       25.400000   16.710000   24.090000
    160          1           0       24.190000   16.470000   24.980000
    161          8           0       19.460000   26.300000   23.630000
    162          1           0       20.220000   25.750000   23.830000
    163          1           0       19.690000   26.730000   22.800000
    164          8           0       19.480000   20.920000   12.380000
    165          1           0       18.610000   20.680000   12.690000
    166          1           0       19.980000   21.130000   13.170000
    167          8           0       13.320000   18.480000   18.540000
    168          1           0       13.100000   17.650000   18.970000
    169          1           0       12.910000   18.420000   17.680000
    170          8           0       12.820000   20.840000   16.800000
    171          1           0       12.010000   20.720000   17.280000
    172          1           0       13.490000   20.940000   17.470000
    173          8           0       18.330000   26.770000   18.350000
    174          1           0       17.690000   26.590000   19.040000
    175          1           0       18.060000   27.610000   17.990000
    176          8           0       20.940000   13.270000   21.950000
    177          1           0       21.190000   12.390000   21.650000
    178          1           0       20.050000   13.160000   22.270000
    179          8           0       19.560000   15.250000   13.950000
    180          1           0       19.760000   16.180000   14.020000
    181          1           0       19.010000   15.060000   14.710000
    182          8           0       23.310000   25.930000   22.200000
    183          1           0       23.950000   26.440000   21.710000
    184          1           0       23.460000   26.180000   23.110000
    185          8           0       19.560000   26.030000   14.760000
    186          1           0       19.820000   25.610000   15.580000
    187          1           0       18.600000   26.090000   14.810000
    188          8           0       14.410000   15.130000   21.300000
    189          1           0       14.200000   16.040000   21.490000
    190          1           0       13.830000   14.890000   20.570000
    191          8           0       21.340000   27.450000   17.680000
    192          1           0       21.720000   26.820000   18.290000
    193          1           0       20.400000   27.420000   17.850000
    194          8           0       19.430000   25.060000   26.280000
    195          1           0       18.650000   25.040000   26.830000
    196          1           0       19.130000   24.720000   25.430000
    197          8           0       22.500000   12.650000   18.140000
    198          1           0       21.720000   13.180000   17.980000
    199          1           0       22.170000   11.870000   18.590000
    200          8           0       26.960000   24.040000   19.340000
    201          1           0       26.090000   23.920000   18.950000
    202          1           0       27.540000   23.500000   18.800000
    203          8           0       16.510000   13.440000   21.630000
    204          1           0       15.710000   13.900000   21.880000
    205          1           0       16.550000   13.530000   20.680000
    206          8           0       13.320000   23.080000   21.370000
    207          1           0       13.570000   23.920000   21.000000
[...]
   Z335      45.14556  -0.01379   0.00000  -0.01331  -0.01457  45.13099
   X336      23.18694   0.00772   0.00000   0.00171   0.00146  23.18840
   Y336      40.32676  -0.00422   0.00000   0.01176   0.01150  40.33825
   Z336      44.95658   0.00439   0.00000   0.00633   0.00521  44.96179
   X337      22.65782   0.00312   0.00000   0.00161   0.00123  22.65904
   Y337      42.40545  -0.00057   0.00000   0.00132   0.00114  42.40660
   Z337      46.84631   0.00265   0.00000  -0.00218  -0.00343  46.84288
   X338      20.59801  -0.01262   0.00000  -0.01021  -0.01008  20.58793
   Y338      41.74405  -0.00596   0.00000  -0.00995  -0.01049  41.73356
   Z338      38.92836  -0.01847   0.00000  -0.01254  -0.01389  38.91447
   X339      19.08623   0.00068   0.00000   0.00147   0.00153  19.08777
   Y339      41.97082   0.00007   0.00000   0.00010  -0.00040  41.97042
   Z339      39.91102   0.00500   0.00000   0.00687   0.00541  39.91642
   X340      21.93972   0.00813   0.00000   0.00123   0.00128  21.94100
   Y340      41.72515   0.00553   0.00000   0.01068   0.01020  41.73535
   Z340      40.13778   0.01115   0.00000   0.00534   0.00408  40.14186
   X341      36.54730  -0.01686   0.00000  -0.01396  -0.01263  36.53468
   Y341      33.54264  -0.00306   0.00000   0.00088  -0.00039  33.54225
   Z341      20.86258   0.00621   0.00000   0.01315   0.01319  20.87577
   X342      37.51106   0.01134   0.00000   0.01053   0.01182  37.52288
   Y342      34.95993   0.01229   0.00000   0.01348   0.01225  34.97218
   Z342      21.48619  -0.00292   0.00000  -0.01017  -0.01013  21.47606
   X343      37.79452   0.00529   0.00000  -0.00099   0.00039  37.79491
   Y343      32.37101  -0.00275   0.00000   0.00172   0.00044  32.37145
   Z343      20.27676   0.00057   0.00000   0.00418   0.00436  20.28112
   X344      49.79428   0.00507   0.00000  -0.00062   0.00005  49.79434
   Y344      47.33764  -0.00366   0.00000  -0.00377  -0.00457  47.33307
   Z344      30.02775   0.01152   0.00000   0.00640   0.00668  30.03443
   X345      50.17223   0.00181   0.00000   0.00046   0.00125  50.17348
   Y345      46.88411  -0.00152   0.00000   0.00105   0.00018  46.88428
   Z345      28.32699  -0.01171   0.00000  -0.00869  -0.00836  28.31863
   X346      48.15022  -0.01071   0.00000  -0.00919  -0.00851  48.14171
   Y346      48.09353   0.00574   0.00000   0.00617   0.00536  48.09889
   Z346      29.93326   0.00144   0.00000   0.00391   0.00405  29.93732
   X347      41.80074   0.01180   0.00000   0.01273   0.01203  41.81277
   Y347      48.16912   0.03084   0.00000   0.02898   0.02908  48.19820
   Z347      51.32496   0.00936   0.00000   0.00501   0.00475  51.32971
   X348      42.63222  -0.00358   0.00000  -0.01214  -0.01281  42.61941
   Y348      46.60065  -0.01617   0.00000  -0.00909  -0.00900  46.59165
   Z348      51.00371   0.00127   0.00000   0.00853   0.00839  51.01210
   X349      40.09999  -0.00857   0.00000   0.00083   0.00017  40.10016
   Y349      47.92345  -0.00263   0.00000   0.00269   0.00276  47.92622
   Z349      50.77694  -0.00620   0.00000  -0.00432  -0.00468  50.77226
   X350      48.58486   0.00161   0.00000   0.00146   0.00190  48.58676
   Y350      52.04306   0.02338   0.00000   0.01684   0.01618  52.05924
   Z350      33.39146   0.00671   0.00000   0.00433   0.00433  33.39579
   X351      50.15333   0.00846   0.00000   0.00419   0.00468  50.15801
   Y351      51.53283  -0.00905   0.00000  -0.01012  -0.01080  51.52203
   Z351      32.67336  -0.00529   0.00000  -0.00393  -0.00381  32.66956
   X352      47.54551  -0.01036   0.00000  -0.00752  -0.00707  47.53844
   Y352      50.56907  -0.01476   0.00000  -0.00561  -0.00628  50.56279
   Z352      33.31587   0.00071   0.00000   0.00361   0.00361  33.31948
   X353      45.24004   0.01069   0.00000   0.00375   0.00492  45.24496
   Y353      32.78675   0.01007   0.00000   0.00623   0.00512  32.79187
   Z353      23.39481  -0.00070   0.00000  -0.00282  -0.00219  23.39262
   X354      43.93613  -0.01333   0.00000  -0.01010  -0.00892  43.92721
   Y354      31.53953  -0.01243   0.00000  -0.00826  -0.00937  31.53016
   Z354      23.41371   0.00783   0.00000   0.01393   0.01453  23.42824
   X355      46.46837   0.00265   0.00000   0.00284   0.00409  46.47245
   Y355      32.14424   0.00043   0.00000   0.00166   0.00050  32.14474
   Z355      22.22318  -0.00223   0.00000  -0.00371  -0.00297  22.22021
   X356      39.07954   0.01056   0.00000   0.00723   0.00634  39.08588
   Y356      44.27628   0.00444   0.00000   0.00190   0.00213  44.27841
   Z356      54.44301   0.01335   0.00000   0.01214   0.01187  54.45488
   X357      37.90791  -0.00899   0.00000  -0.00567  -0.00654  37.90136
   Y357      42.89678  -0.00915   0.00000  -0.00610  -0.00589  42.89090
   Z357      54.38632  -0.00276   0.00000  -0.00291  -0.00319  54.38313
   X358      38.77718   0.00182   0.00000   0.00750   0.00671  38.78389
   Y358      45.18335   0.00261   0.00000  -0.00048  -0.00032  45.18303
   Z358      52.91233  -0.00813   0.00000  -0.00368  -0.00401  52.90832
   X359      54.91544   0.00513   0.00000   0.00218   0.00219  54.91763
   Y359      33.33477  -0.01310   0.00000  -0.00651  -0.00679  33.32798
   Z359      41.32831   0.01279   0.00000   0.01313   0.01437  41.34268
   X360      54.04617  -0.00103   0.00000   0.00533   0.00544  54.05161
   Y360      33.59933   0.00214   0.00000  -0.00041  -0.00076  33.59857
   Z360      39.75984  -0.00833   0.00000  -0.00403  -0.00286  39.75697
   X361      55.04772  -0.00158   0.00000  -0.00275  -0.00280  55.04492
   Y361      34.97883   0.01511   0.00000   0.01562   0.01537  34.99420
   Z361      42.06530  -0.00015   0.00000  -0.00450  -0.00333  42.06198
   X362      44.69202   0.00531   0.00000   0.00513   0.00464  44.69666
   Y362      26.24830   0.00923   0.00000   0.00810   0.00814  26.25644
   Z362      49.64311   0.01253   0.00000   0.00731   0.00819  49.65130
   X363      43.46370  -0.00478   0.00000  -0.00136  -0.00184  43.46186
   Y363      24.92549  -0.00443   0.00000   0.00014   0.00017  24.92566
   Z363      49.58641  -0.00493   0.00000  -0.00672  -0.00585  49.58056
   X364      45.22115   0.00067   0.00000  -0.00007  -0.00046  45.22069
   Y364      26.45617  -0.00319   0.00000  -0.00532  -0.00535  26.45081
   Z364      47.92345  -0.00980   0.00000  -0.00741  -0.00650  47.91696
   X365      20.06889  -0.00271   0.00000  -0.00657  -0.00633  20.06256
   Y365      35.75362  -0.01539   0.00000  -0.01107  -0.01167  35.74195
   Z365      37.58665  -0.00651   0.00000  -0.00865  -0.00977  37.57688
   X366      19.27521   0.00266   0.00000   0.00960   0.00976  19.28496
   Y366      36.92525   0.00545   0.00000   0.00073   0.00018  36.92543
   Z366      38.72049   0.00814   0.00000   0.00959   0.00837  38.72885
   X367      20.93817   0.00452   0.00000   0.00479   0.00510  20.94327
   Y367      36.79297   0.00870   0.00000   0.00974   0.00909  36.80206
   Z367      36.39613  -0.00033   0.00000   0.00497   0.00386  36.39998
   X368      22.75230  -0.00269   0.00000  -0.00318  -0.00226  22.75004
   Y368      38.62600  -0.00587   0.00000  -0.00845  -0.00950  38.61650
   Z368      26.85301  -0.00874   0.00000  -0.00521  -0.00629  26.84672
   X369      23.67827   0.00152   0.00000  -0.00115  -0.00033  23.67794
   Y369      38.73939   0.00099   0.00000   0.00176   0.00077  38.74015
   Z369      28.42148   0.00557   0.00000   0.00295   0.00193  28.42341
   X370      21.01375   0.00039   0.00000   0.00018   0.00107  21.01483
   Y370      38.85277   0.00191   0.00000   0.00413   0.00309  38.85586
   Z370      27.34434   0.00136   0.00000   0.00212   0.00092  27.34526
   X371      39.70315   0.02658   0.00000   0.01909   0.01940  39.72255
   Y371      20.63581  -0.00184   0.00000  -0.00497  -0.00549  20.63032
   Z371      37.47327  -0.00959   0.00000  -0.00624  -0.00543  37.46784
   X372      38.49372  -0.01993   0.00000  -0.01550  -0.01527  38.47845
   Y372      20.76809   0.00061   0.00000   0.00052   0.00006  20.76815
   Z372      38.79608   0.00930   0.00000  -0.00191  -0.00118  38.79489
   X373      38.77718  -0.00671   0.00000  -0.00466  -0.00425  38.77293
   Y373      20.04999  -0.00381   0.00000  -0.00364  -0.00423  20.04576
   Z373      36.03708  -0.00438   0.00000  -0.00308  -0.00231  36.03477
   X374      52.95013   0.01149   0.00000   0.00468   0.00474  52.95487
   Y374      27.00419  -0.01881   0.00000  -0.02249  -0.02279  26.98139
   Z374      40.96926   0.01126   0.00000   0.00759   0.00898  40.97824
   X375      51.45724  -0.00521   0.00000   0.00518   0.00527  51.46251
   Y375      27.91125   0.01013   0.00000   0.00874   0.00840  27.91966
   Z375      40.51573  -0.00716   0.00000  -0.00584  -0.00459  40.51113
   X376      53.98948  -0.00220   0.00000  -0.00234  -0.00219  53.98729
   Y376      27.07978   0.00550   0.00000   0.00862   0.00825  27.08802
   Z376      39.47638   0.00040   0.00000   0.00273   0.00418  39.48056
   X377      55.19890   0.00847   0.00000   0.00790   0.00829  55.20719
   Y377      34.46860  -0.00464   0.00000  -0.00351  -0.00405  34.46455
   Z377      35.31898   0.00439   0.00000  -0.00276  -0.00156  35.31742
   X378      53.98948  -0.00845   0.00000  -0.01002  -0.00956  53.97992
   Y378      33.46705  -0.00371   0.00000  -0.00177  -0.00236  33.46469
   Z378      34.41191  -0.00142   0.00000   0.00144   0.00261  34.41452
   X379      55.02882  -0.00280   0.00000  -0.00440  -0.00397  55.02486
   Y379      36.13156   0.00961   0.00000   0.00930   0.00872  36.14029
   Z379      34.61978   0.00110   0.00000   0.00556   0.00668  34.62646
   X380      20.33345  -0.02129   0.00000  -0.01759  -0.01770  20.31576
   Y380      35.18670  -0.00280   0.00000  -0.00167  -0.00203  35.18467
   Z380      42.95348   0.00096   0.00000   0.00287   0.00179  42.95527
   X381      21.35391   0.01083   0.00000   0.00958   0.00940  21.36331
   Y381      36.30164   0.00418   0.00000   0.00153   0.00122  36.30286
   Z381      43.93613  -0.00132   0.00000  -0.00677  -0.00783  43.92830
   X382      21.50508   0.01011   0.00000   0.00766   0.00764  21.51272
   Y382      34.33632   0.00105   0.00000   0.00581   0.00540  34.34173
   Z382      41.85743  -0.00116   0.00000   0.00417   0.00320  41.86064
   X383      30.48128  -0.00678   0.00000  -0.00479  -0.00367  30.47762
   Y383      27.64669  -0.00335   0.00000   0.00475   0.00362  27.65032
   Z383      24.47195   0.01024   0.00000   0.00610   0.00601  24.47796
   X384      30.21672  -0.00009   0.00000   0.00064   0.00188  30.21860
   Y384      27.00419  -0.00563   0.00000  -0.00589  -0.00710  26.99709
   Z384      22.80899  -0.00736   0.00000  -0.00272  -0.00280  22.80619
   X385      31.67181   0.00670   0.00000   0.00041   0.00154  31.67335
   Y385      29.00730   0.01814   0.00000   0.02197   0.02084  29.02813
   Z385      24.26408  -0.00161   0.00000  -0.00069  -0.00076  24.26332
         Item               Value     Threshold  Converged?
 Maximum Force            0.040513     0.000450     NO 
 RMS     Force            0.010298     0.000300     NO 
 Maximum Displacement     0.040984     0.001800     NO 
 RMS     Displacement     0.008819     0.001200     NO 
 Predicted change in Energy=-7.048422D-02
 GradGradGradGradGradGradGradGradGradGradGradGradGradGradGradGradGradGrad

 Leave Link  103 at Mon May  7 06:45:48 2018, MaxMem= 14763950080 cpu:      2903.9
 (Enter /cm/shared/gaussian/g09.e01/intel64-sandybridge/g09/l9999.exe)
 1\1\GINC-POPLE04\Force\RPBE1PBE\CC-pVDZ\Br1H256O128(1-)\M.PELUSO\07-Ma
 y-2018\0\\#p PBE1PBE/cc-pvDZ force Counterpoise=2 noSymm\\forces on ch
 loride comput - NWATER: 128\\-1,1\Br,20.,20.,20.\O,19.03,19.88,16.92\H
 ,19.23,19.9,17.86\H,18.11,19.61,16.87\O,18.22,20.43,22.79\H,18.9,20.44
 ,22.12\H,18.49,19.74,23.39\O,20.62,23.27,20.03\H,20.53,22.38,20.38\H,1
 9.8,23.43,19.57\O,21.08,20.38,23.19\H,21.03,20.44,22.23\H,21.34,19.47,
 23.35\O,16.68,20.19,19.41\H,17.47,19.81,19.78\H,16.32,19.5,18.85\O,22.
 88,18.01,20.38\H,22.17,18.62,20.17\H,23.23,17.75,19.53\O,18.27,22.88,1
 8.79\H,18.52,21.96,18.7\H,17.45,22.85,19.28\O,19.69,16.31,19.53\H,19.7
 9,17.23,19.28\H,19.69,16.32,20.48\O,23.27,19.56,18.22\H,22.49,19.55,17
 .67\H,23.06,20.18,18.93\O,22.2,17.86,22.96\H,22.58,18.01,22.1\H,22.92,
 17.52,23.49\O,22.1,22.76,17.38\H,21.53,23.12,18.05\H,21.87,23.23,16.58
 \O,21.49,20.62,15.81\H,20.57,20.48,16.06\H,21.78,21.33,16.38\O,23.31,2
 3.28,21.01\H,22.38,23.24,20.77\H,23.41,24.14,21.41\O,16.55,17.4,21.21\
 H,17.43,17.03,21.29\H,16.13,16.85,20.54\O,16.28,22.94,20.87\H,15.41,23
 .1,21.23\H,16.58,22.13,21.28\O,19.12,16.15,22.35\H,19.93,16.56,22.65\H
 ,18.87,15.55,23.05\O,21.12,23.34,23.57\H,20.18,23.22,23.72\H,21.46,22.
 45,23.44\O,18.58,16.83,16.23\H,17.89,16.26,15.89\H,18.38,16.92,17.17\O
 ,19.69,24.56,17.12\H,19.27,23.81,17.54\H,19.19,25.32,17.44\O,24.37,22.
 61,18.74\H,23.56,22.39,18.27\H,24.09,22.79,19.63\O,15.48,21.01,22.71\H
 ,16.16,20.36,22.87\H,14.92,20.62,22.05\O,18.48,23.33,23.57\H,17.74,23.
 94,23.51\H,18.07,22.47,23.66\O,16.6,21.97,16.15\H,15.69,22.26,16.07\H,
 16.84,22.15,17.05\O,16.26,18.57,17.08\H,15.4,18.86,16.77\H,16.07,17.8,
 17.62\O,14.49,21.87,18.57\H,14.27,22.79,18.7\H,15.34,21.76,19.\O,20.32
 ,18.1,14.42\H,19.82,18.79,13.99\H,19.94,18.05,15.3\O,20.88,14.84,17.55
 \H,20.28,15.25,16.93\H,20.63,15.2,18.4\O,21.85,25.75,19.73\H,22.13,25.
 86,20.64\H,21.3,24.97,19.74\O,23.73,16.82,18.\H,23.53,15.9,17.81\H,23.
 55,17.27,17.18\O,23.22,14.92,21.13\H,22.37,14.49,21.19\H,23.04,15.71,2
 0.62\O,21.61,20.6,26.03\H,21.93,19.71,26.21\H,21.3,20.56,25.13\O,17.59
 ,14.39,18.91\H,17.99,13.52,18.9\H,18.33,14.99,18.85\O,15.86,18.05,23.7
 8\H,16.21,17.28,24.22\H,15.93,17.85,22.85\O,15.8,16.46,18.69\H,15.1,16
 .28,18.07\H,16.28,15.64,18.77\O,26.65,20.13,19.88\H,26.87,20.24,20.8\H
 ,25.74,20.41,19.8\O,25.91,19.67,16.89\H,26.23,18.82,16.58\H,25.14,19.4
 6,17.41\O,22.86,17.34,15.54\H,22.81,16.4,15.41\H,22.1,17.69,15.08\O,24
 .41,21.92,15.45\H,25.18,22.47,15.59\H,24.42,21.31,16.19\O,20.06,16.55,
 25.33\H,20.62,15.92,24.87\H,20.57,17.36,25.35\O,16.79,25.92,20.44\H,15
 .84,25.91,20.57\H,17.12,25.22,21.01\O,16.75,19.97,14.22\H,17.07,19.2,1
 4.7\H,16.63,20.64,14.9\O,23.09,19.73,13.55\H,22.55,19.85,14.33\H,23.49
 ,18.86,13.67\O,13.81,20.17,20.72\H,13.55,19.77,19.89\H,13.66,21.11,20.
 6\O,21.83,14.98,24.1\H,21.51,14.43,23.38\H,22.46,15.57,23.69\O,15.8,22
 .05,25.28\H,15.73,21.1,25.31\H,15.82,22.26,24.34\O,24.02,25.29,17.69\H
 ,23.2,25.35,18.17\H,24.37,24.42,17.92\O,13.54,17.96,21.92\H,14.14,18.0
 6,22.66\H,13.66,18.75,21.4\O,22.45,23.15,26.13\H,21.93,23.42,25.37\H,2
 2.24,22.23,26.25\O,16.34,19.25,26.25\H,16.1,18.92,25.39\H,16.8,18.52,2
 6.67\O,16.99,16.16,25.31\H,17.94,16.21,25.19\H,16.87,15.51,26.\O,22.31
 ,23.77,14.77\H,23.17,23.34,14.73\H,22.07,23.9,13.85\O,26.94,16.53,20.6
 3\H,26.13,17.,20.82\H,26.99,16.52,19.68\O,24.51,17.03,24.27\H,25.4,16.
 71,24.09\H,24.19,16.47,24.98\O,19.46,26.3,23.63\H,20.22,25.75,23.83\H,
 19.69,26.73,22.8\O,19.48,20.92,12.38\H,18.61,20.68,12.69\H,19.98,21.13
 ,13.17\O,13.32,18.48,18.54\H,13.1,17.65,18.97\H,12.91,18.42,17.68\O,12
 .82,20.84,16.8\H,12.01,20.72,17.28\H,13.49,20.94,17.47\O,18.33,26.77,1
 8.35\H,17.69,26.59,19.04\H,18.06,27.61,17.99\O,20.94,13.27,21.95\H,21.
 19,12.39,21.65\H,20.05,13.16,22.27\O,19.56,15.25,13.95\H,19.76,16.18,1
 4.02\H,19.01,15.06,14.71\O,23.31,25.93,22.2\H,23.95,26.44,21.71\H,23.4
 6,26.18,23.11\O,19.56,26.03,14.76\H,19.82,25.61,15.58\H,18.6,26.09,14.
 81\O,14.41,15.13,21.3\H,14.2,16.04,21.49\H,13.83,14.89,20.57\O,21.34,2
 7.45,17.68\H,21.72,26.82,18.29\H,20.4,27.42,17.85\O,19.43,25.06,26.28\
 H,18.65,25.04,26.83\H,19.13,24.72,25.43\O,22.5,12.65,18.14\H,21.72,13.
 18,17.98\H,22.17,11.87,18.59\O,26.96,24.04,19.34\H,26.09,23.92,18.95\H
 ,27.54,23.5,18.8\O,16.51,13.44,21.63\H,15.71,13.9,21.88\H,16.55,13.53,
 20.68\O,13.32,23.08,21.37\H,13.57,23.92,21.\H,13.68,23.09,22.26\O,17.5
 1,17.12,13.19\H,18.06,17.38,12.45\H,17.1,17.94,13.48\O,22.7,17.84,26.6
 6\H,22.31,17.13,27.16\H,23.39,18.18,27.23\O,15.4,25.44,17.61\H,14.68,2
 5.04,17.12\H,15.02,25.69,18.45\O,19.06,13.84,24.2\H,18.57,13.14,24.65\
 H,19.75,14.08,24.82\O,25.09,14.27,18.22\H,24.61,14.14,19.04\H,24.5,13.
 94,17.54\O,16.9,25.68,23.94\H,17.75,26.11,23.77\H,16.67,25.96,24.82\O,
 27.43,21.71,16.58\H,26.86,20.97,16.81\H,27.58,21.61,15.64\O,12.95,20.0
 3,24.3\H,13.86,19.83,24.53\H,12.44,19.57,24.96\O,26.63,19.66,24.52\H,2
 5.81,19.91,24.95\H,27.04,19.04,25.13\O,26.13,22.92,24.54\H,26.13,22.82
 ,23.59\H,26.41,23.83,24.69\O,24.91,21.67,26.6\H,24.02,21.94,26.34\H,25
 .47,22.03,25.92\O,27.04,16.34,17.76\H,26.28,15.81,18.\H,27.05,16.32,16
 .8\O,14.55,24.29,23.62\H,15.08,25.05,23.37\H,14.51,24.33,24.58\O,17.1,
 14.36,15.42\H,16.71,14.4,14.55\H,16.41,13.99,15.98\O,26.03,17.2,15.1\H
 ,26.6,17.01,14.35\H,25.18,17.41,14.71\O,16.98,26.53,15.66\H,16.46,26.0
 1,16.27\H,17.28,27.28,16.17\O,26.61,23.82,22.07\H,26.34,24.73,22.1\H,2
 6.94,23.69,21.18\O,24.34,25.63,25.02\H,23.83,24.82,25.02\H,24.54,25.79
 ,25.95\O,13.92,23.45,16.06\H,13.6,24.06,15.4\H,13.28,22.74,16.07\O,20.
 18,12.56,15.11\H,19.72,13.19,15.65\H,19.94,12.78,14.21\O,22.15,19.97,2
 8.64\H,21.77,20.43,27.9\H,22.61,20.65,29.14\O,16.12,23.27,12.62\H,15.3
 4,23.03,12.12\H,16.18,22.62,13.32\O,24.86,12.85,22.52\H,24.16,12.26,22
 .78\H,24.45,13.46,21.92\O,19.22,14.81,27.33\H,19.95,14.55,27.88\H,19.5
 5,15.55,26.82\O,22.23,15.29,13.45\H,21.3,15.09,13.57\H,22.59,14.51,13.
 03\O,24.08,22.06,12.24\H,23.25,22.53,12.15\H,23.92,21.42,12.93\O,15.91
 ,22.41,27.83\H,16.26,22.4,26.94\H,15.37,21.62,27.88\O,22.74,26.86,15.0
 1\H,22.86,25.91,14.98\H,22.02,26.99,15.63\O,18.44,18.45,28.01\H,17.82,
 17.86,28.45\H,19.22,18.44,28.58\O,13.54,15.58,17.16\H,12.59,15.51,17.3
 \H,13.62,16.11,16.37\O,15.54,13.57,25.04\H,16.21,14.11,24.61\H,14.71,1
 3.97,24.77\O,18.87,21.41,28.49\H,18.01,21.55,28.09\H,19.06,20.49,28.32
 \O,28.95,21.66,18.84\H,28.61,21.75,17.96\H,28.3,21.14,19.31\O,26.96,16
 .19,23.7\H,27.13,16.53,22.82\H,27.72,15.63,23.88\O,13.19,17.77,15.53\H
 ,13.58,17.48,14.7\H,12.26,17.84,15.34\O,19.33,28.77,21.48\H,18.98,28.3
 7,20.68\H,19.51,29.67,21.23\O,28.37,20.54,22.61\H,27.83,20.34,23.37\H,
 28.88,21.31,22.87\O,13.48,25.52,20.12\H,12.69,25.02,19.88\H,13.16,26.4
 ,20.3\O,21.9,19.39,11.\H,22.09,18.54,10.6\H,22.4,19.38,11.82\O,18.69,1
 1.48,21.03\H,18.15,11.73,21.78\H,18.1,10.97,20.47\O,23.84,12.94,15.93\
 H,23.42,12.71,16.76\H,23.11,13.18,15.35\O,14.01,13.22,18.67\H,13.73,13
 .91,18.07\H,14.94,13.1,18.48\O,11.8,22.17,23.89\H,12.27,21.34,23.79\H,
 11.99,22.44,24.79\O,10.9,22.09,20.6\H,10.1,22.21,21.12\H,11.61,22.08,2
 1.24\O,19.34,17.75,11.04\H,19.85,18.5,11.37\H,20.,17.13,10.73\O,26.35,
 25.05,15.89\H,26.55,24.81,14.99\H,25.48,25.45,15.84\O,22.12,25.49,27.1
 6\H,22.56,24.66,26.99\H,21.22,25.36,26.87\O,25.71,27.54,17.67\H,26.54,
 27.27,17.29\H,25.16,26.76,17.63\O,23.94,17.35,12.38\H,23.25,16.69,12.3
 9\H,24.59,17.01,11.76\O,20.68,23.43,28.81\H,20.06,22.7,28.78\H,20.52,2
 3.91,28.\O,29.06,17.64,21.87\H,28.6,17.78,21.04\H,29.13,18.51,22.26\O,
 23.65,13.89,26.27\H,23.,13.19,26.24\H,23.93,14.,25.36\O,10.62,18.92,19
 .89\H,10.2,19.54,20.49\H,11.08,19.47,19.26\O,12.04,20.44,14.21\H,12.53
 ,20.5,15.04\H,11.12,20.56,14.47\O,21.01,10.92,19.83\H,20.37,10.99,20.5
 3\H,20.52,10.61,19.07\O,28.02,14.29,21.68\H,27.23,14.77,21.44\H,28.57,
 14.33,20.89\O,29.21,18.24,18.69\H,28.57,17.71,18.21\H,29.12,19.12,18.3
 2\O,10.76,18.62,22.73\H,11.3,19.21,23.25\H,11.38,18.17,22.15\O,16.13,1
 4.63,12.95\H,15.99,14.29,12.07\H,16.76,15.35,12.84\\Version=ES64L-G09R
 evE.01\HF=-9773.4012213\RMSD=2.522e-09\RMSF=1.030e-02\Dipole=-22.97876
 1,-11.311132,-1.2594114\Quadrupole=-889.5375834,125.1641737,764.373409
 7,-2759.8291982,-2313.1992339,-1816.8804625\PG=C01 [X(Br1H256O128)]\\@


 YOU KNOW YOU'VE SPOKEN TOO LONG WHEN THE AUDIENCE STOPS LOOKING AT
 THEIR WATCHES AND STARTS SHAKING THEM.
 Job cpu time:       6 days 16 hours 33 minutes 38.1 seconds.
 File lengths (MBytes):  RWF=   7285 Int=      0 D2E=      0 Chk=   2411 Scr=      1
 Normal termination of Gaussian 09 at Mon May  7 06:46:15 2018.
