 Entering Gaussian System, Link 0=/cm/shared/gaussian/g09.e01/intel64-sandybridge/g09/g09
 Initial command:
 /cm/shared/gaussian/g09.e01/intel64-sandybridge/g09/l1.exe "/local/scratch/m.peluso/32_wat/Gau-19269.inp" -scrdir="/local/scratch/m.peluso/32_wat/"
 Entering Link 1 = /cm/shared/gaussian/g09.e01/intel64-sandybridge/g09/l1.exe PID=     19270.
  
 Copyright (c) 1988,1990,1992,1993,1995,1998,2003,2009,2015,
            Gaussian, Inc.  All Rights Reserved.
  
 This is part of the Gaussian(R) 09 program.  It is based on
 the Gaussian(R) 03 system (copyright 2003, Gaussian, Inc.),
 the Gaussian(R) 98 system (copyright 1998, Gaussian, Inc.),
 the Gaussian(R) 94 system (copyright 1995, Gaussian, Inc.),
 the Gaussian 92(TM) system (copyright 1992, Gaussian, Inc.),
 the Gaussian 90(TM) system (copyright 1990, Gaussian, Inc.),
 the Gaussian 88(TM) system (copyright 1988, Gaussian, Inc.),
 the Gaussian 86(TM) system (copyright 1986, Carnegie Mellon
 University), and the Gaussian 82(TM) system (copyright 1983,
 Carnegie Mellon University). Gaussian is a federally registered
 trademark of Gaussian, Inc.
  
 This software contains proprietary and confidential information,
 including trade secrets, belonging to Gaussian, Inc.
  
 This software is provided under written license and may be
 used, copied, transmitted, or stored only in accord with that
 written license.
  
 The following legend is applicable only to US Government
 contracts under FAR:
  
                    RESTRICTED RIGHTS LEGEND
  
 Use, reproduction and disclosure by the US Government is
 subject to restrictions as set forth in subparagraphs (a)
 and (c) of the Commercial Computer Software - Restricted
 Rights clause in FAR 52.227-19.
  
 Gaussian, Inc.
 340 Quinnipiac St., Bldg. 40, Wallingford CT 06492
  
  
 ---------------------------------------------------------------
 Warning -- This program may not be used in any manner that
 competes with the business of Gaussian, Inc. or will provide
 assistance to any competitor of Gaussian, Inc.  The licensee
 of this program is prohibited from giving any competitor of
 Gaussian, Inc. access to this program.  By using this program,
 the user acknowledges that Gaussian, Inc. is engaged in the
 business of creating and licensing software in the field of
 computational chemistry and represents and warrants to the
 licensee that it is not a competitor of Gaussian, Inc. and that
 it will not use this program in any manner prohibited above.
 ---------------------------------------------------------------
  

 Cite this work as:
 Gaussian 09, Revision E.01,
 M. J. Frisch, G. W. Trucks, H. B. Schlegel, G. E. Scuseria, 
 M. A. Robb, J. R. Cheeseman, G. Scalmani, V. Barone, B. Mennucci, 
 G. A. Petersson, H. Nakatsuji, M. Caricato, X. Li, H. P. Hratchian, 
 A. F. Izmaylov, J. Bloino, G. Zheng, J. L. Sonnenberg, M. Hada, 
 M. Ehara, K. Toyota, R. Fukuda, J. Hasegawa, M. Ishida, T. Nakajima, 
 Y. Honda, O. Kitao, H. Nakai, T. Vreven, J. A. Montgomery, Jr., 
 J. E. Peralta, F. Ogliaro, M. Bearpark, J. J. Heyd, E. Brothers, 
 K. N. Kudin, V. N. Staroverov, T. Keith, R. Kobayashi, J. Normand, 
 K. Raghavachari, A. Rendell, J. C. Burant, S. S. Iyengar, J. Tomasi, 
 M. Cossi, N. Rega, J. M. Millam, M. Klene, J. E. Knox, J. B. Cross, 
 V. Bakken, C. Adamo, J. Jaramillo, R. Gomperts, R. E. Stratmann, 
 O. Yazyev, A. J. Austin, R. Cammi, C. Pomelli, J. W. Ochterski, 
 R. L. Martin, K. Morokuma, V. G. Zakrzewski, G. A. Voth, 
 P. Salvador, J. J. Dannenberg, S. Dapprich, A. D. Daniels, 
 O. Farkas, J. B. Foresman, J. V. Ortiz, J. Cioslowski, 
 and D. J. Fox, Gaussian, Inc., Wallingford CT, 2013.
 
 ******************************************
 Gaussian 09:  ES64L-G09RevE.01 30-Nov-2015
                 2-May-2018 
 ******************************************
 %Mem=110GB
 %NProcShared=64
 Will use up to   64 processors via shared memory.
 %chk=snap1.chk
 ----------------------------------------------
 #p PBE1PBE/cc-pvDZ force Counterpoise=2 noSymm
 ----------------------------------------------
 1/10=7,30=1,38=1,62=2/1,3;
 2/12=2,15=1,17=6,18=5,40=1/2;
 1/10=7,30=1,38=1,53=2,62=2,63=101/22;
 3/5=16,11=2,16=1,25=1,30=1,71=1,74=-13/1,2,3;
 4//1;
 5/5=2,38=5/2;
 6/7=2,8=2,9=2,10=2,28=1/1;
 7/7=1,29=1,30=1,33=-1/1,2,3,16;
 1/10=7,30=1,53=2,62=2,63=101/22;
 3/5=7,6=11,11=2,16=1,25=1,30=1,71=1,74=-13,82=7/1,2,3;
 4//1;
 5/5=2,38=5/2;
 6/7=2,8=2,9=2,10=2,28=1/1;
 7/7=1,29=1,30=1,33=-1/1,2,3,16;
 1/10=7,30=1,53=2,62=2,63=101/22(-5);
 7/9=1,29=1,44=-1/16;
 1/10=7,30=1,62=2/3;
 99//99;
 Leave Link    1 at Wed May  2 19:54:33 2018, MaxMem= 14763950080 cpu:         4.3
 (Enter /cm/shared/gaussian/g09.e01/intel64-sandybridge/g09/l101.exe)
 --------------------------------------
 forces on chloride comput - NWATER: 32
 --------------------------------------
 Symbolic Z-matrix:
 Charge = -1 Multiplicity = 1 in supermolecule
 Charge = -1 Multiplicity = 1 in fragment      1.
 Charge =  0 Multiplicity = 1 in fragment      2.
 Br(Fragment=1)        20.       20.       20. 
 O(Fragment=2)         18.54     20.43     17.29 
 H(Fragment=2)         18.77     20.06     18.14 
 H(Fragment=2)         19.37     20.78     16.95 
 O(Fragment=2)         21.11     22.67     21.39 
 H(Fragment=2)         20.85     21.83     21. 
 H(Fragment=2)         20.29     23.06     21.68 
 O(Fragment=2)         19.87     19.11     23.05 
 H(Fragment=2)         19.93     19.55     22.21 
 H(Fragment=2)         19.23     19.62     23.55 
 O(Fragment=2)         23.25     19.24     20.21 
 H(Fragment=2)         22.29     19.32     20.16 
 H(Fragment=2)         23.52     19.12     19.3 
 O(Fragment=2)         16.77     19.2      19.96 
 H(Fragment=2)         17.69     19.34     19.76 
 H(Fragment=2)         16.66     18.25     19.95 
 O(Fragment=2)         20.13     16.66     20.73 
 H(Fragment=2)         20.09     17.61     20.61 
 H(Fragment=2)         20.68     16.35     20.01 
 O(Fragment=2)         18.18     22.91     20.09 
 H(Fragment=2)         18.76     22.16     19.93 
 H(Fragment=2)         17.78     23.08     19.24 
 O(Fragment=2)         21.34     19.01     17.02 
 H(Fragment=2)         21.01     18.84     17.91 
 H(Fragment=2)         20.76     18.5      16.45 
 O(Fragment=2)         16.19     19.86     22.57 
 H(Fragment=2)         16.37     19.75     21.64 
 H(Fragment=2)         16.93     20.38     22.9 
 O(Fragment=2)         22.87     21.24     16.44 
 H(Fragment=2)         22.74     21.17     15.49 
 H(Fragment=2)         22.47     20.45     16.79 
 O(Fragment=2)         17.68     15.97     19.51 
 H(Fragment=2)         17.52     15.03     19.6 
 H(Fragment=2)         18.57     16.1      19.82 
 O(Fragment=2)         18.09     16.22     22.88 
 H(Fragment=2)         18.18     15.26     22.85 
 H(Fragment=2)         18.73     16.53     22.24 
 O(Fragment=2)         24.02     17.49     21.98 
 H(Fragment=2)         23.59     17.92     21.24 
 H(Fragment=2)         24.14     18.18     22.62 
 O(Fragment=2)         17.03     23.       17.61 
 H(Fragment=2)         17.22     22.11     17.34 
 H(Fragment=2)         16.98     23.5      16.79 
 O(Fragment=2)         21.79     18.54     24.9 
 H(Fragment=2)         21.16     18.85     24.25 
 H(Fragment=2)         22.63     18.91     24.61 
 O(Fragment=2)         18.73     21.28     24.27 
 H(Fragment=2)         18.96     22.13     23.9 
 H(Fragment=2)         18.8      21.41     25.22 
 O(Fragment=2)         14.81     20.78     18.72 
 H(Fragment=2)         15.48     20.14     18.94 
 H(Fragment=2)         15.03     21.55     19.24 
 O(Fragment=2)         17.35     17.52     16.98 
 H(Fragment=2)         16.56     17.85     17.41 
 H(Fragment=2)         17.63     16.79     17.54 
 O(Fragment=2)         18.43     23.68     22.74 
 H(Fragment=2)         18.08     23.86     21.87 
 H(Fragment=2)         18.2      24.46     23.26 
 O(Fragment=2)         22.11     15.58     22.5 
 H(Fragment=2)         22.78     16.26     22.44 
 H(Fragment=2)         21.35     15.96     22.06 
 O(Fragment=2)         15.44     22.46     20.82 
 H(Fragment=2)         16.3      22.78     21.08 
 H(Fragment=2)         15.02     22.22     21.65 
 O(Fragment=2)         23.19     22.38     23.42 
 H(Fragment=2)         23.62     23.09     23.89 
 H(Fragment=2)         22.95     22.76     22.58 
 O(Fragment=2)         22.37     16.02     18.68 
 H(Fragment=2)         22.73     16.42     17.88 
 H(Fragment=2)         23.1      15.55     19.07 
 O(Fragment=2)         25.44     21.4      21.07 
 H(Fragment=2)         25.05     22.25     20.87 
 H(Fragment=2)         24.74     20.77     20.91 
 O(Fragment=2)         19.57     17.56     15.53 
 H(Fragment=2)         18.7      17.62     15.93 
 H(Fragment=2)         19.49     18.06     14.72 
 O(Fragment=2)         16.77     19.93     15.15 
 H(Fragment=2)         15.82     19.96     15.27 
 H(Fragment=2)         17.12     19.87     16.04 
 O(Fragment=2)         22.65     24.93     21.61 
 H(Fragment=2)         22.64     25.18     20.68 
 H(Fragment=2)         22.       24.23     21.67 
 O(Fragment=2)         21.67     23.95     17. 
 H(Fragment=2)         22.25     23.2      16.84 
 H(Fragment=2)         21.38     24.22     16.13 
 O(Fragment=2)         23.99     19.63     23.72 
 H(Fragment=2)         23.56     20.47     23.53 
 H(Fragment=2)         24.89     19.75     23.44 
 O(Fragment=2)         20.11     15.23     16.9 
 H(Fragment=2)         19.85     15.92     16.29 
 H(Fragment=2)         20.69     15.67     17.52 
 O(Fragment=2)         14.93     16.51     19.87 
 H(Fragment=2)         15.81     16.47     19.49 
 H(Fragment=2)         15.       15.99     20.67 
 O(Fragment=2)         24.91     18.24     18. 
 H(Fragment=2)         25.66     18.36     17.41 
 H(Fragment=2)         25.29     18.14     18.87 
 
 NAtoms=     97 NQM=       97 NQMF=       0 NMMI=      0 NMMIF=      0
                NMic=       0 NMicF=      0.
                    Isotopes and Nuclear Properties:
 (Nuclear quadrupole moments (NQMom) in fm**2, nuclear magnetic moments (NMagM)
  in nuclear magnetons)

  Atom         1           2           3           4           5           6           7           8           9          10
 IAtWgt=          79          16           1           1          16           1           1          16           1           1
 AtmWgt=  78.9183361  15.9949146   1.0078250   1.0078250  15.9949146   1.0078250   1.0078250  15.9949146   1.0078250   1.0078250
 NucSpn=           3           0           1           1           0           1           1           0           1           1
 AtZEff=   0.0000000   0.0000000   0.0000000   0.0000000   0.0000000   0.0000000   0.0000000   0.0000000   0.0000000   0.0000000
 NQMom=   31.3000000   0.0000000   0.0000000   0.0000000   0.0000000   0.0000000   0.0000000   0.0000000   0.0000000   0.0000000
 NMagM=    2.1063990   0.0000000   2.7928460   2.7928460   0.0000000   2.7928460   2.7928460   0.0000000   2.7928460   2.7928460
 AtZNuc=  35.0000000   8.0000000   1.0000000   1.0000000   8.0000000   1.0000000   1.0000000   8.0000000   1.0000000   1.0000000

  Atom        11          12          13          14          15          16          17          18          19          20
 IAtWgt=          16           1           1          16           1           1          16           1           1          16
 AtmWgt=  15.9949146   1.0078250   1.0078250  15.9949146   1.0078250   1.0078250  15.9949146   1.0078250   1.0078250  15.9949146
 NucSpn=           0           1           1           0           1           1           0           1           1           0
 AtZEff=   0.0000000   0.0000000   0.0000000   0.0000000   0.0000000   0.0000000   0.0000000   0.0000000   0.0000000   0.0000000
 NQMom=    0.0000000   0.0000000   0.0000000   0.0000000   0.0000000   0.0000000   0.0000000   0.0000000   0.0000000   0.0000000
 NMagM=    0.0000000   2.7928460   2.7928460   0.0000000   2.7928460   2.7928460   0.0000000   2.7928460   2.7928460   0.0000000
 AtZNuc=   8.0000000   1.0000000   1.0000000   8.0000000   1.0000000   1.0000000   8.0000000   1.0000000   1.0000000   8.0000000

  Atom        21          22          23          24          25          26          27          28          29          30
 IAtWgt=           1           1          16           1           1          16           1           1          16           1
 AtmWgt=   1.0078250   1.0078250  15.9949146   1.0078250   1.0078250  15.9949146   1.0078250   1.0078250  15.9949146   1.0078250
 NucSpn=           1           1           0           1           1           0           1           1           0           1
 AtZEff=   0.0000000   0.0000000   0.0000000   0.0000000   0.0000000   0.0000000   0.0000000   0.0000000   0.0000000   0.0000000
 NQMom=    0.0000000   0.0000000   0.0000000   0.0000000   0.0000000   0.0000000   0.0000000   0.0000000   0.0000000   0.0000000
 NMagM=    2.7928460   2.7928460   0.0000000   2.7928460   2.7928460   0.0000000   2.7928460   2.7928460   0.0000000   2.7928460
 AtZNuc=   1.0000000   1.0000000   8.0000000   1.0000000   1.0000000   8.0000000   1.0000000   1.0000000   8.0000000   1.0000000

  Atom        31          32          33          34          35          36          37          38          39          40
 IAtWgt=           1          16           1           1          16           1           1          16           1           1
 AtmWgt=   1.0078250  15.9949146   1.0078250   1.0078250  15.9949146   1.0078250   1.0078250  15.9949146   1.0078250   1.0078250
 NucSpn=           1           0           1           1           0           1           1           0           1           1
 AtZEff=   0.0000000   0.0000000   0.0000000   0.0000000   0.0000000   0.0000000   0.0000000   0.0000000   0.0000000   0.0000000
 NQMom=    0.0000000   0.0000000   0.0000000   0.0000000   0.0000000   0.0000000   0.0000000   0.0000000   0.0000000   0.0000000
 NMagM=    2.7928460   0.0000000   2.7928460   2.7928460   0.0000000   2.7928460   2.7928460   0.0000000   2.7928460   2.7928460
 AtZNuc=   1.0000000   8.0000000   1.0000000   1.0000000   8.0000000   1.0000000   1.0000000   8.0000000   1.0000000   1.0000000

  Atom        41          42          43          44          45          46          47          48          49          50
 IAtWgt=          16           1           1          16           1           1          16           1           1          16
 AtmWgt=  15.9949146   1.0078250   1.0078250  15.9949146   1.0078250   1.0078250  15.9949146   1.0078250   1.0078250  15.9949146
 NucSpn=           0           1           1           0           1           1           0           1           1           0
 AtZEff=   0.0000000   0.0000000   0.0000000   0.0000000   0.0000000   0.0000000   0.0000000   0.0000000   0.0000000   0.0000000
 NQMom=    0.0000000   0.0000000   0.0000000   0.0000000   0.0000000   0.0000000   0.0000000   0.0000000   0.0000000   0.0000000
 NMagM=    0.0000000   2.7928460   2.7928460   0.0000000   2.7928460   2.7928460   0.0000000   2.7928460   2.7928460   0.0000000
 AtZNuc=   8.0000000   1.0000000   1.0000000   8.0000000   1.0000000   1.0000000   8.0000000   1.0000000   1.0000000   8.0000000

  Atom        51          52          53          54          55          56          57          58          59          60
 IAtWgt=           1           1          16           1           1          16           1           1          16           1
 AtmWgt=   1.0078250   1.0078250  15.9949146   1.0078250   1.0078250  15.9949146   1.0078250   1.0078250  15.9949146   1.0078250
 NucSpn=           1           1           0           1           1           0           1           1           0           1
 AtZEff=   0.0000000   0.0000000   0.0000000   0.0000000   0.0000000   0.0000000   0.0000000   0.0000000   0.0000000   0.0000000
 NQMom=    0.0000000   0.0000000   0.0000000   0.0000000   0.0000000   0.0000000   0.0000000   0.0000000   0.0000000   0.0000000
 NMagM=    2.7928460   2.7928460   0.0000000   2.7928460   2.7928460   0.0000000   2.7928460   2.7928460   0.0000000   2.7928460
 AtZNuc=   1.0000000   1.0000000   8.0000000   1.0000000   1.0000000   8.0000000   1.0000000   1.0000000   8.0000000   1.0000000

  Atom        61          62          63          64          65          66          67          68          69          70
 IAtWgt=           1          16           1           1          16           1           1          16           1           1
 AtmWgt=   1.0078250  15.9949146   1.0078250   1.0078250  15.9949146   1.0078250   1.0078250  15.9949146   1.0078250   1.0078250
 NucSpn=           1           0           1           1           0           1           1           0           1           1
 AtZEff=   0.0000000   0.0000000   0.0000000   0.0000000   0.0000000   0.0000000   0.0000000   0.0000000   0.0000000   0.0000000
 NQMom=    0.0000000   0.0000000   0.0000000   0.0000000   0.0000000   0.0000000   0.0000000   0.0000000   0.0000000   0.0000000
 NMagM=    2.7928460   0.0000000   2.7928460   2.7928460   0.0000000   2.7928460   2.7928460   0.0000000   2.7928460   2.7928460
 AtZNuc=   1.0000000   8.0000000   1.0000000   1.0000000   8.0000000   1.0000000   1.0000000   8.0000000   1.0000000   1.0000000

  Atom        71          72          73          74          75          76          77          78          79          80
 IAtWgt=          16           1           1          16           1           1          16           1           1          16
 AtmWgt=  15.9949146   1.0078250   1.0078250  15.9949146   1.0078250   1.0078250  15.9949146   1.0078250   1.0078250  15.9949146
 NucSpn=           0           1           1           0           1           1           0           1           1           0
 AtZEff=   0.0000000   0.0000000   0.0000000   0.0000000   0.0000000   0.0000000   0.0000000   0.0000000   0.0000000   0.0000000
 NQMom=    0.0000000   0.0000000   0.0000000   0.0000000   0.0000000   0.0000000   0.0000000   0.0000000   0.0000000   0.0000000
 NMagM=    0.0000000   2.7928460   2.7928460   0.0000000   2.7928460   2.7928460   0.0000000   2.7928460   2.7928460   0.0000000
 AtZNuc=   8.0000000   1.0000000   1.0000000   8.0000000   1.0000000   1.0000000   8.0000000   1.0000000   1.0000000   8.0000000

  Atom        81          82          83          84          85          86          87          88          89          90
 IAtWgt=           1           1          16           1           1          16           1           1          16           1
 AtmWgt=   1.0078250   1.0078250  15.9949146   1.0078250   1.0078250  15.9949146   1.0078250   1.0078250  15.9949146   1.0078250
 NucSpn=           1           1           0           1           1           0           1           1           0           1
 AtZEff=   0.0000000   0.0000000   0.0000000   0.0000000   0.0000000   0.0000000   0.0000000   0.0000000   0.0000000   0.0000000
 NQMom=    0.0000000   0.0000000   0.0000000   0.0000000   0.0000000   0.0000000   0.0000000   0.0000000   0.0000000   0.0000000
 NMagM=    2.7928460   2.7928460   0.0000000   2.7928460   2.7928460   0.0000000   2.7928460   2.7928460   0.0000000   2.7928460
 AtZNuc=   1.0000000   1.0000000   8.0000000   1.0000000   1.0000000   8.0000000   1.0000000   1.0000000   8.0000000   1.0000000

  Atom        91          92          93          94          95          96          97
 IAtWgt=           1          16           1           1          16           1           1
 AtmWgt=   1.0078250  15.9949146   1.0078250   1.0078250  15.9949146   1.0078250   1.0078250
 NucSpn=           1           0           1           1           0           1           1
 AtZEff=   0.0000000   0.0000000   0.0000000   0.0000000   0.0000000   0.0000000   0.0000000
 NQMom=    0.0000000   0.0000000   0.0000000   0.0000000   0.0000000   0.0000000   0.0000000
 NMagM=    2.7928460   0.0000000   2.7928460   2.7928460   0.0000000   2.7928460   2.7928460
 AtZNuc=   1.0000000   8.0000000   1.0000000   1.0000000   8.0000000   1.0000000   1.0000000
 Leave Link  101 at Wed May  2 19:54:33 2018, MaxMem= 14763950080 cpu:        12.6
 (Enter /cm/shared/gaussian/g09.e01/intel64-sandybridge/g09/l103.exe)

 GradGradGradGradGradGradGradGradGradGradGradGradGradGradGradGradGradGrad
 Berny optimization.
 Initialization pass.
 Trust Radius=3.00D-01 FncErr=1.00D-07 GrdErr=1.00D-07
 Number of steps in this run=      2 maximum allowed number of steps=      2.
 GradGradGradGradGradGradGradGradGradGradGradGradGradGradGradGradGradGrad

 Leave Link  103 at Wed May  2 19:54:33 2018, MaxMem= 14763950080 cpu:         1.7
 (Enter /cm/shared/gaussian/g09.e01/intel64-sandybridge/g09/l202.exe)
 Symmetry turned off by external request.
 Stoichiometry    BrH64O32(1-)
 Framework group  C1[X(BrH64O32)]
 Deg. of freedom   285
 Full point group                 C1      NOp   1
                          Input orientation:                          
 ---------------------------------------------------------------------
 Center     Atomic      Atomic             Coordinates (Angstroms)
 Number     Number       Type             X           Y           Z
 ---------------------------------------------------------------------
      1         35           0       20.000000   20.000000   20.000000
      2          8           0       18.540000   20.430000   17.290000
      3          1           0       18.770000   20.060000   18.140000
      4          1           0       19.370000   20.780000   16.950000
      5          8           0       21.110000   22.670000   21.390000
      6          1           0       20.850000   21.830000   21.000000
      7          1           0       20.290000   23.060000   21.680000
      8          8           0       19.870000   19.110000   23.050000
      9          1           0       19.930000   19.550000   22.210000
     10          1           0       19.230000   19.620000   23.550000
     11          8           0       23.250000   19.240000   20.210000
     12          1           0       22.290000   19.320000   20.160000
     13          1           0       23.520000   19.120000   19.300000
     14          8           0       16.770000   19.200000   19.960000
     15          1           0       17.690000   19.340000   19.760000
     16          1           0       16.660000   18.250000   19.950000
     17          8           0       20.130000   16.660000   20.730000
     18          1           0       20.090000   17.610000   20.610000
     19          1           0       20.680000   16.350000   20.010000
     20          8           0       18.180000   22.910000   20.090000
     21          1           0       18.760000   22.160000   19.930000
     22          1           0       17.780000   23.080000   19.240000
     23          8           0       21.340000   19.010000   17.020000
     24          1           0       21.010000   18.840000   17.910000
     25          1           0       20.760000   18.500000   16.450000
     26          8           0       16.190000   19.860000   22.570000
     27          1           0       16.370000   19.750000   21.640000
     28          1           0       16.930000   20.380000   22.900000
     29          8           0       22.870000   21.240000   16.440000
     30          1           0       22.740000   21.170000   15.490000
     31          1           0       22.470000   20.450000   16.790000
     32          8           0       17.680000   15.970000   19.510000
     33          1           0       17.520000   15.030000   19.600000
     34          1           0       18.570000   16.100000   19.820000
     35          8           0       18.090000   16.220000   22.880000
     36          1           0       18.180000   15.260000   22.850000
     37          1           0       18.730000   16.530000   22.240000
     38          8           0       24.020000   17.490000   21.980000
     39          1           0       23.590000   17.920000   21.240000
     40          1           0       24.140000   18.180000   22.620000
     41          8           0       17.030000   23.000000   17.610000
     42          1           0       17.220000   22.110000   17.340000
     43          1           0       16.980000   23.500000   16.790000
     44          8           0       21.790000   18.540000   24.900000
     45          1           0       21.160000   18.850000   24.250000
     46          1           0       22.630000   18.910000   24.610000
     47          8           0       18.730000   21.280000   24.270000
     48          1           0       18.960000   22.130000   23.900000
     49          1           0       18.800000   21.410000   25.220000
     50          8           0       14.810000   20.780000   18.720000
     51          1           0       15.480000   20.140000   18.940000
     52          1           0       15.030000   21.550000   19.240000
     53          8           0       17.350000   17.520000   16.980000
     54          1           0       16.560000   17.850000   17.410000
     55          1           0       17.630000   16.790000   17.540000
     56          8           0       18.430000   23.680000   22.740000
     57          1           0       18.080000   23.860000   21.870000
     58          1           0       18.200000   24.460000   23.260000
     59          8           0       22.110000   15.580000   22.500000
     60          1           0       22.780000   16.260000   22.440000
     61          1           0       21.350000   15.960000   22.060000
     62          8           0       15.440000   22.460000   20.820000
     63          1           0       16.300000   22.780000   21.080000
     64          1           0       15.020000   22.220000   21.650000
     65          8           0       23.190000   22.380000   23.420000
     66          1           0       23.620000   23.090000   23.890000
     67          1           0       22.950000   22.760000   22.580000
     68          8           0       22.370000   16.020000   18.680000
     69          1           0       22.730000   16.420000   17.880000
     70          1           0       23.100000   15.550000   19.070000
     71          8           0       25.440000   21.400000   21.070000
     72          1           0       25.050000   22.250000   20.870000
     73          1           0       24.740000   20.770000   20.910000
     74          8           0       19.570000   17.560000   15.530000
     75          1           0       18.700000   17.620000   15.930000
     76          1           0       19.490000   18.060000   14.720000
     77          8           0       16.770000   19.930000   15.150000
     78          1           0       15.820000   19.960000   15.270000
     79          1           0       17.120000   19.870000   16.040000
     80          8           0       22.650000   24.930000   21.610000
     81          1           0       22.640000   25.180000   20.680000
     82          1           0       22.000000   24.230000   21.670000
     83          8           0       21.670000   23.950000   17.000000
     84          1           0       22.250000   23.200000   16.840000
     85          1           0       21.380000   24.220000   16.130000
     86          8           0       23.990000   19.630000   23.720000
     87          1           0       23.560000   20.470000   23.530000
     88          1           0       24.890000   19.750000   23.440000
     89          8           0       20.110000   15.230000   16.900000
     90          1           0       19.850000   15.920000   16.290000
     91          1           0       20.690000   15.670000   17.520000
     92          8           0       14.930000   16.510000   19.870000
     93          1           0       15.810000   16.470000   19.490000
     94          1           0       15.000000   15.990000   20.670000
     95          8           0       24.910000   18.240000   18.000000
     96          1           0       25.660000   18.360000   17.410000
     97          1           0       25.290000   18.140000   18.870000
 ---------------------------------------------------------------------
 Rotational constants (GHZ):      0.0645473      0.0555766      0.0513162
 Leave Link  202 at Wed May  2 19:54:33 2018, MaxMem= 14763950080 cpu:         0.5
 (Enter /cm/shared/gaussian/g09.e01/intel64-sandybridge/g09/l122.exe)
 Counterpoise: doing full dimer calculation.
 Leave Link  122 at Wed May  2 19:54:33 2018, MaxMem= 14763950080 cpu:         0.1
 (Enter /cm/shared/gaussian/g09.e01/intel64-sandybridge/g09/l301.exe)
 Standard basis: CC-pVDZ (5D, 7F)
 Ernie: Thresh=  0.10000D-02 Tol=  0.10000D-05 Strict=F.
 Ernie:  87 primitive shells out of 1114 were deleted.
   795 basis functions,  1651 primitive gaussians,   829 cartesian basis functions
   178 alpha electrons      178 beta electrons
       nuclear repulsion energy      6201.9034050154 Hartrees.
 IExCor= 1009 DFT=T Ex+Corr=PBE1PBE ExCW=0 ScaHFX=  0.250000
 ScaDFX=  0.750000  0.750000  1.000000  1.000000 ScalE2=  1.000000  1.000000
 IRadAn=      0 IRanWt=     -1 IRanGd=            0 ICorTp=0 IEmpDi=  4
 NAtoms=   97 NActive=   97 NUniq=   97 SFac= 1.00D+00 NAtFMM=   60 NAOKFM=T Big=T
 Integral buffers will be    131072 words long.
 Raffenetti 2 integral format.
 Two-electron integral symmetry is turned off.
 Leave Link  301 at Wed May  2 19:54:33 2018, MaxMem= 14763950080 cpu:         4.3
 (Enter /cm/shared/gaussian/g09.e01/intel64-sandybridge/g09/l302.exe)
 NPDir=0 NMtPBC=     1 NCelOv=     1 NCel=       1 NClECP=     1 NCelD=      1
         NCelK=      1 NCelE2=     1 NClLst=     1 CellRange=     0.0.
 One-electron integrals computed using PRISM.
 NBasis=   795 RedAO= T EigKep=  1.55D-02  NBF=   795
 NBsUse=   795 1.00D-06 EigRej= -1.00D+00 NBFU=   795
 Precomputing XC quadrature grid using
 IXCGrd= 4 IRadAn=           0 IRanWt=          -1 IRanGd=           0 AccXCQ= 0.00D+00.
 Generated NRdTot=       0 NPtTot=           0 NUsed=           0 NTot=          32
 NSgBfM=   759   763   763   767   773 MxSgAt=    97 MxSgA2=    97.
 Leave Link  302 at Wed May  2 19:54:40 2018, MaxMem= 14763950080 cpu:       438.2
 (Enter /cm/shared/gaussian/g09.e01/intel64-sandybridge/g09/l303.exe)
 DipDrv:  MaxL=1.
 Leave Link  303 at Wed May  2 19:54:40 2018, MaxMem= 14763950080 cpu:        29.4
 (Enter /cm/shared/gaussian/g09.e01/intel64-sandybridge/g09/l401.exe)
 ExpMin= 1.22D-01 ExpMax= 6.40D+05 ExpMxC= 6.18D+03 IAcc=2 IRadAn=         4 AccDes= 0.00D+00
 Harris functional with IExCor= 1009 and IRadAn=       4 diagonalized for initial guess.
 HarFok:  IExCor= 1009 AccDes= 0.00D+00 IRadAn=         4 IDoV= 1 UseB2=F ITyADJ=14
 ICtDFT=  3500011 ScaDFX=  1.000000  1.000000  1.000000  1.000000
 FoFCou: FMM=F IPFlag=           0 FMFlag=      100000 FMFlg1=        2001
         NFxFlg=           0 DoJE=T BraDBF=F KetDBF=T FulRan=T
         wScrn=  0.000000 ICntrl=     500 IOpCl=  0 I1Cent=   200000004 NGrid=           0
         NMat0=    1 NMatS0=      1 NMatT0=    0 NMatD0=    1 NMtDS0=    0 NMtDT0=    0
 Symmetry not used in FoFCou.
 Harris En= -5018.44480602934    
 JPrj=0 DoOrth=F DoCkMO=F.
 Leave Link  401 at Wed May  2 19:54:46 2018, MaxMem= 14763950080 cpu:       325.7
 (Enter /cm/shared/gaussian/g09.e01/intel64-sandybridge/g09/l502.exe)
 Closed shell SCF:
 Using DIIS extrapolation, IDIIS=  1040.
 Two-electron integral symmetry not used.
 IVT=     2138497 IEndB=     2138497 NGot= 14763950080 MDV= 14762516294
 LenX= 14762516294 LenY= 14761828224
 Requested convergence on RMS density matrix=1.00D-08 within 128 cycles.
 Requested convergence on MAX density matrix=1.00D-06.
 Requested convergence on             energy=1.00D-06.
 No special actions if energy rises.
 Fock matrices will be formed incrementally for  20 cycles.
 Integral accuracy reduced to 1.0D-05 until final iterations.

 Cycle   1  Pass 0  IDiag  1:
 FoFJK:  IHMeth= 1 ICntrl=       0 DoSepK=F KAlg= 0 I1Cent=   0 FoldK=F
 IRaf= 850000000 NMat=   1 IRICut=       1 DoRegI=T DoRafI=F ISym2E= 0.
 FoFCou: FMM=T IPFlag=           0 FMFlag=      100000 FMFlg1=        2001
         NFxFlg=           0 DoJE=F BraDBF=F KetDBF=F FulRan=T
         wScrn=  0.000000 ICntrl=       0 IOpCl=  0 I1Cent=           0 NGrid=           0
         NMat0=    1 NMatS0=      1 NMatT0=    0 NMatD0=    1 NMtDS0=    0 NMtDT0=    0
 Symmetry not used in FoFCou.
 FMM levels:  10  Number of levels for PrismC:   9
 E= -5015.36949052452    
 DIIS: error= 3.11D-02 at cycle   1 NSaved=   1.
 NSaved= 1 IEnMin= 1 EnMin= -5015.36949052452     IErMin= 1 ErrMin= 3.11D-02
 ErrMax= 3.11D-02  0.00D+00 EMaxC= 1.00D-01 BMatC= 2.69D+00 BMatP= 2.69D+00
 IDIUse=3 WtCom= 6.89D-01 WtEn= 3.11D-01
 Coeff-Com:  0.100D+01
 Coeff-En:   0.100D+01
 Coeff:      0.100D+01
 Gap=     0.334 Goal=   None    Shift=    0.000
 GapD=    0.334 DampG=1.000 DampE=0.500 DampFc=0.5000 IDamp=-1.
 Damping current iteration by 5.00D-01
 RMSDP=2.84D-03 MaxDP=1.65D-01              OVMax= 1.78D-01

 Cycle   2  Pass 0  IDiag  1:
 RMSU=  1.41D-03    CP:  9.85D-01
 E= -5016.15439913853     Delta-E=       -0.784908614009 Rises=F Damp=T
 DIIS: error= 8.99D-03 at cycle   2 NSaved=   2.
 NSaved= 2 IEnMin= 2 EnMin= -5016.15439913853     IErMin= 2 ErrMin= 8.99D-03
 ErrMax= 8.99D-03  0.00D+00 EMaxC= 1.00D-01 BMatC= 8.34D-02 BMatP= 2.69D+00
 IDIUse=3 WtCom= 9.10D-01 WtEn= 8.99D-02
 Coeff-Com:  0.117D+00 0.883D+00
 Coeff-En:   0.211D+00 0.789D+00
 Coeff:      0.125D+00 0.875D+00
 Gap=     0.186 Goal=   None    Shift=    0.000
 RMSDP=3.48D-04 MaxDP=1.83D-02 DE=-7.85D-01 OVMax= 1.08D-01

 Cycle   3  Pass 0  IDiag  1:
 RMSU=  2.73D-04    CP:  9.87D-01  8.47D-01
 E= -5017.28538263990     Delta-E=       -1.130983501378 Rises=F Damp=F
 DIIS: error= 1.03D-03 at cycle   3 NSaved=   3.
 NSaved= 3 IEnMin= 3 EnMin= -5017.28538263990     IErMin= 3 ErrMin= 1.03D-03
 ErrMax= 1.03D-03  0.00D+00 EMaxC= 1.00D-01 BMatC= 1.74D-03 BMatP= 8.34D-02
 IDIUse=3 WtCom= 9.90D-01 WtEn= 1.03D-02
 Coeff-Com:  0.932D-02 0.656D-01 0.925D+00
 Coeff-En:   0.000D+00 0.000D+00 0.100D+01
 Coeff:      0.923D-02 0.649D-01 0.926D+00
 Gap=     0.201 Goal=   None    Shift=    0.000
 RMSDP=9.22D-05 MaxDP=1.35D-02 DE=-1.13D+00 OVMax= 1.33D-02

 Cycle   4  Pass 0  IDiag  1:
 RMSU=  8.31D-05    CP:  9.88D-01  8.50D-01  8.54D-01
 E= -5017.28572387903     Delta-E=       -0.000341239123 Rises=F Damp=F
 DIIS: error= 8.71D-04 at cycle   4 NSaved=   4.
 NSaved= 4 IEnMin= 4 EnMin= -5017.28572387903     IErMin= 4 ErrMin= 8.71D-04
 ErrMax= 8.71D-04  0.00D+00 EMaxC= 1.00D-01 BMatC= 1.77D-03 BMatP= 1.74D-03
 IDIUse=3 WtCom= 9.91D-01 WtEn= 8.71D-03
 Coeff-Com:  0.208D-02 0.616D-02 0.500D+00 0.491D+00
 Coeff-En:   0.000D+00 0.000D+00 0.444D+00 0.556D+00
 Coeff:      0.206D-02 0.610D-02 0.500D+00 0.492D+00
 Gap=     0.198 Goal=   None    Shift=    0.000
 RMSDP=4.06D-05 MaxDP=5.33D-03 DE=-3.41D-04 OVMax= 4.68D-03

 Cycle   5  Pass 0  IDiag  1:
 RMSU=  1.72D-05    CP:  9.87D-01  8.47D-01  9.12D-01  6.01D-01
 E= -5017.28710645215     Delta-E=       -0.001382573124 Rises=F Damp=F
 DIIS: error= 1.12D-04 at cycle   5 NSaved=   5.
 NSaved= 5 IEnMin= 5 EnMin= -5017.28710645215     IErMin= 5 ErrMin= 1.12D-04
 ErrMax= 1.12D-04  0.00D+00 EMaxC= 1.00D-01 BMatC= 3.26D-05 BMatP= 1.74D-03
 IDIUse=3 WtCom= 9.99D-01 WtEn= 1.12D-03
 Coeff-Com:  0.649D-03-0.207D-02 0.142D+00 0.175D+00 0.685D+00
 Coeff-En:   0.000D+00 0.000D+00 0.000D+00 0.000D+00 0.100D+01
 Coeff:      0.648D-03-0.207D-02 0.142D+00 0.175D+00 0.685D+00
 Gap=     0.198 Goal=   None    Shift=    0.000
 RMSDP=7.77D-06 MaxDP=1.07D-03 DE=-1.38D-03 OVMax= 9.07D-04

 Cycle   6  Pass 0  IDiag  1:
 RMSU=  5.53D-06    CP:  9.87D-01  8.47D-01  9.22D-01  5.84D-01  7.42D-01
 E= -5017.28713119359     Delta-E=       -0.000024741435 Rises=F Damp=F
 DIIS: error= 5.00D-05 at cycle   6 NSaved=   6.
 NSaved= 6 IEnMin= 6 EnMin= -5017.28713119359     IErMin= 6 ErrMin= 5.00D-05
 ErrMax= 5.00D-05  0.00D+00 EMaxC= 1.00D-01 BMatC= 3.79D-06 BMatP= 3.26D-05
 IDIUse=1 WtCom= 1.00D+00 WtEn= 0.00D+00
 Coeff-Com:  0.140D-03-0.196D-02 0.334D-01 0.435D-01 0.291D+00 0.634D+00
 Coeff:      0.140D-03-0.196D-02 0.334D-01 0.435D-01 0.291D+00 0.634D+00
 Gap=     0.198 Goal=   None    Shift=    0.000
 RMSDP=2.23D-06 MaxDP=4.04D-04 DE=-2.47D-05 OVMax= 2.80D-04

 Initial convergence to 1.0D-05 achieved.  Increase integral accuracy.
 Cycle   7  Pass 1  IDiag  1:
 E= -5017.28797893627     Delta-E=       -0.000847742682 Rises=F Damp=F
 DIIS: error= 2.47D-05 at cycle   1 NSaved=   1.
 NSaved= 1 IEnMin= 1 EnMin= -5017.28797893627     IErMin= 1 ErrMin= 2.47D-05
 ErrMax= 2.47D-05  0.00D+00 EMaxC= 1.00D-01 BMatC= 1.45D-06 BMatP= 1.45D-06
 IDIUse=1 WtCom= 1.00D+00 WtEn= 0.00D+00
 Coeff-Com:  0.100D+01
 Coeff:      0.100D+01
 Gap=     0.198 Goal=   None    Shift=    0.000
 RMSDP=2.23D-06 MaxDP=4.04D-04 DE=-8.48D-04 OVMax= 1.73D-04

 Cycle   8  Pass 1  IDiag  1:
 RMSU=  4.22D-06    CP:  1.00D+00
 E= -5017.28798029696     Delta-E=       -0.000001360688 Rises=F Damp=F
 DIIS: error= 1.31D-05 at cycle   2 NSaved=   2.
 NSaved= 2 IEnMin= 2 EnMin= -5017.28798029696     IErMin= 2 ErrMin= 1.31D-05
 ErrMax= 1.31D-05  0.00D+00 EMaxC= 1.00D-01 BMatC= 2.80D-07 BMatP= 1.45D-06
 IDIUse=1 WtCom= 1.00D+00 WtEn= 0.00D+00
 Coeff-Com:  0.225D+00 0.775D+00
 Coeff:      0.225D+00 0.775D+00
 Gap=     0.198 Goal=   None    Shift=    0.000
 RMSDP=7.74D-07 MaxDP=8.16D-05 DE=-1.36D-06 OVMax= 6.34D-05

 Cycle   9  Pass 1  IDiag  1:
 RMSU=  7.69D-07    CP:  1.00D+00  9.81D-01
 E= -5017.28798037774     Delta-E=       -0.000000080783 Rises=F Damp=F
 DIIS: error= 1.13D-05 at cycle   3 NSaved=   3.
 NSaved= 3 IEnMin= 3 EnMin= -5017.28798037774     IErMin= 3 ErrMin= 1.13D-05
 ErrMax= 1.13D-05  0.00D+00 EMaxC= 1.00D-01 BMatC= 1.78D-07 BMatP= 2.80D-07
 IDIUse=1 WtCom= 1.00D+00 WtEn= 0.00D+00
 Coeff-Com: -0.457D-02 0.443D+00 0.562D+00
 Coeff:     -0.457D-02 0.443D+00 0.562D+00
 Gap=     0.198 Goal=   None    Shift=    0.000
 RMSDP=3.35D-07 MaxDP=2.87D-05 DE=-8.08D-08 OVMax= 3.03D-05

 Cycle  10  Pass 1  IDiag  1:
 RMSU=  1.21D-07    CP:  1.00D+00  1.00D+00  6.11D-01
 E= -5017.28798050321     Delta-E=       -0.000000125470 Rises=F Damp=F
 DIIS: error= 1.21D-06 at cycle   4 NSaved=   4.
 NSaved= 4 IEnMin= 4 EnMin= -5017.28798050321     IErMin= 4 ErrMin= 1.21D-06
 ErrMax= 1.21D-06  0.00D+00 EMaxC= 1.00D-01 BMatC= 1.77D-09 BMatP= 1.78D-07
 IDIUse=1 WtCom= 1.00D+00 WtEn= 0.00D+00
 Coeff-Com: -0.494D-02 0.197D+00 0.264D+00 0.544D+00
 Coeff:     -0.494D-02 0.197D+00 0.264D+00 0.544D+00
 Gap=     0.198 Goal=   None    Shift=    0.000
 RMSDP=5.55D-08 MaxDP=1.16D-05 DE=-1.25D-07 OVMax= 9.32D-06

 Cycle  11  Pass 1  IDiag  1:
 RMSU=  2.99D-08    CP:  1.00D+00  1.00D+00  6.01D-01  6.24D-01
 E= -5017.28798050481     Delta-E=       -0.000000001597 Rises=F Damp=F
 DIIS: error= 1.45D-07 at cycle   5 NSaved=   5.
 NSaved= 5 IEnMin= 5 EnMin= -5017.28798050481     IErMin= 5 ErrMin= 1.45D-07
 ErrMax= 1.45D-07  0.00D+00 EMaxC= 1.00D-01 BMatC= 5.32D-11 BMatP= 1.77D-09
 IDIUse=1 WtCom= 1.00D+00 WtEn= 0.00D+00
 Coeff-Com: -0.173D-02 0.589D-01 0.795D-01 0.210D+00 0.653D+00
 Coeff:     -0.173D-02 0.589D-01 0.795D-01 0.210D+00 0.653D+00
 Gap=     0.198 Goal=   None    Shift=    0.000
 RMSDP=8.23D-09 MaxDP=7.69D-07 DE=-1.60D-09 OVMax= 7.84D-07

 SCF Done:  E(RPBE1PBE) =  -5017.28798050     A.U. after   11 cycles
            NFock= 11  Conv=0.82D-08     -V/T= 2.0028
 KE= 5.003322462420D+03 PE=-2.437183660287D+04 EE= 8.149322754931D+03
 Leave Link  502 at Wed May  2 19:56:49 2018, MaxMem= 14763950080 cpu:      7788.1
 (Enter /cm/shared/gaussian/g09.e01/intel64-sandybridge/g09/l601.exe)
 Copying SCF densities to generalized density rwf, IOpCl= 0 IROHF=0.

 **********************************************************************

            Population analysis using the SCF density.

 **********************************************************************

 Alpha  occ. eigenvalues -- -483.17082 -62.57394 -56.34638 -56.34635 -56.34601
 Alpha  occ. eigenvalues --  -19.17132 -19.16956 -19.16628 -19.16304 -19.16004
 Alpha  occ. eigenvalues --  -19.15926 -19.15407 -19.14832 -19.14315 -19.14168
 Alpha  occ. eigenvalues --  -19.14006 -19.13371 -19.13032 -19.12940 -19.12601
 Alpha  occ. eigenvalues --  -19.12427 -19.12371 -19.11660 -19.11602 -19.11309
 Alpha  occ. eigenvalues --  -19.11093 -19.10885 -19.10861 -19.10748 -19.10351
 Alpha  occ. eigenvalues --  -19.07948 -19.07606 -19.07133 -19.05855 -19.04364
 Alpha  occ. eigenvalues --  -19.02664 -19.01002  -8.67736  -6.48104  -6.48083
 Alpha  occ. eigenvalues --   -6.47948  -2.56408  -2.56406  -2.56298  -2.56278
 Alpha  occ. eigenvalues --   -2.56246  -0.99934  -0.99459  -0.99360  -0.99036
 Alpha  occ. eigenvalues --   -0.98308  -0.98066  -0.97541  -0.97375  -0.97077
 Alpha  occ. eigenvalues --   -0.96835  -0.96468  -0.96024  -0.95806  -0.95475
 Alpha  occ. eigenvalues --   -0.95381  -0.95274  -0.94752  -0.94136  -0.94106
 Alpha  occ. eigenvalues --   -0.93822  -0.93400  -0.93371  -0.93253  -0.93213
 Alpha  occ. eigenvalues --   -0.93108  -0.90695  -0.90489  -0.90281  -0.88447
 Alpha  occ. eigenvalues --   -0.87386  -0.85638  -0.83975  -0.67500  -0.51079
 Alpha  occ. eigenvalues --   -0.50573  -0.49736  -0.49624  -0.48961  -0.48637
 Alpha  occ. eigenvalues --   -0.48082  -0.47617  -0.47472  -0.46961  -0.46852
 Alpha  occ. eigenvalues --   -0.46835  -0.46653  -0.46343  -0.46244  -0.46102
 Alpha  occ. eigenvalues --   -0.45724  -0.45154  -0.44764  -0.44527  -0.44357
 Alpha  occ. eigenvalues --   -0.44170  -0.44022  -0.43508  -0.43439  -0.42242
 Alpha  occ. eigenvalues --   -0.42092  -0.41155  -0.40139  -0.39471  -0.38489
 Alpha  occ. eigenvalues --   -0.37939  -0.37125  -0.36779  -0.36383  -0.35775
 Alpha  occ. eigenvalues --   -0.35577  -0.35335  -0.34720  -0.34520  -0.33923
 Alpha  occ. eigenvalues --   -0.33810  -0.33390  -0.33325  -0.33073  -0.32859
 Alpha  occ. eigenvalues --   -0.32033  -0.31334  -0.30521  -0.30420  -0.30115
 Alpha  occ. eigenvalues --   -0.29951  -0.29920  -0.29516  -0.29350  -0.29021
 Alpha  occ. eigenvalues --   -0.28889  -0.28208  -0.27806  -0.27600  -0.27418
 Alpha  occ. eigenvalues --   -0.27024  -0.26914  -0.26843  -0.26788  -0.26440
 Alpha  occ. eigenvalues --   -0.26250  -0.26075  -0.25749  -0.24979  -0.24734
 Alpha  occ. eigenvalues --   -0.24267  -0.24051  -0.23897  -0.23729  -0.23564
 Alpha  occ. eigenvalues --   -0.23196  -0.23087  -0.22941  -0.22505  -0.22471
 Alpha  occ. eigenvalues --   -0.22257  -0.22117  -0.21926  -0.21819  -0.21761
 Alpha  occ. eigenvalues --   -0.21678  -0.21665  -0.21629  -0.21051  -0.20769
 Alpha  occ. eigenvalues --   -0.20567  -0.18537  -0.18300  -0.17870  -0.16900
 Alpha  occ. eigenvalues --   -0.16003  -0.14354  -0.12638
 Alpha virt. eigenvalues --    0.07186   0.09504   0.10266   0.11143   0.12239
 Alpha virt. eigenvalues --    0.12539   0.13201   0.13707   0.14892   0.15529
 Alpha virt. eigenvalues --    0.16104   0.16415   0.17359   0.17463   0.18046
 Alpha virt. eigenvalues --    0.18074   0.18246   0.18877   0.18966   0.19444
 Alpha virt. eigenvalues --    0.19946   0.20446   0.20752   0.21138   0.21418
 Alpha virt. eigenvalues --    0.21940   0.22923   0.23382   0.24016   0.24424
 Alpha virt. eigenvalues --    0.25026   0.25660   0.26828   0.27013   0.27177
 Alpha virt. eigenvalues --    0.27875   0.28181   0.28689   0.29117   0.29575
 Alpha virt. eigenvalues --    0.29903   0.30367   0.30655   0.31274   0.31563
 Alpha virt. eigenvalues --    0.31872   0.32583   0.33265   0.33291   0.33687
 Alpha virt. eigenvalues --    0.33997   0.34765   0.35206   0.35475   0.35600
 Alpha virt. eigenvalues --    0.36136   0.36524   0.36934   0.37654   0.38979
 Alpha virt. eigenvalues --    0.39797   0.40668   0.43288   0.44817   0.56579
 Alpha virt. eigenvalues --    0.58190   0.59181   0.59601   0.60610   0.61167
 Alpha virt. eigenvalues --    0.61539   0.62010   0.62279   0.62872   0.63259
 Alpha virt. eigenvalues --    0.63533   0.63834   0.64546   0.64748   0.64852
 Alpha virt. eigenvalues --    0.65101   0.65555   0.65971   0.66552   0.66801
 Alpha virt. eigenvalues --    0.66952   0.67293   0.67602   0.68016   0.68359
 Alpha virt. eigenvalues --    0.68730   0.68992   0.69361   0.69382   0.69696
 Alpha virt. eigenvalues --    0.69899   0.70230   0.70339   0.70504   0.71127
 Alpha virt. eigenvalues --    0.71386   0.71742   0.71989   0.72133   0.72396
 Alpha virt. eigenvalues --    0.72650   0.73093   0.73190   0.73682   0.74298
 Alpha virt. eigenvalues --    0.74433   0.75010   0.75144   0.75403   0.75775
 Alpha virt. eigenvalues --    0.76445   0.77236   0.77411   0.77749   0.78080
 Alpha virt. eigenvalues --    0.78503   0.78729   0.79750   0.80517   0.81390
 Alpha virt. eigenvalues --    0.81833   0.82539   0.82763   0.82873   0.83656
 Alpha virt. eigenvalues --    0.84408   0.85606   0.86882   0.87539   0.90759
 Alpha virt. eigenvalues --    0.92909   0.94765   0.94932   0.95970   0.96456
 Alpha virt. eigenvalues --    0.96731   0.97627   0.97958   0.98054   0.98518
 Alpha virt. eigenvalues --    0.98908   0.99288   0.99419   0.99748   0.99978
 Alpha virt. eigenvalues --    1.00364   1.00795   1.01106   1.01495   1.01742
 Alpha virt. eigenvalues --    1.01930   1.02225   1.02470   1.02560   1.02979
 Alpha virt. eigenvalues --    1.03243   1.03828   1.03981   1.04149   1.04380
 Alpha virt. eigenvalues --    1.04785   1.05428   1.05576   1.05824   1.06023
 Alpha virt. eigenvalues --    1.06432   1.06881   1.07031   1.07451   1.07631
 Alpha virt. eigenvalues --    1.07870   1.07985   1.08273   1.08466   1.08959
 Alpha virt. eigenvalues --    1.09232   1.09465   1.09910   1.10308   1.10445
 Alpha virt. eigenvalues --    1.10652   1.11000   1.11436   1.11762   1.12104
 Alpha virt. eigenvalues --    1.12371   1.12869   1.13021   1.13153   1.13610
 Alpha virt. eigenvalues --    1.14264   1.14407   1.14609   1.15299   1.15458
 Alpha virt. eigenvalues --    1.15617   1.16043   1.16268   1.16599   1.17014
 Alpha virt. eigenvalues --    1.17108   1.17801   1.17906   1.18556   1.18986
 Alpha virt. eigenvalues --    1.19375   1.19584   1.19673   1.19836   1.20347
 Alpha virt. eigenvalues --    1.20904   1.21413   1.21919   1.22611   1.22845
 Alpha virt. eigenvalues --    1.23433   1.23861   1.24727   1.25198   1.25744
 Alpha virt. eigenvalues --    1.26010   1.26479   1.26833   1.27245   1.27419
 Alpha virt. eigenvalues --    1.27606   1.28082   1.28528   1.28991   1.29149
 Alpha virt. eigenvalues --    1.29620   1.29827   1.30208   1.30545   1.30709
 Alpha virt. eigenvalues --    1.30896   1.31261   1.31462   1.31543   1.31789
 Alpha virt. eigenvalues --    1.32015   1.32497   1.32592   1.32690   1.33025
 Alpha virt. eigenvalues --    1.33141   1.33553   1.34173   1.34410   1.34753
 Alpha virt. eigenvalues --    1.35048   1.35182   1.35496   1.35816   1.35920
 Alpha virt. eigenvalues --    1.36297   1.36884   1.36981   1.37511   1.37670
 Alpha virt. eigenvalues --    1.38124   1.38238   1.38376   1.38843   1.39598
 Alpha virt. eigenvalues --    1.40199   1.40252   1.40697   1.41772   1.41969
 Alpha virt. eigenvalues --    1.42089   1.42437   1.42983   1.43178   1.43316
 Alpha virt. eigenvalues --    1.43745   1.44401   1.44743   1.45290   1.45534
 Alpha virt. eigenvalues --    1.45633   1.46151   1.46471   1.47715   1.48025
 Alpha virt. eigenvalues --    1.48767   1.48948   1.49353   1.49744   1.50149
 Alpha virt. eigenvalues --    1.50315   1.51084   1.51334   1.52235   1.52582
 Alpha virt. eigenvalues --    1.53022   1.53524   1.54421   1.54766   1.55132
 Alpha virt. eigenvalues --    1.55321   1.55709   1.56334   1.56389   1.57289
 Alpha virt. eigenvalues --    1.57496   1.57840   1.58185   1.58861   1.59283
 Alpha virt. eigenvalues --    1.59631   1.60550   1.61246   1.61837   1.62359
 Alpha virt. eigenvalues --    1.62545   1.62737   1.63597   1.63841   1.65451
 Alpha virt. eigenvalues --    1.65608   1.66041   1.66558   1.68405   1.69287
 Alpha virt. eigenvalues --    1.69543   1.70121   1.71151   1.71575   1.72105
 Alpha virt. eigenvalues --    1.73191   1.73859   1.74313   1.74802   1.75094
 Alpha virt. eigenvalues --    1.75505   1.76506   1.76642   1.76989   1.77311
 Alpha virt. eigenvalues --    1.77907   1.78034   1.78764   1.79090   1.79552
 Alpha virt. eigenvalues --    1.79680   1.79958   1.80715   1.80793   1.81593
 Alpha virt. eigenvalues --    1.81926   1.82101   1.82360   1.83224   1.83790
 Alpha virt. eigenvalues --    1.83961   1.84138   1.84696   1.85621   1.86151
 Alpha virt. eigenvalues --    1.86435   1.86572   1.87475   1.88315   1.88627
 Alpha virt. eigenvalues --    1.89197   1.89602   1.90752   1.90919   1.91296
 Alpha virt. eigenvalues --    1.91640   1.92114   1.92493   1.94055   1.94424
 Alpha virt. eigenvalues --    1.94752   1.94810   1.95286   1.95959   1.96184
 Alpha virt. eigenvalues --    1.96831   1.97468   1.99505   1.99867   2.00855
 Alpha virt. eigenvalues --    2.03262   2.04194   2.05298   2.17799   2.19072
 Alpha virt. eigenvalues --    2.20338   2.20809   2.20866   2.21227   2.21434
 Alpha virt. eigenvalues --    2.22319   2.22438   2.22470   2.22882   2.23222
 Alpha virt. eigenvalues --    2.23487   2.23594   2.23832   2.23836   2.23955
 Alpha virt. eigenvalues --    2.24375   2.24510   2.24899   2.24970   2.25453
 Alpha virt. eigenvalues --    2.25686   2.26084   2.26405   2.26967   2.27425
 Alpha virt. eigenvalues --    2.27853   2.28503   2.29145   2.29218   2.30021
 Alpha virt. eigenvalues --    2.30872   2.31761   2.32393   2.32827   2.34531
 Alpha virt. eigenvalues --    2.35293   2.35652   2.36117   2.37310   2.38358
 Alpha virt. eigenvalues --    2.40787   2.41674   2.42053   2.42278   2.43873
 Alpha virt. eigenvalues --    2.47381   2.47811   2.47914   2.51015   2.52492
 Alpha virt. eigenvalues --    2.53104   2.54091   2.54188   2.57384   2.57539
 Alpha virt. eigenvalues --    2.58982   2.61119   2.62738   2.63217   2.64061
 Alpha virt. eigenvalues --    2.66868   2.68980   2.95542   2.96312   2.96479
 Alpha virt. eigenvalues --    2.97109   2.97549   2.98318   2.98701   2.98916
 Alpha virt. eigenvalues --    2.99441   3.00063   3.00303   3.00430   3.00536
 Alpha virt. eigenvalues --    3.00580   3.00769   3.00839   3.01165   3.01242
 Alpha virt. eigenvalues --    3.01495   3.02039   3.02096   3.02130   3.02254
 Alpha virt. eigenvalues --    3.02455   3.02494   3.02547   3.03019   3.03102
 Alpha virt. eigenvalues --    3.03438   3.03567   3.03706   3.03858   3.03915
 Alpha virt. eigenvalues --    3.04417   3.05031   3.05512   3.05525   3.05578
 Alpha virt. eigenvalues --    3.05882   3.06251   3.06389   3.06449   3.06509
 Alpha virt. eigenvalues --    3.06636   3.06835   3.07217   3.07603   3.08055
 Alpha virt. eigenvalues --    3.08396   3.08493   3.08522   3.08584   3.08724
 Alpha virt. eigenvalues --    3.09759   3.09991   3.10914   3.11992   3.13089
 Alpha virt. eigenvalues --    3.13685   3.14157   3.14420   3.16099   3.17393
 Alpha virt. eigenvalues --    3.17852   3.18300   3.19314   3.20059   3.21144
 Alpha virt. eigenvalues --    3.21661   3.22341   3.22464   3.22578   3.22685
 Alpha virt. eigenvalues --    3.22915   3.23452   3.23672   3.23812   3.24210
 Alpha virt. eigenvalues --    3.24332   3.24653   3.24969   3.25130   3.25415
 Alpha virt. eigenvalues --    3.25758   3.26085   3.26167   3.27195   3.27283
 Alpha virt. eigenvalues --    3.27630   3.28668   3.29428   3.29979   3.32432
 Alpha virt. eigenvalues --    3.32491   3.34806   3.35401   3.54436   3.54581
 Alpha virt. eigenvalues --    3.55898   3.57081   3.57535   3.58282   3.59335
 Alpha virt. eigenvalues --    3.59453   3.59682   3.59984   3.60444   3.60926
 Alpha virt. eigenvalues --    3.61108   3.61584   3.61694   3.62527   3.62744
 Alpha virt. eigenvalues --    3.63326   3.63538   3.64165   3.64658   3.65046
 Alpha virt. eigenvalues --    3.65636   3.66926   3.67135   3.68274   3.68555
 Alpha virt. eigenvalues --    3.68562   3.69669   3.70372   3.71161   3.73917
 Alpha virt. eigenvalues --    3.83139   3.84158   3.84911   3.85909   3.86132
 Alpha virt. eigenvalues --    3.86270   3.86965   3.87149   3.87501   3.87699
 Alpha virt. eigenvalues --    3.88095   3.89065   3.89510   3.89951   3.90199
 Alpha virt. eigenvalues --    3.90432   3.90584   3.91522   3.91869   3.92936
 Alpha virt. eigenvalues --    3.93774   3.94028   3.94277   3.94894   3.96016
 Alpha virt. eigenvalues --    3.96999   3.97423   3.97790   3.97956   3.99050
 Alpha virt. eigenvalues --    4.00111   4.02750
          Condensed to atoms (all electrons):
 Mulliken charges:
               1
     1  Br  -0.706881
     2  O   -0.257236
     3  H    0.139141
     4  H    0.139426
     5  O   -0.281239
     6  H    0.163086
     7  H    0.127842
     8  O   -0.261393
     9  H    0.129579
    10  H    0.147946
    11  O   -0.263118
    12  H    0.167546
    13  H    0.136721
    14  O   -0.227960
    15  H    0.142747
    16  H    0.125484
    17  O   -0.247982
    18  H    0.159455
    19  H    0.146110
    20  O   -0.295987
    21  H    0.141697
    22  H    0.145546
    23  O   -0.295645
    24  H    0.134903
    25  H    0.125411
    26  O   -0.314663
    27  H    0.129241
    28  H    0.111543
    29  O   -0.278923
    30  H    0.123246
    31  H    0.145869
    32  O   -0.257308
    33  H    0.149357
    34  H    0.118651
    35  O   -0.279660
    36  H    0.115253
    37  H    0.137070
    38  O   -0.312773
    39  H    0.118285
    40  H    0.120143
    41  O   -0.244926
    42  H    0.122412
    43  H    0.136435
    44  O   -0.353039
    45  H    0.112937
    46  H    0.127408
    47  O   -0.245838
    48  H    0.130910
    49  H    0.143454
    50  O   -0.342262
    51  H    0.112114
    52  H    0.132939
    53  O   -0.260050
    54  H    0.143618
    55  H    0.129280
    56  O   -0.247553
    57  H    0.150761
    58  H    0.142904
    59  O   -0.345765
    60  H    0.124804
    61  H    0.110415
    62  O   -0.250072
    63  H    0.107642
    64  H    0.131943
    65  O   -0.253337
    66  H    0.134336
    67  H    0.129301
    68  O   -0.241919
    69  H    0.145695
    70  H    0.157715
    71  O   -0.295344
    72  H    0.135029
    73  H    0.123123
    74  O   -0.263421
    75  H    0.166643
    76  H    0.155159
    77  O   -0.316801
    78  H    0.133394
    79  H    0.148714
    80  O   -0.312787
    81  H    0.139452
    82  H    0.139053
    83  O   -0.296753
    84  H    0.128278
    85  H    0.115758
    86  O   -0.238240
    87  H    0.147626
    88  H    0.127197
    89  O   -0.315490
    90  H    0.129500
    91  H    0.107726
    92  O   -0.275140
    93  H    0.131895
    94  H    0.134961
    95  O   -0.251303
    96  H    0.148448
    97  H    0.150530
 Sum of Mulliken charges =  -1.00000
 Mulliken charges with hydrogens summed into heavy atoms:
               1
     1  Br  -0.706881
     2  O    0.021332
     5  O    0.009689
     8  O    0.016132
    11  O    0.041149
    14  O    0.040271
    17  O    0.057584
    20  O   -0.008744
    23  O   -0.035331
    26  O   -0.073878
    29  O   -0.009808
    32  O    0.010700
    35  O   -0.027337
    38  O   -0.074345
    41  O    0.013921
    44  O   -0.112694
    47  O    0.028526
    50  O   -0.097209
    53  O    0.012847
    56  O    0.046113
    59  O   -0.110546
    62  O   -0.010487
    65  O    0.010300
    68  O    0.061491
    71  O   -0.037192
    74  O    0.058381
    77  O   -0.034693
    80  O   -0.034282
    83  O   -0.052717
    86  O    0.036582
    89  O   -0.078264
    92  O   -0.008284
    95  O    0.047675
         Mulliken charges condensed to fragments:
      1     -0.706881
      2     -0.293119
 Electronic spatial extent (au):  <R**2>=        1539368.8942
 Charge=             -1.0000 electrons
 Dipole moment (field-independent basis, Debye):
    X=            -91.2722    Y=            -88.4955    Z=           -107.6179  Tot=            166.5643
 Quadrupole moment (field-independent basis, Debye-Ang):
   XX=          -2024.7631   YY=          -1873.9190   ZZ=          -2648.9880
   XY=          -1677.7004   XZ=          -2098.3294   YZ=          -1963.3334
 Traceless Quadrupole moment (field-independent basis, Debye-Ang):
   XX=            157.7936   YY=            308.6377   ZZ=           -466.4313
   XY=          -1677.7004   XZ=          -2098.3294   YZ=          -1963.3334
 Octapole moment (field-independent basis, Debye-Ang**2):
  XXX=         -49996.2676  YYY=         -44316.3889  ZZZ=         -68502.0038  XYY=         -35868.7984
  XXY=         -37583.9033  XXZ=         -46891.1541  XZZ=         -52745.4163  YZZ=         -48061.5339
  YYZ=         -40627.5199  XYZ=         -38199.0463
 Hexadecapole moment (field-independent basis, Debye-Ang**3):
 XXXX=       -1305323.7760 YYYY=       -1121009.1023 ZZZZ=       -1807126.5859 XXXY=        -942533.0731
 XXXZ=       -1150127.7561 YYYX=        -861939.4348 YYYZ=        -936107.6600 ZZZX=       -1384069.1230
 ZZZY=       -1241007.4660 XXYY=        -805493.9700 XXZZ=       -1175762.7251 YYZZ=        -969699.9800
 XXYZ=        -861899.1801 YYXZ=        -795514.3773 ZZXY=        -955613.7462
 N-N= 6.201903405015D+03 E-N=-2.437183657900D+04  KE= 5.003322462420D+03
 No NMR shielding tensors so no spin-rotation constants.
 Leave Link  601 at Wed May  2 19:56:52 2018, MaxMem= 14763950080 cpu:        70.8
 (Enter /cm/shared/gaussian/g09.e01/intel64-sandybridge/g09/l701.exe)
 Compute integral first derivatives.
 ... and contract with generalized density number  0.
 Leave Link  701 at Wed May  2 19:56:54 2018, MaxMem= 14763950080 cpu:       127.4
 (Enter /cm/shared/gaussian/g09.e01/intel64-sandybridge/g09/l702.exe)
 L702 exits ... SP integral derivatives will be done elsewhere.
 Leave Link  702 at Wed May  2 19:56:54 2018, MaxMem= 14763950080 cpu:         1.6
 (Enter /cm/shared/gaussian/g09.e01/intel64-sandybridge/g09/l703.exe)
 Compute integral first derivatives, UseDBF=F ICtDFT=           0.
 Integral derivatives from FoFJK, PRISM(SPDF).
 Calling FoFJK, ICntrl=      2127 FMM=T ISym2X=0 I1Cent= 0 IOpClX= 0 NMat=1 NMatS=1 NMatT=0.
 FoFJK:  IHMeth= 1 ICntrl=    2127 DoSepK=F KAlg= 0 I1Cent=   0 FoldK=F
 IRaf=         0 NMat=   1 IRICut=       1 DoRegI=T DoRafI=F ISym2E= 0.
 FoFCou: FMM=T IPFlag=           0 FMFlag=      100000 FMFlg1=        2001
         NFxFlg=           0 DoJE=F BraDBF=F KetDBF=F FulRan=T
         wScrn=  0.000000 ICntrl=    2127 IOpCl=  0 I1Cent=           0 NGrid=           0
         NMat0=    1 NMatS0=      1 NMatT0=    0 NMatD0=    1 NMtDS0=    0 NMtDT0=    0
 Symmetry not used in FoFCou.
 FMM levels:  10  Number of levels for PrismC:   9
 Leave Link  703 at Wed May  2 19:57:11 2018, MaxMem= 14763950080 cpu:      1095.7
 (Enter /cm/shared/gaussian/g09.e01/intel64-sandybridge/g09/l716.exe)
 Dipole        =-3.59092351D+01-3.48168218D+01-4.23401466D+01
 Cartesian Forces:  Max     0.036183251 RMS     0.010002522
 Leave Link  716 at Wed May  2 19:57:12 2018, MaxMem= 14763950080 cpu:         3.5
 (Enter /cm/shared/gaussian/g09.e01/intel64-sandybridge/g09/l122.exe)
 CPIOFr:  IOpCl= 0 IRwI=-1 IRwCP=  731 ICalc= -1 LCPTot=     1005244 Len1MO=     2550559 IndFrg=     1005244
 CPIOFr:  IOpCl= 0 IRwI=-1 IRwCP=  731 ICalc=  0 LCPTot=     1005244 Len1MO=     2550559 IndFrg=     3555803
 Counterpoise: doing DCBS calculation for fragment   1 NewBq=T
 Leave Link  122 at Wed May  2 19:57:12 2018, MaxMem= 14763950080 cpu:         6.9
 (Enter /cm/shared/gaussian/g09.e01/intel64-sandybridge/g09/l301.exe)
 Basis read from rwf:  (5D, 7F)
 No pseudopotential information found on rwf file.
   795 basis functions,  1651 primitive gaussians,   829 cartesian basis functions
    18 alpha electrons       18 beta electrons
       nuclear repulsion energy         0.0000000000 Hartrees.
 IExCor= 1009 DFT=T Ex+Corr=PBE1PBE ExCW=0 ScaHFX=  0.250000
 ScaDFX=  0.750000  0.750000  1.000000  1.000000 ScalE2=  1.000000  1.000000
 IRadAn=      0 IRanWt=     -1 IRanGd=            0 ICorTp=0 IEmpDi=  4
 NAtoms=   97 NActive=   97 NUniq=   97 SFac= 1.00D+00 NAtFMM=   60 NAOKFM=T Big=T
 Integral buffers will be    131072 words long.
 Raffenetti 2 integral format.
 Two-electron integral symmetry is turned off.
 No density basis found on file   718.
 Leave Link  301 at Wed May  2 19:57:12 2018, MaxMem= 14763950080 cpu:         4.6
 (Enter /cm/shared/gaussian/g09.e01/intel64-sandybridge/g09/l302.exe)
 NPDir=0 NMtPBC=     1 NCelOv=     1 NCel=       1 NClECP=     1 NCelD=      1
         NCelK=      1 NCelE2=     1 NClLst=     1 CellRange=     0.0.
 One-electron integrals computed using PRISM.
 NBasis=   795 RedAO= T EigKep=  1.55D-02  NBF=   795
 NBsUse=   795 1.00D-06 EigRej= -1.00D+00 NBFU=   795
 Precomputing XC quadrature grid using
 IXCGrd= 4 IRadAn=           0 IRanWt=          -1 IRanGd=           0 AccXCQ= 0.00D+00.
 Generated NRdTot=       0 NPtTot=           0 NUsed=           0 NTot=          32
 NSgBfM=   759   763   763   767   773 MxSgAt=    97 MxSgA2=    97.
 Leave Link  302 at Wed May  2 19:57:16 2018, MaxMem= 14763950080 cpu:       246.2
 (Enter /cm/shared/gaussian/g09.e01/intel64-sandybridge/g09/l303.exe)
 DipDrv:  MaxL=1.
 Leave Link  303 at Wed May  2 19:57:16 2018, MaxMem= 14763950080 cpu:        28.8
 (Enter /cm/shared/gaussian/g09.e01/intel64-sandybridge/g09/l401.exe)
 ExpMin= 1.22D-01 ExpMax= 6.40D+05 ExpMxC= 6.18D+03 IAcc=2 IRadAn=         4 AccDes= 0.00D+00
 Harris functional with IExCor= 1009 and IRadAn=       4 diagonalized for initial guess.
 HarFok:  IExCor= 1009 AccDes= 0.00D+00 IRadAn=         4 IDoV= 1 UseB2=F ITyADJ=14
 ICtDFT=  3500011 ScaDFX=  1.000000  1.000000  1.000000  1.000000
 FoFCou: FMM=F IPFlag=           0 FMFlag=      100000 FMFlg1=        2001
         NFxFlg=           0 DoJE=T BraDBF=F KetDBF=T FulRan=T
         wScrn=  0.000000 ICntrl=     500 IOpCl=  0 I1Cent=   200000004 NGrid=           0
         NMat0=    1 NMatS0=      1 NMatT0=    0 NMatD0=    1 NMtDS0=    0 NMtDT0=    0
 Symmetry not used in FoFCou.
 Harris En= -2574.01995843596    
 JPrj=0 DoOrth=F DoCkMO=F.
 Leave Link  401 at Wed May  2 19:57:21 2018, MaxMem= 14763950080 cpu:       272.5
 (Enter /cm/shared/gaussian/g09.e01/intel64-sandybridge/g09/l502.exe)
 Closed shell SCF:
 Using DIIS extrapolation, IDIIS=  1040.
 Two-electron integral symmetry not used.
 IVT=     2138497 IEndB=     2138497 NGot= 14763950080 MDV= 14762516294
 LenX= 14762516294 LenY= 14761828224
 Requested convergence on RMS density matrix=1.00D-08 within 128 cycles.
 Requested convergence on MAX density matrix=1.00D-06.
 Requested convergence on             energy=1.00D-06.
 No special actions if energy rises.
 Fock matrices will be formed incrementally for  20 cycles.
 Integral accuracy reduced to 1.0D-05 until final iterations.

 Cycle   1  Pass 0  IDiag  1:
 FoFJK:  IHMeth= 1 ICntrl=       0 DoSepK=F KAlg= 0 I1Cent=   0 FoldK=F
 IRaf= 850000000 NMat=   1 IRICut=       1 DoRegI=T DoRafI=F ISym2E= 0.
 FoFCou: FMM=T IPFlag=           0 FMFlag=      100000 FMFlg1=        2001
         NFxFlg=           0 DoJE=F BraDBF=F KetDBF=F FulRan=T
         wScrn=  0.000000 ICntrl=       0 IOpCl=  0 I1Cent=           0 NGrid=           0
         NMat0=    1 NMatS0=      1 NMatT0=    0 NMatD0=    1 NMtDS0=    0 NMtDT0=    0
 Symmetry not used in FoFCou.
 FMM levels:  10  Number of levels for PrismC:   9
 E= -2573.87803058048    
 DIIS: error= 1.25D-02 at cycle   1 NSaved=   1.
 NSaved= 1 IEnMin= 1 EnMin= -2573.87803058048     IErMin= 1 ErrMin= 1.25D-02
 ErrMax= 1.25D-02  0.00D+00 EMaxC= 1.00D-01 BMatC= 3.91D-02 BMatP= 3.91D-02
 IDIUse=3 WtCom= 8.75D-01 WtEn= 1.25D-01
 Coeff-Com:  0.100D+01
 Coeff-En:   0.100D+01
 Coeff:      0.100D+01
 Gap=     0.182 Goal=   None    Shift=    0.000
 GapD=    0.182 DampG=1.000 DampE=0.500 DampFc=0.5000 IDamp=-1.
 Damping current iteration by 5.00D-01
 RMSDP=5.05D-04 MaxDP=6.29D-02              OVMax= 1.50D-01

 Cycle   2  Pass 0  IDiag  1:
 RMSU=  2.50D-04    CP:  9.94D-01
 E= -2573.89508939876     Delta-E=       -0.017058818284 Rises=F Damp=T
 DIIS: error= 7.37D-03 at cycle   2 NSaved=   2.
 NSaved= 2 IEnMin= 2 EnMin= -2573.89508939876     IErMin= 2 ErrMin= 7.37D-03
 ErrMax= 7.37D-03  0.00D+00 EMaxC= 1.00D-01 BMatC= 9.24D-03 BMatP= 3.91D-02
 IDIUse=3 WtCom= 9.26D-01 WtEn= 7.37D-02
 Coeff-Com: -0.575D+00 0.158D+01
 Coeff-En:   0.000D+00 0.100D+01
 Coeff:     -0.533D+00 0.153D+01
 Gap=     0.189 Goal=   None    Shift=    0.000
 RMSDP=1.77D-04 MaxDP=4.01D-02 DE=-1.71D-02 OVMax= 6.78D-02

 Cycle   3  Pass 0  IDiag  1:
 RMSU=  1.48D-04    CP:  9.93D-01  1.38D+00
 E= -2573.90883798658     Delta-E=       -0.013748587817 Rises=F Damp=F
 DIIS: error= 1.99D-03 at cycle   3 NSaved=   3.
 NSaved= 3 IEnMin= 3 EnMin= -2573.90883798658     IErMin= 3 ErrMin= 1.99D-03
 ErrMax= 1.99D-03  0.00D+00 EMaxC= 1.00D-01 BMatC= 2.52D-03 BMatP= 9.24D-03
 IDIUse=3 WtCom= 9.80D-01 WtEn= 1.99D-02
 Coeff-Com: -0.302D+00 0.717D+00 0.585D+00
 Coeff-En:   0.000D+00 0.000D+00 0.100D+01
 Coeff:     -0.296D+00 0.703D+00 0.593D+00
 Gap=     0.172 Goal=   None    Shift=    0.000
 RMSDP=7.05D-05 MaxDP=1.72D-02 DE=-1.37D-02 OVMax= 2.11D-02

 Cycle   4  Pass 0  IDiag  1:
 RMSU=  8.76D-06    CP:  9.92D-01  1.55D+00  6.32D-01
 E= -2573.91156195355     Delta-E=       -0.002723966978 Rises=F Damp=F
 DIIS: error= 4.66D-05 at cycle   4 NSaved=   4.
 NSaved= 4 IEnMin= 4 EnMin= -2573.91156195355     IErMin= 4 ErrMin= 4.66D-05
 ErrMax= 4.66D-05  0.00D+00 EMaxC= 1.00D-01 BMatC= 8.89D-07 BMatP= 2.52D-03
 IDIUse=1 WtCom= 1.00D+00 WtEn= 0.00D+00
 Coeff-Com: -0.152D-01 0.281D-01 0.290D-01 0.958D+00
 Coeff:     -0.152D-01 0.281D-01 0.290D-01 0.958D+00
 Gap=     0.173 Goal=   None    Shift=    0.000
 RMSDP=2.24D-06 MaxDP=2.92D-04 DE=-2.72D-03 OVMax= 6.01D-04

 Initial convergence to 1.0D-05 achieved.  Increase integral accuracy.
 Cycle   5  Pass 1  IDiag  1:
 E= -2573.91249829578     Delta-E=       -0.000936342226 Rises=F Damp=F
 DIIS: error= 9.65D-06 at cycle   1 NSaved=   1.
 NSaved= 1 IEnMin= 1 EnMin= -2573.91249829578     IErMin= 1 ErrMin= 9.65D-06
 ErrMax= 9.65D-06  0.00D+00 EMaxC= 1.00D-01 BMatC= 9.28D-08 BMatP= 9.28D-08
 IDIUse=1 WtCom= 1.00D+00 WtEn= 0.00D+00
 Coeff-Com:  0.100D+01
 Coeff:      0.100D+01
 Gap=     0.174 Goal=   None    Shift=    0.000
 RMSDP=2.24D-06 MaxDP=2.92D-04 DE=-9.36D-04 OVMax= 2.75D-04

 Cycle   6  Pass 1  IDiag  1:
 RMSU=  1.19D-06    CP:  1.00D+00
 E= -2573.91249842167     Delta-E=       -0.000000125891 Rises=F Damp=F
 DIIS: error= 6.78D-06 at cycle   2 NSaved=   2.
 NSaved= 2 IEnMin= 2 EnMin= -2573.91249842167     IErMin= 2 ErrMin= 6.78D-06
 ErrMax= 6.78D-06  0.00D+00 EMaxC= 1.00D-01 BMatC= 3.59D-08 BMatP= 9.28D-08
 IDIUse=1 WtCom= 1.00D+00 WtEn= 0.00D+00
 Coeff-Com:  0.358D+00 0.642D+00
 Coeff:      0.358D+00 0.642D+00
 Gap=     0.174 Goal=   None    Shift=    0.000
 RMSDP=3.49D-07 MaxDP=8.28D-05 DE=-1.26D-07 OVMax= 1.17D-04

 Cycle   7  Pass 1  IDiag  1:
 RMSU=  3.04D-07    CP:  1.00D+00  8.60D-01
 E= -2573.91249846424     Delta-E=       -0.000000042567 Rises=F Damp=F
 DIIS: error= 1.99D-06 at cycle   3 NSaved=   3.
 NSaved= 3 IEnMin= 3 EnMin= -2573.91249846424     IErMin= 3 ErrMin= 1.99D-06
 ErrMax= 1.99D-06  0.00D+00 EMaxC= 1.00D-01 BMatC= 2.69D-09 BMatP= 3.59D-08
 IDIUse=1 WtCom= 1.00D+00 WtEn= 0.00D+00
 Coeff-Com: -0.316D-01 0.191D+00 0.840D+00
 Coeff:     -0.316D-01 0.191D+00 0.840D+00
 Gap=     0.174 Goal=   None    Shift=    0.000
 RMSDP=8.67D-08 MaxDP=1.91D-05 DE=-4.26D-08 OVMax= 2.29D-05

 Cycle   8  Pass 1  IDiag  1:
 RMSU=  3.16D-08    CP:  1.00D+00  9.21D-01  8.86D-01
 E= -2573.91249846734     Delta-E=       -0.000000003100 Rises=F Damp=F
 DIIS: error= 3.53D-07 at cycle   4 NSaved=   4.
 NSaved= 4 IEnMin= 4 EnMin= -2573.91249846734     IErMin= 4 ErrMin= 3.53D-07
 ErrMax= 3.53D-07  0.00D+00 EMaxC= 1.00D-01 BMatC= 2.48D-11 BMatP= 2.69D-09
 IDIUse=1 WtCom= 1.00D+00 WtEn= 0.00D+00
 Coeff-Com: -0.121D-01 0.572D-01 0.234D+00 0.721D+00
 Coeff:     -0.121D-01 0.572D-01 0.234D+00 0.721D+00
 Gap=     0.174 Goal=   None    Shift=    0.000
 RMSDP=9.22D-09 MaxDP=1.20D-06 DE=-3.10D-09 OVMax= 2.99D-06

 Cycle   9  Pass 1  IDiag  1:
 RMSU=  7.01D-09    CP:  1.00D+00  9.25D-01  8.87D-01  9.08D-01
 E= -2573.91249846736     Delta-E=       -0.000000000024 Rises=F Damp=F
 DIIS: error= 6.22D-08 at cycle   5 NSaved=   5.
 NSaved= 5 IEnMin= 5 EnMin= -2573.91249846736     IErMin= 5 ErrMin= 6.22D-08
 ErrMax= 6.22D-08  0.00D+00 EMaxC= 1.00D-01 BMatC= 1.40D-12 BMatP= 2.48D-11
 IDIUse=1 WtCom= 1.00D+00 WtEn= 0.00D+00
 Coeff-Com: -0.294D-03-0.283D-02-0.246D-01 0.151D+00 0.877D+00
 Coeff:     -0.294D-03-0.283D-02-0.246D-01 0.151D+00 0.877D+00
 Gap=     0.174 Goal=   None    Shift=    0.000
 RMSDP=2.77D-09 MaxDP=3.98D-07 DE=-2.36D-11 OVMax= 8.55D-07

 SCF Done:  E(RPBE1PBE) =  -2573.91249847     A.U. after    9 cycles
            NFock=  9  Conv=0.28D-08     -V/T= 2.0013
 KE= 2.570516509626D+03 PE=-6.162917040172D+03 EE= 1.018488032079D+03
 Leave Link  502 at Wed May  2 19:58:52 2018, MaxMem= 14763950080 cpu:      5765.1
 (Enter /cm/shared/gaussian/g09.e01/intel64-sandybridge/g09/l601.exe)
 Copying SCF densities to generalized density rwf, IOpCl= 0 IROHF=0.

 **********************************************************************

            Population analysis using the SCF density.

 **********************************************************************

 Alpha  occ. eigenvalues -- -482.98958 -62.39107 -56.16362 -56.16361 -56.16354
 Alpha  occ. eigenvalues --   -8.49252  -6.29564  -6.29563  -6.29539  -2.37837
 Alpha  occ. eigenvalues --   -2.37836  -2.37817  -2.37816  -2.37810  -0.47321
 Alpha  occ. eigenvalues --   -0.03186  -0.03177  -0.03144
 Alpha virt. eigenvalues --    0.14216   0.15734   0.16402   0.17302   0.18071
 Alpha virt. eigenvalues --    0.18514   0.19369   0.19618   0.20483   0.21341
 Alpha virt. eigenvalues --    0.22157   0.22651   0.23172   0.23861   0.24292
 Alpha virt. eigenvalues --    0.24663   0.24825   0.26082   0.26226   0.26688
 Alpha virt. eigenvalues --    0.26945   0.27602   0.28047   0.28642   0.28760
 Alpha virt. eigenvalues --    0.29451   0.29641   0.30081   0.30649   0.31354
 Alpha virt. eigenvalues --    0.32447   0.33591   0.33976   0.34135   0.34850
 Alpha virt. eigenvalues --    0.35214   0.35751   0.36157   0.36248   0.36723
 Alpha virt. eigenvalues --    0.37739   0.37886   0.38776   0.39019   0.39244
 Alpha virt. eigenvalues --    0.39800   0.40816   0.41033   0.41949   0.42280
 Alpha virt. eigenvalues --    0.42436   0.43000   0.43498   0.43895   0.44837
 Alpha virt. eigenvalues --    0.45134   0.45733   0.46056   0.46391   0.47238
 Alpha virt. eigenvalues --    0.47943   0.49556   0.50599   0.51039   0.61661
 Alpha virt. eigenvalues --    0.62904   0.63203   0.64099   0.64452   0.64693
 Alpha virt. eigenvalues --    0.65002   0.65362   0.66025   0.66865   0.67203
 Alpha virt. eigenvalues --    0.67280   0.68078   0.68262   0.68853   0.69170
 Alpha virt. eigenvalues --    0.69903   0.70293   0.70974   0.71475   0.71720
 Alpha virt. eigenvalues --    0.71881   0.71909   0.72640   0.73361   0.73618
 Alpha virt. eigenvalues --    0.74119   0.74472   0.74825   0.75022   0.75531
 Alpha virt. eigenvalues --    0.75701   0.75774   0.76166   0.76405   0.76976
 Alpha virt. eigenvalues --    0.77129   0.77540   0.77916   0.78459   0.78617
 Alpha virt. eigenvalues --    0.78903   0.79373   0.79989   0.80267   0.80396
 Alpha virt. eigenvalues --    0.81013   0.81220   0.82112   0.82273   0.82463
 Alpha virt. eigenvalues --    0.82826   0.82953   0.83376   0.83417   0.84158
 Alpha virt. eigenvalues --    0.84288   0.84609   0.85019   0.85289   0.85503
 Alpha virt. eigenvalues --    0.85813   0.85906   0.86627   0.86896   0.87611
 Alpha virt. eigenvalues --    0.87949   0.88610   0.88973   0.89395   0.89764
 Alpha virt. eigenvalues --    0.90039   0.90273   0.90718   0.91034   0.91902
 Alpha virt. eigenvalues --    0.92489   0.92570   0.93000   0.93362   0.93444
 Alpha virt. eigenvalues --    0.93882   0.94553   0.94665   0.95154   0.95816
 Alpha virt. eigenvalues --    0.95935   0.96427   0.97093   0.97657   0.98335
 Alpha virt. eigenvalues --    0.98559   0.98792   0.99446   0.99557   1.00294
 Alpha virt. eigenvalues --    1.00641   1.01195   1.01799   1.02207   1.02631
 Alpha virt. eigenvalues --    1.03111   1.03357   1.04200   1.04874   1.05055
 Alpha virt. eigenvalues --    1.05706   1.06295   1.07026   1.07092   1.07288
 Alpha virt. eigenvalues --    1.08367   1.08610   1.09561   1.09949   1.10805
 Alpha virt. eigenvalues --    1.10953   1.11418   1.11743   1.12838   1.13563
 Alpha virt. eigenvalues --    1.14290   1.15043   1.16192   1.16439   1.17441
 Alpha virt. eigenvalues --    1.18000   1.18801   1.19490   1.20736   1.21023
 Alpha virt. eigenvalues --    1.23139   1.23596   1.24449   1.25515   1.27214
 Alpha virt. eigenvalues --    1.27399   1.65678   1.65941   1.67343   1.68042
 Alpha virt. eigenvalues --    1.68386   1.69169   1.69677   1.69856   1.70345
 Alpha virt. eigenvalues --    1.70622   1.70881   1.71314   1.71455   1.71824
 Alpha virt. eigenvalues --    1.72005   1.72693   1.73085   1.73430   1.73887
 Alpha virt. eigenvalues --    1.74223   1.74404   1.74758   1.75074   1.75400
 Alpha virt. eigenvalues --    1.75490   1.75544   1.75960   1.76236   1.76549
 Alpha virt. eigenvalues --    1.76865   1.77242   1.77461   1.77749   1.78330
 Alpha virt. eigenvalues --    1.78810   1.79128   1.79434   1.79757   1.80297
 Alpha virt. eigenvalues --    1.80436   1.80928   1.81094   1.81288   1.81714
 Alpha virt. eigenvalues --    1.82222   1.82474   1.82988   1.83510   1.83907
 Alpha virt. eigenvalues --    1.84786   1.84795   1.85569   1.86470   1.86567
 Alpha virt. eigenvalues --    1.87087   1.87939   1.88231   1.89347   1.89701
 Alpha virt. eigenvalues --    1.91120   1.92817   1.93206   1.95329   1.95521
 Alpha virt. eigenvalues --    1.96579   1.98985   1.99143   1.99874   2.00001
 Alpha virt. eigenvalues --    2.00520   2.00792   2.00958   2.01023   2.01323
 Alpha virt. eigenvalues --    2.01478   2.01707   2.02079   2.02127   2.02337
 Alpha virt. eigenvalues --    2.02422   2.02604   2.02885   2.03048   2.03243
 Alpha virt. eigenvalues --    2.03603   2.03772   2.04015   2.04424   2.04585
 Alpha virt. eigenvalues --    2.04792   2.05081   2.05377   2.05591   2.05818
 Alpha virt. eigenvalues --    2.06523   2.06862   2.07073   2.07437   2.07768
 Alpha virt. eigenvalues --    2.08239   2.08495   2.08988   2.09190   2.09592
 Alpha virt. eigenvalues --    2.09988   2.10738   2.10865   2.11374   2.12429
 Alpha virt. eigenvalues --    2.12867   2.12941   2.13507   2.13539   2.14137
 Alpha virt. eigenvalues --    2.14592   2.15392   2.15585   2.15661   2.15995
 Alpha virt. eigenvalues --    2.16770   2.17219   2.17465   2.17710   2.18016
 Alpha virt. eigenvalues --    2.18133   2.18541   2.18620   2.19198   2.19343
 Alpha virt. eigenvalues --    2.19632   2.20373   2.20971   2.21056   2.22418
 Alpha virt. eigenvalues --    2.22801   2.23307   2.23614   2.24237   2.24954
 Alpha virt. eigenvalues --    2.25879   2.27076   2.27794   2.27966   2.28743
 Alpha virt. eigenvalues --    2.28918   2.29376   2.30360   2.31044   2.32262
 Alpha virt. eigenvalues --    2.33076   2.33411   2.33675   2.34482   2.34972
 Alpha virt. eigenvalues --    2.37796   2.38647   2.39120   2.39668   2.40089
 Alpha virt. eigenvalues --    2.40152   2.40478   2.41068   2.41837   2.42181
 Alpha virt. eigenvalues --    2.42847   2.43054   2.43364   2.43700   2.44551
 Alpha virt. eigenvalues --    2.44833   2.45326   2.45621   2.46060   2.46735
 Alpha virt. eigenvalues --    2.47021   2.47606   2.48294   2.48955   2.49280
 Alpha virt. eigenvalues --    2.49736   2.50304   2.50711   2.50773   2.51337
 Alpha virt. eigenvalues --    2.51768   2.53053   2.54219   2.54690   2.55433
 Alpha virt. eigenvalues --    2.55992   2.56349   2.58214   2.67940   2.68382
 Alpha virt. eigenvalues --    2.68557   2.68857   2.69875   2.70377   2.70738
 Alpha virt. eigenvalues --    2.71833   2.72194   2.72867   2.73043   2.73081
 Alpha virt. eigenvalues --    2.73269   2.74056   2.74458   2.74643   2.75568
 Alpha virt. eigenvalues --    2.76039   2.76167   2.77402   2.78805   2.80248
 Alpha virt. eigenvalues --    2.80864   2.81433   2.82333   2.82583   2.83652
 Alpha virt. eigenvalues --    2.83806   2.84165   2.84731   2.85101   2.85230
 Alpha virt. eigenvalues --    2.85863   2.85973   2.86557   2.86982   2.87406
 Alpha virt. eigenvalues --    2.87699   2.88366   2.89866   2.90003   2.90137
 Alpha virt. eigenvalues --    2.91095   2.91789   2.92954   2.93414   2.94105
 Alpha virt. eigenvalues --    2.95117   2.96145   2.97324   2.97395   2.98026
 Alpha virt. eigenvalues --    2.99313   2.99821   3.00545   3.01538   3.03356
 Alpha virt. eigenvalues --    3.04273   3.04894   3.06218   3.08423   3.08904
 Alpha virt. eigenvalues --    3.10364   3.12858   3.13403   3.15949   3.17226
 Alpha virt. eigenvalues --    3.17836   3.19353   3.19893   3.20723   3.22453
 Alpha virt. eigenvalues --    3.24353   3.24685   3.25908   3.27638   3.28848
 Alpha virt. eigenvalues --    3.29699   3.33193   3.33848   3.35251   3.39033
 Alpha virt. eigenvalues --    3.40210   3.42225   3.42457   3.44431   3.46339
 Alpha virt. eigenvalues --    3.48667   3.50464   3.51555   3.53594   3.55155
 Alpha virt. eigenvalues --    3.56301   3.59455   3.60944   3.64098   4.51165
 Alpha virt. eigenvalues --    4.52216   4.52230   4.52285   4.52436   4.52519
 Alpha virt. eigenvalues --    4.52725   4.52852   4.52983   4.53109   4.53338
 Alpha virt. eigenvalues --    4.53350   4.53394   4.53512   4.53669   4.53869
 Alpha virt. eigenvalues --    4.54147   4.54206   4.54232   4.54298   4.54373
 Alpha virt. eigenvalues --    4.54662   4.54942   4.55157   4.55863   4.56142
 Alpha virt. eigenvalues --    4.56543   4.56818   4.56996   4.57105   4.57326
 Alpha virt. eigenvalues --    4.57948   4.60087   4.60231   4.60260   4.60629
 Alpha virt. eigenvalues --    4.60701   4.60881   4.60903   4.60936   4.61128
 Alpha virt. eigenvalues --    4.61199   4.61289   4.61476   4.61621   4.61859
 Alpha virt. eigenvalues --    4.61985   4.62131   4.62323   4.62517   4.62560
 Alpha virt. eigenvalues --    4.62816   4.62863   4.63258   4.63531   4.63770
 Alpha virt. eigenvalues --    4.63855   4.63923   4.64099   4.64275   4.64617
 Alpha virt. eigenvalues --    4.65291   4.66099   4.66482   4.75798   4.75905
 Alpha virt. eigenvalues --    4.76421   4.76788   4.77050   4.77214   4.77529
 Alpha virt. eigenvalues --    4.77587   4.77685   4.77981   4.78086   4.78204
 Alpha virt. eigenvalues --    4.80016   4.80168   4.80519   4.80955   4.81414
 Alpha virt. eigenvalues --    4.81458   4.82104   4.82307   4.82515   4.82727
 Alpha virt. eigenvalues --    4.82914   4.83138   4.83486   4.83887   4.84128
 Alpha virt. eigenvalues --    4.84138   4.84643   4.84970   4.85944   4.86124
 Alpha virt. eigenvalues --    4.86747   4.87374   4.87670   4.87869   4.87942
 Alpha virt. eigenvalues --    4.88173   4.88542   4.88648   4.88827   4.89003
 Alpha virt. eigenvalues --    4.89681   4.89802   4.90540   4.90978   4.91943
 Alpha virt. eigenvalues --    4.92507   4.92862   4.93717   4.94012   4.94632
 Alpha virt. eigenvalues --    4.96255   4.96687   4.97614   4.98185   4.99026
 Alpha virt. eigenvalues --    4.99817   5.00167   5.00496   5.01433   5.02745
 Alpha virt. eigenvalues --    5.04015   5.05180   5.06019   5.06623   5.07469
 Alpha virt. eigenvalues --    5.07830   5.08310   5.08933   5.09526   5.10640
 Alpha virt. eigenvalues --    5.11499   5.11896   5.12139   5.13217   5.13958
 Alpha virt. eigenvalues --    5.14505   5.14549   5.15898   5.16078   5.17220
 Alpha virt. eigenvalues --    5.18686   5.19051   5.19602   5.19897   5.20620
 Alpha virt. eigenvalues --    5.21448   5.22919   5.23295   5.25030   5.25470
 Alpha virt. eigenvalues --    5.26267   5.27078   5.29618   5.31641   5.36271
 Alpha virt. eigenvalues --    5.37457   5.37669   5.38397   5.39007   5.40433
 Alpha virt. eigenvalues --    5.40933   5.41318   5.41711   5.43729   5.44516
[...]
   Y21       41.87633  -0.00643   0.00000  -0.00195  -0.00094  41.87539
   Z21       37.66224   0.00031   0.00000   0.01493   0.01408  37.67632
   X22       33.59933  -0.00963   0.00000  -0.00905  -0.00776  33.59157
   Y22       43.61488   0.00544   0.00000   0.01248   0.01451  43.62939
   Z22       36.35833  -0.02235   0.00000  -0.01742  -0.01814  36.34019
   X23       40.32676   0.01752   0.00000   0.02855   0.02823  40.35499
   Y23       35.92369   0.00802   0.00000  -0.01352  -0.01241  35.91128
   Z23       32.16314   0.00842   0.00000   0.00877   0.00716  32.17030
   X24       39.70315  -0.00261   0.00000  -0.00520  -0.00599  39.69715
   Y24       35.60244   0.00362   0.00000   0.02246   0.02326  35.62570
   Z24       33.84500   0.00375   0.00000   0.00862   0.00677  33.85177
   X25       39.23071  -0.01366   0.00000  -0.01511  -0.01550  39.21522
   Y25       34.95993  -0.01090   0.00000  -0.00974  -0.00791  34.95202
   Z25       31.08599  -0.01005   0.00000  -0.00167  -0.00383  31.08217
   X26       30.59467  -0.00925   0.00000  -0.01620  -0.01833  30.57633
   Y26       37.52996   0.00707   0.00000   0.02912   0.03017  37.56013
   Z26       42.65112   0.02161   0.00000   0.02698   0.02369  42.67481
   X27       30.93482   0.00366   0.00000  -0.00063  -0.00244  30.93238
   Y27       37.32209  -0.00212   0.00000  -0.00384  -0.00235  37.31974
   Z27       40.89367  -0.01698   0.00000   0.00223  -0.00105  40.89262
   X28       31.99306   0.00355   0.00000   0.01296   0.01101  32.00407
   Y28       38.51262   0.00090   0.00000   0.00075   0.00114  38.51376
   Z28       43.27473   0.00185   0.00000   0.01274   0.01007  43.28480
   X29       43.21804   0.01482   0.00000   0.01388   0.01520  43.23324
   Y29       40.13778   0.02792   0.00000   0.02701   0.02752  40.16530
   Z29       31.06710  -0.00645   0.00000  -0.00551  -0.00515  31.06195
   X30       42.97237  -0.00132   0.00000  -0.00097   0.00071  42.97308
   Y30       40.00550  -0.00328   0.00000  -0.00613  -0.00498  40.00053
   Z30       29.27186  -0.00122   0.00000  -0.00291  -0.00266  29.26920
   X31       42.46215  -0.01460   0.00000  -0.02162  -0.02094  42.44121
   Y31       38.64490  -0.02057   0.00000  -0.00314  -0.00258  38.64232
   Z31       31.72850   0.00557   0.00000  -0.00325  -0.00354  31.72496
   X32       33.41036  -0.02529   0.00000  -0.00596  -0.00921  33.40115
   Y32       30.17893   0.00335   0.00000  -0.00191   0.00004  30.17896
   Z32       36.86856  -0.01813   0.00000  -0.03814  -0.04309  36.82547
   X33       33.10800   0.00083   0.00000   0.00669   0.00281  33.11082
   Y33       28.40258  -0.00702   0.00000  -0.00993  -0.00795  28.39463
   Z33       37.03863   0.00058   0.00000   0.00198  -0.00359  37.03504
   X34       35.09221   0.02432   0.00000   0.00910   0.00580  35.09801
   Y34       30.42459   0.00678   0.00000   0.02149   0.02267  30.44726
   Z34       37.45437   0.01539   0.00000   0.03962   0.03513  37.48950
   X35       34.18515  -0.01368   0.00000  -0.02733  -0.03185  34.15329
   Y35       30.65136  -0.00549   0.00000  -0.00863  -0.00892  30.64244
   Z35       43.23693   0.00416   0.00000  -0.00545  -0.01009  43.22685
   X36       34.35522   0.00417   0.00000   0.02151   0.01640  34.37162
   Y36       28.83722   0.00180   0.00000  -0.00086  -0.00122  28.83601
   Z36       43.18024  -0.00048   0.00000   0.00414  -0.00101  43.17923
   X37       35.39457   0.00901   0.00000   0.01720   0.01314  35.40771
   Y37       31.23717   0.00274   0.00000   0.00471   0.00437  31.24154
   Z37       42.02751  -0.00220   0.00000   0.02224   0.01807  42.04558
   X38       45.39122   0.01387   0.00000   0.05025   0.04689  45.43811
   Y38       33.05131  -0.03621   0.00000  -0.03945  -0.04292  33.00839
   Z38       41.53618  -0.00572   0.00000  -0.01213  -0.01350  41.52268
   X39       44.57864  -0.00380   0.00000   0.01186   0.00908  44.58772
   Y39       33.86389   0.01084   0.00000   0.00684   0.00408  33.86797
   Z39       40.13778  -0.00655   0.00000   0.00701   0.00572  40.14350
   X40       45.61799  -0.00825   0.00000  -0.04284  -0.04605  45.57194
   Y40       34.35522   0.01634   0.00000  -0.00431  -0.00821  34.34701
   Z40       42.74561   0.01428   0.00000   0.01882   0.01790  42.76350
   X41       32.18204  -0.00432   0.00000  -0.00443  -0.00252  32.17952
   Y41       43.46370   0.02092   0.00000   0.00430   0.00775  43.47145
   Z41       33.27808   0.00692   0.00000   0.00610   0.00502  33.28309
   X42       32.54108   0.00458   0.00000   0.00197   0.00344  32.54452
   Y42       41.78184  -0.02451   0.00000  -0.03096  -0.02747  41.75437
   Z42       32.76785  -0.00512   0.00000   0.00424   0.00270  32.77055
   X43       32.08755   0.00075   0.00000   0.00238   0.00495  32.09250
   Y43       44.40856   0.00014   0.00000  -0.00241   0.00156  44.41012
   Z43       31.72850  -0.00013   0.00000   0.00103   0.00021  31.72871
   X44       41.17713   0.00759   0.00000   0.00015  -0.00380  41.17334
   Y44       35.03552  -0.00362   0.00000   0.01794   0.01414  35.04966
   Z44       47.05418   0.01986   0.00000   0.04531   0.04362  47.09780
   X45       39.98660  -0.00910   0.00000   0.00209  -0.00139  39.98522
   Y45       35.62134   0.00050   0.00000  -0.02272  -0.02573  35.59561
   Z45       45.82586  -0.01369   0.00000  -0.01493  -0.01672  45.80914
   X46       42.76450   0.00085   0.00000   0.00600   0.00241  42.76691
   Y46       35.73472  -0.00386   0.00000  -0.02069  -0.02484  35.70988
   Z46       46.50616   0.00071   0.00000   0.00905   0.00792  46.51408
   X47       35.39457  -0.00730   0.00000  -0.02002  -0.02200  35.37257
   Y47       40.21337  -0.01053   0.00000  -0.00102  -0.00254  40.21083
   Z47       45.86365   0.00691   0.00000   0.00965   0.00826  45.87192
   X48       35.82921   0.00085   0.00000  -0.00981  -0.01109  35.81812
   Y48       41.81964   0.01210   0.00000   0.00591   0.00447  41.82411
   Z48       45.16445  -0.01172   0.00000  -0.02745  -0.02823  45.13622
   X49       35.52685   0.00052   0.00000   0.00571   0.00341  35.53026
   Y49       40.45904  -0.00238   0.00000  -0.00501  -0.00713  40.45190
   Z49       47.65889   0.00255   0.00000   0.00947   0.00819  47.66709
   X50       27.98684  -0.01878   0.00000  -0.00417  -0.00409  27.98275
   Y50       39.26851  -0.00262   0.00000   0.00040   0.00460  39.27311
   Z50       35.37567  -0.02743   0.00000  -0.05467  -0.05800  35.31767
   X51       29.25296   0.01053   0.00000  -0.00215  -0.00258  29.25038
   Y51       38.05908  -0.00590   0.00000  -0.00208   0.00154  38.06063
   Z51       35.79141   0.01141   0.00000   0.03107   0.02764  35.81906
   X52       28.40258   0.00642   0.00000  -0.00243  -0.00212  28.40047
   Y52       40.72360   0.00802   0.00000  -0.01352  -0.00979  40.71381
   Z52       36.35833   0.01246   0.00000   0.01454   0.01174  36.37008
   X53       32.78675   0.00344   0.00000   0.00607   0.00483  32.79158
   Y53       33.10800  -0.00244   0.00000  -0.03178  -0.02816  33.07984
   Z53       32.08755  -0.00569   0.00000   0.00685   0.00267  32.09022
   X54       31.29386  -0.00424   0.00000   0.00441   0.00322  31.29708
   Y54       33.73161   0.00536   0.00000   0.01256   0.01642  33.74804
   Z54       32.90013   0.00052   0.00000  -0.00657  -0.01088  32.88925
   X55       33.31587   0.00126   0.00000  -0.00359  -0.00551  33.31036
   Y55       31.72850  -0.00899   0.00000  -0.02323  -0.02012  31.70838
   Z55       33.14580   0.01114   0.00000   0.04237   0.03788  33.18367
   X56       34.82765   0.00651   0.00000   0.01101   0.01117  34.83883
   Y56       44.74871   0.00256   0.00000   0.00852   0.00807  44.75679
   Z56       42.97237   0.01927   0.00000   0.01612   0.01603  42.98840
   X57       34.16625  -0.00179   0.00000   0.01954   0.02018  34.18642
   Y57       45.08887  -0.00442   0.00000  -0.03195  -0.03165  45.05721
   Z57       41.32831  -0.02159   0.00000  -0.02861  -0.02875  41.29956
   X58       34.39302   0.00149   0.00000   0.00074   0.00117  34.39419
   Y58       46.22270  -0.00044   0.00000   0.01178   0.01118  46.23389
   Z58       43.95503  -0.00046   0.00000  -0.00208  -0.00181  43.95322
   X59       41.78184  -0.00552   0.00000   0.01136   0.00659  41.78844
   Y59       29.44193  -0.02541   0.00000  -0.03701  -0.03958  29.40235
   Z59       42.51884   0.00043   0.00000  -0.02025  -0.02356  42.49528
   X60       43.04796   0.01244   0.00000   0.01088   0.00657  43.05453
   Y60       30.72695   0.01464   0.00000   0.00933   0.00637  30.73332
   Z60       42.40545   0.00099   0.00000   0.01633   0.01372  42.41917
   X61       40.34565  -0.00647   0.00000  -0.00591  -0.01025  40.33540
   Y61       30.16003   0.00685   0.00000   0.01418   0.01233  30.17235
   Z61       41.68736   0.00116   0.00000   0.02620   0.02280  41.71016
   X62       29.17737  -0.01435   0.00000  -0.02902  -0.02878  29.14859
   Y62       42.44325   0.00676   0.00000   0.04570   0.04826  42.49150
   Z62       39.34410  -0.00178   0.00000   0.01085   0.00878  39.35288
   X63       30.80254   0.01644   0.00000   0.03057   0.03087  30.83340
   Y63       43.04796  -0.00202   0.00000  -0.03192  -0.03006  43.01790
   Z63       39.83543  -0.00161   0.00000  -0.01779  -0.01932  39.81611
   X64       28.38369  -0.00012   0.00000   0.00869   0.00840  28.39208
   Y64       41.98971  -0.00857   0.00000  -0.04115  -0.03884  41.95088
   Z64       40.91257   0.00273   0.00000   0.00906   0.00665  40.91922
   X65       43.82275   0.00099   0.00000   0.00885   0.00791  43.83066
   Y65       42.29207  -0.01719   0.00000  -0.01662  -0.02042  42.27166
   Z65       44.25739   0.00970   0.00000   0.00321   0.00437  44.26175
   X66       44.63533   0.00541   0.00000   0.00976   0.00908  44.64441
   Y66       43.63378   0.00721   0.00000   0.00589   0.00155  43.63533
   Z66       45.14556   0.00326   0.00000  -0.00229  -0.00053  45.14503
   X67       43.36921  -0.00677   0.00000  -0.01771  -0.01805  43.35116
   Y67       43.01017   0.00516   0.00000  -0.00359  -0.00672  43.00344
   Z67       42.67002  -0.01412   0.00000  -0.01107  -0.00980  42.66022
   X68       42.27317  -0.01720   0.00000  -0.01781  -0.02067  42.25250
   Y68       30.27341   0.00944   0.00000   0.01622   0.01574  30.28915
   Z68       35.30008  -0.00530   0.00000  -0.00234  -0.00527  35.29482
   X69       42.95348   0.00386   0.00000   0.01434   0.01206  42.96553
   Y69       31.02930   0.00467   0.00000   0.02135   0.02110  31.05041
   Z69       33.78830   0.00040   0.00000   0.01062   0.00808  33.79638
   X70       43.65267   0.00946   0.00000  -0.00738  -0.01071  43.64196
   Y70       29.38524  -0.00714   0.00000  -0.00126  -0.00244  29.38280
   Z70       36.03708   0.00836   0.00000   0.01755   0.01464  36.05172
   X71       48.07463   0.01690   0.00000   0.01052   0.00998  48.08461
   Y71       40.44014  -0.00099   0.00000  -0.00589  -0.00970  40.43044
   Z71       39.81653   0.00551   0.00000   0.00191   0.00344  39.81997
   X72       47.33764  -0.00656   0.00000  -0.01000  -0.00994  47.32770
   Y72       42.04641   0.00542   0.00000   0.00022  -0.00322  42.04318
   Z72       39.43858  -0.00072   0.00000   0.00509   0.00696  39.44554
   X73       46.75182  -0.01465   0.00000  -0.02051  -0.02138  46.73045
   Y73       39.24961  -0.00818   0.00000  -0.00371  -0.00698  39.24263
   Z73       39.51417  -0.00374   0.00000  -0.00633  -0.00547  39.50870
   X74       36.98194   0.02213   0.00000   0.00736   0.00678  36.98872
   Y74       33.18359  -0.00406   0.00000   0.00172   0.00482  33.18841
   Z74       29.34745  -0.00469   0.00000  -0.00542  -0.00863  29.33882
   X75       35.33788  -0.02401   0.00000  -0.02260  -0.02330  35.31457
   Y75       33.29697   0.00827   0.00000   0.03041   0.03381  33.33079
   Z75       30.10334   0.01086   0.00000   0.01631   0.01277  30.11611
   X76       36.83076  -0.00321   0.00000  -0.00869  -0.00861  36.82215
   Y76       34.12845   0.00358   0.00000  -0.00313   0.00051  34.12896
   Z76       27.81677  -0.00994   0.00000  -0.02088  -0.02383  27.79294
   X77       31.69071   0.00094   0.00000  -0.00158  -0.00053  31.69017
   Y77       37.66224   0.00021   0.00000  -0.01117  -0.00611  37.65613
   Z77       28.62935  -0.01441   0.00000  -0.00987  -0.01287  28.61648
   X78       29.89547  -0.00612   0.00000  -0.00708  -0.00606  29.88941
   Y78       37.71893  -0.00003   0.00000  -0.00445   0.00112  37.72006
   Z78       28.85612   0.00346   0.00000   0.01505   0.01166  28.86777
   X79       32.35211   0.00846   0.00000   0.02318   0.02382  32.37593
   Y79       37.54886   0.00154   0.00000   0.00857   0.01288  37.56174
   Z79       30.31121   0.01096   0.00000   0.00352   0.00063  30.31184
   X80       42.80230   0.01385   0.00000   0.01050   0.01192  42.81422
   Y80       47.11087   0.01352   0.00000   0.01771   0.01532  47.12619
   Z80       40.83698   0.00711   0.00000   0.00989   0.01233  40.84931
   X81       42.78340  -0.00179   0.00000   0.00092   0.00288  42.78628
   Y81       47.58330  -0.00400   0.00000  -0.01074  -0.01257  47.57073
   Z81       39.07954  -0.00186   0.00000  -0.00062   0.00194  39.08148
   X82       41.57397  -0.00909   0.00000   0.00010   0.00107  41.57504
   Y82       45.78806  -0.01057   0.00000  -0.00674  -0.00875  45.77931
   Z82       40.95037  -0.00715   0.00000  -0.02625  -0.02451  40.92586
   X83       40.95037  -0.00227   0.00000   0.00494   0.00771  40.95807
   Y83       45.25894   0.00807   0.00000   0.00780   0.00873  45.26767
   Z83       32.12534   0.01018   0.00000   0.00634   0.00778  32.13313
   X84       42.04641   0.00311   0.00000  -0.01351  -0.01115  42.03525
   Y84       43.84165  -0.01247   0.00000  -0.02742  -0.02675  43.81489
   Z84       31.82299  -0.00170   0.00000   0.00276   0.00399  31.82698
   X85       40.40234  -0.00099   0.00000   0.00021   0.00351  40.40586
   Y85       45.76917  -0.00006   0.00000  -0.00717  -0.00555  45.76362
   Z85       30.48128  -0.00752   0.00000  -0.00879  -0.00732  30.47396
   X86       45.33453  -0.00150   0.00000   0.01889   0.01613  45.35066
   Y86       37.09532  -0.00994   0.00000   0.01673   0.01226  37.10759
   Z86       44.82430   0.00406   0.00000  -0.00662  -0.00673  44.81757
   X87       44.52195  -0.00331   0.00000   0.00760   0.00545  44.52740
   Y87       38.68269   0.01650   0.00000   0.03517   0.03108  38.71378
   Z87       44.46526  -0.00310   0.00000  -0.00356  -0.00336  44.46190
   X88       47.03528   0.01524   0.00000   0.03493   0.03237  47.06765
   Y88       37.32209   0.00902   0.00000   0.03985   0.03498  37.35707
   Z88       44.29518  -0.00291   0.00000  -0.00018   0.00017  44.29535
   X89       38.00239  -0.00810   0.00000  -0.02423  -0.02685  37.97554
   Y89       28.78053  -0.01449   0.00000  -0.01308  -0.01113  28.76940
   Z89       31.93637   0.00465   0.00000   0.02338   0.01901  31.95539
   X90       37.51106   0.00155   0.00000   0.02268   0.02076  37.53182
   Y90       30.08444   0.00813   0.00000  -0.00261  -0.00013  30.08431
   Z90       30.78364  -0.01020   0.00000  -0.01544  -0.01949  30.76415
   X91       39.09843   0.00815   0.00000   0.01751   0.01491  39.11334
   Y91       29.61201   0.00141   0.00000  -0.01619  -0.01496  29.59705
   Z91       33.10800   0.00663   0.00000   0.00967   0.00582  33.11383
   X92       28.21361  -0.01130   0.00000  -0.00717  -0.01024  28.20337
   Y92       31.19938   0.00674   0.00000  -0.00314   0.00030  31.19968
   Z92       37.54886  -0.00940   0.00000  -0.01083  -0.01663  37.53223
   X93       29.87657   0.00840   0.00000   0.01435   0.01141  29.88798
   Y93       31.12379  -0.00547   0.00000  -0.02188  -0.01879  31.10500
   Z93       36.83076   0.00185   0.00000   0.01504   0.00959  36.84036
   X94       28.34589   0.00506   0.00000   0.01374   0.01001  28.35590
   Y94       30.21672  -0.00111   0.00000   0.01537   0.01827  30.23499
   Z94       39.06064   0.00810   0.00000   0.01535   0.00929  39.06993
   X95       47.07308  -0.01252   0.00000  -0.01545  -0.01666  47.05642
   Y95       34.46860  -0.00262   0.00000  -0.01437  -0.01604  34.45257
   Z95       34.01507  -0.00738   0.00000   0.00447   0.00391  34.01898
   X96       48.49037   0.00146   0.00000  -0.00960  -0.01048  48.47989
   Y96       34.69537   0.00284   0.00000   0.01387   0.01208  34.70745
   Z96       32.90013   0.00074   0.00000   0.00802   0.00786  32.90799
   X97       47.79117   0.00842   0.00000   0.01579   0.01415  47.80532
   Y97       34.27963  -0.00254   0.00000  -0.00688  -0.00931  34.27032
   Z97       35.65913   0.01122   0.00000   0.01191   0.01147  35.67060
         Item               Value     Threshold  Converged?
 Maximum Force            0.036209     0.000450     NO 
 RMS     Force            0.010013     0.000300     NO 
 Maximum Displacement     0.058004     0.001800     NO 
 RMS     Displacement     0.017420     0.001200     NO 
 Predicted change in Energy=-2.655593D-02
 GradGradGradGradGradGradGradGradGradGradGradGradGradGradGradGradGradGrad

 Leave Link  103 at Wed May  2 20:03:55 2018, MaxMem= 14763950080 cpu:        52.7
 (Enter /cm/shared/gaussian/g09.e01/intel64-sandybridge/g09/l9999.exe)
 1\1\GINC-POPLE03\Force\RPBE1PBE\CC-pVDZ\Br1H64O32(1-)\M.PELUSO\02-May-
 2018\0\\#p PBE1PBE/cc-pvDZ force Counterpoise=2 noSymm\\forces on chlo
 ride comput - NWATER: 32\\-1,1\Br,20.,20.,20.\O,18.54,20.43,17.29\H,18
 .77,20.06,18.14\H,19.37,20.78,16.95\O,21.11,22.67,21.39\H,20.85,21.83,
 21.\H,20.29,23.06,21.68\O,19.87,19.11,23.05\H,19.93,19.55,22.21\H,19.2
 3,19.62,23.55\O,23.25,19.24,20.21\H,22.29,19.32,20.16\H,23.52,19.12,19
 .3\O,16.77,19.2,19.96\H,17.69,19.34,19.76\H,16.66,18.25,19.95\O,20.13,
 16.66,20.73\H,20.09,17.61,20.61\H,20.68,16.35,20.01\O,18.18,22.91,20.0
 9\H,18.76,22.16,19.93\H,17.78,23.08,19.24\O,21.34,19.01,17.02\H,21.01,
 18.84,17.91\H,20.76,18.5,16.45\O,16.19,19.86,22.57\H,16.37,19.75,21.64
 \H,16.93,20.38,22.9\O,22.87,21.24,16.44\H,22.74,21.17,15.49\H,22.47,20
 .45,16.79\O,17.68,15.97,19.51\H,17.52,15.03,19.6\H,18.57,16.1,19.82\O,
 18.09,16.22,22.88\H,18.18,15.26,22.85\H,18.73,16.53,22.24\O,24.02,17.4
 9,21.98\H,23.59,17.92,21.24\H,24.14,18.18,22.62\O,17.03,23.,17.61\H,17
 .22,22.11,17.34\H,16.98,23.5,16.79\O,21.79,18.54,24.9\H,21.16,18.85,24
 .25\H,22.63,18.91,24.61\O,18.73,21.28,24.27\H,18.96,22.13,23.9\H,18.8,
 21.41,25.22\O,14.81,20.78,18.72\H,15.48,20.14,18.94\H,15.03,21.55,19.2
 4\O,17.35,17.52,16.98\H,16.56,17.85,17.41\H,17.63,16.79,17.54\O,18.43,
 23.68,22.74\H,18.08,23.86,21.87\H,18.2,24.46,23.26\O,22.11,15.58,22.5\
 H,22.78,16.26,22.44\H,21.35,15.96,22.06\O,15.44,22.46,20.82\H,16.3,22.
 78,21.08\H,15.02,22.22,21.65\O,23.19,22.38,23.42\H,23.62,23.09,23.89\H
 ,22.95,22.76,22.58\O,22.37,16.02,18.68\H,22.73,16.42,17.88\H,23.1,15.5
 5,19.07\O,25.44,21.4,21.07\H,25.05,22.25,20.87\H,24.74,20.77,20.91\O,1
 9.57,17.56,15.53\H,18.7,17.62,15.93\H,19.49,18.06,14.72\O,16.77,19.93,
 15.15\H,15.82,19.96,15.27\H,17.12,19.87,16.04\O,22.65,24.93,21.61\H,22
 .64,25.18,20.68\H,22.,24.23,21.67\O,21.67,23.95,17.\H,22.25,23.2,16.84
 \H,21.38,24.22,16.13\O,23.99,19.63,23.72\H,23.56,20.47,23.53\H,24.89,1
 9.75,23.44\O,20.11,15.23,16.9\H,19.85,15.92,16.29\H,20.69,15.67,17.52\
 O,14.93,16.51,19.87\H,15.81,16.47,19.49\H,15.,15.99,20.67\O,24.91,18.2
 4,18.\H,25.66,18.36,17.41\H,25.29,18.14,18.87\\Version=ES64L-G09RevE.0
 1\HF=-2443.228508\RMSD=3.884e-09\RMSF=1.001e-02\Dipole=1.8390803,2.340
 2378,-4.4230503\Quadrupole=116.9854714,227.1139216,-344.099393,-1250.4
 155371,-1560.4408977,-1461.0213666\PG=C01 [X(Br1H64O32)]\\@


 TO DETECT ERRORS, THE PROGRAMMER MUST HAVE A CONNIVING MIND,
 ONE THAT DELIGHTS IN UNCOVERING FLAWS WHERE BEAUTY AND
 PERFECTION WERE ONCE THOUGHT TO LIE.

             -- THE PSYCHOLOGY OF COMPUTER PROGRAMMING
                GERALD M. WEINBERG
 Job cpu time:       0 days  9 hours 45 minutes 53.7 seconds.
 File lengths (MBytes):  RWF=    482 Int=      0 D2E=      0 Chk=    160 Scr=      1
 Normal termination of Gaussian 09 at Wed May  2 20:03:55 2018.
