 Entering Gaussian System, Link 0=/cm/shared/gaussian/g09.e01/intel64-sandybridge/g09/g09
 Initial command:
 /cm/shared/gaussian/g09.e01/intel64-sandybridge/g09/l1.exe "/local/scratch/m.peluso/32_wat/Gau-17974.inp" -scrdir="/local/scratch/m.peluso/32_wat/"
 Entering Link 1 = /cm/shared/gaussian/g09.e01/intel64-sandybridge/g09/l1.exe PID=     17975.
  
 Copyright (c) 1988,1990,1992,1993,1995,1998,2003,2009,2015,
            Gaussian, Inc.  All Rights Reserved.
  
 This is part of the Gaussian(R) 09 program.  It is based on
 the Gaussian(R) 03 system (copyright 2003, Gaussian, Inc.),
 the Gaussian(R) 98 system (copyright 1998, Gaussian, Inc.),
 the Gaussian(R) 94 system (copyright 1995, Gaussian, Inc.),
 the Gaussian 92(TM) system (copyright 1992, Gaussian, Inc.),
 the Gaussian 90(TM) system (copyright 1990, Gaussian, Inc.),
 the Gaussian 88(TM) system (copyright 1988, Gaussian, Inc.),
 the Gaussian 86(TM) system (copyright 1986, Carnegie Mellon
 University), and the Gaussian 82(TM) system (copyright 1983,
 Carnegie Mellon University). Gaussian is a federally registered
 trademark of Gaussian, Inc.
  
 This software contains proprietary and confidential information,
 including trade secrets, belonging to Gaussian, Inc.
  
 This software is provided under written license and may be
 used, copied, transmitted, or stored only in accord with that
 written license.
  
 The following legend is applicable only to US Government
 contracts under FAR:
  
                    RESTRICTED RIGHTS LEGEND
  
 Use, reproduction and disclosure by the US Government is
 subject to restrictions as set forth in subparagraphs (a)
 and (c) of the Commercial Computer Software - Restricted
 Rights clause in FAR 52.227-19.
  
 Gaussian, Inc.
 340 Quinnipiac St., Bldg. 40, Wallingford CT 06492
  
  
 ---------------------------------------------------------------
 Warning -- This program may not be used in any manner that
 competes with the business of Gaussian, Inc. or will provide
 assistance to any competitor of Gaussian, Inc.  The licensee
 of this program is prohibited from giving any competitor of
 Gaussian, Inc. access to this program.  By using this program,
 the user acknowledges that Gaussian, Inc. is engaged in the
 business of creating and licensing software in the field of
 computational chemistry and represents and warrants to the
 licensee that it is not a competitor of Gaussian, Inc. and that
 it will not use this program in any manner prohibited above.
 ---------------------------------------------------------------
  

 Cite this work as:
 Gaussian 09, Revision E.01,
 M. J. Frisch, G. W. Trucks, H. B. Schlegel, G. E. Scuseria, 
 M. A. Robb, J. R. Cheeseman, G. Scalmani, V. Barone, B. Mennucci, 
 G. A. Petersson, H. Nakatsuji, M. Caricato, X. Li, H. P. Hratchian, 
 A. F. Izmaylov, J. Bloino, G. Zheng, J. L. Sonnenberg, M. Hada, 
 M. Ehara, K. Toyota, R. Fukuda, J. Hasegawa, M. Ishida, T. Nakajima, 
 Y. Honda, O. Kitao, H. Nakai, T. Vreven, J. A. Montgomery, Jr., 
 J. E. Peralta, F. Ogliaro, M. Bearpark, J. J. Heyd, E. Brothers, 
 K. N. Kudin, V. N. Staroverov, T. Keith, R. Kobayashi, J. Normand, 
 K. Raghavachari, A. Rendell, J. C. Burant, S. S. Iyengar, J. Tomasi, 
 M. Cossi, N. Rega, J. M. Millam, M. Klene, J. E. Knox, J. B. Cross, 
 V. Bakken, C. Adamo, J. Jaramillo, R. Gomperts, R. E. Stratmann, 
 O. Yazyev, A. J. Austin, R. Cammi, C. Pomelli, J. W. Ochterski, 
 R. L. Martin, K. Morokuma, V. G. Zakrzewski, G. A. Voth, 
 P. Salvador, J. J. Dannenberg, S. Dapprich, A. D. Daniels, 
 O. Farkas, J. B. Foresman, J. V. Ortiz, J. Cioslowski, 
 and D. J. Fox, Gaussian, Inc., Wallingford CT, 2013.
 
 ******************************************
 Gaussian 09:  ES64L-G09RevE.01 30-Nov-2015
                 3-May-2018 
 ******************************************
 %Mem=110GB
 %NProcShared=64
 Will use up to   64 processors via shared memory.
 %chk=snap73.chk
 ----------------------------------------------
 #p PBE1PBE/cc-pvDZ force Counterpoise=2 noSymm
 ----------------------------------------------
 1/10=7,30=1,38=1,62=2/1,3;
 2/12=2,15=1,17=6,18=5,40=1/2;
 1/10=7,30=1,38=1,53=2,62=2,63=101/22;
 3/5=16,11=2,16=1,25=1,30=1,71=1,74=-13/1,2,3;
 4//1;
 5/5=2,38=5/2;
 6/7=2,8=2,9=2,10=2,28=1/1;
 7/7=1,29=1,30=1,33=-1/1,2,3,16;
 1/10=7,30=1,53=2,62=2,63=101/22;
 3/5=7,6=11,11=2,16=1,25=1,30=1,71=1,74=-13,82=7/1,2,3;
 4//1;
 5/5=2,38=5/2;
 6/7=2,8=2,9=2,10=2,28=1/1;
 7/7=1,29=1,30=1,33=-1/1,2,3,16;
 1/10=7,30=1,53=2,62=2,63=101/22(-5);
 7/9=1,29=1,44=-1/16;
 1/10=7,30=1,62=2/3;
 99//99;
 Leave Link    1 at Thu May  3 09:55:42 2018, MaxMem= 14763950080 cpu:         7.6
 (Enter /cm/shared/gaussian/g09.e01/intel64-sandybridge/g09/l101.exe)
 --------------------------------------
 forces on chloride comput - NWATER: 32
 --------------------------------------
 Symbolic Z-matrix:
 Charge = -1 Multiplicity = 1 in supermolecule
 Charge = -1 Multiplicity = 1 in fragment      1.
 Charge =  0 Multiplicity = 1 in fragment      2.
 Br(Fragment=1)        20.       20.       20. 
 O(Fragment=2)         18.56     19.12     17.55 
 H(Fragment=2)         18.94     19.73     16.91 
 H(Fragment=2)         18.91     19.41     18.39 
 O(Fragment=2)         22.21     17.71     19.75 
 H(Fragment=2)         21.59     18.4      19.99 
 H(Fragment=2)         21.69     17.09     19.25 
 O(Fragment=2)         19.46     18.37     22.77 
 H(Fragment=2)         19.85     18.75     23.56 
 H(Fragment=2)         19.76     18.94     22.06 
 O(Fragment=2)         22.89     21.31     20.73 
 H(Fragment=2)         23.37     21.03     19.95 
 H(Fragment=2)         22.15     20.7      20.79 
 O(Fragment=2)         21.16     21.89     17.35 
 H(Fragment=2)         21.36     22.7      17.82 
 H(Fragment=2)         20.8      21.31     18.01 
 O(Fragment=2)         19.88     23.31     20.97 
 H(Fragment=2)         19.14     23.67     20.47 
 H(Fragment=2)         19.54     22.5      21.34 
 O(Fragment=2)         16.48     20.24     20.54 
 H(Fragment=2)         17.09     19.72     20.01 
 H(Fragment=2)         16.84     21.12     20.52 
 O(Fragment=2)         18.99     21.49     23. 
 H(Fragment=2)         18.65     20.7      22.58 
 H(Fragment=2)         19.85     21.23     23.32 
 O(Fragment=2)         17.69     17.04     20.43 
 H(Fragment=2)         18.32     17.22     21.14 
 H(Fragment=2)         18.06     17.48     19.67 
 O(Fragment=2)         21.8      21.12     23.15 
 H(Fragment=2)         22.32     21.02     22.36 
 H(Fragment=2)         21.75     22.07     23.28 
 O(Fragment=2)         22.19     19.63     16.3 
 H(Fragment=2)         21.74     20.42     16.6 
 H(Fragment=2)         23.       19.95     15.91 
 O(Fragment=2)         24.12     19.87     18.84 
 H(Fragment=2)         23.65     19.33     18.2 
 H(Fragment=2)         24.43     20.62     18.33 
 O(Fragment=2)         22.71     23.92     20.02 
 H(Fragment=2)         22.78     23.07     20.46 
 H(Fragment=2)         23.12     24.54     20.62 
 O(Fragment=2)         16.02     20.34     16.65 
 H(Fragment=2)         16.18     21.28     16.62 
 H(Fragment=2)         16.84     19.97     17. 
 O(Fragment=2)         21.51     24.04     22.96 
 H(Fragment=2)         20.9      23.81     22.26 
 H(Fragment=2)         22.05     24.74     22.6 
 O(Fragment=2)         18.42     17.36     15.45 
 H(Fragment=2)         17.47     17.49     15.44 
 H(Fragment=2)         18.71     17.79     16.26 
 O(Fragment=2)         20.5      15.65     18.74 
 H(Fragment=2)         20.45     15.36     19.65 
 H(Fragment=2)         19.74     15.26     18.32 
 O(Fragment=2)         20.61     15.58     21.44 
 H(Fragment=2)         21.32     15.49     22.08 
 H(Fragment=2)         19.87     15.12     21.85 
 O(Fragment=2)         24.86     17.18     19.71 
 H(Fragment=2)         23.96     17.43     19.9 
 H(Fragment=2)         25.2      17.88     19.16 
 O(Fragment=2)         17.82     17.       24.34 
 H(Fragment=2)         17.38     17.78     24.69 
 H(Fragment=2)         18.43     17.34     23.69 
 O(Fragment=2)         18.57     24.12     23.66 
 H(Fragment=2)         18.77     23.23     23.37 
 H(Fragment=2)         18.61     24.64     22.86 
 O(Fragment=2)         25.33     20.79     21.95 
 H(Fragment=2)         25.12     21.67     22.27 
 H(Fragment=2)         24.75     20.66     21.19 
 O(Fragment=2)         15.01     17.38     19.97 
 H(Fragment=2)         15.91     17.1      20.12 
 H(Fragment=2)         14.78     17.04     19.11 
 O(Fragment=2)         17.17     24.18     21.08 
 H(Fragment=2)         16.63     23.9      20.34 
 H(Fragment=2)         16.77     23.77     21.84 
 O(Fragment=2)         19.95     23.51     15.47 
 H(Fragment=2)         19.76     22.84     14.82 
 H(Fragment=2)         20.71     23.18     15.95 
 O(Fragment=2)         23.26     19.71     25.08 
 H(Fragment=2)         22.64     20.13     24.49 
 H(Fragment=2)         23.71     20.43     25.52 
 O(Fragment=2)         14.27     20.       22.05 
 H(Fragment=2)         14.95     20.04     21.37 
 H(Fragment=2)         13.62     19.39     21.71 
 O(Fragment=2)         22.38     16.05     16.83 
 H(Fragment=2)         21.72     15.76     17.45 
 H(Fragment=2)         21.93     16.68     16.27 
 O(Fragment=2)         23.2      14.81     19.86 
 H(Fragment=2)         22.96     15.67     20.22 
 H(Fragment=2)         23.58     15.01     19. 
 O(Fragment=2)         13.87     20.81     18.88 
 H(Fragment=2)         14.77     20.55     18.68 
 H(Fragment=2)         13.82     21.72     18.59 
 O(Fragment=2)         20.06     19.19     25.38 
 H(Fragment=2)         20.06     18.45     25.99 
 H(Fragment=2)         19.58     19.88     25.84 
 O(Fragment=2)         15.63     23.66     18.54 
 H(Fragment=2)         16.44     23.69     18.02 
 H(Fragment=2)         14.96     23.37     17.92 
 
 NAtoms=     97 NQM=       97 NQMF=       0 NMMI=      0 NMMIF=      0
                NMic=       0 NMicF=      0.
                    Isotopes and Nuclear Properties:
 (Nuclear quadrupole moments (NQMom) in fm**2, nuclear magnetic moments (NMagM)
  in nuclear magnetons)

  Atom         1           2           3           4           5           6           7           8           9          10
 IAtWgt=          79          16           1           1          16           1           1          16           1           1
 AtmWgt=  78.9183361  15.9949146   1.0078250   1.0078250  15.9949146   1.0078250   1.0078250  15.9949146   1.0078250   1.0078250
 NucSpn=           3           0           1           1           0           1           1           0           1           1
 AtZEff=   0.0000000   0.0000000   0.0000000   0.0000000   0.0000000   0.0000000   0.0000000   0.0000000   0.0000000   0.0000000
 NQMom=   31.3000000   0.0000000   0.0000000   0.0000000   0.0000000   0.0000000   0.0000000   0.0000000   0.0000000   0.0000000
 NMagM=    2.1063990   0.0000000   2.7928460   2.7928460   0.0000000   2.7928460   2.7928460   0.0000000   2.7928460   2.7928460
 AtZNuc=  35.0000000   8.0000000   1.0000000   1.0000000   8.0000000   1.0000000   1.0000000   8.0000000   1.0000000   1.0000000

  Atom        11          12          13          14          15          16          17          18          19          20
 IAtWgt=          16           1           1          16           1           1          16           1           1          16
 AtmWgt=  15.9949146   1.0078250   1.0078250  15.9949146   1.0078250   1.0078250  15.9949146   1.0078250   1.0078250  15.9949146
 NucSpn=           0           1           1           0           1           1           0           1           1           0
 AtZEff=   0.0000000   0.0000000   0.0000000   0.0000000   0.0000000   0.0000000   0.0000000   0.0000000   0.0000000   0.0000000
 NQMom=    0.0000000   0.0000000   0.0000000   0.0000000   0.0000000   0.0000000   0.0000000   0.0000000   0.0000000   0.0000000
 NMagM=    0.0000000   2.7928460   2.7928460   0.0000000   2.7928460   2.7928460   0.0000000   2.7928460   2.7928460   0.0000000
 AtZNuc=   8.0000000   1.0000000   1.0000000   8.0000000   1.0000000   1.0000000   8.0000000   1.0000000   1.0000000   8.0000000

  Atom        21          22          23          24          25          26          27          28          29          30
 IAtWgt=           1           1          16           1           1          16           1           1          16           1
 AtmWgt=   1.0078250   1.0078250  15.9949146   1.0078250   1.0078250  15.9949146   1.0078250   1.0078250  15.9949146   1.0078250
 NucSpn=           1           1           0           1           1           0           1           1           0           1
 AtZEff=   0.0000000   0.0000000   0.0000000   0.0000000   0.0000000   0.0000000   0.0000000   0.0000000   0.0000000   0.0000000
 NQMom=    0.0000000   0.0000000   0.0000000   0.0000000   0.0000000   0.0000000   0.0000000   0.0000000   0.0000000   0.0000000
 NMagM=    2.7928460   2.7928460   0.0000000   2.7928460   2.7928460   0.0000000   2.7928460   2.7928460   0.0000000   2.7928460
 AtZNuc=   1.0000000   1.0000000   8.0000000   1.0000000   1.0000000   8.0000000   1.0000000   1.0000000   8.0000000   1.0000000

  Atom        31          32          33          34          35          36          37          38          39          40
 IAtWgt=           1          16           1           1          16           1           1          16           1           1
 AtmWgt=   1.0078250  15.9949146   1.0078250   1.0078250  15.9949146   1.0078250   1.0078250  15.9949146   1.0078250   1.0078250
 NucSpn=           1           0           1           1           0           1           1           0           1           1
 AtZEff=   0.0000000   0.0000000   0.0000000   0.0000000   0.0000000   0.0000000   0.0000000   0.0000000   0.0000000   0.0000000
 NQMom=    0.0000000   0.0000000   0.0000000   0.0000000   0.0000000   0.0000000   0.0000000   0.0000000   0.0000000   0.0000000
 NMagM=    2.7928460   0.0000000   2.7928460   2.7928460   0.0000000   2.7928460   2.7928460   0.0000000   2.7928460   2.7928460
 AtZNuc=   1.0000000   8.0000000   1.0000000   1.0000000   8.0000000   1.0000000   1.0000000   8.0000000   1.0000000   1.0000000

  Atom        41          42          43          44          45          46          47          48          49          50
 IAtWgt=          16           1           1          16           1           1          16           1           1          16
 AtmWgt=  15.9949146   1.0078250   1.0078250  15.9949146   1.0078250   1.0078250  15.9949146   1.0078250   1.0078250  15.9949146
 NucSpn=           0           1           1           0           1           1           0           1           1           0
 AtZEff=   0.0000000   0.0000000   0.0000000   0.0000000   0.0000000   0.0000000   0.0000000   0.0000000   0.0000000   0.0000000
 NQMom=    0.0000000   0.0000000   0.0000000   0.0000000   0.0000000   0.0000000   0.0000000   0.0000000   0.0000000   0.0000000
 NMagM=    0.0000000   2.7928460   2.7928460   0.0000000   2.7928460   2.7928460   0.0000000   2.7928460   2.7928460   0.0000000
 AtZNuc=   8.0000000   1.0000000   1.0000000   8.0000000   1.0000000   1.0000000   8.0000000   1.0000000   1.0000000   8.0000000

  Atom        51          52          53          54          55          56          57          58          59          60
 IAtWgt=           1           1          16           1           1          16           1           1          16           1
 AtmWgt=   1.0078250   1.0078250  15.9949146   1.0078250   1.0078250  15.9949146   1.0078250   1.0078250  15.9949146   1.0078250
 NucSpn=           1           1           0           1           1           0           1           1           0           1
 AtZEff=   0.0000000   0.0000000   0.0000000   0.0000000   0.0000000   0.0000000   0.0000000   0.0000000   0.0000000   0.0000000
 NQMom=    0.0000000   0.0000000   0.0000000   0.0000000   0.0000000   0.0000000   0.0000000   0.0000000   0.0000000   0.0000000
 NMagM=    2.7928460   2.7928460   0.0000000   2.7928460   2.7928460   0.0000000   2.7928460   2.7928460   0.0000000   2.7928460
 AtZNuc=   1.0000000   1.0000000   8.0000000   1.0000000   1.0000000   8.0000000   1.0000000   1.0000000   8.0000000   1.0000000

  Atom        61          62          63          64          65          66          67          68          69          70
 IAtWgt=           1          16           1           1          16           1           1          16           1           1
 AtmWgt=   1.0078250  15.9949146   1.0078250   1.0078250  15.9949146   1.0078250   1.0078250  15.9949146   1.0078250   1.0078250
 NucSpn=           1           0           1           1           0           1           1           0           1           1
 AtZEff=   0.0000000   0.0000000   0.0000000   0.0000000   0.0000000   0.0000000   0.0000000   0.0000000   0.0000000   0.0000000
 NQMom=    0.0000000   0.0000000   0.0000000   0.0000000   0.0000000   0.0000000   0.0000000   0.0000000   0.0000000   0.0000000
 NMagM=    2.7928460   0.0000000   2.7928460   2.7928460   0.0000000   2.7928460   2.7928460   0.0000000   2.7928460   2.7928460
 AtZNuc=   1.0000000   8.0000000   1.0000000   1.0000000   8.0000000   1.0000000   1.0000000   8.0000000   1.0000000   1.0000000

  Atom        71          72          73          74          75          76          77          78          79          80
 IAtWgt=          16           1           1          16           1           1          16           1           1          16
 AtmWgt=  15.9949146   1.0078250   1.0078250  15.9949146   1.0078250   1.0078250  15.9949146   1.0078250   1.0078250  15.9949146
 NucSpn=           0           1           1           0           1           1           0           1           1           0
 AtZEff=   0.0000000   0.0000000   0.0000000   0.0000000   0.0000000   0.0000000   0.0000000   0.0000000   0.0000000   0.0000000
 NQMom=    0.0000000   0.0000000   0.0000000   0.0000000   0.0000000   0.0000000   0.0000000   0.0000000   0.0000000   0.0000000
 NMagM=    0.0000000   2.7928460   2.7928460   0.0000000   2.7928460   2.7928460   0.0000000   2.7928460   2.7928460   0.0000000
 AtZNuc=   8.0000000   1.0000000   1.0000000   8.0000000   1.0000000   1.0000000   8.0000000   1.0000000   1.0000000   8.0000000

  Atom        81          82          83          84          85          86          87          88          89          90
 IAtWgt=           1           1          16           1           1          16           1           1          16           1
 AtmWgt=   1.0078250   1.0078250  15.9949146   1.0078250   1.0078250  15.9949146   1.0078250   1.0078250  15.9949146   1.0078250
 NucSpn=           1           1           0           1           1           0           1           1           0           1
 AtZEff=   0.0000000   0.0000000   0.0000000   0.0000000   0.0000000   0.0000000   0.0000000   0.0000000   0.0000000   0.0000000
 NQMom=    0.0000000   0.0000000   0.0000000   0.0000000   0.0000000   0.0000000   0.0000000   0.0000000   0.0000000   0.0000000
 NMagM=    2.7928460   2.7928460   0.0000000   2.7928460   2.7928460   0.0000000   2.7928460   2.7928460   0.0000000   2.7928460
 AtZNuc=   1.0000000   1.0000000   8.0000000   1.0000000   1.0000000   8.0000000   1.0000000   1.0000000   8.0000000   1.0000000

  Atom        91          92          93          94          95          96          97
 IAtWgt=           1          16           1           1          16           1           1
 AtmWgt=   1.0078250  15.9949146   1.0078250   1.0078250  15.9949146   1.0078250   1.0078250
 NucSpn=           1           0           1           1           0           1           1
 AtZEff=   0.0000000   0.0000000   0.0000000   0.0000000   0.0000000   0.0000000   0.0000000
 NQMom=    0.0000000   0.0000000   0.0000000   0.0000000   0.0000000   0.0000000   0.0000000
 NMagM=    2.7928460   0.0000000   2.7928460   2.7928460   0.0000000   2.7928460   2.7928460
 AtZNuc=   1.0000000   8.0000000   1.0000000   1.0000000   8.0000000   1.0000000   1.0000000
 Leave Link  101 at Thu May  3 09:55:42 2018, MaxMem= 14763950080 cpu:        15.1
 (Enter /cm/shared/gaussian/g09.e01/intel64-sandybridge/g09/l103.exe)

 GradGradGradGradGradGradGradGradGradGradGradGradGradGradGradGradGradGrad
 Berny optimization.
 Initialization pass.
 Trust Radius=3.00D-01 FncErr=1.00D-07 GrdErr=1.00D-07
 Number of steps in this run=      2 maximum allowed number of steps=      2.
 GradGradGradGradGradGradGradGradGradGradGradGradGradGradGradGradGradGrad

 Leave Link  103 at Thu May  3 09:55:42 2018, MaxMem= 14763950080 cpu:         2.3
 (Enter /cm/shared/gaussian/g09.e01/intel64-sandybridge/g09/l202.exe)
 Symmetry turned off by external request.
 Stoichiometry    BrH64O32(1-)
 Framework group  C1[X(BrH64O32)]
 Deg. of freedom   285
 Full point group                 C1      NOp   1
                          Input orientation:                          
 ---------------------------------------------------------------------
 Center     Atomic      Atomic             Coordinates (Angstroms)
 Number     Number       Type             X           Y           Z
 ---------------------------------------------------------------------
      1         35           0       20.000000   20.000000   20.000000
      2          8           0       18.560000   19.120000   17.550000
      3          1           0       18.940000   19.730000   16.910000
      4          1           0       18.910000   19.410000   18.390000
      5          8           0       22.210000   17.710000   19.750000
      6          1           0       21.590000   18.400000   19.990000
      7          1           0       21.690000   17.090000   19.250000
      8          8           0       19.460000   18.370000   22.770000
      9          1           0       19.850000   18.750000   23.560000
     10          1           0       19.760000   18.940000   22.060000
     11          8           0       22.890000   21.310000   20.730000
     12          1           0       23.370000   21.030000   19.950000
     13          1           0       22.150000   20.700000   20.790000
     14          8           0       21.160000   21.890000   17.350000
     15          1           0       21.360000   22.700000   17.820000
     16          1           0       20.800000   21.310000   18.010000
     17          8           0       19.880000   23.310000   20.970000
     18          1           0       19.140000   23.670000   20.470000
     19          1           0       19.540000   22.500000   21.340000
     20          8           0       16.480000   20.240000   20.540000
     21          1           0       17.090000   19.720000   20.010000
     22          1           0       16.840000   21.120000   20.520000
     23          8           0       18.990000   21.490000   23.000000
     24          1           0       18.650000   20.700000   22.580000
     25          1           0       19.850000   21.230000   23.320000
     26          8           0       17.690000   17.040000   20.430000
     27          1           0       18.320000   17.220000   21.140000
     28          1           0       18.060000   17.480000   19.670000
     29          8           0       21.800000   21.120000   23.150000
     30          1           0       22.320000   21.020000   22.360000
     31          1           0       21.750000   22.070000   23.280000
     32          8           0       22.190000   19.630000   16.300000
     33          1           0       21.740000   20.420000   16.600000
     34          1           0       23.000000   19.950000   15.910000
     35          8           0       24.120000   19.870000   18.840000
     36          1           0       23.650000   19.330000   18.200000
     37          1           0       24.430000   20.620000   18.330000
     38          8           0       22.710000   23.920000   20.020000
     39          1           0       22.780000   23.070000   20.460000
     40          1           0       23.120000   24.540000   20.620000
     41          8           0       16.020000   20.340000   16.650000
     42          1           0       16.180000   21.280000   16.620000
     43          1           0       16.840000   19.970000   17.000000
     44          8           0       21.510000   24.040000   22.960000
     45          1           0       20.900000   23.810000   22.260000
     46          1           0       22.050000   24.740000   22.600000
     47          8           0       18.420000   17.360000   15.450000
     48          1           0       17.470000   17.490000   15.440000
     49          1           0       18.710000   17.790000   16.260000
     50          8           0       20.500000   15.650000   18.740000
     51          1           0       20.450000   15.360000   19.650000
     52          1           0       19.740000   15.260000   18.320000
     53          8           0       20.610000   15.580000   21.440000
     54          1           0       21.320000   15.490000   22.080000
     55          1           0       19.870000   15.120000   21.850000
     56          8           0       24.860000   17.180000   19.710000
     57          1           0       23.960000   17.430000   19.900000
     58          1           0       25.200000   17.880000   19.160000
     59          8           0       17.820000   17.000000   24.340000
     60          1           0       17.380000   17.780000   24.690000
     61          1           0       18.430000   17.340000   23.690000
     62          8           0       18.570000   24.120000   23.660000
     63          1           0       18.770000   23.230000   23.370000
     64          1           0       18.610000   24.640000   22.860000
     65          8           0       25.330000   20.790000   21.950000
     66          1           0       25.120000   21.670000   22.270000
     67          1           0       24.750000   20.660000   21.190000
     68          8           0       15.010000   17.380000   19.970000
     69          1           0       15.910000   17.100000   20.120000
     70          1           0       14.780000   17.040000   19.110000
     71          8           0       17.170000   24.180000   21.080000
     72          1           0       16.630000   23.900000   20.340000
     73          1           0       16.770000   23.770000   21.840000
     74          8           0       19.950000   23.510000   15.470000
     75          1           0       19.760000   22.840000   14.820000
     76          1           0       20.710000   23.180000   15.950000
     77          8           0       23.260000   19.710000   25.080000
     78          1           0       22.640000   20.130000   24.490000
     79          1           0       23.710000   20.430000   25.520000
     80          8           0       14.270000   20.000000   22.050000
     81          1           0       14.950000   20.040000   21.370000
     82          1           0       13.620000   19.390000   21.710000
     83          8           0       22.380000   16.050000   16.830000
     84          1           0       21.720000   15.760000   17.450000
     85          1           0       21.930000   16.680000   16.270000
     86          8           0       23.200000   14.810000   19.860000
     87          1           0       22.960000   15.670000   20.220000
     88          1           0       23.580000   15.010000   19.000000
     89          8           0       13.870000   20.810000   18.880000
     90          1           0       14.770000   20.550000   18.680000
     91          1           0       13.820000   21.720000   18.590000
     92          8           0       20.060000   19.190000   25.380000
     93          1           0       20.060000   18.450000   25.990000
     94          1           0       19.580000   19.880000   25.840000
     95          8           0       15.630000   23.660000   18.540000
     96          1           0       16.440000   23.690000   18.020000
     97          1           0       14.960000   23.370000   17.920000
 ---------------------------------------------------------------------
 Rotational constants (GHZ):      0.0617133      0.0549626      0.0497266
 Leave Link  202 at Thu May  3 09:55:42 2018, MaxMem= 14763950080 cpu:         1.3
 (Enter /cm/shared/gaussian/g09.e01/intel64-sandybridge/g09/l122.exe)
 Counterpoise: doing full dimer calculation.
 Leave Link  122 at Thu May  3 09:55:43 2018, MaxMem= 14763950080 cpu:         0.0
 (Enter /cm/shared/gaussian/g09.e01/intel64-sandybridge/g09/l301.exe)
 Standard basis: CC-pVDZ (5D, 7F)
 Ernie: Thresh=  0.10000D-02 Tol=  0.10000D-05 Strict=F.
 Ernie:  87 primitive shells out of 1114 were deleted.
   795 basis functions,  1651 primitive gaussians,   829 cartesian basis functions
   178 alpha electrons      178 beta electrons
       nuclear repulsion energy      6168.8775173782 Hartrees.
 IExCor= 1009 DFT=T Ex+Corr=PBE1PBE ExCW=0 ScaHFX=  0.250000
 ScaDFX=  0.750000  0.750000  1.000000  1.000000 ScalE2=  1.000000  1.000000
 IRadAn=      0 IRanWt=     -1 IRanGd=            0 ICorTp=0 IEmpDi=  4
 NAtoms=   97 NActive=   97 NUniq=   97 SFac= 1.00D+00 NAtFMM=   60 NAOKFM=T Big=T
 Integral buffers will be    131072 words long.
 Raffenetti 2 integral format.
 Two-electron integral symmetry is turned off.
 Leave Link  301 at Thu May  3 09:55:43 2018, MaxMem= 14763950080 cpu:         6.3
 (Enter /cm/shared/gaussian/g09.e01/intel64-sandybridge/g09/l302.exe)
 NPDir=0 NMtPBC=     1 NCelOv=     1 NCel=       1 NClECP=     1 NCelD=      1
         NCelK=      1 NCelE2=     1 NClLst=     1 CellRange=     0.0.
 One-electron integrals computed using PRISM.
 NBasis=   795 RedAO= T EigKep=  1.27D-02  NBF=   795
 NBsUse=   795 1.00D-06 EigRej= -1.00D+00 NBFU=   795
 Precomputing XC quadrature grid using
 IXCGrd= 4 IRadAn=           0 IRanWt=          -1 IRanGd=           0 AccXCQ= 0.00D+00.
 Generated NRdTot=       0 NPtTot=           0 NUsed=           0 NTot=          32
 NSgBfM=   698   702   719   735   742 MxSgAt=    97 MxSgA2=    97.
 Leave Link  302 at Thu May  3 09:55:49 2018, MaxMem= 14763950080 cpu:       382.0
 (Enter /cm/shared/gaussian/g09.e01/intel64-sandybridge/g09/l303.exe)
 DipDrv:  MaxL=1.
 Leave Link  303 at Thu May  3 09:55:49 2018, MaxMem= 14763950080 cpu:        31.0
 (Enter /cm/shared/gaussian/g09.e01/intel64-sandybridge/g09/l401.exe)
 ExpMin= 1.22D-01 ExpMax= 6.40D+05 ExpMxC= 6.18D+03 IAcc=2 IRadAn=         4 AccDes= 0.00D+00
 Harris functional with IExCor= 1009 and IRadAn=       4 diagonalized for initial guess.
 HarFok:  IExCor= 1009 AccDes= 0.00D+00 IRadAn=         4 IDoV= 1 UseB2=F ITyADJ=14
 ICtDFT=  3500011 ScaDFX=  1.000000  1.000000  1.000000  1.000000
 FoFCou: FMM=F IPFlag=           0 FMFlag=      100000 FMFlg1=        2001
         NFxFlg=           0 DoJE=T BraDBF=F KetDBF=T FulRan=T
         wScrn=  0.000000 ICntrl=     500 IOpCl=  0 I1Cent=   200000004 NGrid=           0
         NMat0=    1 NMatS0=      1 NMatT0=    0 NMatD0=    1 NMtDS0=    0 NMtDT0=    0
 Symmetry not used in FoFCou.
 Harris En= -5018.40026008847    
 JPrj=0 DoOrth=F DoCkMO=F.
 Leave Link  401 at Thu May  3 09:55:54 2018, MaxMem= 14763950080 cpu:       331.1
 (Enter /cm/shared/gaussian/g09.e01/intel64-sandybridge/g09/l502.exe)
 Closed shell SCF:
 Using DIIS extrapolation, IDIIS=  1040.
 Two-electron integral symmetry not used.
 IVT=     2138497 IEndB=     2138497 NGot= 14763950080 MDV= 14762516294
 LenX= 14762516294 LenY= 14761828224
 Requested convergence on RMS density matrix=1.00D-08 within 128 cycles.
 Requested convergence on MAX density matrix=1.00D-06.
 Requested convergence on             energy=1.00D-06.
 No special actions if energy rises.
 Fock matrices will be formed incrementally for  20 cycles.
 Integral accuracy reduced to 1.0D-05 until final iterations.

 Cycle   1  Pass 0  IDiag  1:
 FoFJK:  IHMeth= 1 ICntrl=       0 DoSepK=F KAlg= 0 I1Cent=   0 FoldK=F
 IRaf= 840000000 NMat=   1 IRICut=       1 DoRegI=T DoRafI=F ISym2E= 0.
 FoFCou: FMM=T IPFlag=           0 FMFlag=      100000 FMFlg1=        2001
         NFxFlg=           0 DoJE=F BraDBF=F KetDBF=F FulRan=T
         wScrn=  0.000000 ICntrl=       0 IOpCl=  0 I1Cent=           0 NGrid=           0
         NMat0=    1 NMatS0=      1 NMatT0=    0 NMatD0=    1 NMtDS0=    0 NMtDT0=    0
 Symmetry not used in FoFCou.
 FMM levels:  10  Number of levels for PrismC:   9
 E= -5015.25974708212    
 DIIS: error= 3.57D-02 at cycle   1 NSaved=   1.
 NSaved= 1 IEnMin= 1 EnMin= -5015.25974708212     IErMin= 1 ErrMin= 3.57D-02
 ErrMax= 3.57D-02  0.00D+00 EMaxC= 1.00D-01 BMatC= 2.73D+00 BMatP= 2.73D+00
 IDIUse=3 WtCom= 6.43D-01 WtEn= 3.57D-01
 Coeff-Com:  0.100D+01
 Coeff-En:   0.100D+01
 Coeff:      0.100D+01
 Gap=     0.306 Goal=   None    Shift=    0.000
 GapD=    0.306 DampG=1.000 DampE=0.500 DampFc=0.5000 IDamp=-1.
 Damping current iteration by 5.00D-01
 RMSDP=2.89D-03 MaxDP=1.60D-01              OVMax= 1.83D-01

 Cycle   2  Pass 0  IDiag  1:
 RMSU=  1.43D-03    CP:  9.86D-01
 E= -5016.05419320389     Delta-E=       -0.794446121767 Rises=F Damp=T
 DIIS: error= 7.51D-03 at cycle   2 NSaved=   2.
 NSaved= 2 IEnMin= 2 EnMin= -5016.05419320389     IErMin= 2 ErrMin= 7.51D-03
 ErrMax= 7.51D-03  0.00D+00 EMaxC= 1.00D-01 BMatC= 8.82D-02 BMatP= 2.73D+00
 IDIUse=3 WtCom= 9.25D-01 WtEn= 7.51D-02
 Coeff-Com:  0.120D+00 0.880D+00
 Coeff-En:   0.216D+00 0.784D+00
 Coeff:      0.128D+00 0.872D+00
 Gap=     0.194 Goal=   None    Shift=    0.000
 RMSDP=3.62D-04 MaxDP=2.12D-02 DE=-7.94D-01 OVMax= 1.03D-01

 Cycle   3  Pass 0  IDiag  1:
 RMSU=  2.80D-04    CP:  9.88D-01  8.41D-01
 E= -5017.21454101748     Delta-E=       -1.160347813588 Rises=F Damp=F
 DIIS: error= 9.57D-04 at cycle   3 NSaved=   3.
 NSaved= 3 IEnMin= 3 EnMin= -5017.21454101748     IErMin= 3 ErrMin= 9.57D-04
 ErrMax= 9.57D-04  0.00D+00 EMaxC= 1.00D-01 BMatC= 1.98D-03 BMatP= 8.82D-02
 IDIUse=3 WtCom= 9.90D-01 WtEn= 9.57D-03
 Coeff-Com:  0.958D-02 0.744D-01 0.916D+00
 Coeff-En:   0.000D+00 0.000D+00 0.100D+01
 Coeff:      0.948D-02 0.737D-01 0.917D+00
 Gap=     0.211 Goal=   None    Shift=    0.000
 RMSDP=9.48D-05 MaxDP=1.35D-02 DE=-1.16D+00 OVMax= 1.43D-02

 Cycle   4  Pass 0  IDiag  1:
 RMSU=  8.52D-05    CP:  9.88D-01  8.45D-01  8.53D-01
 E= -5017.21494414189     Delta-E=       -0.000403124410 Rises=F Damp=F
 DIIS: error= 8.51D-04 at cycle   4 NSaved=   4.
 NSaved= 4 IEnMin= 4 EnMin= -5017.21494414189     IErMin= 4 ErrMin= 8.51D-04
 ErrMax= 8.51D-04  0.00D+00 EMaxC= 1.00D-01 BMatC= 1.98D-03 BMatP= 1.98D-03
 IDIUse=3 WtCom= 9.91D-01 WtEn= 8.51D-03
 Coeff-Com:  0.156D-02 0.700D-02 0.498D+00 0.493D+00
 Coeff-En:   0.000D+00 0.000D+00 0.440D+00 0.560D+00
 Coeff:      0.155D-02 0.694D-02 0.498D+00 0.494D+00
 Gap=     0.207 Goal=   None    Shift=    0.000
 RMSDP=4.14D-05 MaxDP=4.95D-03 DE=-4.03D-04 OVMax= 4.66D-03

 Cycle   5  Pass 0  IDiag  1:
 RMSU=  1.80D-05    CP:  9.88D-01  8.42D-01  9.07D-01  6.02D-01
 E= -5017.21645051186     Delta-E=       -0.001506369976 Rises=F Damp=F
 DIIS: error= 1.13D-04 at cycle   5 NSaved=   5.
 NSaved= 5 IEnMin= 5 EnMin= -5017.21645051186     IErMin= 5 ErrMin= 1.13D-04
 ErrMax= 1.13D-04  0.00D+00 EMaxC= 1.00D-01 BMatC= 3.31D-05 BMatP= 1.98D-03
 IDIUse=3 WtCom= 9.99D-01 WtEn= 1.13D-03
 Coeff-Com:  0.559D-03-0.153D-02 0.142D+00 0.173D+00 0.686D+00
 Coeff-En:   0.000D+00 0.000D+00 0.000D+00 0.000D+00 0.100D+01
 Coeff:      0.559D-03-0.153D-02 0.141D+00 0.173D+00 0.687D+00
 Gap=     0.208 Goal=   None    Shift=    0.000
 RMSDP=8.62D-06 MaxDP=1.34D-03 DE=-1.51D-03 OVMax= 1.40D-03

 Cycle   6  Pass 0  IDiag  1:
 RMSU=  5.81D-06    CP:  9.88D-01  8.42D-01  9.17D-01  5.81D-01  7.10D-01
 E= -5017.21647515490     Delta-E=       -0.000024643035 Rises=F Damp=F
 DIIS: error= 9.02D-05 at cycle   6 NSaved=   6.
 NSaved= 6 IEnMin= 6 EnMin= -5017.21647515490     IErMin= 6 ErrMin= 9.02D-05
 ErrMax= 9.02D-05  0.00D+00 EMaxC= 1.00D-01 BMatC= 4.09D-06 BMatP= 3.31D-05
 IDIUse=1 WtCom= 1.00D+00 WtEn= 0.00D+00
 Coeff-Com:  0.114D-03-0.193D-02 0.325D-01 0.417D-01 0.292D+00 0.636D+00
 Coeff:      0.114D-03-0.193D-02 0.325D-01 0.417D-01 0.292D+00 0.636D+00
 Gap=     0.208 Goal=   None    Shift=    0.000
 RMSDP=2.44D-06 MaxDP=4.64D-04 DE=-2.46D-05 OVMax= 3.87D-04

 Initial convergence to 1.0D-05 achieved.  Increase integral accuracy.
 Cycle   7  Pass 1  IDiag  1:
 E= -5017.21703173753     Delta-E=       -0.000556582632 Rises=F Damp=F
 DIIS: error= 3.26D-05 at cycle   1 NSaved=   1.
 NSaved= 1 IEnMin= 1 EnMin= -5017.21703173753     IErMin= 1 ErrMin= 3.26D-05
 ErrMax= 3.26D-05  0.00D+00 EMaxC= 1.00D-01 BMatC= 1.49D-06 BMatP= 1.49D-06
 IDIUse=1 WtCom= 1.00D+00 WtEn= 0.00D+00
 Coeff-Com:  0.100D+01
 Coeff:      0.100D+01
 Gap=     0.208 Goal=   None    Shift=    0.000
 RMSDP=2.44D-06 MaxDP=4.64D-04 DE=-5.57D-04 OVMax= 2.24D-04

 Cycle   8  Pass 1  IDiag  1:
 RMSU=  4.63D-06    CP:  1.00D+00
 E= -5017.21703317218     Delta-E=       -0.000001434651 Rises=F Damp=F
 DIIS: error= 1.59D-05 at cycle   2 NSaved=   2.
 NSaved= 2 IEnMin= 2 EnMin= -5017.21703317218     IErMin= 2 ErrMin= 1.59D-05
 ErrMax= 1.59D-05  0.00D+00 EMaxC= 1.00D-01 BMatC= 2.87D-07 BMatP= 1.49D-06
 IDIUse=1 WtCom= 1.00D+00 WtEn= 0.00D+00
 Coeff-Com:  0.219D+00 0.781D+00
 Coeff:      0.219D+00 0.781D+00
 Gap=     0.208 Goal=   None    Shift=    0.000
 RMSDP=7.79D-07 MaxDP=7.48D-05 DE=-1.43D-06 OVMax= 7.70D-05

 Cycle   9  Pass 1  IDiag  1:
 RMSU=  7.78D-07    CP:  1.00D+00  9.97D-01
 E= -5017.21703323109     Delta-E=       -0.000000058910 Rises=F Damp=F
 DIIS: error= 1.34D-05 at cycle   3 NSaved=   3.
 NSaved= 3 IEnMin= 3 EnMin= -5017.21703323109     IErMin= 3 ErrMin= 1.34D-05
 ErrMax= 1.34D-05  0.00D+00 EMaxC= 1.00D-01 BMatC= 2.09D-07 BMatP= 2.87D-07
 IDIUse=1 WtCom= 1.00D+00 WtEn= 0.00D+00
 Coeff-Com: -0.951D-02 0.461D+00 0.548D+00
 Coeff:     -0.951D-02 0.461D+00 0.548D+00
 Gap=     0.208 Goal=   None    Shift=    0.000
 RMSDP=3.63D-07 MaxDP=3.54D-05 DE=-5.89D-08 OVMax= 3.87D-05

 Cycle  10  Pass 1  IDiag  1:
 RMSU=  9.32D-08    CP:  1.00D+00  1.02D+00  5.65D-01
 E= -5017.21703337971     Delta-E=       -0.000000148617 Rises=F Damp=F
 DIIS: error= 6.29D-07 at cycle   4 NSaved=   4.
 NSaved= 4 IEnMin= 4 EnMin= -5017.21703337971     IErMin= 4 ErrMin= 6.29D-07
 ErrMax= 6.29D-07  0.00D+00 EMaxC= 1.00D-01 BMatC= 9.20D-10 BMatP= 2.09D-07
 IDIUse=1 WtCom= 1.00D+00 WtEn= 0.00D+00
 Coeff-Com: -0.561D-02 0.198D+00 0.242D+00 0.566D+00
 Coeff:     -0.561D-02 0.198D+00 0.242D+00 0.566D+00
 Gap=     0.208 Goal=   None    Shift=    0.000
 RMSDP=3.33D-08 MaxDP=4.53D-06 DE=-1.49D-07 OVMax= 3.79D-06

 Cycle  11  Pass 1  IDiag  1:
 RMSU=  2.95D-08    CP:  1.00D+00  1.02D+00  5.71D-01  8.47D-01
 E= -5017.21703338038     Delta-E=       -0.000000000671 Rises=F Damp=F
 DIIS: error= 1.80D-07 at cycle   5 NSaved=   5.
 NSaved= 5 IEnMin= 5 EnMin= -5017.21703338038     IErMin= 5 ErrMin= 1.80D-07
 ErrMax= 1.80D-07  0.00D+00 EMaxC= 1.00D-01 BMatC= 8.65D-11 BMatP= 9.20D-10
 IDIUse=1 WtCom= 1.00D+00 WtEn= 0.00D+00
 Coeff-Com: -0.132D-02 0.315D-01 0.401D-01 0.248D+00 0.681D+00
 Coeff:     -0.132D-02 0.315D-01 0.401D-01 0.248D+00 0.681D+00
 Gap=     0.208 Goal=   None    Shift=    0.000
 RMSDP=9.69D-09 MaxDP=1.17D-06 DE=-6.71D-10 OVMax= 1.10D-06

 Cycle  12  Pass 1  IDiag  1:
 RMSU=  7.47D-09    CP:  1.00D+00  1.02D+00  5.71D-01  8.99D-01  8.85D-01
 E= -5017.21703338045     Delta-E=       -0.000000000076 Rises=F Damp=F
 DIIS: error= 5.21D-08 at cycle   6 NSaved=   6.
 NSaved= 6 IEnMin= 6 EnMin= -5017.21703338045     IErMin= 6 ErrMin= 5.21D-08
 ErrMax= 5.21D-08  0.00D+00 EMaxC= 1.00D-01 BMatC= 4.58D-12 BMatP= 8.65D-11
 IDIUse=1 WtCom= 1.00D+00 WtEn= 0.00D+00
 Coeff-Com:  0.142D-03-0.967D-02-0.112D-01 0.260D-01 0.231D+00 0.764D+00
 Coeff:      0.142D-03-0.967D-02-0.112D-01 0.260D-01 0.231D+00 0.764D+00
 Gap=     0.208 Goal=   None    Shift=    0.000
 RMSDP=2.99D-09 MaxDP=5.49D-07 DE=-7.64D-11 OVMax= 5.26D-07

 SCF Done:  E(RPBE1PBE) =  -5017.21703338     A.U. after   12 cycles
            NFock= 12  Conv=0.30D-08     -V/T= 2.0027
 KE= 5.003518724799D+03 PE=-2.430335212708D+04 EE= 8.113738851519D+03
 Leave Link  502 at Thu May  3 09:58:32 2018, MaxMem= 14763950080 cpu:      9929.2
 (Enter /cm/shared/gaussian/g09.e01/intel64-sandybridge/g09/l601.exe)
 Copying SCF densities to generalized density rwf, IOpCl= 0 IROHF=0.

 **********************************************************************

            Population analysis using the SCF density.

 **********************************************************************

 Alpha  occ. eigenvalues -- -483.16833 -62.57172 -56.34420 -56.34400 -56.34376
 Alpha  occ. eigenvalues --  -19.19279 -19.17966 -19.17671 -19.17094 -19.15899
 Alpha  occ. eigenvalues --  -19.15848 -19.15621 -19.14622 -19.14569 -19.14522
 Alpha  occ. eigenvalues --  -19.14434 -19.14221 -19.14206 -19.14016 -19.13750
 Alpha  occ. eigenvalues --  -19.13314 -19.12883 -19.12539 -19.11786 -19.11766
 Alpha  occ. eigenvalues --  -19.11230 -19.10912 -19.10726 -19.10163 -19.08671
 Alpha  occ. eigenvalues --  -19.08489 -19.08324 -19.08135 -19.07931 -19.07527
 Alpha  occ. eigenvalues --  -19.06435 -19.04588  -8.67542  -6.47960  -6.47844
 Alpha  occ. eigenvalues --   -6.47753  -2.56233  -2.56217  -2.56142  -2.56044
 Alpha  occ. eigenvalues --   -2.56037  -1.01421  -1.01074  -1.00635  -1.00004
 Alpha  occ. eigenvalues --   -0.99123  -0.98202  -0.98097  -0.97632  -0.97119
 Alpha  occ. eigenvalues --   -0.97073  -0.97012  -0.96788  -0.96729  -0.96509
 Alpha  occ. eigenvalues --   -0.96219  -0.96084  -0.95710  -0.95576  -0.94436
 Alpha  occ. eigenvalues --   -0.94186  -0.93937  -0.93437  -0.93237  -0.92463
 Alpha  occ. eigenvalues --   -0.91352  -0.91298  -0.91230  -0.90868  -0.90411
 Alpha  occ. eigenvalues --   -0.90255  -0.89309  -0.87312  -0.67468  -0.52451
 Alpha  occ. eigenvalues --   -0.52360  -0.52105  -0.50733  -0.49765  -0.48537
 Alpha  occ. eigenvalues --   -0.48449  -0.48152  -0.47810  -0.47768  -0.47695
 Alpha  occ. eigenvalues --   -0.47644  -0.47323  -0.47219  -0.46937  -0.46528
 Alpha  occ. eigenvalues --   -0.46440  -0.45978  -0.45586  -0.45077  -0.44554
 Alpha  occ. eigenvalues --   -0.44346  -0.43806  -0.43163  -0.42809  -0.42789
 Alpha  occ. eigenvalues --   -0.42591  -0.42311  -0.41815  -0.41592  -0.40351
 Alpha  occ. eigenvalues --   -0.40068  -0.38504  -0.38141  -0.37936  -0.37233
 Alpha  occ. eigenvalues --   -0.36219  -0.35688  -0.35430  -0.34941  -0.33794
 Alpha  occ. eigenvalues --   -0.33571  -0.33539  -0.33366  -0.33300  -0.33060
 Alpha  occ. eigenvalues --   -0.32482  -0.32264  -0.32140  -0.31540  -0.31272
 Alpha  occ. eigenvalues --   -0.31076  -0.30306  -0.29783  -0.29575  -0.29282
 Alpha  occ. eigenvalues --   -0.28919  -0.28843  -0.28135  -0.27758  -0.27708
 Alpha  occ. eigenvalues --   -0.27587  -0.27370  -0.27032  -0.26903  -0.26717
 Alpha  occ. eigenvalues --   -0.26213  -0.26135  -0.25961  -0.25791  -0.25507
 Alpha  occ. eigenvalues --   -0.25324  -0.25290  -0.25237  -0.25101  -0.24551
 Alpha  occ. eigenvalues --   -0.24490  -0.24253  -0.24070  -0.23769  -0.23755
 Alpha  occ. eigenvalues --   -0.23253  -0.22967  -0.22766  -0.22390  -0.22151
 Alpha  occ. eigenvalues --   -0.21890  -0.21415  -0.21045  -0.20781  -0.20352
 Alpha  occ. eigenvalues --   -0.19891  -0.19585  -0.19554  -0.19105  -0.18646
 Alpha  occ. eigenvalues --   -0.18581  -0.17519  -0.15820
 Alpha virt. eigenvalues --    0.04963   0.07212   0.09635   0.09899   0.10999
 Alpha virt. eigenvalues --    0.11715   0.12022   0.12610   0.14278   0.14474
 Alpha virt. eigenvalues --    0.15516   0.15700   0.15997   0.16778   0.17243
 Alpha virt. eigenvalues --    0.17589   0.17771   0.18482   0.18911   0.19128
 Alpha virt. eigenvalues --    0.20033   0.20233   0.20438   0.20740   0.21135
 Alpha virt. eigenvalues --    0.21364   0.21532   0.22275   0.22658   0.23419
 Alpha virt. eigenvalues --    0.23584   0.23717   0.24080   0.24795   0.25074
 Alpha virt. eigenvalues --    0.25318   0.26290   0.26706   0.26894   0.27853
 Alpha virt. eigenvalues --    0.28155   0.28969   0.29009   0.29421   0.30099
 Alpha virt. eigenvalues --    0.30389   0.31130   0.31650   0.31796   0.32195
 Alpha virt. eigenvalues --    0.32553   0.32933   0.33295   0.33678   0.34556
 Alpha virt. eigenvalues --    0.35495   0.36065   0.36579   0.37066   0.37182
 Alpha virt. eigenvalues --    0.38312   0.38518   0.38952   0.39702   0.57750
 Alpha virt. eigenvalues --    0.58257   0.58915   0.59365   0.60003   0.60854
 Alpha virt. eigenvalues --    0.61132   0.61346   0.61746   0.61900   0.62150
 Alpha virt. eigenvalues --    0.62693   0.62953   0.63361   0.63660   0.64166
 Alpha virt. eigenvalues --    0.64518   0.64614   0.64911   0.65166   0.65488
 Alpha virt. eigenvalues --    0.65812   0.66521   0.66833   0.67585   0.67634
 Alpha virt. eigenvalues --    0.67853   0.68112   0.68238   0.68501   0.68574
 Alpha virt. eigenvalues --    0.69023   0.69342   0.69642   0.69997   0.70368
 Alpha virt. eigenvalues --    0.70644   0.71011   0.71334   0.71702   0.72244
 Alpha virt. eigenvalues --    0.72328   0.72483   0.72992   0.73414   0.73995
 Alpha virt. eigenvalues --    0.74031   0.74550   0.74749   0.75118   0.75290
 Alpha virt. eigenvalues --    0.75428   0.76304   0.76503   0.76656   0.76870
 Alpha virt. eigenvalues --    0.77342   0.78101   0.78800   0.79021   0.79575
 Alpha virt. eigenvalues --    0.80030   0.80444   0.81342   0.81826   0.82765
 Alpha virt. eigenvalues --    0.83873   0.84294   0.85316   0.85962   0.86410
 Alpha virt. eigenvalues --    0.90035   0.91570   0.92897   0.93422   0.94248
 Alpha virt. eigenvalues --    0.94720   0.94934   0.95348   0.95984   0.96320
 Alpha virt. eigenvalues --    0.96501   0.96679   0.97675   0.98025   0.98368
 Alpha virt. eigenvalues --    0.98423   0.98896   0.99573   0.99731   1.00259
 Alpha virt. eigenvalues --    1.00915   1.01080   1.01866   1.02489   1.02682
 Alpha virt. eigenvalues --    1.02840   1.03385   1.03664   1.04100   1.04444
 Alpha virt. eigenvalues --    1.04857   1.05169   1.05367   1.05502   1.05791
 Alpha virt. eigenvalues --    1.06073   1.06655   1.06719   1.07067   1.07511
 Alpha virt. eigenvalues --    1.07624   1.07819   1.08098   1.08437   1.08927
 Alpha virt. eigenvalues --    1.09215   1.09432   1.09679   1.10241   1.10525
 Alpha virt. eigenvalues --    1.10597   1.10918   1.11374   1.11532   1.11841
 Alpha virt. eigenvalues --    1.12329   1.12631   1.12760   1.12812   1.13048
 Alpha virt. eigenvalues --    1.13390   1.13897   1.14053   1.14236   1.14393
 Alpha virt. eigenvalues --    1.14759   1.15047   1.15320   1.15812   1.16216
 Alpha virt. eigenvalues --    1.16379   1.16496   1.17090   1.17440   1.17642
 Alpha virt. eigenvalues --    1.17802   1.18063   1.18576   1.18948   1.19222
 Alpha virt. eigenvalues --    1.19394   1.20066   1.20513   1.20720   1.21431
 Alpha virt. eigenvalues --    1.21852   1.22258   1.22706   1.23021   1.23339
 Alpha virt. eigenvalues --    1.23623   1.24420   1.25019   1.25467   1.26022
 Alpha virt. eigenvalues --    1.26606   1.26850   1.27451   1.27946   1.28094
 Alpha virt. eigenvalues --    1.28772   1.29009   1.29251   1.29689   1.29939
 Alpha virt. eigenvalues --    1.30120   1.30634   1.30821   1.31227   1.31603
 Alpha virt. eigenvalues --    1.31940   1.32119   1.32351   1.32721   1.33031
 Alpha virt. eigenvalues --    1.33363   1.33633   1.33669   1.34210   1.34404
 Alpha virt. eigenvalues --    1.34502   1.35067   1.35369   1.35670   1.35924
 Alpha virt. eigenvalues --    1.36216   1.36463   1.36673   1.36925   1.37358
 Alpha virt. eigenvalues --    1.37642   1.37929   1.38015   1.38309   1.38435
 Alpha virt. eigenvalues --    1.38512   1.38816   1.39037   1.39389   1.39876
 Alpha virt. eigenvalues --    1.40559   1.40588   1.41116   1.41504   1.41890
 Alpha virt. eigenvalues --    1.42463   1.42765   1.43326   1.43614   1.43762
 Alpha virt. eigenvalues --    1.44693   1.45832   1.45952   1.46132   1.46683
 Alpha virt. eigenvalues --    1.47190   1.47626   1.48196   1.48658   1.49436
 Alpha virt. eigenvalues --    1.49725   1.50799   1.50872   1.51717   1.52108
 Alpha virt. eigenvalues --    1.52198   1.52466   1.52946   1.53392   1.53423
 Alpha virt. eigenvalues --    1.53772   1.54187   1.54599   1.55247   1.55383
 Alpha virt. eigenvalues --    1.55644   1.56047   1.57515   1.57689   1.58635
 Alpha virt. eigenvalues --    1.58845   1.58952   1.60082   1.60354   1.60728
 Alpha virt. eigenvalues --    1.61344   1.61838   1.62214   1.62527   1.63247
 Alpha virt. eigenvalues --    1.63925   1.64275   1.65158   1.65575   1.66587
 Alpha virt. eigenvalues --    1.67733   1.68601   1.69908   1.70482   1.71266
 Alpha virt. eigenvalues --    1.71966   1.73473   1.73649   1.73839   1.74239
 Alpha virt. eigenvalues --    1.74330   1.74694   1.75080   1.75568   1.75656
 Alpha virt. eigenvalues --    1.75846   1.76480   1.76787   1.77387   1.78305
 Alpha virt. eigenvalues --    1.78624   1.78817   1.79374   1.79690   1.79830
 Alpha virt. eigenvalues --    1.80687   1.81192   1.81469   1.81624   1.82220
 Alpha virt. eigenvalues --    1.82528   1.83335   1.83549   1.84308   1.84446
 Alpha virt. eigenvalues --    1.84708   1.85785   1.85999   1.86146   1.87780
 Alpha virt. eigenvalues --    1.87866   1.89056   1.89278   1.89407   1.90091
 Alpha virt. eigenvalues --    1.90726   1.91800   1.92262   1.92790   1.93076
 Alpha virt. eigenvalues --    1.93597   1.93711   1.94040   1.94526   1.95749
 Alpha virt. eigenvalues --    1.96339   1.96810   1.99335   1.99756   2.02164
 Alpha virt. eigenvalues --    2.02502   2.04955   2.05900   2.15949   2.18853
 Alpha virt. eigenvalues --    2.19568   2.19817   2.20625   2.20665   2.21143
 Alpha virt. eigenvalues --    2.21323   2.21910   2.22453   2.22580   2.22680
 Alpha virt. eigenvalues --    2.22957   2.23326   2.23644   2.23885   2.23991
 Alpha virt. eigenvalues --    2.24129   2.24480   2.24868   2.25058   2.25181
 Alpha virt. eigenvalues --    2.25578   2.25913   2.26320   2.26628   2.26808
 Alpha virt. eigenvalues --    2.27100   2.27301   2.28138   2.28506   2.28694
 Alpha virt. eigenvalues --    2.28907   2.29065   2.29565   2.29677   2.30700
 Alpha virt. eigenvalues --    2.31225   2.32370   2.32741   2.32777   2.35081
 Alpha virt. eigenvalues --    2.36381   2.37636   2.38147   2.39263   2.41561
 Alpha virt. eigenvalues --    2.42080   2.42962   2.43592   2.44343   2.44968
 Alpha virt. eigenvalues --    2.49537   2.51557   2.51866   2.54017   2.54392
 Alpha virt. eigenvalues --    2.56961   2.59600   2.60494   2.61357   2.61481
 Alpha virt. eigenvalues --    2.66125   2.67820   2.94074   2.95004   2.96022
 Alpha virt. eigenvalues --    2.96454   2.97602   2.98452   2.98557   2.98567
 Alpha virt. eigenvalues --    2.98853   2.98908   2.99281   2.99599   2.99923
 Alpha virt. eigenvalues --    3.00011   3.00662   3.00883   3.00967   3.01084
 Alpha virt. eigenvalues --    3.01169   3.01568   3.02002   3.02317   3.02402
 Alpha virt. eigenvalues --    3.02504   3.02797   3.02907   3.03091   3.03263
 Alpha virt. eigenvalues --    3.03317   3.03365   3.03648   3.03724   3.04060
 Alpha virt. eigenvalues --    3.04387   3.04705   3.05260   3.05395   3.05486
 Alpha virt. eigenvalues --    3.05978   3.06104   3.06235   3.06295   3.06941
 Alpha virt. eigenvalues --    3.07114   3.07636   3.07967   3.08122   3.08287
 Alpha virt. eigenvalues --    3.08333   3.08451   3.08720   3.08817   3.09052
 Alpha virt. eigenvalues --    3.09305   3.10009   3.10109   3.10321   3.10879
 Alpha virt. eigenvalues --    3.12585   3.12596   3.12740   3.13348   3.13379
 Alpha virt. eigenvalues --    3.14904   3.16557   3.17928   3.18126   3.19974
 Alpha virt. eigenvalues --    3.20150   3.20195   3.21292   3.21772   3.21859
 Alpha virt. eigenvalues --    3.22147   3.22316   3.22473   3.22965   3.23334
 Alpha virt. eigenvalues --    3.23890   3.24914   3.25093   3.25172   3.25325
 Alpha virt. eigenvalues --    3.25668   3.25909   3.26055   3.26231   3.26907
 Alpha virt. eigenvalues --    3.27225   3.27379   3.27735   3.27912   3.29064
 Alpha virt. eigenvalues --    3.30741   3.31662   3.31749   3.52729   3.53661
 Alpha virt. eigenvalues --    3.54582   3.56103   3.56257   3.56869   3.57885
 Alpha virt. eigenvalues --    3.58100   3.58526   3.59172   3.59675   3.59796
 Alpha virt. eigenvalues --    3.60297   3.60477   3.61056   3.61761   3.62403
 Alpha virt. eigenvalues --    3.62701   3.62913   3.63017   3.63171   3.63699
 Alpha virt. eigenvalues --    3.64639   3.65313   3.65826   3.66363   3.67580
 Alpha virt. eigenvalues --    3.67734   3.68518   3.69763   3.71286   3.73268
 Alpha virt. eigenvalues --    3.81203   3.82819   3.83128   3.84940   3.85179
 Alpha virt. eigenvalues --    3.86402   3.87051   3.87220   3.87551   3.87733
 Alpha virt. eigenvalues --    3.87960   3.88543   3.89344   3.89537   3.89830
 Alpha virt. eigenvalues --    3.90456   3.90768   3.91238   3.91924   3.92213
 Alpha virt. eigenvalues --    3.92780   3.93757   3.94121   3.94428   3.94767
 Alpha virt. eigenvalues --    3.94962   3.95897   3.96207   3.97506   4.00171
 Alpha virt. eigenvalues --    4.01866   4.04262
          Condensed to atoms (all electrons):
 Mulliken charges:
               1
     1  Br  -0.711473
     2  O   -0.257265
     3  H    0.138045
     4  H    0.158184
     5  O   -0.276645
     6  H    0.146015
     7  H    0.118258
     8  O   -0.282365
     9  H    0.140675
    10  H    0.145952
    11  O   -0.274408
    12  H    0.130152
    13  H    0.169276
    14  O   -0.265317
    15  H    0.159596
    16  H    0.149930
    17  O   -0.262099
    18  H    0.127172
    19  H    0.126342
    20  O   -0.208220
    21  H    0.120636
    22  H    0.114105
    23  O   -0.256203
    24  H    0.128662
    25  H    0.136252
    26  O   -0.258427
    27  H    0.155040
    28  H    0.128956
    29  O   -0.282076
    30  H    0.136715
    31  H    0.136552
    32  O   -0.268892
    33  H    0.125709
    34  H    0.126234
    35  O   -0.228362
    36  H    0.141333
    37  H    0.134781
    38  O   -0.299634
    39  H    0.133718
    40  H    0.112956
    41  O   -0.269583
    42  H    0.104551
    43  H    0.122077
    44  O   -0.276833
    45  H    0.135493
    46  H    0.113739
    47  O   -0.310658
    48  H    0.128732
    49  H    0.133374
    50  O   -0.243063
    51  H    0.138128
    52  H    0.137231
    53  O   -0.231000
    54  H    0.158733
    55  H    0.149206
    56  O   -0.303338
    57  H    0.135410
    58  H    0.111516
    59  O   -0.316710
    60  H    0.122078
    61  H    0.141561
    62  O   -0.303075
    63  H    0.134693
    64  H    0.123254
    65  O   -0.280673
    66  H    0.118269
    67  H    0.128131
    68  O   -0.287734
    69  H    0.132219
    70  H    0.113037
    71  O   -0.272531
    72  H    0.130893
    73  H    0.141730
    74  O   -0.292831
    75  H    0.125823
    76  H    0.129694
    77  O   -0.303368
    78  H    0.134742
    79  H    0.109287
    80  O   -0.336548
    81  H    0.144370
    82  H    0.123001
    83  O   -0.301816
    84  H    0.132265
    85  H    0.123975
    86  O   -0.305972
    87  H    0.136940
    88  H    0.139303
    89  O   -0.260232
    90  H    0.109986
    91  H    0.104601
    92  O   -0.222892
    93  H    0.146761
    94  H    0.143908
    95  O   -0.236882
    96  H    0.152642
    97  H    0.134527
 Sum of Mulliken charges =  -1.00000
 Mulliken charges with hydrogens summed into heavy atoms:
               1
     1  Br  -0.711473
     2  O    0.038964
     5  O   -0.012373
     8  O    0.004262
    11  O    0.025020
    14  O    0.044208
    17  O   -0.008584
    20  O    0.026522
    23  O    0.008712
    26  O    0.025569
    29  O   -0.008809
    32  O   -0.016949
    35  O    0.047752
    38  O   -0.052959
    41  O   -0.042955
    44  O   -0.027601
    47  O   -0.048552
    50  O    0.032296
    53  O    0.076939
    56  O   -0.056412
    59  O   -0.053072
    62  O   -0.045128
    65  O   -0.034274
    68  O   -0.042479
    71  O    0.000092
    74  O   -0.037313
    77  O   -0.059338
    80  O   -0.069177
    83  O   -0.045577
    86  O   -0.029729
    89  O   -0.045645
    92  O    0.067777
    95  O    0.050287
         Mulliken charges condensed to fragments:
      1     -0.711473
      2     -0.288527
 Electronic spatial extent (au):  <R**2>=        1557057.0068
 Charge=             -1.0000 electrons
 Dipole moment (field-independent basis, Debye):
    X=            -94.8991    Y=            -87.6166    Z=           -103.4784  Tot=            165.5001
 Quadrupole moment (field-independent basis, Debye-Ang):
   XX=          -2208.0586   YY=          -1868.6812   ZZ=          -2478.8918
   XY=          -1690.2701   XZ=          -2036.7301   YZ=          -1925.5978
 Traceless Quadrupole moment (field-independent basis, Debye-Ang):
   XX=            -22.8481   YY=            316.5293   ZZ=           -293.6812
   XY=          -1690.2701   XZ=          -2036.7301   YZ=          -1925.5978
 Octapole moment (field-independent basis, Debye-Ang**2):
  XXX=         -56829.5483  YYY=         -45312.2541  ZZZ=         -63075.9263  XYY=         -35435.0687
  XXY=         -38929.2689  XXZ=         -47048.4423  XZZ=         -48680.9008  YZZ=         -47150.7480
  YYZ=         -41399.3514  XYZ=         -37043.6966
 Hexadecapole moment (field-independent basis, Debye-Ang**3):
 XXXX=       -1530239.9341 YYYY=       -1185997.8050 ZZZZ=       -1648511.8477 XXXY=       -1003138.5814
 XXXZ=       -1202957.0048 YYYX=        -853392.4122 YYYZ=        -999867.7911 ZZZX=       -1238241.9778
 ZZZY=       -1222031.3451 XXYY=        -795124.7285 XXZZ=       -1104897.2336 YYZZ=       -1015018.1160
 XXYZ=        -845006.3978 YYXZ=        -783370.4691 ZZXY=        -907767.0647
 N-N= 6.168877517378D+03 E-N=-2.430335216936D+04  KE= 5.003518724799D+03
 No NMR shielding tensors so no spin-rotation constants.
 Leave Link  601 at Thu May  3 09:58:33 2018, MaxMem= 14763950080 cpu:        70.7
 (Enter /cm/shared/gaussian/g09.e01/intel64-sandybridge/g09/l701.exe)
 Compute integral first derivatives.
 ... and contract with generalized density number  0.
 Leave Link  701 at Thu May  3 09:58:35 2018, MaxMem= 14763950080 cpu:       152.3
 (Enter /cm/shared/gaussian/g09.e01/intel64-sandybridge/g09/l702.exe)
 L702 exits ... SP integral derivatives will be done elsewhere.
 Leave Link  702 at Thu May  3 09:58:35 2018, MaxMem= 14763950080 cpu:         2.7
 (Enter /cm/shared/gaussian/g09.e01/intel64-sandybridge/g09/l703.exe)
 Compute integral first derivatives, UseDBF=F ICtDFT=           0.
 Integral derivatives from FoFJK, PRISM(SPDF).
 Calling FoFJK, ICntrl=      2127 FMM=T ISym2X=0 I1Cent= 0 IOpClX= 0 NMat=1 NMatS=1 NMatT=0.
 FoFJK:  IHMeth= 1 ICntrl=    2127 DoSepK=F KAlg= 0 I1Cent=   0 FoldK=F
 IRaf=         0 NMat=   1 IRICut=       1 DoRegI=T DoRafI=F ISym2E= 0.
 FoFCou: FMM=T IPFlag=           0 FMFlag=      100000 FMFlg1=        2001
         NFxFlg=           0 DoJE=F BraDBF=F KetDBF=F FulRan=T
         wScrn=  0.000000 ICntrl=    2127 IOpCl=  0 I1Cent=           0 NGrid=           0
         NMat0=    1 NMatS0=      1 NMatT0=    0 NMatD0=    1 NMtDS0=    0 NMtDT0=    0
 Symmetry not used in FoFCou.
 FMM levels:  10  Number of levels for PrismC:   9
 Leave Link  703 at Thu May  3 09:58:54 2018, MaxMem= 14763950080 cpu:      1164.0
 (Enter /cm/shared/gaussian/g09.e01/intel64-sandybridge/g09/l716.exe)
 Dipole        =-3.73361970D+01-3.44710319D+01-4.07115412D+01
 Cartesian Forces:  Max     0.032045506 RMS     0.009709445
 Leave Link  716 at Thu May  3 09:58:54 2018, MaxMem= 14763950080 cpu:         4.6
 (Enter /cm/shared/gaussian/g09.e01/intel64-sandybridge/g09/l122.exe)
 CPIOFr:  IOpCl= 0 IRwI=-1 IRwCP=  731 ICalc= -1 LCPTot=     1005244 Len1MO=     2550559 IndFrg=     1005244
 CPIOFr:  IOpCl= 0 IRwI=-1 IRwCP=  731 ICalc=  0 LCPTot=     1005244 Len1MO=     2550559 IndFrg=     3555803
 Counterpoise: doing DCBS calculation for fragment   1 NewBq=T
 Leave Link  122 at Thu May  3 09:58:54 2018, MaxMem= 14763950080 cpu:         9.2
 (Enter /cm/shared/gaussian/g09.e01/intel64-sandybridge/g09/l301.exe)
 Basis read from rwf:  (5D, 7F)
 No pseudopotential information found on rwf file.
   795 basis functions,  1651 primitive gaussians,   829 cartesian basis functions
    18 alpha electrons       18 beta electrons
       nuclear repulsion energy         0.0000000000 Hartrees.
 IExCor= 1009 DFT=T Ex+Corr=PBE1PBE ExCW=0 ScaHFX=  0.250000
 ScaDFX=  0.750000  0.750000  1.000000  1.000000 ScalE2=  1.000000  1.000000
 IRadAn=      0 IRanWt=     -1 IRanGd=            0 ICorTp=0 IEmpDi=  4
 NAtoms=   97 NActive=   97 NUniq=   97 SFac= 1.00D+00 NAtFMM=   60 NAOKFM=T Big=T
 Integral buffers will be    131072 words long.
 Raffenetti 2 integral format.
 Two-electron integral symmetry is turned off.
 No density basis found on file   718.
 Leave Link  301 at Thu May  3 09:58:54 2018, MaxMem= 14763950080 cpu:         7.0
 (Enter /cm/shared/gaussian/g09.e01/intel64-sandybridge/g09/l302.exe)
 NPDir=0 NMtPBC=     1 NCelOv=     1 NCel=       1 NClECP=     1 NCelD=      1
         NCelK=      1 NCelE2=     1 NClLst=     1 CellRange=     0.0.
 One-electron integrals computed using PRISM.
 NBasis=   795 RedAO= T EigKep=  1.27D-02  NBF=   795
 NBsUse=   795 1.00D-06 EigRej= -1.00D+00 NBFU=   795
 Precomputing XC quadrature grid using
 IXCGrd= 4 IRadAn=           0 IRanWt=          -1 IRanGd=           0 AccXCQ= 0.00D+00.
 Generated NRdTot=       0 NPtTot=           0 NUsed=           0 NTot=          32
 NSgBfM=   698   702   719   735   742 MxSgAt=    97 MxSgA2=    97.
 Leave Link  302 at Thu May  3 09:58:59 2018, MaxMem= 14763950080 cpu:       270.3
 (Enter /cm/shared/gaussian/g09.e01/intel64-sandybridge/g09/l303.exe)
 DipDrv:  MaxL=1.
 Leave Link  303 at Thu May  3 09:59:00 2018, MaxMem= 14763950080 cpu:        86.5
 (Enter /cm/shared/gaussian/g09.e01/intel64-sandybridge/g09/l401.exe)
 ExpMin= 1.22D-01 ExpMax= 6.40D+05 ExpMxC= 6.18D+03 IAcc=2 IRadAn=         4 AccDes= 0.00D+00
 Harris functional with IExCor= 1009 and IRadAn=       4 diagonalized for initial guess.
 HarFok:  IExCor= 1009 AccDes= 0.00D+00 IRadAn=         4 IDoV= 1 UseB2=F ITyADJ=14
 ICtDFT=  3500011 ScaDFX=  1.000000  1.000000  1.000000  1.000000
 FoFCou: FMM=F IPFlag=           0 FMFlag=      100000 FMFlg1=        2001
         NFxFlg=           0 DoJE=T BraDBF=F KetDBF=T FulRan=T
         wScrn=  0.000000 ICntrl=     500 IOpCl=  0 I1Cent=   200000004 NGrid=           0
         NMat0=    1 NMatS0=      1 NMatT0=    0 NMatD0=    1 NMtDS0=    0 NMtDT0=    0
 Symmetry not used in FoFCou.
 Harris En= -2574.01978243201    
 JPrj=0 DoOrth=F DoCkMO=F.
 Leave Link  401 at Thu May  3 09:59:05 2018, MaxMem= 14763950080 cpu:       288.8
 (Enter /cm/shared/gaussian/g09.e01/intel64-sandybridge/g09/l502.exe)
 Closed shell SCF:
 Using DIIS extrapolation, IDIIS=  1040.
 Two-electron integral symmetry not used.
 IVT=     2138497 IEndB=     2138497 NGot= 14763950080 MDV= 14762516294
 LenX= 14762516294 LenY= 14761828224
 Requested convergence on RMS density matrix=1.00D-08 within 128 cycles.
 Requested convergence on MAX density matrix=1.00D-06.
 Requested convergence on             energy=1.00D-06.
 No special actions if energy rises.
 Fock matrices will be formed incrementally for  20 cycles.
 Integral accuracy reduced to 1.0D-05 until final iterations.

 Cycle   1  Pass 0  IDiag  1:
 FoFJK:  IHMeth= 1 ICntrl=       0 DoSepK=F KAlg= 0 I1Cent=   0 FoldK=F
 IRaf= 840000000 NMat=   1 IRICut=       1 DoRegI=T DoRafI=F ISym2E= 0.
 FoFCou: FMM=T IPFlag=           0 FMFlag=      100000 FMFlg1=        2001
         NFxFlg=           0 DoJE=F BraDBF=F KetDBF=F FulRan=T
         wScrn=  0.000000 ICntrl=       0 IOpCl=  0 I1Cent=           0 NGrid=           0
         NMat0=    1 NMatS0=      1 NMatT0=    0 NMatD0=    1 NMtDS0=    0 NMtDT0=    0
 Symmetry not used in FoFCou.
 FMM levels:  10  Number of levels for PrismC:   9
 E= -2573.87908233806    
 DIIS: error= 9.94D-03 at cycle   1 NSaved=   1.
 NSaved= 1 IEnMin= 1 EnMin= -2573.87908233806     IErMin= 1 ErrMin= 9.94D-03
 ErrMax= 9.94D-03  0.00D+00 EMaxC= 1.00D-01 BMatC= 3.84D-02 BMatP= 3.84D-02
 IDIUse=3 WtCom= 9.01D-01 WtEn= 9.94D-02
 Coeff-Com:  0.100D+01
 Coeff-En:   0.100D+01
 Coeff:      0.100D+01
 Gap=     0.181 Goal=   None    Shift=    0.000
 GapD=    0.181 DampG=1.000 DampE=1.000 DampFc=1.0000 IDamp=-1.
 RMSDP=4.65D-04 MaxDP=6.76D-02              OVMax= 1.50D-01

 Cycle   2  Pass 0  IDiag  1:
 RMSU=  4.61D-04    CP:  9.89D-01
 E= -2573.90067906097     Delta-E=       -0.021596722906 Rises=F Damp=F
 DIIS: error= 3.29D-03 at cycle   2 NSaved=   2.
 NSaved= 2 IEnMin= 2 EnMin= -2573.90067906097     IErMin= 2 ErrMin= 3.29D-03
 ErrMax= 3.29D-03  0.00D+00 EMaxC= 1.00D-01 BMatC= 7.64D-03 BMatP= 3.84D-02
 IDIUse=3 WtCom= 9.67D-01 WtEn= 3.29D-02
 Coeff-Com:  0.229D+00 0.771D+00
 Coeff-En:   0.487D-01 0.951D+00
 Coeff:      0.223D+00 0.777D+00
 Gap=     0.198 Goal=   None    Shift=    0.000
 RMSDP=2.18D-04 MaxDP=5.36D-02 DE=-2.16D-02 OVMax= 6.99D-02

 Cycle   3  Pass 0  IDiag  1:
 RMSU=  1.51D-04    CP:  9.94D-01  6.65D-01
 E= -2573.90902243084     Delta-E=       -0.008343369875 Rises=F Damp=F
 DIIS: error= 3.17D-03 at cycle   3 NSaved=   3.
 NSaved= 3 IEnMin= 3 EnMin= -2573.90902243084     IErMin= 3 ErrMin= 3.17D-03
 ErrMax= 3.17D-03  0.00D+00 EMaxC= 1.00D-01 BMatC= 2.81D-03 BMatP= 7.64D-03
 IDIUse=3 WtCom= 9.68D-01 WtEn= 3.17D-02
 Coeff-Com:  0.613D-01 0.364D+00 0.575D+00
 Coeff-En:   0.000D+00 0.178D+00 0.822D+00
 Coeff:      0.593D-01 0.358D+00 0.582D+00
 Gap=     0.176 Goal=   None    Shift=    0.000
 RMSDP=7.58D-05 MaxDP=1.87D-02 DE=-8.34D-03 OVMax= 2.31D-02

 Cycle   4  Pass 0  IDiag  1:
 RMSU=  8.54D-06    CP:  9.93D-01  7.65D-01  6.11D-01
 E= -2573.91218280802     Delta-E=       -0.003160377180 Rises=F Damp=F
 DIIS: error= 9.37D-05 at cycle   4 NSaved=   4.
 NSaved= 4 IEnMin= 4 EnMin= -2573.91218280802     IErMin= 4 ErrMin= 9.37D-05
 ErrMax= 9.37D-05  0.00D+00 EMaxC= 1.00D-01 BMatC= 1.53D-06 BMatP= 2.81D-03
 IDIUse=1 WtCom= 1.00D+00 WtEn= 0.00D+00
 Coeff-Com: -0.856D-03 0.120D-01 0.357D-01 0.953D+00
 Coeff:     -0.856D-03 0.120D-01 0.357D-01 0.953D+00
 Gap=     0.177 Goal=   None    Shift=    0.000
 RMSDP=2.40D-06 MaxDP=5.62D-04 DE=-3.16D-03 OVMax= 5.33D-04

 Initial convergence to 1.0D-05 achieved.  Increase integral accuracy.
 Cycle   5  Pass 1  IDiag  1:
 E= -2573.91288756300     Delta-E=       -0.000704754979 Rises=F Damp=F
 DIIS: error= 2.43D-05 at cycle   1 NSaved=   1.
 NSaved= 1 IEnMin= 1 EnMin= -2573.91288756300     IErMin= 1 ErrMin= 2.43D-05
 ErrMax= 2.43D-05  0.00D+00 EMaxC= 1.00D-01 BMatC= 1.47D-07 BMatP= 1.47D-07
 IDIUse=1 WtCom= 1.00D+00 WtEn= 0.00D+00
 Coeff-Com:  0.100D+01
 Coeff:      0.100D+01
 Gap=     0.177 Goal=   None    Shift=    0.000
 RMSDP=2.40D-06 MaxDP=5.62D-04 DE=-7.05D-04 OVMax= 3.90D-04

 Cycle   6  Pass 1  IDiag  1:
 RMSU=  1.68D-06    CP:  1.00D+00
 E= -2573.91288778351     Delta-E=       -0.000000220506 Rises=F Damp=F
 DIIS: error= 1.24D-05 at cycle   2 NSaved=   2.
 NSaved= 2 IEnMin= 2 EnMin= -2573.91288778351     IErMin= 2 ErrMin= 1.24D-05
 ErrMax= 1.24D-05  0.00D+00 EMaxC= 1.00D-01 BMatC= 5.48D-08 BMatP= 1.47D-07
 IDIUse=1 WtCom= 1.00D+00 WtEn= 0.00D+00
 Coeff-Com:  0.344D+00 0.656D+00
 Coeff:      0.344D+00 0.656D+00
 Gap=     0.177 Goal=   None    Shift=    0.000
 RMSDP=4.43D-07 MaxDP=1.12D-04 DE=-2.21D-07 OVMax= 1.45D-04

 Cycle   7  Pass 1  IDiag  1:
 RMSU=  4.20D-07    CP:  1.00D+00  9.22D-01
 E= -2573.91288784705     Delta-E=       -0.000000063539 Rises=F Damp=F
 DIIS: error= 3.98D-06 at cycle   3 NSaved=   3.
 NSaved= 3 IEnMin= 3 EnMin= -2573.91288784705     IErMin= 3 ErrMin= 3.98D-06
 ErrMax= 3.98D-06  0.00D+00 EMaxC= 1.00D-01 BMatC= 5.00D-09 BMatP= 5.48D-08
 IDIUse=1 WtCom= 1.00D+00 WtEn= 0.00D+00
 Coeff-Com: -0.356D-01 0.210D+00 0.826D+00
 Coeff:     -0.356D-01 0.210D+00 0.826D+00
 Gap=     0.177 Goal=   None    Shift=    0.000
 RMSDP=1.17D-07 MaxDP=3.35D-05 DE=-6.35D-08 OVMax= 3.73D-05

 Cycle   8  Pass 1  IDiag  1:
 RMSU=  3.28D-08    CP:  1.00D+00  9.80D-01  8.68D-01
 E= -2573.91288785295     Delta-E=       -0.000000005900 Rises=F Damp=F
 DIIS: error= 3.71D-07 at cycle   4 NSaved=   4.
 NSaved= 4 IEnMin= 4 EnMin= -2573.91288785295     IErMin= 4 ErrMin= 3.71D-07
 ErrMax= 3.71D-07  0.00D+00 EMaxC= 1.00D-01 BMatC= 2.95D-11 BMatP= 5.00D-09
 IDIUse=1 WtCom= 1.00D+00 WtEn= 0.00D+00
 Coeff-Com: -0.110D-01 0.463D-01 0.165D+00 0.799D+00
 Coeff:     -0.110D-01 0.463D-01 0.165D+00 0.799D+00
 Gap=     0.177 Goal=   None    Shift=    0.000
 RMSDP=1.13D-08 MaxDP=1.41D-06 DE=-5.90D-09 OVMax= 4.19D-06

 Cycle   9  Pass 1  IDiag  1:
 RMSU=  9.49D-09    CP:  1.00D+00  9.84D-01  8.65D-01  9.77D-01
 E= -2573.91288785307     Delta-E=       -0.000000000125 Rises=F Damp=F
 DIIS: error= 1.09D-07 at cycle   5 NSaved=   5.
 NSaved= 5 IEnMin= 5 EnMin= -2573.91288785307     IErMin= 5 ErrMin= 1.09D-07
 ErrMax= 1.09D-07  0.00D+00 EMaxC= 1.00D-01 BMatC= 2.94D-12 BMatP= 2.95D-11
 IDIUse=1 WtCom= 1.00D+00 WtEn= 0.00D+00
 Coeff-Com: -0.242D-03-0.310D-02-0.213D-01 0.229D+00 0.796D+00
 Coeff:     -0.242D-03-0.310D-02-0.213D-01 0.229D+00 0.796D+00
 Gap=     0.177 Goal=   None    Shift=    0.000
 RMSDP=3.22D-09 MaxDP=5.66D-07 DE=-1.25D-10 OVMax= 1.14D-06

 SCF Done:  E(RPBE1PBE) =  -2573.91288785     A.U. after    9 cycles
            NFock=  9  Conv=0.32D-08     -V/T= 2.0013
 KE= 2.570511081422D+03 PE=-6.162881698211D+03 EE= 1.018457728936D+03
 Leave Link  502 at Thu May  3 10:00:36 2018, MaxMem= 14763950080 cpu:      5732.7
 (Enter /cm/shared/gaussian/g09.e01/intel64-sandybridge/g09/l601.exe)
 Copying SCF densities to generalized density rwf, IOpCl= 0 IROHF=0.

 **********************************************************************

            Population analysis using the SCF density.

 **********************************************************************

 Alpha  occ. eigenvalues -- -482.99060 -62.39208 -56.16463 -56.16462 -56.16456
 Alpha  occ. eigenvalues --   -8.49347  -6.29659  -6.29655  -6.29636  -2.37929
 Alpha  occ. eigenvalues --   -2.37928  -2.37913  -2.37909  -2.37906  -0.47373
 Alpha  occ. eigenvalues --   -0.03228  -0.03222  -0.03203
 Alpha virt. eigenvalues --    0.14468   0.15931   0.16201   0.17211   0.18277
 Alpha virt. eigenvalues --    0.18878   0.19118   0.19628   0.20281   0.21532
 Alpha virt. eigenvalues --    0.21950   0.22361   0.23459   0.23902   0.24359
 Alpha virt. eigenvalues --    0.24805   0.25175   0.25990   0.26129   0.26870
 Alpha virt. eigenvalues --    0.27260   0.27545   0.28228   0.28619   0.28920
 Alpha virt. eigenvalues --    0.29343   0.29744   0.30260   0.30712   0.31009
 Alpha virt. eigenvalues --    0.31849   0.32352   0.33364   0.33821   0.34644
 Alpha virt. eigenvalues --    0.34867   0.35352   0.36374   0.36422   0.36911
 Alpha virt. eigenvalues --    0.38104   0.38299   0.38833   0.39169   0.39753
 Alpha virt. eigenvalues --    0.39962   0.40408   0.40486   0.41053   0.41458
 Alpha virt. eigenvalues --    0.41923   0.42470   0.42994   0.43941   0.44655
 Alpha virt. eigenvalues --    0.45367   0.45804   0.46877   0.47632   0.48223
 Alpha virt. eigenvalues --    0.48526   0.49341   0.51137   0.53307   0.60662
 Alpha virt. eigenvalues --    0.61400   0.61647   0.63095   0.64090   0.64251
 Alpha virt. eigenvalues --    0.64422   0.65089   0.65415   0.65822   0.65914
 Alpha virt. eigenvalues --    0.66653   0.67152   0.67503   0.68048   0.68409
 Alpha virt. eigenvalues --    0.69801   0.70069   0.70394   0.70595   0.70864
 Alpha virt. eigenvalues --    0.71604   0.72260   0.72515   0.72767   0.72932
 Alpha virt. eigenvalues --    0.73583   0.73782   0.74469   0.75235   0.75408
 Alpha virt. eigenvalues --    0.75807   0.75993   0.76241   0.76453   0.76804
 Alpha virt. eigenvalues --    0.77237   0.77443   0.77693   0.78048   0.78256
 Alpha virt. eigenvalues --    0.78667   0.79036   0.79225   0.79353   0.79851
 Alpha virt. eigenvalues --    0.79987   0.80602   0.81194   0.81309   0.81403
 Alpha virt. eigenvalues --    0.81602   0.82054   0.82533   0.82687   0.83354
 Alpha virt. eigenvalues --    0.83551   0.83652   0.84058   0.84649   0.85191
 Alpha virt. eigenvalues --    0.85658   0.85883   0.86271   0.86856   0.87109
 Alpha virt. eigenvalues --    0.87235   0.87737   0.88170   0.88493   0.88853
 Alpha virt. eigenvalues --    0.89234   0.89603   0.90267   0.90456   0.91365
 Alpha virt. eigenvalues --    0.91514   0.91961   0.92397   0.92993   0.93193
 Alpha virt. eigenvalues --    0.93549   0.94029   0.94117   0.94421   0.94832
 Alpha virt. eigenvalues --    0.95028   0.95393   0.95771   0.96303   0.96810
 Alpha virt. eigenvalues --    0.97233   0.97724   0.97938   0.98478   0.98954
 Alpha virt. eigenvalues --    0.99479   1.00414   1.00779   1.00953   1.02122
 Alpha virt. eigenvalues --    1.02427   1.02746   1.03059   1.03407   1.04059
 Alpha virt. eigenvalues --    1.04519   1.05110   1.05534   1.06081   1.06950
 Alpha virt. eigenvalues --    1.07392   1.08133   1.08353   1.08715   1.09099
 Alpha virt. eigenvalues --    1.09610   1.10376   1.10801   1.11221   1.11661
 Alpha virt. eigenvalues --    1.12521   1.13555   1.14206   1.14505   1.15250
 Alpha virt. eigenvalues --    1.16173   1.16559   1.16972   1.19167   1.20601
 Alpha virt. eigenvalues --    1.21317   1.22734   1.23965   1.25542   1.27940
 Alpha virt. eigenvalues --    1.33992   1.65715   1.66099   1.67085   1.68105
 Alpha virt. eigenvalues --    1.68523   1.69252   1.69497   1.70040   1.70181
 Alpha virt. eigenvalues --    1.70949   1.71345   1.71454   1.71977   1.72611
 Alpha virt. eigenvalues --    1.73012   1.73230   1.73427   1.73959   1.74202
 Alpha virt. eigenvalues --    1.74552   1.74792   1.75228   1.75369   1.75737
 Alpha virt. eigenvalues --    1.75907   1.76115   1.76258   1.76565   1.76948
 Alpha virt. eigenvalues --    1.77169   1.77463   1.77820   1.78008   1.78366
 Alpha virt. eigenvalues --    1.78493   1.79097   1.79913   1.79950   1.80531
 Alpha virt. eigenvalues --    1.80851   1.81096   1.81538   1.81822   1.81964
 Alpha virt. eigenvalues --    1.82273   1.82788   1.84253   1.84877   1.85459
 Alpha virt. eigenvalues --    1.86019   1.86570   1.86888   1.87549   1.87835
 Alpha virt. eigenvalues --    1.88406   1.89195   1.90922   1.91657   1.91992
 Alpha virt. eigenvalues --    1.93205   1.93702   1.94543   1.95729   1.96921
 Alpha virt. eigenvalues --    1.98571   1.98935   2.00043   2.00321   2.00511
 Alpha virt. eigenvalues --    2.00715   2.00925   2.01081   2.01440   2.01626
 Alpha virt. eigenvalues --    2.01689   2.01943   2.02155   2.02384   2.02746
 Alpha virt. eigenvalues --    2.03048   2.03275   2.03442   2.03467   2.03784
 Alpha virt. eigenvalues --    2.04220   2.04327   2.04759   2.04944   2.05049
 Alpha virt. eigenvalues --    2.05254   2.05742   2.05965   2.05993   2.06370
 Alpha virt. eigenvalues --    2.06582   2.06730   2.07437   2.07776   2.07958
 Alpha virt. eigenvalues --    2.08089   2.08595   2.08692   2.08791   2.09432
 Alpha virt. eigenvalues --    2.09885   2.09948   2.10411   2.11180   2.11683
 Alpha virt. eigenvalues --    2.12243   2.12701   2.12886   2.13668   2.14005
 Alpha virt. eigenvalues --    2.14577   2.14908   2.15751   2.15998   2.16222
 Alpha virt. eigenvalues --    2.16378   2.16690   2.16960   2.17284   2.17862
 Alpha virt. eigenvalues --    2.18020   2.18838   2.19343   2.19817   2.20434
 Alpha virt. eigenvalues --    2.20525   2.21109   2.21175   2.21580   2.21986
 Alpha virt. eigenvalues --    2.22510   2.23289   2.24052   2.24592   2.25059
 Alpha virt. eigenvalues --    2.25489   2.25812   2.26461   2.27031   2.27080
 Alpha virt. eigenvalues --    2.27801   2.28895   2.29181   2.29978   2.30377
 Alpha virt. eigenvalues --    2.30966   2.31620   2.32389   2.33201   2.33738
 Alpha virt. eigenvalues --    2.34266   2.35003   2.35691   2.37476   2.39555
 Alpha virt. eigenvalues --    2.40258   2.40922   2.41281   2.41623   2.42310
 Alpha virt. eigenvalues --    2.42476   2.42906   2.43173   2.43662   2.44212
 Alpha virt. eigenvalues --    2.44783   2.44910   2.45275   2.45518   2.46248
 Alpha virt. eigenvalues --    2.47184   2.47288   2.47594   2.48962   2.49479
 Alpha virt. eigenvalues --    2.50236   2.50622   2.50947   2.51698   2.52553
 Alpha virt. eigenvalues --    2.53632   2.53972   2.54350   2.55569   2.57144
 Alpha virt. eigenvalues --    2.58057   2.59051   2.62185   2.67667   2.69082
 Alpha virt. eigenvalues --    2.69165   2.69526   2.70077   2.70544   2.70798
 Alpha virt. eigenvalues --    2.71143   2.71622   2.71760   2.72237   2.72693
 Alpha virt. eigenvalues --    2.72990   2.73704   2.74047   2.74366   2.75610
 Alpha virt. eigenvalues --    2.76189   2.78593   2.79181   2.79612   2.81005
 Alpha virt. eigenvalues --    2.81743   2.82808   2.83110   2.83376   2.83729
 Alpha virt. eigenvalues --    2.84255   2.84887   2.85389   2.85599   2.85816
 Alpha virt. eigenvalues --    2.86357   2.86461   2.86973   2.87382   2.87804
 Alpha virt. eigenvalues --    2.88822   2.88856   2.89136   2.89797   2.90056
 Alpha virt. eigenvalues --    2.90719   2.90995   2.91143   2.91829   2.92804
 Alpha virt. eigenvalues --    2.93924   2.94151   2.95242   2.95827   2.97157
 Alpha virt. eigenvalues --    2.98016   2.99319   3.00370   3.02040   3.03829
 Alpha virt. eigenvalues --    3.04875   3.06415   3.07782   3.08146   3.09584
 Alpha virt. eigenvalues --    3.09932   3.12388   3.13706   3.15504   3.17003
 Alpha virt. eigenvalues --    3.17634   3.18333   3.19328   3.20477   3.22198
 Alpha virt. eigenvalues --    3.22653   3.23788   3.25114   3.26286   3.28361
 Alpha virt. eigenvalues --    3.28670   3.29408   3.29958   3.31544   3.33136
 Alpha virt. eigenvalues --    3.34161   3.35884   3.38971   3.45135   3.46234
 Alpha virt. eigenvalues --    3.49514   3.50093   3.51132   3.52533   3.54646
 Alpha virt. eigenvalues --    3.58494   3.59961   3.63006   3.68406   4.51866
 Alpha virt. eigenvalues --    4.52167   4.52228   4.52260   4.52385   4.52392
 Alpha virt. eigenvalues --    4.52531   4.52590   4.52659   4.52668   4.52858
 Alpha virt. eigenvalues --    4.52983   4.53106   4.53419   4.53502   4.53759
 Alpha virt. eigenvalues --    4.53833   4.53977   4.54005   4.54467   4.54918
 Alpha virt. eigenvalues --    4.55750   4.55901   4.56141   4.56293   4.56426
 Alpha virt. eigenvalues --    4.56632   4.56897   4.57233   4.57494   4.57948
 Alpha virt. eigenvalues --    4.58605   4.59970   4.60093   4.60429   4.60515
 Alpha virt. eigenvalues --    4.60601   4.60669   4.60790   4.60833   4.60911
 Alpha virt. eigenvalues --    4.61034   4.61083   4.61155   4.61198   4.61225
 Alpha virt. eigenvalues --    4.61535   4.62240   4.62356   4.62741   4.62840
 Alpha virt. eigenvalues --    4.62894   4.63498   4.63766   4.64043   4.64193
 Alpha virt. eigenvalues --    4.64313   4.64895   4.65396   4.65591   4.65759
 Alpha virt. eigenvalues --    4.66987   4.68029   4.68401   4.74165   4.74389
 Alpha virt. eigenvalues --    4.75542   4.75594   4.75884   4.76017   4.76122
 Alpha virt. eigenvalues --    4.77095   4.77196   4.77272   4.77668   4.78081
 Alpha virt. eigenvalues --    4.78105   4.78997   4.79174   4.79776   4.80105
 Alpha virt. eigenvalues --    4.80775   4.81449   4.81490   4.81837   4.82265
 Alpha virt. eigenvalues --    4.82421   4.82706   4.82803   4.83082   4.83832
 Alpha virt. eigenvalues --    4.83889   4.84542   4.85201   4.85869   4.85931
 Alpha virt. eigenvalues --    4.86535   4.86953   4.87548   4.88034   4.88253
 Alpha virt. eigenvalues --    4.88431   4.88702   4.88772   4.89141   4.89600
 Alpha virt. eigenvalues --    4.89713   4.90144   4.90219   4.91014   4.91332
 Alpha virt. eigenvalues --    4.91614   4.92001   4.92350   4.93698   4.94322
 Alpha virt. eigenvalues --    4.94802   4.95993   4.96325   4.96579   4.97591
 Alpha virt. eigenvalues --    4.98021   4.99392   5.00606   5.01533   5.02860
 Alpha virt. eigenvalues --    5.03352   5.03718   5.04985   5.05982   5.06540
[...]
   Z20       38.81497  -0.00293   0.00000  -0.01589  -0.01651  38.79847
   X21       32.29542   0.00217   0.00000   0.00890   0.00881  32.30423
   Y21       37.26540  -0.00426   0.00000  -0.01432  -0.01382  37.25158
   Z21       37.81342   0.00145   0.00000   0.01168   0.01107  37.82449
   X22       31.82299   0.00671   0.00000   0.01835   0.01871  31.84170
   Y22       39.91102   0.01397   0.00000   0.02263   0.02319  39.93420
   Z22       38.77718  -0.00080   0.00000  -0.00524  -0.00577  38.77141
   X23       35.88590  -0.01555   0.00000  -0.01271  -0.01240  35.87350
   Y23       40.61021   0.01025   0.00000  -0.00668  -0.00702  40.60320
   Z23       43.46370  -0.00079   0.00000   0.00933   0.00896  43.47266
   X24       35.24339  -0.00610   0.00000  -0.01934  -0.01927  35.22412
   Y24       39.11733  -0.00995   0.00000  -0.01710  -0.01728  39.10005
   Z24       42.67002  -0.00287   0.00000   0.00273   0.00229  42.67230
   X25       37.51106   0.02177   0.00000   0.03190   0.03211  37.54317
   Y25       40.11889  -0.00752   0.00000  -0.01187  -0.01253  40.10636
   Z25       44.06841   0.00110   0.00000  -0.02355  -0.02388  44.04453
   X26       33.42926  -0.00301   0.00000   0.01717   0.01615  33.44540
   Y26       32.20093  -0.00958   0.00000  -0.02202  -0.02175  32.17919
   Z26       38.60710   0.00438   0.00000  -0.00727  -0.00801  38.59909
   X27       34.61978   0.00034   0.00000  -0.00713  -0.00814  34.61164
   Y27       32.54108   0.00305   0.00000   0.01263   0.01264  32.55373
   Z27       39.94881   0.00368   0.00000   0.01167   0.01098  39.95979
   X28       34.12845   0.00982   0.00000   0.03019   0.02936  34.15782
   Y28       33.03241   0.00476   0.00000   0.00050   0.00069  33.03310
   Z28       37.17091  -0.00958   0.00000  -0.00957  -0.01026  37.16065
   X29       41.19603  -0.01852   0.00000  -0.03797  -0.03779  41.15824
   Y29       39.91102  -0.01205   0.00000   0.01020   0.00890  39.91992
   Z29       43.74716   0.02256   0.00000   0.03352   0.03331  43.78047
   X30       42.17869   0.01714   0.00000   0.03565   0.03584  42.21453
   Y30       39.72204   0.00192   0.00000   0.00543   0.00400  39.72605
   Z30       42.25428  -0.00705   0.00000   0.04412   0.04394  42.29822
   X31       41.10154   0.00478   0.00000   0.01933   0.01983  41.12137
   Y31       41.70626   0.01975   0.00000   0.03945   0.03816  41.74441
   Z31       43.99282  -0.00034   0.00000   0.00279   0.00264  43.99547
   X32       41.93302   0.00078   0.00000   0.01309   0.01322  41.94624
   Y32       37.09532  -0.02404   0.00000  -0.02950  -0.03049  37.06483
   Z32       30.80254   0.00120   0.00000   0.01043   0.01016  30.81269
   X33       41.08265   0.00136   0.00000   0.02708   0.02746  41.11011
   Y33       38.58821   0.01475   0.00000   0.01232   0.01146  38.59967
   Z33       31.36945   0.00226   0.00000  -0.00395  -0.00421  31.36525
   X34       43.46370   0.00643   0.00000   0.00393   0.00419  43.46790
   Y34       37.70004   0.00507   0.00000  -0.00082  -0.00206  37.69798
   Z34       30.06554  -0.00592   0.00000  -0.01788  -0.01808  30.04747
   X35       45.58019   0.00980   0.00000   0.02328   0.02333  45.60352
   Y35       37.54886   0.00810   0.00000   0.01772   0.01591  37.56476
   Z35       35.60244   0.00620   0.00000  -0.01352  -0.01365  35.58879
   X36       44.69202  -0.01471   0.00000  -0.04259  -0.04268  44.64934
   Y36       36.52841  -0.00785   0.00000   0.00122  -0.00038  36.52803
   Z36       34.39302  -0.00558   0.00000   0.01350   0.01329  34.40631
   X37       46.16601   0.00530   0.00000   0.02115   0.02148  46.18749
   Y37       38.96615   0.00334   0.00000   0.00615   0.00427  38.97043
   Z37       34.63868  -0.00867   0.00000  -0.04096  -0.04102  34.59766
   X38       42.91568  -0.00008   0.00000   0.01744   0.01879  42.93447
   Y38       45.20225   0.01174   0.00000   0.01413   0.01272  45.21497
   Z38       37.83232  -0.01689   0.00000  -0.02976  -0.02972  37.80259
   X39       43.04796  -0.00452   0.00000  -0.03186  -0.03084  43.01712
   Y39       43.59598  -0.01290   0.00000  -0.00179  -0.00324  43.59274
   Z39       38.66380   0.00796   0.00000   0.00379   0.00377  38.66757
   X40       43.69047   0.00354   0.00000   0.00496   0.00647  43.69694
   Y40       46.37388   0.00392   0.00000   0.00740   0.00581  46.37969
   Z40       38.96615   0.00391   0.00000   0.00043   0.00053  38.96668
   X41       30.27341  -0.00856   0.00000  -0.00522  -0.00488  30.26854
   Y41       38.43703  -0.00637   0.00000  -0.00477  -0.00368  38.43335
   Z41       31.46394  -0.00104   0.00000   0.00855   0.00791  31.47185
   X42       30.57577   0.00389   0.00000   0.01130   0.01196  30.58773
   Y42       40.21337   0.00955   0.00000   0.00701   0.00804  40.22141
   Z42       31.40725   0.00002   0.00000   0.00143   0.00086  31.40811
   X43       31.82299   0.00663   0.00000   0.00300   0.00319  31.82618
   Y43       37.73783  -0.00514   0.00000  -0.01445  -0.01367  37.72416
   Z43       32.12534   0.00522   0.00000   0.01447   0.01386  32.13921
   X44       40.64801   0.01625   0.00000   0.02658   0.02775  40.67576
   Y44       45.42902  -0.00805   0.00000  -0.03117  -0.03236  45.39665
   Z44       43.38811   0.02656   0.00000   0.01659   0.01656  43.40467
   X45       39.49528  -0.01656   0.00000  -0.02001  -0.01886  39.47642
   Y45       44.99438   0.00254   0.00000   0.03021   0.02928  45.02366
   Z45       42.06530  -0.02151   0.00000  -0.01709  -0.01718  42.04812
   X46       41.66846   0.00283   0.00000   0.00295   0.00439  41.67285
   Y46       46.75182   0.00365   0.00000  -0.00436  -0.00571  46.74611
   Z46       42.70781  -0.00487   0.00000   0.00233   0.00237  42.71018
   X47       34.80876   0.00675   0.00000   0.01021   0.00962  34.81838
   Y47       32.80565  -0.00728   0.00000  -0.00854  -0.00819  32.79745
   Z47       29.19627  -0.01163   0.00000  -0.01497  -0.01564  29.18063
   X48       33.01352  -0.00433   0.00000   0.00270   0.00216  33.01568
   Y48       33.05131   0.00272   0.00000   0.00415   0.00482  33.05613
   Z48       29.17737   0.00320   0.00000   0.00647   0.00574  29.18311
   X49       35.35678  -0.00272   0.00000  -0.01282  -0.01332  35.34346
   Y49       33.61823   0.00150   0.00000  -0.01168  -0.01148  33.60675
   Z49       30.72695   0.00822   0.00000   0.01004   0.00941  30.73636
   X50       38.73939  -0.00069   0.00000  -0.02388  -0.02526  38.71413
   Y50       29.57421   0.00891   0.00000   0.01447   0.01390  29.58812
   Z50       35.41347  -0.01482   0.00000  -0.01048  -0.01113  35.40234
   X51       38.64490   0.00809   0.00000   0.03871   0.03717  38.68207
   Y51       29.02619  -0.00423   0.00000   0.00140   0.00078  29.02697
   Z51       37.13312   0.02179   0.00000   0.02246   0.02180  37.15492
   X52       37.30319  -0.01146   0.00000  -0.03176  -0.03325  37.26995
   Y52       28.83722  -0.00236   0.00000  -0.00121  -0.00149  28.83573
   Z52       34.61978  -0.00714   0.00000  -0.01028  -0.01100  34.60878
   X53       38.94726  -0.00906   0.00000  -0.02144  -0.02302  38.92423
   Y53       29.44193  -0.00092   0.00000  -0.00386  -0.00464  29.43730
   Z53       40.51573  -0.00353   0.00000   0.00005  -0.00059  40.51514
   X54       40.28896   0.00512   0.00000   0.00476   0.00310  40.29206
   Y54       29.27186   0.00053   0.00000   0.00558   0.00451  29.27637
   Z54       41.72515   0.00117   0.00000  -0.01226  -0.01286  41.71229
   X55       37.54886  -0.00235   0.00000  -0.01134  -0.01311  37.53575
   Y55       28.57266   0.00010   0.00000   0.00005  -0.00051  28.57215
   Z55       41.29052   0.00367   0.00000   0.02155   0.02083  41.31134
   X56       46.97859   0.02269   0.00000   0.03022   0.02929  47.00788
   Y56       32.46549  -0.01889   0.00000  -0.01769  -0.01981  32.44569
   Z56       37.24650   0.00275   0.00000   0.00304   0.00278  37.24928
   X57       45.27784  -0.01595   0.00000   0.00359   0.00274  45.28057
   Y57       32.93793   0.01045   0.00000   0.01548   0.01365  32.95158
   Z57       37.60555  -0.00011   0.00000  -0.00856  -0.00887  37.59668
   X58       47.62110  -0.00091   0.00000  -0.00079  -0.00144  47.61966
   Y58       33.78830   0.00971   0.00000   0.01602   0.01382  33.80213
   Z58       36.20715  -0.00299   0.00000   0.00513   0.00494  36.21209
   X59       33.67492  -0.00984   0.00000   0.00410   0.00279  33.67771
   Y59       32.12534  -0.01654   0.00000  -0.02400  -0.02403  32.10132
   Z59       45.99593   0.01894   0.00000   0.04007   0.03934  46.03527
   X60       32.84344   0.00040   0.00000  -0.00284  -0.00390  32.83954
   Y60       33.59933   0.00308   0.00000  -0.00011  -0.00001  33.59933
   Z60       46.65734  -0.00427   0.00000  -0.01427  -0.01499  46.64235
   X61       34.82765   0.00563   0.00000  -0.01758  -0.01872  34.80894
   Y61       32.76785   0.00949   0.00000   0.00441   0.00423  32.77208
   Z61       44.76761  -0.01148   0.00000  -0.00641  -0.00708  44.76053
   X62       35.09221  -0.01033   0.00000  -0.03806  -0.03689  35.05532
   Y62       45.58019   0.01153   0.00000   0.01721   0.01698  45.59717
   Z62       44.71092   0.01467   0.00000   0.01326   0.01303  44.72395
   X63       35.47016   0.00006   0.00000  -0.01432  -0.01343  35.45673
   Y63       43.89834  -0.01024   0.00000   0.00160   0.00132  43.89966
   Z63       44.16290  -0.00423   0.00000   0.00702   0.00675  44.16965
   X64       35.16780   0.00328   0.00000   0.01237   0.01377  35.18157
   Y64       46.56285   0.00196   0.00000  -0.00025  -0.00045  46.56240
   Z64       43.19914  -0.00874   0.00000  -0.00999  -0.01018  43.18896
   X65       47.86676   0.01183   0.00000   0.04466   0.04481  47.91157
   Y65       39.28741  -0.00535   0.00000   0.00448   0.00205  39.28946
   Z65       41.47949  -0.00002   0.00000  -0.00158  -0.00157  41.47792
   X66       47.46992  -0.00569   0.00000  -0.01749  -0.01707  47.45285
   Y66       40.95037   0.00192   0.00000  -0.00349  -0.00585  40.94451
   Z66       42.08420  -0.00189   0.00000  -0.00494  -0.00489  42.07931
   X67       46.77072  -0.00082   0.00000  -0.00004   0.00011  46.77083
   Y67       39.04174   0.00028   0.00000  -0.00949  -0.01166  39.03008
   Z67       40.04330   0.00733   0.00000   0.03554   0.03550  40.07879
   X68       28.36479  -0.01918   0.00000  -0.02336  -0.02423  28.34056
   Y68       32.84344   0.01042   0.00000   0.00984   0.01105  32.85449
   Z68       37.73783   0.00547   0.00000   0.00389   0.00299  37.74082
   X69       30.06554   0.01623   0.00000   0.00324   0.00226  30.06780
   Y69       32.31432  -0.00383   0.00000   0.00667   0.00757  32.32188
   Z69       38.02129   0.00682   0.00000   0.02551   0.02466  38.04595
   X70       27.93015  -0.00094   0.00000   0.00254   0.00160  27.93176
   Y70       32.20093  -0.00366   0.00000  -0.00373  -0.00239  32.19855
   Z70       36.11267  -0.00976   0.00000  -0.01295  -0.01389  36.09878
   X71       32.44660   0.01281   0.00000   0.01058   0.01193  32.45853
   Y71       45.69358   0.00575   0.00000  -0.01478  -0.01438  45.67920
   Z71       39.83543  -0.01151   0.00000  -0.02528  -0.02560  39.80983
   X72       31.42615  -0.01292   0.00000  -0.04722  -0.04590  31.38024
   Y72       45.16445  -0.00048   0.00000   0.00819   0.00884  45.17329
   Z72       38.43703  -0.00723   0.00000  -0.00839  -0.00876  38.42827
   X73       31.69071  -0.00391   0.00000   0.01177   0.01293  31.70364
   Y73       44.91879  -0.00617   0.00000   0.00146   0.00195  44.92074
   Z73       41.27162   0.01521   0.00000   0.01699   0.01662  41.28824
   X74       37.70004  -0.00798   0.00000  -0.00990  -0.00839  37.69164
   Y74       44.42746   0.02057   0.00000   0.03483   0.03466  44.46212
   Z74       29.23406   0.00016   0.00000  -0.01798  -0.01815  29.21591
   X75       37.34099   0.00123   0.00000   0.00098   0.00229  37.34328
   Y75       43.16134  -0.01016   0.00000  -0.00760  -0.00767  43.15368
   Z75       28.00574  -0.00567   0.00000  -0.00182  -0.00205  28.00369
   X76       39.13623   0.00070   0.00000  -0.02696  -0.02560  39.11063
   Y76       43.80385  -0.00938   0.00000  -0.02019  -0.02064  43.78321
   Z76       30.14113   0.00085   0.00000  -0.00331  -0.00345  30.13768
   X77       43.95503   0.00993   0.00000   0.00225   0.00182  43.95685
   Y77       37.24650  -0.01926   0.00000  -0.01868  -0.02060  37.22590
   Z77       47.39433   0.01367   0.00000   0.02474   0.02454  47.41887
   X78       42.78340  -0.01057   0.00000   0.00057   0.00033  42.78373
   Y78       38.04019   0.01068   0.00000   0.00593   0.00426  38.04445
   Z78       46.27939  -0.01124   0.00000  -0.00563  -0.00584  46.27355
   X79       44.80541   0.00168   0.00000   0.00357   0.00336  44.80877
   Y79       38.60710   0.00697   0.00000   0.01093   0.00883  38.61593
   Z79       48.22581  -0.00024   0.00000  -0.00639  -0.00652  48.21929
   X80       26.96639  -0.00388   0.00000  -0.01762  -0.01774  26.94865
   Y80       37.79452   0.00951   0.00000   0.01161   0.01294  37.80746
   Z80       41.66846   0.01702   0.00000   0.02513   0.02435  41.69281
   X81       28.25141   0.00137   0.00000  -0.01065  -0.01072  28.24069
   Y81       37.87011  -0.00485   0.00000  -0.01570  -0.01456  37.85555
   Z81       40.38345  -0.00503   0.00000   0.01151   0.01078  40.39423
   X82       25.73807  -0.00198   0.00000   0.00527   0.00496  25.74303
   Y82       36.64179  -0.00670   0.00000  -0.00958  -0.00801  36.63378
   Z82       41.02595  -0.00860   0.00000  -0.01595  -0.01681  41.00914
   X83       42.29207   0.02388   0.00000   0.02507   0.02394  42.31602
   Y83       30.33010  -0.00170   0.00000  -0.00806  -0.00915  30.32096
   Z83       31.80409  -0.01271   0.00000  -0.02076  -0.02125  31.78284
   X84       41.04485  -0.01352   0.00000   0.00649   0.00523  41.05008
   Y84       29.78208  -0.00569   0.00000  -0.00294  -0.00384  29.77824
   Z84       32.97572   0.01459   0.00000   0.01389   0.01333  32.98905
   X85       41.44169  -0.00495   0.00000  -0.00002  -0.00089  41.44080
   Y85       31.52063   0.00816   0.00000   0.01903   0.01814  31.53877
   Z85       30.74584  -0.00217   0.00000   0.00747   0.00698  30.75283
   X86       43.84165  -0.00629   0.00000  -0.01880  -0.02054  43.82110
   Y86       27.98684  -0.01244   0.00000  -0.02106  -0.02262  27.96422
   Z86       37.52996   0.00621   0.00000   0.00232   0.00180  37.53176
   X87       43.38811   0.00362   0.00000   0.01603   0.01455  43.40267
   Y87       29.61201   0.00270   0.00000  -0.00213  -0.00363  29.60838
   Z87       38.21026  -0.00419   0.00000  -0.01009  -0.01057  38.19969
   X88       44.55974   0.00247   0.00000   0.00666   0.00505  44.56479
   Y88       28.36479   0.00887   0.00000   0.02427   0.02264  28.38743
   Z88       35.90480  -0.00120   0.00000   0.01418   0.01370  35.91849
   X89       26.21050  -0.01167   0.00000  -0.01544  -0.01508  26.19542
   Y89       39.32520  -0.00330   0.00000  -0.00883  -0.00716  39.31804
   Z89       35.67803   0.00264   0.00000  -0.00285  -0.00361  35.67442
   X90       27.91125   0.00869   0.00000   0.00130   0.00159  27.91284
   Y90       38.83387  -0.00375   0.00000  -0.01092  -0.00954  38.82433
   Z90       35.30008  -0.00226   0.00000  -0.00034  -0.00105  35.29903
   X91       26.11602   0.00114   0.00000   0.00329   0.00398  26.11999
   Y91       41.04485   0.00479   0.00000   0.00413   0.00583  41.05068
   Z91       35.13001   0.00052   0.00000   0.01074   0.01005  35.14005
   X92       37.90791   0.00249   0.00000   0.00055  -0.00007  37.90783
   Y92       36.26384   0.00103   0.00000   0.00476   0.00391  36.26775
   Z92       47.96125  -0.00803   0.00000  -0.00961  -0.01006  47.95119
   X93       37.90791   0.00001   0.00000   0.00071  -0.00021  37.90770
   Y93       34.86545  -0.00544   0.00000  -0.00600  -0.00689  34.85856
   Z93       49.11398   0.00198   0.00000  -0.00738  -0.00787  49.10611
   X94       37.00084  -0.00366   0.00000  -0.00548  -0.00590  36.99494
   Y94       37.56776   0.00502   0.00000   0.00777   0.00705  37.57480
   Z94       48.83052   0.00215   0.00000  -0.00137  -0.00180  48.82872
   X95       29.53642   0.00675   0.00000   0.01650   0.01785  29.55427
   Y95       44.71092   0.00030   0.00000  -0.01063  -0.00954  44.70138
   Z95       35.03552   0.00732   0.00000   0.00939   0.00894  35.04446
   X96       31.06710   0.00141   0.00000   0.00260   0.00399  31.07109
   Y96       44.76761   0.00076   0.00000   0.00449   0.00535  44.77296
   Z96       34.05286  -0.00434   0.00000  -0.01577  -0.01616  34.03670
   X97       28.27030  -0.00388   0.00000  -0.00074   0.00055  28.27086
   Y97       44.16290  -0.00112   0.00000   0.00353   0.00489  44.16779
   Z97       33.86389  -0.00380   0.00000   0.00421   0.00369  33.86759
         Item               Value     Threshold  Converged?
 Maximum Force            0.032379     0.000450     NO 
 RMS     Force            0.009728     0.000300     NO 
 Maximum Displacement     0.063579     0.001800     NO 
 RMS     Displacement     0.017572     0.001200     NO 
 Predicted change in Energy=-2.605765D-02
 GradGradGradGradGradGradGradGradGradGradGradGradGradGradGradGradGradGrad

 Leave Link  103 at Thu May  3 10:06:30 2018, MaxMem= 14763950080 cpu:        66.1
 (Enter /cm/shared/gaussian/g09.e01/intel64-sandybridge/g09/l9999.exe)
 1\1\GINC-POPLE03\Force\RPBE1PBE\CC-pVDZ\Br1H64O32(1-)\M.PELUSO\03-May-
 2018\0\\#p PBE1PBE/cc-pvDZ force Counterpoise=2 noSymm\\forces on chlo
 ride comput - NWATER: 32\\-1,1\Br,20.,20.,20.\O,18.56,19.12,17.55\H,18
 .94,19.73,16.91\H,18.91,19.41,18.39\O,22.21,17.71,19.75\H,21.59,18.4,1
 9.99\H,21.69,17.09,19.25\O,19.46,18.37,22.77\H,19.85,18.75,23.56\H,19.
 76,18.94,22.06\O,22.89,21.31,20.73\H,23.37,21.03,19.95\H,22.15,20.7,20
 .79\O,21.16,21.89,17.35\H,21.36,22.7,17.82\H,20.8,21.31,18.01\O,19.88,
 23.31,20.97\H,19.14,23.67,20.47\H,19.54,22.5,21.34\O,16.48,20.24,20.54
 \H,17.09,19.72,20.01\H,16.84,21.12,20.52\O,18.99,21.49,23.\H,18.65,20.
 7,22.58\H,19.85,21.23,23.32\O,17.69,17.04,20.43\H,18.32,17.22,21.14\H,
 18.06,17.48,19.67\O,21.8,21.12,23.15\H,22.32,21.02,22.36\H,21.75,22.07
 ,23.28\O,22.19,19.63,16.3\H,21.74,20.42,16.6\H,23.,19.95,15.91\O,24.12
 ,19.87,18.84\H,23.65,19.33,18.2\H,24.43,20.62,18.33\O,22.71,23.92,20.0
 2\H,22.78,23.07,20.46\H,23.12,24.54,20.62\O,16.02,20.34,16.65\H,16.18,
 21.28,16.62\H,16.84,19.97,17.\O,21.51,24.04,22.96\H,20.9,23.81,22.26\H
 ,22.05,24.74,22.6\O,18.42,17.36,15.45\H,17.47,17.49,15.44\H,18.71,17.7
 9,16.26\O,20.5,15.65,18.74\H,20.45,15.36,19.65\H,19.74,15.26,18.32\O,2
 0.61,15.58,21.44\H,21.32,15.49,22.08\H,19.87,15.12,21.85\O,24.86,17.18
 ,19.71\H,23.96,17.43,19.9\H,25.2,17.88,19.16\O,17.82,17.,24.34\H,17.38
 ,17.78,24.69\H,18.43,17.34,23.69\O,18.57,24.12,23.66\H,18.77,23.23,23.
 37\H,18.61,24.64,22.86\O,25.33,20.79,21.95\H,25.12,21.67,22.27\H,24.75
 ,20.66,21.19\O,15.01,17.38,19.97\H,15.91,17.1,20.12\H,14.78,17.04,19.1
 1\O,17.17,24.18,21.08\H,16.63,23.9,20.34\H,16.77,23.77,21.84\O,19.95,2
 3.51,15.47\H,19.76,22.84,14.82\H,20.71,23.18,15.95\O,23.26,19.71,25.08
 \H,22.64,20.13,24.49\H,23.71,20.43,25.52\O,14.27,20.,22.05\H,14.95,20.
 04,21.37\H,13.62,19.39,21.71\O,22.38,16.05,16.83\H,21.72,15.76,17.45\H
 ,21.93,16.68,16.27\O,23.2,14.81,19.86\H,22.96,15.67,20.22\H,23.58,15.0
 1,19.\O,13.87,20.81,18.88\H,14.77,20.55,18.68\H,13.82,21.72,18.59\O,20
 .06,19.19,25.38\H,20.06,18.45,25.99\H,19.58,19.88,25.84\O,15.63,23.66,
 18.54\H,16.44,23.69,18.02\H,14.96,23.37,17.92\\Version=ES64L-G09RevE.0
 1\HF=-2443.1570866\RMSD=3.261e-09\RMSF=9.728e-03\Dipole=0.2855592,3.13
 50751,-2.4105625\Quadrupole=-16.7716096,233.0043156,-216.2327059,-1257
 .1876498,-1512.9222769,-1431.4772481\PG=C01 [X(Br1H64O32)]\\@


 IF GOD HAD MEANT MAN TO SEE THE SUN RISE, HE
 WOULD HAVE SCHEDULED IT FOR A LATER HOUR.
 Job cpu time:       0 days 11 hours 19 minutes 11.9 seconds.
 File lengths (MBytes):  RWF=    482 Int=      0 D2E=      0 Chk=    160 Scr=      1
 Normal termination of Gaussian 09 at Thu May  3 10:06:31 2018.
