 Entering Gaussian System, Link 0=/cm/shared/gaussian/g09.e01/intel64-sandybridge/g09/g09
 Initial command:
 /cm/shared/gaussian/g09.e01/intel64-sandybridge/g09/l1.exe "/local/scratch/m.peluso/32_wat/Gau-62363.inp" -scrdir="/local/scratch/m.peluso/32_wat/"
 Entering Link 1 = /cm/shared/gaussian/g09.e01/intel64-sandybridge/g09/l1.exe PID=     62364.
  
 Copyright (c) 1988,1990,1992,1993,1995,1998,2003,2009,2015,
            Gaussian, Inc.  All Rights Reserved.
  
 This is part of the Gaussian(R) 09 program.  It is based on
 the Gaussian(R) 03 system (copyright 2003, Gaussian, Inc.),
 the Gaussian(R) 98 system (copyright 1998, Gaussian, Inc.),
 the Gaussian(R) 94 system (copyright 1995, Gaussian, Inc.),
 the Gaussian 92(TM) system (copyright 1992, Gaussian, Inc.),
 the Gaussian 90(TM) system (copyright 1990, Gaussian, Inc.),
 the Gaussian 88(TM) system (copyright 1988, Gaussian, Inc.),
 the Gaussian 86(TM) system (copyright 1986, Carnegie Mellon
 University), and the Gaussian 82(TM) system (copyright 1983,
 Carnegie Mellon University). Gaussian is a federally registered
 trademark of Gaussian, Inc.
  
 This software contains proprietary and confidential information,
 including trade secrets, belonging to Gaussian, Inc.
  
 This software is provided under written license and may be
 used, copied, transmitted, or stored only in accord with that
 written license.
  
 The following legend is applicable only to US Government
 contracts under FAR:
  
                    RESTRICTED RIGHTS LEGEND
  
 Use, reproduction and disclosure by the US Government is
 subject to restrictions as set forth in subparagraphs (a)
 and (c) of the Commercial Computer Software - Restricted
 Rights clause in FAR 52.227-19.
  
 Gaussian, Inc.
 340 Quinnipiac St., Bldg. 40, Wallingford CT 06492
  
  
 ---------------------------------------------------------------
 Warning -- This program may not be used in any manner that
 competes with the business of Gaussian, Inc. or will provide
 assistance to any competitor of Gaussian, Inc.  The licensee
 of this program is prohibited from giving any competitor of
 Gaussian, Inc. access to this program.  By using this program,
 the user acknowledges that Gaussian, Inc. is engaged in the
 business of creating and licensing software in the field of
 computational chemistry and represents and warrants to the
 licensee that it is not a competitor of Gaussian, Inc. and that
 it will not use this program in any manner prohibited above.
 ---------------------------------------------------------------
  

 Cite this work as:
 Gaussian 09, Revision E.01,
 M. J. Frisch, G. W. Trucks, H. B. Schlegel, G. E. Scuseria, 
 M. A. Robb, J. R. Cheeseman, G. Scalmani, V. Barone, B. Mennucci, 
 G. A. Petersson, H. Nakatsuji, M. Caricato, X. Li, H. P. Hratchian, 
 A. F. Izmaylov, J. Bloino, G. Zheng, J. L. Sonnenberg, M. Hada, 
 M. Ehara, K. Toyota, R. Fukuda, J. Hasegawa, M. Ishida, T. Nakajima, 
 Y. Honda, O. Kitao, H. Nakai, T. Vreven, J. A. Montgomery, Jr., 
 J. E. Peralta, F. Ogliaro, M. Bearpark, J. J. Heyd, E. Brothers, 
 K. N. Kudin, V. N. Staroverov, T. Keith, R. Kobayashi, J. Normand, 
 K. Raghavachari, A. Rendell, J. C. Burant, S. S. Iyengar, J. Tomasi, 
 M. Cossi, N. Rega, J. M. Millam, M. Klene, J. E. Knox, J. B. Cross, 
 V. Bakken, C. Adamo, J. Jaramillo, R. Gomperts, R. E. Stratmann, 
 O. Yazyev, A. J. Austin, R. Cammi, C. Pomelli, J. W. Ochterski, 
 R. L. Martin, K. Morokuma, V. G. Zakrzewski, G. A. Voth, 
 P. Salvador, J. J. Dannenberg, S. Dapprich, A. D. Daniels, 
 O. Farkas, J. B. Foresman, J. V. Ortiz, J. Cioslowski, 
 and D. J. Fox, Gaussian, Inc., Wallingford CT, 2013.
 
 ******************************************
 Gaussian 09:  ES64L-G09RevE.01 30-Nov-2015
                 2-May-2018 
 ******************************************
 %Mem=110GB
 %NProcShared=64
 Will use up to   64 processors via shared memory.
 %chk=snap105.chk
 ----------------------------------------------
 #p PBE1PBE/cc-pvDZ force Counterpoise=2 noSymm
 ----------------------------------------------
 1/10=7,30=1,38=1,62=2/1,3;
 2/12=2,15=1,17=6,18=5,40=1/2;
 1/10=7,30=1,38=1,53=2,62=2,63=101/22;
 3/5=16,11=2,16=1,25=1,30=1,71=1,74=-13/1,2,3;
 4//1;
 5/5=2,38=5/2;
 6/7=2,8=2,9=2,10=2,28=1/1;
 7/7=1,29=1,30=1,33=-1/1,2,3,16;
 1/10=7,30=1,53=2,62=2,63=101/22;
 3/5=7,6=11,11=2,16=1,25=1,30=1,71=1,74=-13,82=7/1,2,3;
 4//1;
 5/5=2,38=5/2;
 6/7=2,8=2,9=2,10=2,28=1/1;
 7/7=1,29=1,30=1,33=-1/1,2,3,16;
 1/10=7,30=1,53=2,62=2,63=101/22(-5);
 7/9=1,29=1,44=-1/16;
 1/10=7,30=1,62=2/3;
 99//99;
 Leave Link    1 at Wed May  2 23:35:40 2018, MaxMem= 14763950080 cpu:         8.6
 (Enter /cm/shared/gaussian/g09.e01/intel64-sandybridge/g09/l101.exe)
 --------------------------------------
 forces on chloride comput - NWATER: 32
 --------------------------------------
 Symbolic Z-matrix:
 Charge = -1 Multiplicity = 1 in supermolecule
 Charge = -1 Multiplicity = 1 in fragment      1.
 Charge =  0 Multiplicity = 1 in fragment      2.
 Br(Fragment=1)        20.       20.       20. 
 O(Fragment=2)         22.41     21.14     21.83 
 H(Fragment=2)         22.59     20.4      22.4 
 H(Fragment=2)         21.58     20.92     21.4 
 O(Fragment=2)         22.49     18.55     18.48 
 H(Fragment=2)         21.77     18.92     18.99 
 H(Fragment=2)         23.26     19.07     18.73 
 O(Fragment=2)         17.46     18.75     18.6 
 H(Fragment=2)         18.17     18.67     19.23 
 H(Fragment=2)         17.04     19.58     18.8 
 O(Fragment=2)         18.19     21.83     22.09 
 H(Fragment=2)         18.3      21.11     21.47 
 H(Fragment=2)         18.8      22.5      21.78 
 O(Fragment=2)         21.68     22.61     18.46 
 H(Fragment=2)         21.42     23.53     18.57 
 H(Fragment=2)         20.99     22.12     18.9 
 O(Fragment=2)         18.36     17.49     21.93 
 H(Fragment=2)         18.19     17.94     22.75 
 H(Fragment=2)         18.85     18.12     21.4 
 O(Fragment=2)         19.87     20.88     16.29 
 H(Fragment=2)         20.33     20.25     15.74 
 H(Fragment=2)         20.05     20.59     17.19 
 O(Fragment=2)         21.91     16.65     20.82 
 H(Fragment=2)         21.15     16.24     20.4 
 H(Fragment=2)         22.21     17.3      20.18 
 O(Fragment=2)         23.93     21.01     18.8 
 H(Fragment=2)         23.21     21.58     19.05 
 H(Fragment=2)         23.98     21.09     17.85 
 O(Fragment=2)         18.98     24.09     20.43 
 H(Fragment=2)         18.75     23.64     19.61 
 H(Fragment=2)         19.71     24.67     20.19 
 O(Fragment=2)         16.72     21.74     17.93 
 H(Fragment=2)         17.44     22.35     18.08 
 H(Fragment=2)         16.06     22.24     17.46 
 O(Fragment=2)         21.3      22.44     23.92 
 H(Fragment=2)         21.73     21.69     24.33 
 H(Fragment=2)         21.38     22.27     22.98 
 O(Fragment=2)         22.11     17.65     23.51 
 H(Fragment=2)         22.07     17.55     22.56 
 H(Fragment=2)         21.62     16.9      23.85 
 O(Fragment=2)         22.42     19.26     15.5 
 H(Fragment=2)         22.19     19.84     16.23 
 H(Fragment=2)         22.24     18.38     15.84 
 O(Fragment=2)         18.76     23.56     17.75 
 H(Fragment=2)         19.09     23.19     16.93 
 H(Fragment=2)         18.77     24.51     17.61 
 O(Fragment=2)         18.45     21.32     24.85 
 H(Fragment=2)         18.43     21.47     23.91 
 H(Fragment=2)         19.36     21.47     25.1 
 O(Fragment=2)         19.37     15.42     19.77 
 H(Fragment=2)         18.78     15.7      20.47 
 H(Fragment=2)         18.98     14.62     19.43 
 O(Fragment=2)         16.86     19.85     15.63 
 H(Fragment=2)         17.13     20.       16.53 
 H(Fragment=2)         17.15     20.63     15.16 
 O(Fragment=2)         15.75     17.09     21.16 
 H(Fragment=2)         16.61     17.33     21.51 
 H(Fragment=2)         15.16     17.77     21.49 
 O(Fragment=2)         15.53     21.8      21.31 
 H(Fragment=2)         15.83     22.       20.42 
 H(Fragment=2)         16.23     22.1      21.88 
 O(Fragment=2)         23.41     24.17     22. 
 H(Fragment=2)         23.23     23.23     21.93 
 H(Fragment=2)         22.57     24.56     22.24 
 O(Fragment=2)         15.07     17.47     18.62 
 H(Fragment=2)         15.86     17.88     18.27 
 H(Fragment=2)         15.17     17.51     19.57 
 O(Fragment=2)         22.27     19.95     24.94 
 H(Fragment=2)         22.06     19.14     24.47 
 H(Fragment=2)         22.9      19.68     25.61 
 O(Fragment=2)         17.48     18.58     24.31 
 H(Fragment=2)         16.54     18.41     24.37 
 H(Fragment=2)         17.56     19.53     24.42 
 O(Fragment=2)         25.82     21.48     20.82 
 H(Fragment=2)         25.43     21.57     21.69 
 H(Fragment=2)         25.08     21.3      20.25 
 O(Fragment=2)         19.94     14.81     16.98 
 H(Fragment=2)         20.53     15.42     17.43 
 H(Fragment=2)         19.35     15.38     16.48 
 O(Fragment=2)         20.11     24.83     23.76 
 H(Fragment=2)         19.38     24.91     24.37 
 H(Fragment=2)         20.3      23.89     23.73 
 O(Fragment=2)         21.25     25.43     19.91 
 H(Fragment=2)         21.59     26.04     20.56 
 H(Fragment=2)         22.02     25.03     19.52 
 O(Fragment=2)         16.97     16.57     16.02 
 H(Fragment=2)         17.3      16.57     15.12 
 H(Fragment=2)         16.88     17.5      16.24 
 O(Fragment=2)         17.78     14.68     22.28 
 H(Fragment=2)         16.88     14.52     22.01 
 H(Fragment=2)         17.81     15.61     22.49 
 O(Fragment=2)         18.66     22.38     14.16 
 H(Fragment=2)         18.69     21.67     13.51 
 H(Fragment=2)         19.01     21.99     14.96 
 O(Fragment=2)         23.76     14.82     21.15 
 H(Fragment=2)         23.4      14.19     20.53 
 H(Fragment=2)         23.12     15.54     21.16 
 
 NAtoms=     97 NQM=       97 NQMF=       0 NMMI=      0 NMMIF=      0
                NMic=       0 NMicF=      0.
                    Isotopes and Nuclear Properties:
 (Nuclear quadrupole moments (NQMom) in fm**2, nuclear magnetic moments (NMagM)
  in nuclear magnetons)

  Atom         1           2           3           4           5           6           7           8           9          10
 IAtWgt=          79          16           1           1          16           1           1          16           1           1
 AtmWgt=  78.9183361  15.9949146   1.0078250   1.0078250  15.9949146   1.0078250   1.0078250  15.9949146   1.0078250   1.0078250
 NucSpn=           3           0           1           1           0           1           1           0           1           1
 AtZEff=   0.0000000   0.0000000   0.0000000   0.0000000   0.0000000   0.0000000   0.0000000   0.0000000   0.0000000   0.0000000
 NQMom=   31.3000000   0.0000000   0.0000000   0.0000000   0.0000000   0.0000000   0.0000000   0.0000000   0.0000000   0.0000000
 NMagM=    2.1063990   0.0000000   2.7928460   2.7928460   0.0000000   2.7928460   2.7928460   0.0000000   2.7928460   2.7928460
 AtZNuc=  35.0000000   8.0000000   1.0000000   1.0000000   8.0000000   1.0000000   1.0000000   8.0000000   1.0000000   1.0000000

  Atom        11          12          13          14          15          16          17          18          19          20
 IAtWgt=          16           1           1          16           1           1          16           1           1          16
 AtmWgt=  15.9949146   1.0078250   1.0078250  15.9949146   1.0078250   1.0078250  15.9949146   1.0078250   1.0078250  15.9949146
 NucSpn=           0           1           1           0           1           1           0           1           1           0
 AtZEff=   0.0000000   0.0000000   0.0000000   0.0000000   0.0000000   0.0000000   0.0000000   0.0000000   0.0000000   0.0000000
 NQMom=    0.0000000   0.0000000   0.0000000   0.0000000   0.0000000   0.0000000   0.0000000   0.0000000   0.0000000   0.0000000
 NMagM=    0.0000000   2.7928460   2.7928460   0.0000000   2.7928460   2.7928460   0.0000000   2.7928460   2.7928460   0.0000000
 AtZNuc=   8.0000000   1.0000000   1.0000000   8.0000000   1.0000000   1.0000000   8.0000000   1.0000000   1.0000000   8.0000000

  Atom        21          22          23          24          25          26          27          28          29          30
 IAtWgt=           1           1          16           1           1          16           1           1          16           1
 AtmWgt=   1.0078250   1.0078250  15.9949146   1.0078250   1.0078250  15.9949146   1.0078250   1.0078250  15.9949146   1.0078250
 NucSpn=           1           1           0           1           1           0           1           1           0           1
 AtZEff=   0.0000000   0.0000000   0.0000000   0.0000000   0.0000000   0.0000000   0.0000000   0.0000000   0.0000000   0.0000000
 NQMom=    0.0000000   0.0000000   0.0000000   0.0000000   0.0000000   0.0000000   0.0000000   0.0000000   0.0000000   0.0000000
 NMagM=    2.7928460   2.7928460   0.0000000   2.7928460   2.7928460   0.0000000   2.7928460   2.7928460   0.0000000   2.7928460
 AtZNuc=   1.0000000   1.0000000   8.0000000   1.0000000   1.0000000   8.0000000   1.0000000   1.0000000   8.0000000   1.0000000

  Atom        31          32          33          34          35          36          37          38          39          40
 IAtWgt=           1          16           1           1          16           1           1          16           1           1
 AtmWgt=   1.0078250  15.9949146   1.0078250   1.0078250  15.9949146   1.0078250   1.0078250  15.9949146   1.0078250   1.0078250
 NucSpn=           1           0           1           1           0           1           1           0           1           1
 AtZEff=   0.0000000   0.0000000   0.0000000   0.0000000   0.0000000   0.0000000   0.0000000   0.0000000   0.0000000   0.0000000
 NQMom=    0.0000000   0.0000000   0.0000000   0.0000000   0.0000000   0.0000000   0.0000000   0.0000000   0.0000000   0.0000000
 NMagM=    2.7928460   0.0000000   2.7928460   2.7928460   0.0000000   2.7928460   2.7928460   0.0000000   2.7928460   2.7928460
 AtZNuc=   1.0000000   8.0000000   1.0000000   1.0000000   8.0000000   1.0000000   1.0000000   8.0000000   1.0000000   1.0000000

  Atom        41          42          43          44          45          46          47          48          49          50
 IAtWgt=          16           1           1          16           1           1          16           1           1          16
 AtmWgt=  15.9949146   1.0078250   1.0078250  15.9949146   1.0078250   1.0078250  15.9949146   1.0078250   1.0078250  15.9949146
 NucSpn=           0           1           1           0           1           1           0           1           1           0
 AtZEff=   0.0000000   0.0000000   0.0000000   0.0000000   0.0000000   0.0000000   0.0000000   0.0000000   0.0000000   0.0000000
 NQMom=    0.0000000   0.0000000   0.0000000   0.0000000   0.0000000   0.0000000   0.0000000   0.0000000   0.0000000   0.0000000
 NMagM=    0.0000000   2.7928460   2.7928460   0.0000000   2.7928460   2.7928460   0.0000000   2.7928460   2.7928460   0.0000000
 AtZNuc=   8.0000000   1.0000000   1.0000000   8.0000000   1.0000000   1.0000000   8.0000000   1.0000000   1.0000000   8.0000000

  Atom        51          52          53          54          55          56          57          58          59          60
 IAtWgt=           1           1          16           1           1          16           1           1          16           1
 AtmWgt=   1.0078250   1.0078250  15.9949146   1.0078250   1.0078250  15.9949146   1.0078250   1.0078250  15.9949146   1.0078250
 NucSpn=           1           1           0           1           1           0           1           1           0           1
 AtZEff=   0.0000000   0.0000000   0.0000000   0.0000000   0.0000000   0.0000000   0.0000000   0.0000000   0.0000000   0.0000000
 NQMom=    0.0000000   0.0000000   0.0000000   0.0000000   0.0000000   0.0000000   0.0000000   0.0000000   0.0000000   0.0000000
 NMagM=    2.7928460   2.7928460   0.0000000   2.7928460   2.7928460   0.0000000   2.7928460   2.7928460   0.0000000   2.7928460
 AtZNuc=   1.0000000   1.0000000   8.0000000   1.0000000   1.0000000   8.0000000   1.0000000   1.0000000   8.0000000   1.0000000

  Atom        61          62          63          64          65          66          67          68          69          70
 IAtWgt=           1          16           1           1          16           1           1          16           1           1
 AtmWgt=   1.0078250  15.9949146   1.0078250   1.0078250  15.9949146   1.0078250   1.0078250  15.9949146   1.0078250   1.0078250
 NucSpn=           1           0           1           1           0           1           1           0           1           1
 AtZEff=   0.0000000   0.0000000   0.0000000   0.0000000   0.0000000   0.0000000   0.0000000   0.0000000   0.0000000   0.0000000
 NQMom=    0.0000000   0.0000000   0.0000000   0.0000000   0.0000000   0.0000000   0.0000000   0.0000000   0.0000000   0.0000000
 NMagM=    2.7928460   0.0000000   2.7928460   2.7928460   0.0000000   2.7928460   2.7928460   0.0000000   2.7928460   2.7928460
 AtZNuc=   1.0000000   8.0000000   1.0000000   1.0000000   8.0000000   1.0000000   1.0000000   8.0000000   1.0000000   1.0000000

  Atom        71          72          73          74          75          76          77          78          79          80
 IAtWgt=          16           1           1          16           1           1          16           1           1          16
 AtmWgt=  15.9949146   1.0078250   1.0078250  15.9949146   1.0078250   1.0078250  15.9949146   1.0078250   1.0078250  15.9949146
 NucSpn=           0           1           1           0           1           1           0           1           1           0
 AtZEff=   0.0000000   0.0000000   0.0000000   0.0000000   0.0000000   0.0000000   0.0000000   0.0000000   0.0000000   0.0000000
 NQMom=    0.0000000   0.0000000   0.0000000   0.0000000   0.0000000   0.0000000   0.0000000   0.0000000   0.0000000   0.0000000
 NMagM=    0.0000000   2.7928460   2.7928460   0.0000000   2.7928460   2.7928460   0.0000000   2.7928460   2.7928460   0.0000000
 AtZNuc=   8.0000000   1.0000000   1.0000000   8.0000000   1.0000000   1.0000000   8.0000000   1.0000000   1.0000000   8.0000000

  Atom        81          82          83          84          85          86          87          88          89          90
 IAtWgt=           1           1          16           1           1          16           1           1          16           1
 AtmWgt=   1.0078250   1.0078250  15.9949146   1.0078250   1.0078250  15.9949146   1.0078250   1.0078250  15.9949146   1.0078250
 NucSpn=           1           1           0           1           1           0           1           1           0           1
 AtZEff=   0.0000000   0.0000000   0.0000000   0.0000000   0.0000000   0.0000000   0.0000000   0.0000000   0.0000000   0.0000000
 NQMom=    0.0000000   0.0000000   0.0000000   0.0000000   0.0000000   0.0000000   0.0000000   0.0000000   0.0000000   0.0000000
 NMagM=    2.7928460   2.7928460   0.0000000   2.7928460   2.7928460   0.0000000   2.7928460   2.7928460   0.0000000   2.7928460
 AtZNuc=   1.0000000   1.0000000   8.0000000   1.0000000   1.0000000   8.0000000   1.0000000   1.0000000   8.0000000   1.0000000

  Atom        91          92          93          94          95          96          97
 IAtWgt=           1          16           1           1          16           1           1
 AtmWgt=   1.0078250  15.9949146   1.0078250   1.0078250  15.9949146   1.0078250   1.0078250
 NucSpn=           1           0           1           1           0           1           1
 AtZEff=   0.0000000   0.0000000   0.0000000   0.0000000   0.0000000   0.0000000   0.0000000
 NQMom=    0.0000000   0.0000000   0.0000000   0.0000000   0.0000000   0.0000000   0.0000000
 NMagM=    2.7928460   0.0000000   2.7928460   2.7928460   0.0000000   2.7928460   2.7928460
 AtZNuc=   1.0000000   8.0000000   1.0000000   1.0000000   8.0000000   1.0000000   1.0000000
 Leave Link  101 at Wed May  2 23:35:40 2018, MaxMem= 14763950080 cpu:        12.6
 (Enter /cm/shared/gaussian/g09.e01/intel64-sandybridge/g09/l103.exe)

 GradGradGradGradGradGradGradGradGradGradGradGradGradGradGradGradGradGrad
 Berny optimization.
 Initialization pass.
 Trust Radius=3.00D-01 FncErr=1.00D-07 GrdErr=1.00D-07
 Number of steps in this run=      2 maximum allowed number of steps=      2.
 GradGradGradGradGradGradGradGradGradGradGradGradGradGradGradGradGradGrad

 Leave Link  103 at Wed May  2 23:35:40 2018, MaxMem= 14763950080 cpu:         1.7
 (Enter /cm/shared/gaussian/g09.e01/intel64-sandybridge/g09/l202.exe)
 Symmetry turned off by external request.
 Stoichiometry    BrH64O32(1-)
 Framework group  C1[X(BrH64O32)]
 Deg. of freedom   285
 Full point group                 C1      NOp   1
                          Input orientation:                          
 ---------------------------------------------------------------------
 Center     Atomic      Atomic             Coordinates (Angstroms)
 Number     Number       Type             X           Y           Z
 ---------------------------------------------------------------------
      1         35           0       20.000000   20.000000   20.000000
      2          8           0       22.410000   21.140000   21.830000
      3          1           0       22.590000   20.400000   22.400000
      4          1           0       21.580000   20.920000   21.400000
      5          8           0       22.490000   18.550000   18.480000
      6          1           0       21.770000   18.920000   18.990000
      7          1           0       23.260000   19.070000   18.730000
      8          8           0       17.460000   18.750000   18.600000
      9          1           0       18.170000   18.670000   19.230000
     10          1           0       17.040000   19.580000   18.800000
     11          8           0       18.190000   21.830000   22.090000
     12          1           0       18.300000   21.110000   21.470000
     13          1           0       18.800000   22.500000   21.780000
     14          8           0       21.680000   22.610000   18.460000
     15          1           0       21.420000   23.530000   18.570000
     16          1           0       20.990000   22.120000   18.900000
     17          8           0       18.360000   17.490000   21.930000
     18          1           0       18.190000   17.940000   22.750000
     19          1           0       18.850000   18.120000   21.400000
     20          8           0       19.870000   20.880000   16.290000
     21          1           0       20.330000   20.250000   15.740000
     22          1           0       20.050000   20.590000   17.190000
     23          8           0       21.910000   16.650000   20.820000
     24          1           0       21.150000   16.240000   20.400000
     25          1           0       22.210000   17.300000   20.180000
     26          8           0       23.930000   21.010000   18.800000
     27          1           0       23.210000   21.580000   19.050000
     28          1           0       23.980000   21.090000   17.850000
     29          8           0       18.980000   24.090000   20.430000
     30          1           0       18.750000   23.640000   19.610000
     31          1           0       19.710000   24.670000   20.190000
     32          8           0       16.720000   21.740000   17.930000
     33          1           0       17.440000   22.350000   18.080000
     34          1           0       16.060000   22.240000   17.460000
     35          8           0       21.300000   22.440000   23.920000
     36          1           0       21.730000   21.690000   24.330000
     37          1           0       21.380000   22.270000   22.980000
     38          8           0       22.110000   17.650000   23.510000
     39          1           0       22.070000   17.550000   22.560000
     40          1           0       21.620000   16.900000   23.850000
     41          8           0       22.420000   19.260000   15.500000
     42          1           0       22.190000   19.840000   16.230000
     43          1           0       22.240000   18.380000   15.840000
     44          8           0       18.760000   23.560000   17.750000
     45          1           0       19.090000   23.190000   16.930000
     46          1           0       18.770000   24.510000   17.610000
     47          8           0       18.450000   21.320000   24.850000
     48          1           0       18.430000   21.470000   23.910000
     49          1           0       19.360000   21.470000   25.100000
     50          8           0       19.370000   15.420000   19.770000
     51          1           0       18.780000   15.700000   20.470000
     52          1           0       18.980000   14.620000   19.430000
     53          8           0       16.860000   19.850000   15.630000
     54          1           0       17.130000   20.000000   16.530000
     55          1           0       17.150000   20.630000   15.160000
     56          8           0       15.750000   17.090000   21.160000
     57          1           0       16.610000   17.330000   21.510000
     58          1           0       15.160000   17.770000   21.490000
     59          8           0       15.530000   21.800000   21.310000
     60          1           0       15.830000   22.000000   20.420000
     61          1           0       16.230000   22.100000   21.880000
     62          8           0       23.410000   24.170000   22.000000
     63          1           0       23.230000   23.230000   21.930000
     64          1           0       22.570000   24.560000   22.240000
     65          8           0       15.070000   17.470000   18.620000
     66          1           0       15.860000   17.880000   18.270000
     67          1           0       15.170000   17.510000   19.570000
     68          8           0       22.270000   19.950000   24.940000
     69          1           0       22.060000   19.140000   24.470000
     70          1           0       22.900000   19.680000   25.610000
     71          8           0       17.480000   18.580000   24.310000
     72          1           0       16.540000   18.410000   24.370000
     73          1           0       17.560000   19.530000   24.420000
     74          8           0       25.820000   21.480000   20.820000
     75          1           0       25.430000   21.570000   21.690000
     76          1           0       25.080000   21.300000   20.250000
     77          8           0       19.940000   14.810000   16.980000
     78          1           0       20.530000   15.420000   17.430000
     79          1           0       19.350000   15.380000   16.480000
     80          8           0       20.110000   24.830000   23.760000
     81          1           0       19.380000   24.910000   24.370000
     82          1           0       20.300000   23.890000   23.730000
     83          8           0       21.250000   25.430000   19.910000
     84          1           0       21.590000   26.040000   20.560000
     85          1           0       22.020000   25.030000   19.520000
     86          8           0       16.970000   16.570000   16.020000
     87          1           0       17.300000   16.570000   15.120000
     88          1           0       16.880000   17.500000   16.240000
     89          8           0       17.780000   14.680000   22.280000
     90          1           0       16.880000   14.520000   22.010000
     91          1           0       17.810000   15.610000   22.490000
     92          8           0       18.660000   22.380000   14.160000
     93          1           0       18.690000   21.670000   13.510000
     94          1           0       19.010000   21.990000   14.960000
     95          8           0       23.760000   14.820000   21.150000
     96          1           0       23.400000   14.190000   20.530000
     97          1           0       23.120000   15.540000   21.160000
 ---------------------------------------------------------------------
 Rotational constants (GHZ):      0.0606971      0.0530430      0.0477146
 Leave Link  202 at Wed May  2 23:35:40 2018, MaxMem= 14763950080 cpu:         0.5
 (Enter /cm/shared/gaussian/g09.e01/intel64-sandybridge/g09/l122.exe)
 Counterpoise: doing full dimer calculation.
 Leave Link  122 at Wed May  2 23:35:40 2018, MaxMem= 14763950080 cpu:         0.0
 (Enter /cm/shared/gaussian/g09.e01/intel64-sandybridge/g09/l301.exe)
 Standard basis: CC-pVDZ (5D, 7F)
 Ernie: Thresh=  0.10000D-02 Tol=  0.10000D-05 Strict=F.
 Ernie:  87 primitive shells out of 1114 were deleted.
   795 basis functions,  1651 primitive gaussians,   829 cartesian basis functions
   178 alpha electrons      178 beta electrons
       nuclear repulsion energy      6060.5500368997 Hartrees.
 IExCor= 1009 DFT=T Ex+Corr=PBE1PBE ExCW=0 ScaHFX=  0.250000
 ScaDFX=  0.750000  0.750000  1.000000  1.000000 ScalE2=  1.000000  1.000000
 IRadAn=      0 IRanWt=     -1 IRanGd=            0 ICorTp=0 IEmpDi=  4
 NAtoms=   97 NActive=   97 NUniq=   97 SFac= 1.00D+00 NAtFMM=   60 NAOKFM=T Big=T
 Integral buffers will be    131072 words long.
 Raffenetti 2 integral format.
 Two-electron integral symmetry is turned off.
 Leave Link  301 at Wed May  2 23:35:41 2018, MaxMem= 14763950080 cpu:         4.3
 (Enter /cm/shared/gaussian/g09.e01/intel64-sandybridge/g09/l302.exe)
 NPDir=0 NMtPBC=     1 NCelOv=     1 NCel=       1 NClECP=     1 NCelD=      1
         NCelK=      1 NCelE2=     1 NClLst=     1 CellRange=     0.0.
 One-electron integrals computed using PRISM.
 NBasis=   795 RedAO= T EigKep=  1.66D-02  NBF=   795
 NBsUse=   795 1.00D-06 EigRej= -1.00D+00 NBFU=   795
 Precomputing XC quadrature grid using
 IXCGrd= 4 IRadAn=           0 IRanWt=          -1 IRanGd=           0 AccXCQ= 0.00D+00.
 Generated NRdTot=       0 NPtTot=           0 NUsed=           0 NTot=          32
 NSgBfM=   695   695   699   709   717 MxSgAt=    97 MxSgA2=    97.
 Leave Link  302 at Wed May  2 23:35:47 2018, MaxMem= 14763950080 cpu:       393.0
 (Enter /cm/shared/gaussian/g09.e01/intel64-sandybridge/g09/l303.exe)
 DipDrv:  MaxL=1.
 Leave Link  303 at Wed May  2 23:35:47 2018, MaxMem= 14763950080 cpu:        29.1
 (Enter /cm/shared/gaussian/g09.e01/intel64-sandybridge/g09/l401.exe)
 ExpMin= 1.22D-01 ExpMax= 6.40D+05 ExpMxC= 6.18D+03 IAcc=2 IRadAn=         4 AccDes= 0.00D+00
 Harris functional with IExCor= 1009 and IRadAn=       4 diagonalized for initial guess.
 HarFok:  IExCor= 1009 AccDes= 0.00D+00 IRadAn=         4 IDoV= 1 UseB2=F ITyADJ=14
 ICtDFT=  3500011 ScaDFX=  1.000000  1.000000  1.000000  1.000000
 FoFCou: FMM=F IPFlag=           0 FMFlag=      100000 FMFlg1=        2001
         NFxFlg=           0 DoJE=T BraDBF=F KetDBF=T FulRan=T
         wScrn=  0.000000 ICntrl=     500 IOpCl=  0 I1Cent=   200000004 NGrid=           0
         NMat0=    1 NMatS0=      1 NMatT0=    0 NMatD0=    1 NMtDS0=    0 NMtDT0=    0
 Symmetry not used in FoFCou.
 Harris En= -5018.44116152464    
 JPrj=0 DoOrth=F DoCkMO=F.
 Leave Link  401 at Wed May  2 23:35:52 2018, MaxMem= 14763950080 cpu:       309.5
 (Enter /cm/shared/gaussian/g09.e01/intel64-sandybridge/g09/l502.exe)
 Closed shell SCF:
 Using DIIS extrapolation, IDIIS=  1040.
 Two-electron integral symmetry not used.
 IVT=     2138497 IEndB=     2138497 NGot= 14763950080 MDV= 14762516294
 LenX= 14762516294 LenY= 14761828224
 Requested convergence on RMS density matrix=1.00D-08 within 128 cycles.
 Requested convergence on MAX density matrix=1.00D-06.
 Requested convergence on             energy=1.00D-06.
 No special actions if energy rises.
 Fock matrices will be formed incrementally for  20 cycles.
 Integral accuracy reduced to 1.0D-05 until final iterations.

 Cycle   1  Pass 0  IDiag  1:
 FoFJK:  IHMeth= 1 ICntrl=       0 DoSepK=F KAlg= 0 I1Cent=   0 FoldK=F
 IRaf= 810000000 NMat=   1 IRICut=       1 DoRegI=T DoRafI=F ISym2E= 0.
 FoFCou: FMM=T IPFlag=           0 FMFlag=      100000 FMFlg1=        2001
         NFxFlg=           0 DoJE=F BraDBF=F KetDBF=F FulRan=T
         wScrn=  0.000000 ICntrl=       0 IOpCl=  0 I1Cent=           0 NGrid=           0
         NMat0=    1 NMatS0=      1 NMatT0=    0 NMatD0=    1 NMtDS0=    0 NMtDT0=    0
 Symmetry not used in FoFCou.
 FMM levels:  10  Number of levels for PrismC:   9
 E= -5015.35939073445    
 DIIS: error= 3.85D-02 at cycle   1 NSaved=   1.
 NSaved= 1 IEnMin= 1 EnMin= -5015.35939073445     IErMin= 1 ErrMin= 3.85D-02
 ErrMax= 3.85D-02  0.00D+00 EMaxC= 1.00D-01 BMatC= 2.70D+00 BMatP= 2.70D+00
 IDIUse=3 WtCom= 6.15D-01 WtEn= 3.85D-01
 Coeff-Com:  0.100D+01
 Coeff-En:   0.100D+01
 Coeff:      0.100D+01
 Gap=     0.308 Goal=   None    Shift=    0.000
 GapD=    0.308 DampG=1.000 DampE=0.500 DampFc=0.5000 IDamp=-1.
 Damping current iteration by 5.00D-01
 RMSDP=2.82D-03 MaxDP=1.62D-01              OVMax= 1.69D-01

 Cycle   2  Pass 0  IDiag  1:
 RMSU=  1.39D-03    CP:  9.85D-01
 E= -5016.14784386296     Delta-E=       -0.788453128511 Rises=F Damp=T
 DIIS: error= 6.01D-03 at cycle   2 NSaved=   2.
 NSaved= 2 IEnMin= 2 EnMin= -5016.14784386296     IErMin= 2 ErrMin= 6.01D-03
 ErrMax= 6.01D-03  0.00D+00 EMaxC= 1.00D-01 BMatC= 8.43D-02 BMatP= 2.70D+00
 IDIUse=3 WtCom= 9.40D-01 WtEn= 6.01D-02
 Coeff-Com:  0.118D+00 0.882D+00
 Coeff-En:   0.212D+00 0.788D+00
 Coeff:      0.123D+00 0.877D+00
 Gap=     0.189 Goal=   None    Shift=    0.000
 RMSDP=3.47D-04 MaxDP=1.81D-02 DE=-7.88D-01 OVMax= 9.57D-02

 Cycle   3  Pass 0  IDiag  1:
 RMSU=  2.74D-04    CP:  9.87D-01  8.48D-01
 E= -5017.28382684870     Delta-E=       -1.135982985739 Rises=F Damp=F
 DIIS: error= 9.33D-04 at cycle   3 NSaved=   3.
 NSaved= 3 IEnMin= 3 EnMin= -5017.28382684870     IErMin= 3 ErrMin= 9.33D-04
 ErrMax= 9.33D-04  0.00D+00 EMaxC= 1.00D-01 BMatC= 2.07D-03 BMatP= 8.43D-02
 IDIUse=3 WtCom= 9.91D-01 WtEn= 9.33D-03
 Coeff-Com:  0.826D-02 0.793D-01 0.912D+00
 Coeff-En:   0.000D+00 0.000D+00 0.100D+01
 Coeff:      0.818D-02 0.785D-01 0.913D+00
 Gap=     0.204 Goal=   None    Shift=    0.000
 RMSDP=9.89D-05 MaxDP=1.46D-02 DE=-1.14D+00 OVMax= 1.76D-02

 Cycle   4  Pass 0  IDiag  1:
 RMSU=  8.67D-05    CP:  9.87D-01  8.53D-01  8.28D-01
 E= -5017.28417579807     Delta-E=       -0.000348949376 Rises=F Damp=F
 DIIS: error= 1.06D-03 at cycle   4 NSaved=   4.
 NSaved= 4 IEnMin= 4 EnMin= -5017.28417579807     IErMin= 3 ErrMin= 9.33D-04
 ErrMax= 1.06D-03  0.00D+00 EMaxC= 1.00D-01 BMatC= 2.15D-03 BMatP= 2.07D-03
 IDIUse=3 WtCom= 9.89D-01 WtEn= 1.06D-02
 Coeff-Com:  0.913D-03 0.956D-02 0.504D+00 0.486D+00
 Coeff-En:   0.000D+00 0.000D+00 0.453D+00 0.547D+00
 Coeff:      0.903D-03 0.945D-02 0.503D+00 0.486D+00
 Gap=     0.201 Goal=   None    Shift=    0.000
 RMSDP=4.35D-05 MaxDP=5.41D-03 DE=-3.49D-04 OVMax= 5.88D-03

 Cycle   5  Pass 0  IDiag  1:
 RMSU=  1.71D-05    CP:  9.87D-01  8.51D-01  8.92D-01  5.87D-01
 E= -5017.28584399588     Delta-E=       -0.001668197807 Rises=F Damp=F
 DIIS: error= 1.02D-04 at cycle   5 NSaved=   5.
 NSaved= 5 IEnMin= 5 EnMin= -5017.28584399588     IErMin= 5 ErrMin= 1.02D-04
 ErrMax= 1.02D-04  0.00D+00 EMaxC= 1.00D-01 BMatC= 3.24D-05 BMatP= 2.07D-03
 IDIUse=3 WtCom= 9.99D-01 WtEn= 1.02D-03
 Coeff-Com:  0.379D-03-0.639D-03 0.144D+00 0.168D+00 0.688D+00
 Coeff-En:   0.000D+00 0.000D+00 0.000D+00 0.000D+00 0.100D+01
 Coeff:      0.379D-03-0.639D-03 0.144D+00 0.168D+00 0.688D+00
 Gap=     0.202 Goal=   None    Shift=    0.000
 RMSDP=8.41D-06 MaxDP=1.35D-03 DE=-1.67D-03 OVMax= 1.54D-03

 Cycle   6  Pass 0  IDiag  1:
 RMSU=  5.59D-06    CP:  9.87D-01  8.50D-01  9.03D-01  5.66D-01  7.04D-01
 E= -5017.28586983414     Delta-E=       -0.000025838255 Rises=F Damp=F
 DIIS: error= 1.07D-04 at cycle   6 NSaved=   6.
 NSaved= 6 IEnMin= 6 EnMin= -5017.28586983414     IErMin= 5 ErrMin= 1.02D-04
 ErrMax= 1.07D-04  0.00D+00 EMaxC= 1.00D-01 BMatC= 4.43D-06 BMatP= 3.24D-05
 IDIUse=3 WtCom= 9.99D-01 WtEn= 1.02D-03
 Coeff-Com:  0.662D-04-0.176D-02 0.334D-01 0.409D-01 0.299D+00 0.628D+00
 Coeff-En:   0.000D+00 0.000D+00 0.000D+00 0.000D+00 0.000D+00 0.100D+01
 Coeff:      0.661D-04-0.176D-02 0.333D-01 0.409D-01 0.299D+00 0.628D+00
 Gap=     0.202 Goal=   None    Shift=    0.000
 RMSDP=2.41D-06 MaxDP=4.50D-04 DE=-2.58D-05 OVMax= 3.78D-04

 Initial convergence to 1.0D-05 achieved.  Increase integral accuracy.
 Cycle   7  Pass 1  IDiag  1:
 E= -5017.28667021265     Delta-E=       -0.000800378515 Rises=F Damp=F
 DIIS: error= 2.69D-05 at cycle   1 NSaved=   1.
 NSaved= 1 IEnMin= 1 EnMin= -5017.28667021265     IErMin= 1 ErrMin= 2.69D-05
 ErrMax= 2.69D-05  0.00D+00 EMaxC= 1.00D-01 BMatC= 1.34D-06 BMatP= 1.34D-06
 IDIUse=1 WtCom= 1.00D+00 WtEn= 0.00D+00
 Coeff-Com:  0.100D+01
 Coeff:      0.100D+01
 Gap=     0.202 Goal=   None    Shift=    0.000
 RMSDP=2.41D-06 MaxDP=4.50D-04 DE=-8.00D-04 OVMax= 2.12D-04

 Cycle   8  Pass 1  IDiag  1:
 RMSU=  4.07D-06    CP:  1.00D+00
 E= -5017.28667141868     Delta-E=       -0.000001206028 Rises=F Damp=F
 DIIS: error= 1.38D-05 at cycle   2 NSaved=   2.
 NSaved= 2 IEnMin= 2 EnMin= -5017.28667141868     IErMin= 2 ErrMin= 1.38D-05
 ErrMax= 1.38D-05  0.00D+00 EMaxC= 1.00D-01 BMatC= 3.41D-07 BMatP= 1.34D-06
 IDIUse=1 WtCom= 1.00D+00 WtEn= 0.00D+00
 Coeff-Com:  0.268D+00 0.732D+00
 Coeff:      0.268D+00 0.732D+00
 Gap=     0.202 Goal=   None    Shift=    0.000
 RMSDP=7.88D-07 MaxDP=8.42D-05 DE=-1.21D-06 OVMax= 9.31D-05

 Cycle   9  Pass 1  IDiag  1:
 RMSU=  7.86D-07    CP:  1.00D+00  9.83D-01
 E= -5017.28667153746     Delta-E=       -0.000000118782 Rises=F Damp=F
 DIIS: error= 1.12D-05 at cycle   3 NSaved=   3.
 NSaved= 3 IEnMin= 3 EnMin= -5017.28667153746     IErMin= 3 ErrMin= 1.12D-05
 ErrMax= 1.12D-05  0.00D+00 EMaxC= 1.00D-01 BMatC= 1.82D-07 BMatP= 3.41D-07
 IDIUse=1 WtCom= 1.00D+00 WtEn= 0.00D+00
 Coeff-Com: -0.669D-02 0.422D+00 0.585D+00
 Coeff:     -0.669D-02 0.422D+00 0.585D+00
 Gap=     0.202 Goal=   None    Shift=    0.000
 RMSDP=3.35D-07 MaxDP=3.89D-05 DE=-1.19D-07 OVMax= 4.41D-05

 Cycle  10  Pass 1  IDiag  1:
 RMSU=  9.98D-08    CP:  1.00D+00  1.01D+00  6.13D-01
 E= -5017.28667166654     Delta-E=       -0.000000129079 Rises=F Damp=F
 DIIS: error= 1.29D-06 at cycle   4 NSaved=   4.
 NSaved= 4 IEnMin= 4 EnMin= -5017.28667166654     IErMin= 4 ErrMin= 1.29D-06
 ErrMax= 1.29D-06  0.00D+00 EMaxC= 1.00D-01 BMatC= 1.30D-09 BMatP= 1.82D-07
 IDIUse=1 WtCom= 1.00D+00 WtEn= 0.00D+00
 Coeff-Com: -0.543D-02 0.186D+00 0.266D+00 0.554D+00
 Coeff:     -0.543D-02 0.186D+00 0.266D+00 0.554D+00
 Gap=     0.202 Goal=   None    Shift=    0.000
 RMSDP=4.14D-08 MaxDP=6.70D-06 DE=-1.29D-07 OVMax= 6.56D-06

 Cycle  11  Pass 1  IDiag  1:
 RMSU=  3.02D-08    CP:  1.00D+00  1.01D+00  6.14D-01  7.21D-01
 E= -5017.28667166768     Delta-E=       -0.000000001135 Rises=F Damp=F
 DIIS: error= 1.86D-07 at cycle   5 NSaved=   5.
 NSaved= 5 IEnMin= 5 EnMin= -5017.28667166768     IErMin= 5 ErrMin= 1.86D-07
 ErrMax= 1.86D-07  0.00D+00 EMaxC= 1.00D-01 BMatC= 7.72D-11 BMatP= 1.30D-09
 IDIUse=1 WtCom= 1.00D+00 WtEn= 0.00D+00
 Coeff-Com: -0.180D-02 0.484D-01 0.705D-01 0.236D+00 0.647D+00
 Coeff:     -0.180D-02 0.484D-01 0.705D-01 0.236D+00 0.647D+00
 Gap=     0.202 Goal=   None    Shift=    0.000
 RMSDP=9.34D-09 MaxDP=1.15D-06 DE=-1.14D-09 OVMax= 1.20D-06

 Cycle  12  Pass 1  IDiag  1:
 RMSU=  8.47D-09    CP:  1.00D+00  1.01D+00  6.14D-01  7.50D-01  9.29D-01
 E= -5017.28667166768     Delta-E=       -0.000000000002 Rises=F Damp=F
 DIIS: error= 7.68D-08 at cycle   6 NSaved=   6.
 NSaved= 6 IEnMin= 6 EnMin= -5017.28667166768     IErMin= 6 ErrMin= 7.68D-08
 ErrMax= 7.68D-08  0.00D+00 EMaxC= 1.00D-01 BMatC= 5.90D-12 BMatP= 7.72D-11
 IDIUse=1 WtCom= 1.00D+00 WtEn= 0.00D+00
 Coeff-Com: -0.846D-07-0.497D-02-0.678D-02 0.178D-01 0.238D+00 0.756D+00
 Coeff:     -0.846D-07-0.497D-02-0.678D-02 0.178D-01 0.238D+00 0.756D+00
 Gap=     0.202 Goal=   None    Shift=    0.000
 RMSDP=3.27D-09 MaxDP=6.65D-07 DE=-1.82D-12 OVMax= 6.09D-07

 SCF Done:  E(RPBE1PBE) =  -5017.28667167     A.U. after   12 cycles
            NFock= 12  Conv=0.33D-08     -V/T= 2.0028
 KE= 5.003148443883D+03 PE=-2.408519945302D+04 EE= 8.004214300569D+03
 Leave Link  502 at Wed May  2 23:37:57 2018, MaxMem= 14763950080 cpu:      7893.1
 (Enter /cm/shared/gaussian/g09.e01/intel64-sandybridge/g09/l601.exe)
 Copying SCF densities to generalized density rwf, IOpCl= 0 IROHF=0.

 **********************************************************************

            Population analysis using the SCF density.

 **********************************************************************

 Alpha  occ. eigenvalues -- -483.16693 -62.56966 -56.34218 -56.34198 -56.34190
 Alpha  occ. eigenvalues --  -19.21059 -19.19270 -19.17129 -19.16869 -19.15402
 Alpha  occ. eigenvalues --  -19.15351 -19.15093 -19.15001 -19.14871 -19.14819
 Alpha  occ. eigenvalues --  -19.14744 -19.14740 -19.14587 -19.14180 -19.13994
 Alpha  occ. eigenvalues --  -19.13524 -19.12311 -19.12080 -19.11869 -19.11784
 Alpha  occ. eigenvalues --  -19.11757 -19.11704 -19.11460 -19.11251 -19.10930
 Alpha  occ. eigenvalues --  -19.10836 -19.10039 -19.09553 -19.09383 -19.08662
 Alpha  occ. eigenvalues --  -19.07218 -19.02857  -8.67247  -6.47615  -6.47545
 Alpha  occ. eigenvalues --   -6.47505  -2.55883  -2.55874  -2.55840  -2.55784
 Alpha  occ. eigenvalues --   -2.55776  -1.03474  -1.02049  -0.99642  -0.99237
 Alpha  occ. eigenvalues --   -0.98312  -0.98284  -0.98048  -0.97855  -0.97574
 Alpha  occ. eigenvalues --   -0.97197  -0.97105  -0.97085  -0.96888  -0.96849
 Alpha  occ. eigenvalues --   -0.96105  -0.95727  -0.95115  -0.94904  -0.94683
 Alpha  occ. eigenvalues --   -0.94462  -0.94306  -0.94201  -0.93836  -0.93745
 Alpha  occ. eigenvalues --   -0.93555  -0.93002  -0.92262  -0.92122  -0.92044
 Alpha  occ. eigenvalues --   -0.91532  -0.90150  -0.86036  -0.66524  -0.53819
 Alpha  occ. eigenvalues --   -0.53067  -0.50021  -0.49499  -0.49031  -0.48820
 Alpha  occ. eigenvalues --   -0.48685  -0.48471  -0.48101  -0.47981  -0.47886
 Alpha  occ. eigenvalues --   -0.47418  -0.47196  -0.47157  -0.47115  -0.46608
 Alpha  occ. eigenvalues --   -0.46378  -0.46337  -0.46222  -0.45768  -0.45324
 Alpha  occ. eigenvalues --   -0.45052  -0.44867  -0.44148  -0.44079  -0.43361
 Alpha  occ. eigenvalues --   -0.43107  -0.42953  -0.42797  -0.42742  -0.42391
 Alpha  occ. eigenvalues --   -0.40919  -0.38292  -0.37808  -0.37265  -0.37046
 Alpha  occ. eigenvalues --   -0.36847  -0.35805  -0.35303  -0.34802  -0.34670
 Alpha  occ. eigenvalues --   -0.34374  -0.33914  -0.33275  -0.33229  -0.33160
 Alpha  occ. eigenvalues --   -0.32558  -0.32383  -0.32128  -0.31538  -0.31212
 Alpha  occ. eigenvalues --   -0.30849  -0.30728  -0.30596  -0.30535  -0.30290
 Alpha  occ. eigenvalues --   -0.30016  -0.29749  -0.29347  -0.29310  -0.28451
 Alpha  occ. eigenvalues --   -0.28398  -0.28317  -0.28142  -0.28003  -0.27749
 Alpha  occ. eigenvalues --   -0.27064  -0.26604  -0.26401  -0.25886  -0.25769
 Alpha  occ. eigenvalues --   -0.25653  -0.25546  -0.25495  -0.25365  -0.25249
 Alpha  occ. eigenvalues --   -0.25102  -0.24616  -0.24436  -0.23651  -0.23576
 Alpha  occ. eigenvalues --   -0.23235  -0.23025  -0.22850  -0.22662  -0.22491
 Alpha  occ. eigenvalues --   -0.22356  -0.21724  -0.21695  -0.21112  -0.20955
 Alpha  occ. eigenvalues --   -0.20883  -0.20586  -0.20512  -0.20438  -0.19791
 Alpha  occ. eigenvalues --   -0.19333  -0.18704  -0.14647
 Alpha virt. eigenvalues --    0.05523   0.08739   0.08815   0.10089   0.11333
 Alpha virt. eigenvalues --    0.12137   0.12693   0.12806   0.13760   0.14585
 Alpha virt. eigenvalues --    0.14749   0.15132   0.15948   0.16305   0.16763
 Alpha virt. eigenvalues --    0.17395   0.17881   0.18222   0.18411   0.19144
 Alpha virt. eigenvalues --    0.19481   0.19517   0.20081   0.20615   0.20921
 Alpha virt. eigenvalues --    0.21111   0.21679   0.21965   0.22293   0.23081
 Alpha virt. eigenvalues --    0.23644   0.24005   0.24439   0.24626   0.25496
 Alpha virt. eigenvalues --    0.26086   0.26317   0.26633   0.27437   0.27587
 Alpha virt. eigenvalues --    0.28348   0.28738   0.29188   0.29328   0.29720
 Alpha virt. eigenvalues --    0.30350   0.30883   0.31292   0.31888   0.32107
 Alpha virt. eigenvalues --    0.32914   0.33018   0.33248   0.33720   0.34064
 Alpha virt. eigenvalues --    0.34594   0.35227   0.35639   0.36025   0.36515
 Alpha virt. eigenvalues --    0.37312   0.37550   0.38839   0.41315   0.58101
 Alpha virt. eigenvalues --    0.58682   0.59212   0.59703   0.60022   0.60246
 Alpha virt. eigenvalues --    0.60702   0.61385   0.61552   0.62133   0.62484
 Alpha virt. eigenvalues --    0.62955   0.63403   0.63897   0.64070   0.64533
 Alpha virt. eigenvalues --    0.64923   0.65106   0.65281   0.65817   0.65926
 Alpha virt. eigenvalues --    0.66213   0.66523   0.66719   0.66856   0.67172
 Alpha virt. eigenvalues --    0.67603   0.67677   0.68023   0.68130   0.68364
 Alpha virt. eigenvalues --    0.68625   0.69046   0.69436   0.69555   0.69766
 Alpha virt. eigenvalues --    0.70204   0.71098   0.71152   0.71430   0.71686
 Alpha virt. eigenvalues --    0.72022   0.72277   0.72737   0.73022   0.73811
 Alpha virt. eigenvalues --    0.73881   0.74354   0.74496   0.74902   0.74912
 Alpha virt. eigenvalues --    0.75482   0.75846   0.76176   0.76452   0.76664
 Alpha virt. eigenvalues --    0.77574   0.77881   0.78322   0.78454   0.79180
 Alpha virt. eigenvalues --    0.80193   0.80660   0.81347   0.82156   0.82908
 Alpha virt. eigenvalues --    0.83167   0.83646   0.85278   0.85799   0.86141
 Alpha virt. eigenvalues --    0.87872   0.89434   0.92542   0.93984   0.94559
 Alpha virt. eigenvalues --    0.94836   0.95111   0.95631   0.95960   0.96155
 Alpha virt. eigenvalues --    0.96333   0.97040   0.97332   0.97746   0.98104
 Alpha virt. eigenvalues --    0.98714   0.98817   0.99381   0.99830   1.00176
 Alpha virt. eigenvalues --    1.00622   1.01049   1.01115   1.01531   1.01611
 Alpha virt. eigenvalues --    1.02022   1.02456   1.02688   1.03353   1.03567
 Alpha virt. eigenvalues --    1.03662   1.03883   1.04039   1.04355   1.04727
 Alpha virt. eigenvalues --    1.05039   1.05074   1.05410   1.05588   1.05763
 Alpha virt. eigenvalues --    1.05956   1.06551   1.06628   1.06963   1.07250
 Alpha virt. eigenvalues --    1.07463   1.08163   1.08272   1.08641   1.08800
 Alpha virt. eigenvalues --    1.08978   1.09259   1.09823   1.10105   1.10341
 Alpha virt. eigenvalues --    1.10694   1.10985   1.11439   1.11930   1.12238
 Alpha virt. eigenvalues --    1.12297   1.12448   1.12700   1.13049   1.13357
 Alpha virt. eigenvalues --    1.13414   1.13839   1.14407   1.14620   1.14870
 Alpha virt. eigenvalues --    1.15702   1.16300   1.16444   1.16866   1.17143
 Alpha virt. eigenvalues --    1.17324   1.17606   1.18287   1.18778   1.19326
 Alpha virt. eigenvalues --    1.19364   1.19516   1.20527   1.20768   1.20980
 Alpha virt. eigenvalues --    1.21581   1.22253   1.22707   1.22805   1.23146
 Alpha virt. eigenvalues --    1.23341   1.23504   1.24051   1.24939   1.25581
 Alpha virt. eigenvalues --    1.25785   1.26313   1.26748   1.26897   1.27142
 Alpha virt. eigenvalues --    1.28126   1.28213   1.28319   1.28953   1.29132
 Alpha virt. eigenvalues --    1.29387   1.29741   1.30226   1.30374   1.30464
 Alpha virt. eigenvalues --    1.30775   1.30962   1.31473   1.31529   1.31936
 Alpha virt. eigenvalues --    1.32456   1.32678   1.32824   1.32975   1.33219
 Alpha virt. eigenvalues --    1.33670   1.33691   1.33946   1.34153   1.34429
 Alpha virt. eigenvalues --    1.34728   1.34885   1.35680   1.35811   1.36247
 Alpha virt. eigenvalues --    1.36515   1.36664   1.36889   1.37175   1.37262
 Alpha virt. eigenvalues --    1.37612   1.37813   1.38130   1.38365   1.38918
 Alpha virt. eigenvalues --    1.39289   1.39804   1.39968   1.40845   1.41168
 Alpha virt. eigenvalues --    1.41322   1.41523   1.42283   1.42578   1.42873
 Alpha virt. eigenvalues --    1.43456   1.44232   1.44425   1.44754   1.44939
 Alpha virt. eigenvalues --    1.46035   1.46631   1.46729   1.47963   1.48089
 Alpha virt. eigenvalues --    1.48734   1.49435   1.49781   1.49939   1.50789
 Alpha virt. eigenvalues --    1.52072   1.52752   1.53085   1.53255   1.53340
 Alpha virt. eigenvalues --    1.53861   1.54125   1.54223   1.55210   1.55457
 Alpha virt. eigenvalues --    1.55632   1.55853   1.55977   1.56502   1.56810
 Alpha virt. eigenvalues --    1.56968   1.57723   1.58395   1.59666   1.60033
 Alpha virt. eigenvalues --    1.60285   1.61031   1.61539   1.62477   1.63087
 Alpha virt. eigenvalues --    1.63740   1.64141   1.64431   1.65370   1.67855
 Alpha virt. eigenvalues --    1.68478   1.68977   1.69268   1.69527   1.70296
 Alpha virt. eigenvalues --    1.71370   1.72171   1.73219   1.73422   1.73977
 Alpha virt. eigenvalues --    1.74203   1.74571   1.74665   1.75290   1.75902
 Alpha virt. eigenvalues --    1.76397   1.76751   1.77411   1.77651   1.77871
 Alpha virt. eigenvalues --    1.77969   1.78314   1.78410   1.78857   1.78981
 Alpha virt. eigenvalues --    1.79675   1.79861   1.80272   1.80661   1.81106
 Alpha virt. eigenvalues --    1.81631   1.82056   1.82243   1.82851   1.83085
 Alpha virt. eigenvalues --    1.83232   1.84024   1.84835   1.85500   1.85862
 Alpha virt. eigenvalues --    1.86340   1.86507   1.86962   1.87681   1.88073
 Alpha virt. eigenvalues --    1.89007   1.89565   1.90912   1.91238   1.92479
 Alpha virt. eigenvalues --    1.92910   1.93582   1.94221   1.95803   1.96230
 Alpha virt. eigenvalues --    1.96394   1.97000   1.97707   1.98506   1.99229
 Alpha virt. eigenvalues --    2.02530   2.07218   2.08524   2.16702   2.18399
 Alpha virt. eigenvalues --    2.18920   2.19908   2.20335   2.20673   2.20756
 Alpha virt. eigenvalues --    2.21324   2.21536   2.21813   2.22072   2.22462
 Alpha virt. eigenvalues --    2.22821   2.23132   2.24013   2.24138   2.24448
 Alpha virt. eigenvalues --    2.24483   2.24908   2.25143   2.25249   2.25597
 Alpha virt. eigenvalues --    2.25809   2.25819   2.26186   2.26327   2.26490
 Alpha virt. eigenvalues --    2.26805   2.26959   2.27059   2.27233   2.27711
 Alpha virt. eigenvalues --    2.27925   2.29009   2.29504   2.30050   2.30343
 Alpha virt. eigenvalues --    2.30808   2.30980   2.32135   2.33566   2.34094
 Alpha virt. eigenvalues --    2.34749   2.34857   2.35684   2.37044   2.38166
 Alpha virt. eigenvalues --    2.38299   2.38971   2.39468   2.40125   2.45000
 Alpha virt. eigenvalues --    2.46247   2.48509   2.49628   2.50232   2.52491
 Alpha virt. eigenvalues --    2.52806   2.54001   2.55334   2.58196   2.58584
 Alpha virt. eigenvalues --    2.61402   2.62860   2.93665   2.95881   2.96306
 Alpha virt. eigenvalues --    2.96673   2.97176   2.97598   2.98208   2.98493
 Alpha virt. eigenvalues --    2.98814   2.99110   2.99182   2.99436   2.99582
 Alpha virt. eigenvalues --    3.00080   3.00279   3.00361   3.00685   3.00767
 Alpha virt. eigenvalues --    3.00949   3.01246   3.01340   3.01468   3.02050
 Alpha virt. eigenvalues --    3.02149   3.02394   3.02453   3.02574   3.02712
 Alpha virt. eigenvalues --    3.02781   3.03119   3.03179   3.03293   3.03471
 Alpha virt. eigenvalues --    3.03693   3.03773   3.03963   3.04218   3.04261
 Alpha virt. eigenvalues --    3.04393   3.04949   3.05139   3.05463   3.05804
 Alpha virt. eigenvalues --    3.06028   3.06327   3.06568   3.06701   3.06772
 Alpha virt. eigenvalues --    3.06811   3.06856   3.07280   3.07634   3.07678
 Alpha virt. eigenvalues --    3.08021   3.08340   3.08558   3.08830   3.09107
 Alpha virt. eigenvalues --    3.10095   3.10949   3.11213   3.12026   3.12180
 Alpha virt. eigenvalues --    3.15489   3.16906   3.18273   3.19706   3.20206
 Alpha virt. eigenvalues --    3.20585   3.21065   3.21287   3.21481   3.22070
 Alpha virt. eigenvalues --    3.22443   3.22461   3.22853   3.23008   3.23475
 Alpha virt. eigenvalues --    3.23499   3.23579   3.23679   3.24279   3.24507
 Alpha virt. eigenvalues --    3.25817   3.25984   3.26024   3.26294   3.26635
 Alpha virt. eigenvalues --    3.26645   3.26982   3.27510   3.28013   3.28740
 Alpha virt. eigenvalues --    3.29254   3.29535   3.34852   3.53266   3.54777
 Alpha virt. eigenvalues --    3.55068   3.55829   3.56600   3.57055   3.57997
 Alpha virt. eigenvalues --    3.58029   3.58773   3.59076   3.59298   3.59451
 Alpha virt. eigenvalues --    3.59556   3.59649   3.59831   3.60908   3.61217
 Alpha virt. eigenvalues --    3.61655   3.62257   3.62392   3.62773   3.62958
 Alpha virt. eigenvalues --    3.63847   3.64197   3.64636   3.64861   3.65546
 Alpha virt. eigenvalues --    3.65692   3.66477   3.69385   3.70905   3.72564
 Alpha virt. eigenvalues --    3.81720   3.82747   3.83239   3.83322   3.83564
 Alpha virt. eigenvalues --    3.85002   3.85516   3.85982   3.86183   3.86686
 Alpha virt. eigenvalues --    3.86873   3.87254   3.87435   3.88245   3.88513
 Alpha virt. eigenvalues --    3.89022   3.89346   3.89486   3.90700   3.91177
 Alpha virt. eigenvalues --    3.91442   3.91857   3.92631   3.92833   3.93087
 Alpha virt. eigenvalues --    3.93313   3.95052   3.95528   3.96222   3.97947
 Alpha virt. eigenvalues --    3.99592   4.00768
          Condensed to atoms (all electrons):
 Mulliken charges:
               1
     1  Br  -0.712556
     2  O   -0.267463
     3  H    0.134632
     4  H    0.155058
     5  O   -0.293837
     6  H    0.151978
     7  H    0.139565
     8  O   -0.251993
     9  H    0.142535
    10  H    0.130248
    11  O   -0.269804
    12  H    0.142721
    13  H    0.145849
    14  O   -0.266721
    15  H    0.127063
    16  H    0.147059
    17  O   -0.266198
    18  H    0.131738
    19  H    0.151062
    20  O   -0.268092
    21  H    0.127140
    22  H    0.146750
    23  O   -0.272831
    24  H    0.144241
    25  H    0.126647
    26  O   -0.249428
    27  H    0.138395
    28  H    0.147564
    29  O   -0.311801
    30  H    0.135236
    31  H    0.129525
    32  O   -0.257718
    33  H    0.139452
    34  H    0.134701
    35  O   -0.285118
    36  H    0.129735
    37  H    0.118685
    38  O   -0.276324
    39  H    0.144980
    40  H    0.155338
    41  O   -0.276248
    42  H    0.121386
    43  H    0.151333
    44  O   -0.241469
    45  H    0.163100
    46  H    0.155710
    47  O   -0.296135
    48  H    0.132324
    49  H    0.134392
    50  O   -0.270145
    51  H    0.130966
    52  H    0.142506
    53  O   -0.289282
    54  H    0.131672
    55  H    0.091023
    56  O   -0.260976
    57  H    0.110677
    58  H    0.131934
    59  O   -0.308539
    60  H    0.112742
    61  H    0.135128
    62  O   -0.296814
    63  H    0.132739
    64  H    0.126370
    65  O   -0.342010
    66  H    0.130103
    67  H    0.104368
    68  O   -0.281210
    69  H    0.143805
    70  H    0.138831
    71  O   -0.262004
    72  H    0.142454
    73  H    0.137248
    74  O   -0.303131
    75  H    0.124589
    76  H    0.126714
    77  O   -0.283261
    78  H    0.136296
    79  H    0.124939
    80  O   -0.313674
    81  H    0.126466
    82  H    0.139583
    83  O   -0.237568
    84  H    0.168449
    85  H    0.133410
    86  O   -0.266598
    87  H    0.120708
    88  H    0.145365
    89  O   -0.272619
    90  H    0.135986
    91  H    0.136118
    92  O   -0.295638
    93  H    0.145560
    94  H    0.139907
    95  O   -0.328744
    96  H    0.111125
    97  H    0.142025
 Sum of Mulliken charges =  -1.00000
 Mulliken charges with hydrogens summed into heavy atoms:
               1
     1  Br  -0.712556
     2  O    0.022228
     5  O   -0.002294
     8  O    0.020790
    11  O    0.018766
    14  O    0.007401
    17  O    0.016602
    20  O    0.005798
    23  O   -0.001943
    26  O    0.036531
    29  O   -0.047040
    32  O    0.016436
    35  O   -0.036698
    38  O    0.023994
    41  O   -0.003529
    44  O    0.077340
    47  O   -0.029419
    50  O    0.003327
    53  O   -0.066587
    56  O   -0.018365
    59  O   -0.060668
    62  O   -0.037706
    65  O   -0.107539
    68  O    0.001426
    71  O    0.017697
    74  O   -0.051828
    77  O   -0.022026
    80  O   -0.047624
    83  O    0.064292
    86  O   -0.000526
    89  O   -0.000515
    92  O   -0.010171
    95  O   -0.075595
         Mulliken charges condensed to fragments:
      1     -0.712556
      2     -0.287444
 Electronic spatial extent (au):  <R**2>=        1550814.0866
 Charge=             -1.0000 electrons
 Dipole moment (field-independent basis, Debye):
    X=            -95.7339    Y=            -86.8269    Z=            -97.9546  Tot=            162.1696
 Quadrupole moment (field-independent basis, Debye-Ang):
   XX=          -2251.6510   YY=          -1845.3717   ZZ=          -2250.2916
   XY=          -1745.2737   XZ=          -1975.6832   YZ=          -1811.0325
 Traceless Quadrupole moment (field-independent basis, Debye-Ang):
   XX=           -135.8795   YY=            270.3997   ZZ=           -134.5202
   XY=          -1745.2737   XZ=          -1975.6832   YZ=          -1811.0325
 Octapole moment (field-independent basis, Debye-Ang**2):
  XXX=         -58678.3491  YYY=         -44579.1269  ZZZ=         -55951.5299  XYY=         -37400.2478
  XXY=         -41853.5634  XXZ=         -46663.8148  XZZ=         -45728.0382  YZZ=         -42814.0947
  YYZ=         -39253.8276  XYZ=         -36780.8383
 Hexadecapole moment (field-independent basis, Debye-Ang**3):
 XXXX=       -1598165.1543 YYYY=       -1159953.6049 ZZZZ=       -1451876.6598 XXXY=       -1113460.7381
 XXXZ=       -1214844.7255 YYYX=        -908597.4812 YYYZ=        -958886.9040 ZZZX=       -1140108.1739
 ZZZY=       -1091599.9047 XXYY=        -895859.5307 XXZZ=       -1067764.5258 YYZZ=        -939129.6479
 XXYZ=        -881866.9982 YYXZ=        -801808.9830 ZZXY=        -874081.2462
 N-N= 6.060550036900D+03 E-N=-2.408519951739D+04  KE= 5.003148443883D+03
 No NMR shielding tensors so no spin-rotation constants.
 Leave Link  601 at Wed May  2 23:37:59 2018, MaxMem= 14763950080 cpu:        69.8
 (Enter /cm/shared/gaussian/g09.e01/intel64-sandybridge/g09/l701.exe)
 Compute integral first derivatives.
 ... and contract with generalized density number  0.
 Leave Link  701 at Wed May  2 23:38:01 2018, MaxMem= 14763950080 cpu:       138.4
 (Enter /cm/shared/gaussian/g09.e01/intel64-sandybridge/g09/l702.exe)
 L702 exits ... SP integral derivatives will be done elsewhere.
 Leave Link  702 at Wed May  2 23:38:02 2018, MaxMem= 14763950080 cpu:         2.5
 (Enter /cm/shared/gaussian/g09.e01/intel64-sandybridge/g09/l703.exe)
 Compute integral first derivatives, UseDBF=F ICtDFT=           0.
 Integral derivatives from FoFJK, PRISM(SPDF).
 Calling FoFJK, ICntrl=      2127 FMM=T ISym2X=0 I1Cent= 0 IOpClX= 0 NMat=1 NMatS=1 NMatT=0.
 FoFJK:  IHMeth= 1 ICntrl=    2127 DoSepK=F KAlg= 0 I1Cent=   0 FoldK=F
 IRaf=         0 NMat=   1 IRICut=       1 DoRegI=T DoRafI=F ISym2E= 0.
 FoFCou: FMM=T IPFlag=           0 FMFlag=      100000 FMFlg1=        2001
         NFxFlg=           0 DoJE=F BraDBF=F KetDBF=F FulRan=T
         wScrn=  0.000000 ICntrl=    2127 IOpCl=  0 I1Cent=           0 NGrid=           0
         NMat0=    1 NMatS0=      1 NMatT0=    0 NMatD0=    1 NMtDS0=    0 NMtDT0=    0
 Symmetry not used in FoFCou.
 FMM levels:  10  Number of levels for PrismC:   9
 Leave Link  703 at Wed May  2 23:38:17 2018, MaxMem= 14763950080 cpu:       971.8
 (Enter /cm/shared/gaussian/g09.e01/intel64-sandybridge/g09/l716.exe)
 Dipole        =-3.76646087D+01-3.41603299D+01-3.85383049D+01
 Cartesian Forces:  Max     0.030256457 RMS     0.010109375
 Leave Link  716 at Wed May  2 23:38:17 2018, MaxMem= 14763950080 cpu:         3.5
 (Enter /cm/shared/gaussian/g09.e01/intel64-sandybridge/g09/l122.exe)
 CPIOFr:  IOpCl= 0 IRwI=-1 IRwCP=  731 ICalc= -1 LCPTot=     1005244 Len1MO=     2550559 IndFrg=     1005244
 CPIOFr:  IOpCl= 0 IRwI=-1 IRwCP=  731 ICalc=  0 LCPTot=     1005244 Len1MO=     2550559 IndFrg=     3555803
 Counterpoise: doing DCBS calculation for fragment   1 NewBq=T
 Leave Link  122 at Wed May  2 23:38:17 2018, MaxMem= 14763950080 cpu:         7.0
 (Enter /cm/shared/gaussian/g09.e01/intel64-sandybridge/g09/l301.exe)
 Basis read from rwf:  (5D, 7F)
 No pseudopotential information found on rwf file.
   795 basis functions,  1651 primitive gaussians,   829 cartesian basis functions
    18 alpha electrons       18 beta electrons
       nuclear repulsion energy         0.0000000000 Hartrees.
 IExCor= 1009 DFT=T Ex+Corr=PBE1PBE ExCW=0 ScaHFX=  0.250000
 ScaDFX=  0.750000  0.750000  1.000000  1.000000 ScalE2=  1.000000  1.000000
 IRadAn=      0 IRanWt=     -1 IRanGd=            0 ICorTp=0 IEmpDi=  4
 NAtoms=   97 NActive=   97 NUniq=   97 SFac= 1.00D+00 NAtFMM=   60 NAOKFM=T Big=T
 Integral buffers will be    131072 words long.
 Raffenetti 2 integral format.
 Two-electron integral symmetry is turned off.
 No density basis found on file   718.
 Leave Link  301 at Wed May  2 23:38:17 2018, MaxMem= 14763950080 cpu:         4.6
 (Enter /cm/shared/gaussian/g09.e01/intel64-sandybridge/g09/l302.exe)
 NPDir=0 NMtPBC=     1 NCelOv=     1 NCel=       1 NClECP=     1 NCelD=      1
         NCelK=      1 NCelE2=     1 NClLst=     1 CellRange=     0.0.
 One-electron integrals computed using PRISM.
 NBasis=   795 RedAO= T EigKep=  1.66D-02  NBF=   795
 NBsUse=   795 1.00D-06 EigRej= -1.00D+00 NBFU=   795
 Precomputing XC quadrature grid using
 IXCGrd= 4 IRadAn=           0 IRanWt=          -1 IRanGd=           0 AccXCQ= 0.00D+00.
 Generated NRdTot=       0 NPtTot=           0 NUsed=           0 NTot=          32
 NSgBfM=   695   695   699   709   717 MxSgAt=    97 MxSgA2=    97.
 Leave Link  302 at Wed May  2 23:38:21 2018, MaxMem= 14763950080 cpu:       244.7
 (Enter /cm/shared/gaussian/g09.e01/intel64-sandybridge/g09/l303.exe)
 DipDrv:  MaxL=1.
 Leave Link  303 at Wed May  2 23:38:22 2018, MaxMem= 14763950080 cpu:        28.3
 (Enter /cm/shared/gaussian/g09.e01/intel64-sandybridge/g09/l401.exe)
 ExpMin= 1.22D-01 ExpMax= 6.40D+05 ExpMxC= 6.18D+03 IAcc=2 IRadAn=         4 AccDes= 0.00D+00
 Harris functional with IExCor= 1009 and IRadAn=       4 diagonalized for initial guess.
 HarFok:  IExCor= 1009 AccDes= 0.00D+00 IRadAn=         4 IDoV= 1 UseB2=F ITyADJ=14
 ICtDFT=  3500011 ScaDFX=  1.000000  1.000000  1.000000  1.000000
 FoFCou: FMM=F IPFlag=           0 FMFlag=      100000 FMFlg1=        2001
         NFxFlg=           0 DoJE=T BraDBF=F KetDBF=T FulRan=T
         wScrn=  0.000000 ICntrl=     500 IOpCl=  0 I1Cent=   200000004 NGrid=           0
         NMat0=    1 NMatS0=      1 NMatT0=    0 NMatD0=    1 NMtDS0=    0 NMtDT0=    0
 Symmetry not used in FoFCou.
 Harris En= -2574.01971624709    
 JPrj=0 DoOrth=F DoCkMO=F.
 Leave Link  401 at Wed May  2 23:38:26 2018, MaxMem= 14763950080 cpu:       275.5
 (Enter /cm/shared/gaussian/g09.e01/intel64-sandybridge/g09/l502.exe)
 Closed shell SCF:
 Using DIIS extrapolation, IDIIS=  1040.
 Two-electron integral symmetry not used.
 IVT=     2138497 IEndB=     2138497 NGot= 14763950080 MDV= 14762516294
 LenX= 14762516294 LenY= 14761828224
 Requested convergence on RMS density matrix=1.00D-08 within 128 cycles.
 Requested convergence on MAX density matrix=1.00D-06.
 Requested convergence on             energy=1.00D-06.
 No special actions if energy rises.
 Fock matrices will be formed incrementally for  20 cycles.
 Integral accuracy reduced to 1.0D-05 until final iterations.

 Cycle   1  Pass 0  IDiag  1:
 FoFJK:  IHMeth= 1 ICntrl=       0 DoSepK=F KAlg= 0 I1Cent=   0 FoldK=F
 IRaf= 810000000 NMat=   1 IRICut=       1 DoRegI=T DoRafI=F ISym2E= 0.
 FoFCou: FMM=T IPFlag=           0 FMFlag=      100000 FMFlg1=        2001
         NFxFlg=           0 DoJE=F BraDBF=F KetDBF=F FulRan=T
         wScrn=  0.000000 ICntrl=       0 IOpCl=  0 I1Cent=           0 NGrid=           0
         NMat0=    1 NMatS0=      1 NMatT0=    0 NMatD0=    1 NMtDS0=    0 NMtDT0=    0
 Symmetry not used in FoFCou.
 FMM levels:  10  Number of levels for PrismC:   9
 E= -2573.87906913181    
 DIIS: error= 1.20D-02 at cycle   1 NSaved=   1.
 NSaved= 1 IEnMin= 1 EnMin= -2573.87906913181     IErMin= 1 ErrMin= 1.20D-02
 ErrMax= 1.20D-02  0.00D+00 EMaxC= 1.00D-01 BMatC= 3.79D-02 BMatP= 3.79D-02
 IDIUse=3 WtCom= 8.80D-01 WtEn= 1.20D-01
 Coeff-Com:  0.100D+01
 Coeff-En:   0.100D+01
 Coeff:      0.100D+01
 Gap=     0.181 Goal=   None    Shift=    0.000
 GapD=    0.181 DampG=1.000 DampE=0.500 DampFc=0.5000 IDamp=-1.
 Damping current iteration by 5.00D-01
 RMSDP=4.71D-04 MaxDP=6.67D-02              OVMax= 1.50D-01

 Cycle   2  Pass 0  IDiag  1:
 RMSU=  2.34D-04    CP:  9.95D-01
 E= -2573.89569357795     Delta-E=       -0.016624446137 Rises=F Damp=T
 DIIS: error= 7.28D-03 at cycle   2 NSaved=   2.
 NSaved= 2 IEnMin= 2 EnMin= -2573.89569357795     IErMin= 2 ErrMin= 7.28D-03
 ErrMax= 7.28D-03  0.00D+00 EMaxC= 1.00D-01 BMatC= 8.96D-03 BMatP= 3.79D-02
 IDIUse=3 WtCom= 9.27D-01 WtEn= 7.28D-02
 Coeff-Com: -0.572D+00 0.157D+01
 Coeff-En:   0.000D+00 0.100D+01
 Coeff:     -0.530D+00 0.153D+01
 Gap=     0.191 Goal=   None    Shift=    0.000
 RMSDP=1.63D-04 MaxDP=3.83D-02 DE=-1.66D-02 OVMax= 6.62D-02

 Cycle   3  Pass 0  IDiag  1:
 RMSU=  1.44D-04    CP:  9.95D-01  1.33D+00
 E= -2573.90911757450     Delta-E=       -0.013423996554 Rises=F Damp=F
 DIIS: error= 3.59D-03 at cycle   3 NSaved=   3.
 NSaved= 3 IEnMin= 3 EnMin= -2573.90911757450     IErMin= 3 ErrMin= 3.59D-03
 ErrMax= 3.59D-03  0.00D+00 EMaxC= 1.00D-01 BMatC= 2.41D-03 BMatP= 8.96D-03
 IDIUse=3 WtCom= 9.64D-01 WtEn= 3.59D-02
 Coeff-Com: -0.301D+00 0.713D+00 0.589D+00
 Coeff-En:   0.000D+00 0.000D+00 0.100D+01
 Coeff:     -0.290D+00 0.687D+00 0.603D+00
 Gap=     0.174 Goal=   None    Shift=    0.000
 RMSDP=7.10D-05 MaxDP=1.72D-02 DE=-1.34D-02 OVMax= 2.11D-02

 Cycle   4  Pass 0  IDiag  1:
 RMSU=  8.05D-06    CP:  9.93D-01  1.52D+00  6.30D-01
 E= -2573.91173335298     Delta-E=       -0.002615778476 Rises=F Damp=F
 DIIS: error= 1.30D-04 at cycle   4 NSaved=   4.
 NSaved= 4 IEnMin= 4 EnMin= -2573.91173335298     IErMin= 4 ErrMin= 1.30D-04
 ErrMax= 1.30D-04  0.00D+00 EMaxC= 1.00D-01 BMatC= 1.91D-06 BMatP= 2.41D-03
 IDIUse=3 WtCom= 9.99D-01 WtEn= 1.30D-03
 Coeff-Com: -0.146D-01 0.276D-01 0.435D-01 0.943D+00
 Coeff-En:   0.000D+00 0.000D+00 0.000D+00 0.100D+01
 Coeff:     -0.146D-01 0.276D-01 0.434D-01 0.944D+00
 Gap=     0.176 Goal=   None    Shift=    0.000
 RMSDP=2.35D-06 MaxDP=4.89D-04 DE=-2.62D-03 OVMax= 8.01D-04

 Initial convergence to 1.0D-05 achieved.  Increase integral accuracy.
 Cycle   5  Pass 1  IDiag  1:
 E= -2573.91255974745     Delta-E=       -0.000826394471 Rises=F Damp=F
 DIIS: error= 1.30D-05 at cycle   1 NSaved=   1.
 NSaved= 1 IEnMin= 1 EnMin= -2573.91255974745     IErMin= 1 ErrMin= 1.30D-05
 ErrMax= 1.30D-05  0.00D+00 EMaxC= 1.00D-01 BMatC= 1.12D-07 BMatP= 1.12D-07
 IDIUse=1 WtCom= 1.00D+00 WtEn= 0.00D+00
 Coeff-Com:  0.100D+01
 Coeff:      0.100D+01
 Gap=     0.176 Goal=   None    Shift=    0.000
 RMSDP=2.35D-06 MaxDP=4.89D-04 DE=-8.26D-04 OVMax= 3.03D-04

 Cycle   6  Pass 1  IDiag  1:
 RMSU=  1.42D-06    CP:  1.00D+00
 E= -2573.91255993743     Delta-E=       -0.000000189980 Rises=F Damp=F
 DIIS: error= 1.12D-05 at cycle   2 NSaved=   2.
 NSaved= 2 IEnMin= 2 EnMin= -2573.91255993743     IErMin= 2 ErrMin= 1.12D-05
 ErrMax= 1.12D-05  0.00D+00 EMaxC= 1.00D-01 BMatC= 3.00D-08 BMatP= 1.12D-07
 IDIUse=1 WtCom= 1.00D+00 WtEn= 0.00D+00
 Coeff-Com:  0.290D+00 0.710D+00
 Coeff:      0.290D+00 0.710D+00
 Gap=     0.176 Goal=   None    Shift=    0.000
 RMSDP=3.63D-07 MaxDP=9.49D-05 DE=-1.90D-07 OVMax= 1.18D-04

 Cycle   7  Pass 1  IDiag  1:
 RMSU=  3.54D-07    CP:  1.00D+00  9.50D-01
 E= -2573.91255997055     Delta-E=       -0.000000033119 Rises=F Damp=F
 DIIS: error= 4.67D-06 at cycle   3 NSaved=   3.
 NSaved= 3 IEnMin= 3 EnMin= -2573.91255997055     IErMin= 3 ErrMin= 4.67D-06
 ErrMax= 4.67D-06  0.00D+00 EMaxC= 1.00D-01 BMatC= 4.85D-09 BMatP= 3.00D-08
 IDIUse=1 WtCom= 1.00D+00 WtEn= 0.00D+00
 Coeff-Com: -0.337D-01 0.269D+00 0.765D+00
 Coeff:     -0.337D-01 0.269D+00 0.765D+00
 Gap=     0.176 Goal=   None    Shift=    0.000
 RMSDP=1.10D-07 MaxDP=2.80D-05 DE=-3.31D-08 OVMax= 3.16D-05

 Cycle   8  Pass 1  IDiag  1:
 RMSU=  3.22D-08    CP:  1.00D+00  1.00D+00  7.95D-01
 E= -2573.91255997628     Delta-E=       -0.000000005728 Rises=F Damp=F
 DIIS: error= 3.87D-07 at cycle   4 NSaved=   4.
 NSaved= 4 IEnMin= 4 EnMin= -2573.91255997628     IErMin= 4 ErrMin= 3.87D-07
 ErrMax= 3.87D-07  0.00D+00 EMaxC= 1.00D-01 BMatC= 1.93D-11 BMatP= 4.85D-09
 IDIUse=1 WtCom= 1.00D+00 WtEn= 0.00D+00
 Coeff-Com: -0.990D-02 0.568D-01 0.153D+00 0.800D+00
 Coeff:     -0.990D-02 0.568D-01 0.153D+00 0.800D+00
 Gap=     0.176 Goal=   None    Shift=    0.000
 RMSDP=8.77D-09 MaxDP=9.17D-07 DE=-5.73D-09 OVMax= 3.23D-06

 SCF Done:  E(RPBE1PBE) =  -2573.91255998     A.U. after    8 cycles
            NFock=  8  Conv=0.88D-08     -V/T= 2.0013
 KE= 2.570513427058D+03 PE=-6.162908065811D+03 EE= 1.018482078776D+03
 Leave Link  502 at Wed May  2 23:39:41 2018, MaxMem= 14763950080 cpu:      4735.2
 (Enter /cm/shared/gaussian/g09.e01/intel64-sandybridge/g09/l601.exe)
 Copying SCF densities to generalized density rwf, IOpCl= 0 IROHF=0.

 **********************************************************************

            Population analysis using the SCF density.

 **********************************************************************

 Alpha  occ. eigenvalues -- -482.98986 -62.39137 -56.16392 -56.16389 -56.16386
 Alpha  occ. eigenvalues --   -8.49274  -6.29586  -6.29577  -6.29568  -2.37852
 Alpha  occ. eigenvalues --   -2.37850  -2.37844  -2.37836  -2.37835  -0.47309
 Alpha  occ. eigenvalues --   -0.03167  -0.03162  -0.03151
 Alpha virt. eigenvalues --    0.14433   0.15920   0.16344   0.17425   0.18302
 Alpha virt. eigenvalues --    0.18719   0.18879   0.19603   0.19938   0.21245
 Alpha virt. eigenvalues --    0.21429   0.21797   0.23211   0.23603   0.24100
 Alpha virt. eigenvalues --    0.24475   0.24653   0.24979   0.26144   0.26212
 Alpha virt. eigenvalues --    0.26995   0.27907   0.28149   0.28490   0.29267
 Alpha virt. eigenvalues --    0.29277   0.29690   0.30400   0.30944   0.32067
 Alpha virt. eigenvalues --    0.32864   0.32969   0.33578   0.33943   0.34533
 Alpha virt. eigenvalues --    0.34931   0.35175   0.35633   0.36041   0.36360
 Alpha virt. eigenvalues --    0.36561   0.37495   0.38274   0.38683   0.39525
 Alpha virt. eigenvalues --    0.40348   0.40780   0.40947   0.41316   0.41535
 Alpha virt. eigenvalues --    0.42065   0.42737   0.43319   0.43842   0.44567
 Alpha virt. eigenvalues --    0.45310   0.45705   0.46548   0.46993   0.48198
 Alpha virt. eigenvalues --    0.49337   0.49829   0.50863   0.51190   0.61531
 Alpha virt. eigenvalues --    0.61981   0.62437   0.62818   0.63253   0.64136
 Alpha virt. eigenvalues --    0.64292   0.64770   0.65689   0.65907   0.65980
 Alpha virt. eigenvalues --    0.66689   0.67532   0.67614   0.68007   0.68357
 Alpha virt. eigenvalues --    0.69195   0.69539   0.70022   0.70644   0.71436
 Alpha virt. eigenvalues --    0.72230   0.72786   0.72861   0.73499   0.73582
 Alpha virt. eigenvalues --    0.74013   0.74470   0.74735   0.75001   0.75211
 Alpha virt. eigenvalues --    0.75395   0.75732   0.76029   0.76423   0.76645
 Alpha virt. eigenvalues --    0.76795   0.77248   0.77488   0.78002   0.78400
 Alpha virt. eigenvalues --    0.78565   0.79117   0.79264   0.79942   0.80156
 Alpha virt. eigenvalues --    0.80463   0.80902   0.81172   0.81405   0.81894
 Alpha virt. eigenvalues --    0.82374   0.82640   0.82783   0.82994   0.83285
 Alpha virt. eigenvalues --    0.83478   0.83625   0.83958   0.84738   0.85138
 Alpha virt. eigenvalues --    0.85483   0.85539   0.86115   0.86472   0.87127
 Alpha virt. eigenvalues --    0.87980   0.88250   0.88703   0.89399   0.89493
 Alpha virt. eigenvalues --    0.89633   0.89813   0.90208   0.90667   0.90872
 Alpha virt. eigenvalues --    0.91317   0.91689   0.92473   0.92847   0.93322
 Alpha virt. eigenvalues --    0.93944   0.94457   0.94625   0.94768   0.95423
 Alpha virt. eigenvalues --    0.95940   0.96010   0.96347   0.96618   0.96787
 Alpha virt. eigenvalues --    0.97136   0.97319   0.98111   0.98356   0.98898
 Alpha virt. eigenvalues --    0.99442   0.99806   1.00010   1.00257   1.01033
 Alpha virt. eigenvalues --    1.01686   1.01950   1.02271   1.02423   1.03145
 Alpha virt. eigenvalues --    1.03326   1.03911   1.04818   1.05164   1.05862
 Alpha virt. eigenvalues --    1.06113   1.07322   1.07770   1.08143   1.08327
 Alpha virt. eigenvalues --    1.09203   1.09812   1.10162   1.11040   1.11456
 Alpha virt. eigenvalues --    1.12158   1.13013   1.13154   1.14138   1.14952
 Alpha virt. eigenvalues --    1.15537   1.16764   1.16933   1.18188   1.18717
 Alpha virt. eigenvalues --    1.19667   1.20420   1.23076   1.24879   1.26474
 Alpha virt. eigenvalues --    1.27265   1.65410   1.66275   1.67135   1.68159
 Alpha virt. eigenvalues --    1.68878   1.69276   1.69332   1.70050   1.70501
 Alpha virt. eigenvalues --    1.70901   1.71001   1.71830   1.72433   1.72800
 Alpha virt. eigenvalues --    1.72998   1.73129   1.73274   1.73435   1.73898
 Alpha virt. eigenvalues --    1.74079   1.74273   1.74622   1.74824   1.74990
 Alpha virt. eigenvalues --    1.75398   1.75762   1.76108   1.76277   1.76652
 Alpha virt. eigenvalues --    1.76850   1.77298   1.77420   1.77592   1.78053
 Alpha virt. eigenvalues --    1.78574   1.78994   1.79213   1.79300   1.79729
 Alpha virt. eigenvalues --    1.80072   1.80653   1.81043   1.81341   1.82010
 Alpha virt. eigenvalues --    1.82170   1.82376   1.82907   1.83180   1.84206
 Alpha virt. eigenvalues --    1.84419   1.84818   1.85044   1.85599   1.86226
 Alpha virt. eigenvalues --    1.87223   1.87714   1.88317   1.89255   1.90004
 Alpha virt. eigenvalues --    1.90866   1.91400   1.93014   1.93548   1.94856
 Alpha virt. eigenvalues --    1.96736   1.97701   1.98689   1.99008   1.99355
 Alpha virt. eigenvalues --    1.99719   2.00090   2.00314   2.00596   2.00956
 Alpha virt. eigenvalues --    2.01076   2.01397   2.01474   2.01662   2.01984
 Alpha virt. eigenvalues --    2.02073   2.02429   2.02774   2.02980   2.03201
 Alpha virt. eigenvalues --    2.03227   2.03507   2.03791   2.03860   2.04423
 Alpha virt. eigenvalues --    2.04496   2.04929   2.05338   2.05808   2.06048
 Alpha virt. eigenvalues --    2.06174   2.06459   2.06772   2.07191   2.07545
 Alpha virt. eigenvalues --    2.07925   2.08103   2.08641   2.08798   2.09187
 Alpha virt. eigenvalues --    2.09734   2.09913   2.10163   2.10771   2.10812
 Alpha virt. eigenvalues --    2.11414   2.11503   2.12528   2.12883   2.13387
 Alpha virt. eigenvalues --    2.14202   2.14675   2.14789   2.15145   2.15752
 Alpha virt. eigenvalues --    2.15966   2.17049   2.17066   2.17620   2.17736
 Alpha virt. eigenvalues --    2.18271   2.18468   2.18571   2.18931   2.19918
 Alpha virt. eigenvalues --    2.20033   2.20076   2.20307   2.20598   2.20745
 Alpha virt. eigenvalues --    2.21651   2.22510   2.22715   2.23654   2.24414
 Alpha virt. eigenvalues --    2.24633   2.25489   2.26018   2.26298   2.27458
 Alpha virt. eigenvalues --    2.28119   2.28384   2.28717   2.29852   2.30268
 Alpha virt. eigenvalues --    2.31583   2.32264   2.33698   2.34698   2.35358
 Alpha virt. eigenvalues --    2.36069   2.36292   2.37149   2.38253   2.38701
 Alpha virt. eigenvalues --    2.39629   2.39971   2.40490   2.41002   2.41483
 Alpha virt. eigenvalues --    2.42313   2.42607   2.42777   2.42897   2.43673
 Alpha virt. eigenvalues --    2.44232   2.44339   2.44900   2.45201   2.45542
 Alpha virt. eigenvalues --    2.46686   2.46811   2.47343   2.47781   2.48245
 Alpha virt. eigenvalues --    2.48426   2.49386   2.50135   2.51233   2.51797
 Alpha virt. eigenvalues --    2.52752   2.52873   2.53427   2.54263   2.54569
 Alpha virt. eigenvalues --    2.54715   2.56236   2.57015   2.67470   2.68238
 Alpha virt. eigenvalues --    2.68622   2.69076   2.69351   2.69683   2.70182
 Alpha virt. eigenvalues --    2.70343   2.71350   2.71550   2.72415   2.72618
 Alpha virt. eigenvalues --    2.73048   2.73624   2.73746   2.74186   2.76056
 Alpha virt. eigenvalues --    2.76459   2.77093   2.77215   2.77734   2.78812
 Alpha virt. eigenvalues --    2.79315   2.80283   2.81941   2.82265   2.82762
 Alpha virt. eigenvalues --    2.83093   2.83234   2.83890   2.84282   2.84712
 Alpha virt. eigenvalues --    2.85597   2.85785   2.86261   2.87267   2.87958
 Alpha virt. eigenvalues --    2.88148   2.88263   2.88503   2.89057   2.90039
 Alpha virt. eigenvalues --    2.90897   2.91386   2.92378   2.93036   2.93616
 Alpha virt. eigenvalues --    2.94231   2.94558   2.95055   2.95866   2.97040
 Alpha virt. eigenvalues --    2.98419   2.99073   3.00036   3.00672   3.02545
 Alpha virt. eigenvalues --    3.02860   3.03549   3.04327   3.05180   3.07206
 Alpha virt. eigenvalues --    3.08553   3.10441   3.14784   3.15177   3.15340
 Alpha virt. eigenvalues --    3.16614   3.17385   3.18343   3.19347   3.19705
 Alpha virt. eigenvalues --    3.20595   3.21339   3.24680   3.25764   3.27371
 Alpha virt. eigenvalues --    3.28040   3.30168   3.32408   3.32458   3.32790
 Alpha virt. eigenvalues --    3.34976   3.36220   3.38664   3.40744   3.44502
 Alpha virt. eigenvalues --    3.45685   3.45913   3.47218   3.49107   3.51171
 Alpha virt. eigenvalues --    3.53528   3.57441   3.57839   3.60299   4.50416
 Alpha virt. eigenvalues --    4.51936   4.52171   4.52221   4.52456   4.52589
 Alpha virt. eigenvalues --    4.52764   4.52781   4.52841   4.52984   4.53012
 Alpha virt. eigenvalues --    4.53389   4.53444   4.53486   4.53668   4.53959
 Alpha virt. eigenvalues --    4.54004   4.54278   4.54387   4.54846   4.54902
 Alpha virt. eigenvalues --    4.55187   4.55475   4.55715   4.55876   4.56006
 Alpha virt. eigenvalues --    4.56322   4.56704   4.56789   4.57013   4.57406
 Alpha virt. eigenvalues --    4.57735   4.59078   4.59740   4.59830   4.60046
 Alpha virt. eigenvalues --    4.60348   4.60523   4.60580   4.60820   4.60925
 Alpha virt. eigenvalues --    4.61008   4.61029   4.61105   4.61222   4.61480
 Alpha virt. eigenvalues --    4.61648   4.62133   4.62193   4.62445   4.62571
 Alpha virt. eigenvalues --    4.62778   4.62901   4.63329   4.63395   4.63843
 Alpha virt. eigenvalues --    4.64006   4.64064   4.64587   4.65153   4.65271
 Alpha virt. eigenvalues --    4.65553   4.66096   4.66239   4.74804   4.75035
 Alpha virt. eigenvalues --    4.75407   4.75771   4.75982   4.76328   4.76382
 Alpha virt. eigenvalues --    4.76504   4.76869   4.76895   4.77904   4.78151
 Alpha virt. eigenvalues --    4.78786   4.79178   4.79242   4.80105   4.80809
 Alpha virt. eigenvalues --    4.81051   4.81400   4.82005   4.82180   4.82822
 Alpha virt. eigenvalues --    4.82937   4.83306   4.83442   4.83797   4.84203
 Alpha virt. eigenvalues --    4.84498   4.84718   4.84975   4.85108   4.85453
 Alpha virt. eigenvalues --    4.86635   4.87359   4.87397   4.87852   4.88002
 Alpha virt. eigenvalues --    4.88177   4.88266   4.88577   4.88876   4.89103
 Alpha virt. eigenvalues --    4.89747   4.89979   4.90510   4.90619   4.91332
 Alpha virt. eigenvalues --    4.91750   4.91863   4.92889   4.93079   4.93312
 Alpha virt. eigenvalues --    4.93564   4.94676   4.95368   4.95945   4.96363
 Alpha virt. eigenvalues --    4.97962   4.98751   4.99384   5.00075   5.00621
 Alpha virt. eigenvalues --    5.01034   5.02575   5.04094   5.05244   5.06363
 Alpha virt. eigenvalues --    5.06656   5.06814   5.07964   5.08162   5.08585
 Alpha virt. eigenvalues --    5.09363   5.10557   5.11052   5.12181   5.12290
 Alpha virt. eigenvalues --    5.12788   5.13305   5.13663   5.14137   5.14636
 Alpha virt. eigenvalues --    5.15031   5.15395   5.16256   5.16819   5.17034
 Alpha virt. eigenvalues --    5.17642   5.18539   5.20855   5.23109   5.24429
 Alpha virt. eigenvalues --    5.25509   5.28468   5.28676   5.29224   5.36442
[...]
   Y20       39.45748   0.01509   0.00000   0.02130   0.02037  39.47785
   Z20       30.78364   0.00042   0.00000  -0.00240  -0.00296  30.78068
   X21       38.41813   0.00795   0.00000   0.00849   0.00701  38.42514
   Y21       38.26695  -0.01153   0.00000  -0.01265  -0.01358  38.25338
   Z21       29.74429  -0.00842   0.00000  -0.00579  -0.00614  29.73815
   X22       37.88901  -0.00345   0.00000  -0.02304  -0.02468  37.86432
   Y22       38.90946  -0.00302   0.00000  -0.00305  -0.00363  38.90583
   Z22       32.48439   0.00796   0.00000   0.00955   0.00909  32.49348
   X23       41.40390   0.00232   0.00000  -0.03062  -0.03089  41.37301
   Y23       31.46394   0.01025   0.00000   0.04719   0.04844  31.51238
   Z23       39.34410   0.01535   0.00000   0.01440   0.01522  39.35931
   X24       39.96771  -0.01742   0.00000  -0.02604  -0.02613  39.94158
   Y24       30.68915  -0.01011   0.00000  -0.01652  -0.01568  30.67348
   Z24       38.55041  -0.00490   0.00000   0.00566   0.00659  38.55700
   X25       41.97082   0.00544   0.00000   0.01037   0.00988  41.98070
   Y25       32.69226   0.00634   0.00000  -0.00188  -0.00071  32.69156
   Z25       38.13467  -0.01444   0.00000  -0.04195  -0.04133  38.09335
   X26       45.22115   0.01618   0.00000   0.00127  -0.00058  45.22057
   Y26       39.70315  -0.02045   0.00000  -0.03072  -0.02933  39.67382
   Z26       35.52685   0.00749   0.00000   0.00903   0.00854  35.53539
   X27       43.86054  -0.01895   0.00000  -0.01681  -0.01888  43.84166
   Y27       40.78029   0.01520   0.00000   0.01318   0.01437  40.79466
   Z27       35.99928   0.00033   0.00000  -0.01214  -0.01283  35.98646
   X28       45.31563   0.00133   0.00000   0.01437   0.01252  45.32815
   Y28       39.85432   0.00402   0.00000   0.00808   0.00919  39.86352
   Z28       33.73161  -0.00934   0.00000  -0.00265  -0.00316  33.72845
   X29       35.86700  -0.01227   0.00000  -0.01586  -0.01891  35.84809
   Y29       45.52350  -0.00966   0.00000  -0.02049  -0.02045  45.50305
   Z29       38.60710   0.00983   0.00000   0.02442   0.02284  38.62994
   X30       35.43236   0.00231   0.00000   0.00929   0.00642  35.43879
   Y30       44.67313  -0.00027   0.00000  -0.00207  -0.00237  44.67075
   Z30       37.05753  -0.00087   0.00000   0.00483   0.00338  37.06091
   X31       37.24650   0.00788   0.00000   0.00572   0.00245  37.24895
   Y31       46.61954   0.00178   0.00000  -0.01710  -0.01686  46.60268
   Z31       38.15357   0.00186   0.00000   0.02869   0.02694  38.18051
   X32       31.59622  -0.00476   0.00000  -0.01014  -0.01223  31.58399
   Y32       41.08265  -0.02324   0.00000  -0.02194  -0.02354  41.05911
   Z32       33.88279   0.01111   0.00000   0.03265   0.03174  33.91453
   X33       32.95682   0.00864   0.00000   0.00212  -0.00022  32.95660
   Y33       42.23538   0.01202   0.00000   0.01052   0.00923  42.24461
   Z33       34.16625  -0.00165   0.00000  -0.01174  -0.01283  34.15342
   X34       30.34900  -0.00788   0.00000  -0.00484  -0.00712  30.34188
   Y34       42.02751   0.00594   0.00000  -0.00932  -0.01132  42.01619
   Z34       32.99462  -0.00633   0.00000  -0.00254  -0.00363  32.99099
   X35       40.25117  -0.01618   0.00000  -0.02868  -0.03121  40.21996
   Y35       42.40545   0.01766   0.00000   0.00084   0.00284  42.40829
   Z35       45.20225   0.00644   0.00000   0.01337   0.01236  45.21461
   X36       41.06375   0.00784   0.00000   0.00429   0.00203  41.06578
   Y36       40.98816  -0.01517   0.00000  -0.01317  -0.01087  40.97729
   Z36       45.97704   0.00655   0.00000   0.01477   0.01401  45.99104
   X37       40.40234   0.00810   0.00000   0.03073   0.02829  40.43064
   Y37       42.08420  -0.00922   0.00000  -0.02633  -0.02458  42.05962
   Z37       43.42591  -0.00625   0.00000   0.00785   0.00690  43.43280
   X38       41.78184   0.00503   0.00000   0.00110   0.00039  41.78223
   Y38       33.35367   0.01128   0.00000   0.00966   0.01184  33.36551
   Z38       44.42746   0.01840   0.00000   0.00891   0.00943  44.43689
   X39       41.70626  -0.00440   0.00000  -0.01133  -0.01197  41.69428
   Y39       33.16469  -0.00853   0.00000  -0.02452  -0.02266  33.14204
   Z39       42.63222  -0.01922   0.00000  -0.01620  -0.01565  42.61657
   X40       40.85588  -0.00396   0.00000  -0.00396  -0.00440  40.85148
   Y40       31.93637  -0.00556   0.00000  -0.00479  -0.00269  31.93368
   Z40       45.06997  -0.00115   0.00000  -0.00398  -0.00324  45.06672
   X41       42.36766  -0.00411   0.00000  -0.03477  -0.03587  42.33179
   Y41       36.39613   0.00695   0.00000   0.01353   0.01330  36.40943
   Z41       29.29076  -0.01303   0.00000  -0.02192  -0.02190  29.26885
   X42       41.93302   0.00304   0.00000   0.02330   0.02197  41.95499
   Y42       37.49217  -0.00193   0.00000  -0.01030  -0.01036  37.48180
   Z42       30.67026   0.00908   0.00000   0.02404   0.02387  30.69413
   X43       42.02751   0.00039   0.00000   0.01167   0.01089  42.03840
   Y43       34.73317  -0.00269   0.00000   0.00913   0.00896  34.74213
   Z43       29.93326   0.00888   0.00000   0.02205   0.02233  29.95560
   X44       35.45126  -0.00009   0.00000   0.01352   0.01073  35.46200
   Y44       44.52195   0.00192   0.00000   0.00696   0.00608  44.52802
   Z44       33.54264   0.00253   0.00000  -0.00801  -0.00944  33.53320
   X45       36.07487   0.00654   0.00000   0.02234   0.01972  36.09459
   Y45       43.82275  -0.00777   0.00000  -0.01708  -0.01809  43.80465
   Z45       31.99306  -0.00753   0.00000  -0.00866  -0.00996  31.98310
   X46       35.47016  -0.00200   0.00000  -0.00536  -0.00850  35.46166
   Y46       46.31719   0.00584   0.00000   0.01316   0.01223  46.32942
   Z46       33.27808  -0.00052   0.00000  -0.00595  -0.00767  33.27040
   X47       34.86545  -0.01649   0.00000  -0.01584  -0.01796  34.84748
   Y47       40.28896  -0.00993   0.00000  -0.02137  -0.02015  40.26881
   Z47       46.95969   0.02144   0.00000   0.00630   0.00557  46.96527
   X48       34.82765   0.00219   0.00000   0.00212  -0.00004  34.82761
   Y48       40.57242   0.00918   0.00000   0.02575   0.02666  40.59908
   Z48       45.18335  -0.02569   0.00000  -0.02381  -0.02459  45.15876
   X49       36.58510   0.01154   0.00000   0.00680   0.00461  36.58971
   Y49       40.57242   0.00000   0.00000  -0.01143  -0.00979  40.56263
   Z49       47.43213  -0.00221   0.00000  -0.01189  -0.01265  47.41948
   X50       36.60400   0.01855   0.00000   0.02444   0.02467  36.62866
   Y50       29.13958   0.01576   0.00000   0.02883   0.02881  29.16839
   Z50       37.35989  -0.00079   0.00000   0.00751   0.00865  37.36853
   X51       35.48906  -0.00838   0.00000  -0.00839  -0.00828  35.48078
   Y51       29.66870  -0.00157   0.00000  -0.01389  -0.01392  29.65479
   Z51       38.68269   0.01043   0.00000   0.01925   0.02029  38.70299
   X52       35.86700  -0.00271   0.00000   0.02009   0.02063  35.88763
   Y52       27.62780  -0.00852   0.00000   0.01348   0.01320  27.64100
   Z52       36.71738  -0.00712   0.00000  -0.01784  -0.01646  36.70092
   X53       31.86078  -0.00866   0.00000   0.00193   0.00061  31.86139
   Y53       37.51106  -0.01559   0.00000  -0.01474  -0.01701  37.49405
   Z53       29.53642  -0.01512   0.00000  -0.01341  -0.01373  29.52269
   X54       32.37101   0.00627   0.00000   0.00558   0.00417  32.37518
   Y54       37.79452   0.00625   0.00000   0.01008   0.00819  37.80272
   Z54       31.23717   0.01633   0.00000   0.01033   0.00997  31.24714
   X55       32.40880   0.00472   0.00000   0.00840   0.00679  32.41559
   Y55       38.98505   0.00930   0.00000   0.01135   0.00905  38.99410
   Z55       28.64825  -0.00099   0.00000   0.00535   0.00479  28.65304
   X56       29.76319  -0.01641   0.00000  -0.02589  -0.02632  29.73687
   Y56       32.29542  -0.01007   0.00000  -0.02511  -0.02606  32.26936
   Z56       39.98660   0.00720   0.00000   0.06137   0.06190  40.04850
   X57       31.38835   0.01944   0.00000   0.03036   0.02983  31.41818
   Y57       32.74895   0.00527   0.00000   0.01176   0.01124  32.76019
   Z57       40.64801  -0.00132   0.00000  -0.03082  -0.03035  40.61766
   X58       28.64825  -0.00350   0.00000  -0.00495  -0.00566  28.64259
   Y58       33.58043   0.00540   0.00000   0.01925   0.01818  33.59862
   Z58       40.61021   0.00511   0.00000   0.02210   0.02238  40.63260
   X59       29.34745  -0.02393   0.00000  -0.02584  -0.02805  29.31940
   Y59       41.19603  -0.00896   0.00000  -0.00136  -0.00235  41.19368
   Z59       40.27006  -0.00517   0.00000  -0.00261  -0.00357  40.26649
   X60       29.91436   0.00519   0.00000   0.00702   0.00476  29.91912
   Y60       41.57397   0.00117   0.00000  -0.00400  -0.00516  41.56882
   Z60       38.58821  -0.00351   0.00000  -0.00114  -0.00216  38.58605
   X61       30.67026   0.01868   0.00000   0.02544   0.02310  30.69336
   Y61       41.76295   0.00497   0.00000  -0.00541  -0.00596  41.75699
   Z61       41.34721   0.00419   0.00000  -0.01531  -0.01634  41.33086
   X62       44.23849   0.01015   0.00000   0.00246  -0.00067  44.23782
   Y62       45.67468   0.00880   0.00000   0.00855   0.01074  45.68542
   Z62       41.57397  -0.00863   0.00000  -0.03115  -0.03265  41.54132
   X63       43.89834  -0.00453   0.00000  -0.00396  -0.00673  43.89161
   Y63       43.89834  -0.00899   0.00000  -0.00786  -0.00575  43.89259
   Z63       41.44169   0.00078   0.00000   0.00524   0.00404  41.44573
   X64       42.65112  -0.00947   0.00000  -0.00803  -0.01131  42.63981
   Y64       46.41167  -0.00202   0.00000  -0.01745  -0.01549  46.39619
   Z64       42.02751   0.00729   0.00000   0.02765   0.02601  42.05352
   X65       28.47817  -0.02780   0.00000  -0.06423  -0.06475  28.41342
   Y65       33.01352  -0.00162   0.00000   0.03156   0.02953  33.04305
   Z65       35.18670  -0.02040   0.00000  -0.04025  -0.03987  35.14683
   X66       29.97106   0.00947   0.00000   0.00636   0.00571  29.97677
   Y66       33.78830  -0.00095   0.00000  -0.02416  -0.02598  33.76233
   Z66       34.52530   0.00599   0.00000   0.01650   0.01678  34.54208
   X67       28.66715   0.01221   0.00000   0.02979   0.02925  28.69640
   Y67       33.08910  -0.00433   0.00000  -0.03531  -0.03698  33.05212
   Z67       36.98194   0.00395   0.00000  -0.02865  -0.02827  36.95367
   X68       42.08420  -0.00184   0.00000  -0.00692  -0.00854  42.07567
   Y68       37.70004   0.02273   0.00000   0.01757   0.02026  37.72029
   Z68       47.12977   0.00505   0.00000  -0.00034  -0.00054  47.12923
   X69       41.68736  -0.00319   0.00000   0.00078  -0.00051  41.68685
   Y69       36.16936  -0.01840   0.00000  -0.01432  -0.01186  36.15750
   Z69       46.24160  -0.01110   0.00000  -0.01487  -0.01482  46.22677
   X70       43.27473   0.00410   0.00000   0.00643   0.00490  43.27963
   Y70       37.18981  -0.00104   0.00000   0.00517   0.00830  37.19812
   Z70       48.39589   0.00164   0.00000  -0.00593  -0.00603  48.38986
   X71       33.03241   0.00456   0.00000   0.00360   0.00252  33.03493
   Y71       35.11111  -0.01452   0.00000  -0.00617  -0.00549  35.10562
   Z71       45.93924  -0.00689   0.00000  -0.02403  -0.02393  45.91531
   X72       31.25607  -0.00770   0.00000  -0.00782  -0.00884  31.24723
   Y72       34.78986  -0.00075   0.00000   0.00376   0.00411  34.79396
   Z72       46.05263   0.00038   0.00000   0.00022   0.00035  46.05297
   X73       33.18359   0.00863   0.00000   0.03482   0.03338  33.21697
   Y73       36.90635   0.01765   0.00000   0.01253   0.01329  36.91964
   Z73       46.14711   0.00790   0.00000   0.03058   0.03039  46.17750
   X74       48.79273   0.01866   0.00000   0.01954   0.01746  48.81019
   Y74       40.59132   0.00406   0.00000   0.00067   0.00341  40.59473
   Z74       39.34410   0.00994   0.00000   0.01487   0.01429  39.35839
   X75       48.05574  -0.00380   0.00000  -0.00879  -0.01092  48.04481
   Y75       40.76139   0.00073   0.00000   0.00063   0.00349  40.76488
   Z75       40.98816   0.00470   0.00000   0.00892   0.00829  40.99645
   X76       47.39433  -0.01223   0.00000   0.00860   0.00660  47.40093
   Y76       40.25117  -0.00428   0.00000  -0.00628  -0.00400  40.24716
   Z76       38.26695  -0.01408   0.00000  -0.01917  -0.01972  38.24724
   X77       37.68114   0.00482   0.00000   0.01752   0.01806  37.69920
   Y77       27.98684  -0.01063   0.00000  -0.01148  -0.01217  27.97467
   Z77       32.08755  -0.00413   0.00000  -0.02859  -0.02724  32.06031
   X78       38.79608  -0.00176   0.00000  -0.01777  -0.01747  38.77860
   Y78       29.13958   0.00434   0.00000   0.00422   0.00390  29.14348
   Z78       32.93793   0.00388   0.00000   0.01179   0.01296  32.95089
   X79       36.56620  -0.00812   0.00000  -0.02559  -0.02525  36.54095
   Y79       29.06399   0.00609   0.00000   0.00867   0.00760  29.07159
   Z79       31.14269   0.00270   0.00000   0.02514   0.02629  31.16898
   X80       38.00239   0.00306   0.00000  -0.00514  -0.00856  37.99383
   Y80       46.92190   0.01727   0.00000   0.01943   0.02093  46.94283
   Z80       44.89989  -0.01242   0.00000  -0.02664  -0.02844  44.87146
   X81       36.62289  -0.00671   0.00000  -0.00285  -0.00632  36.61658
   Y81       47.07308  -0.00178   0.00000  -0.00072   0.00071  47.07378
   Z81       46.05263   0.00472   0.00000  -0.00066  -0.00250  46.05012
   X82       38.36144   0.00431   0.00000   0.02142   0.01835  38.37979
   Y82       45.14556  -0.01026   0.00000   0.00280   0.00438  45.14994
   Z82       44.84320   0.00914   0.00000   0.03969   0.03820  44.88140
   X83       40.15668  -0.01399   0.00000   0.00677   0.00322  40.15990
   Y83       48.05574   0.00348   0.00000   0.02539   0.02611  48.08185
   Z83       37.62445  -0.00974   0.00000  -0.03206  -0.03401  37.59044
   X84       40.79919   0.00527   0.00000   0.00492   0.00112  40.80031
   Y84       49.20847   0.00551   0.00000   0.00026   0.00132  49.20979
   Z84       38.85277   0.00872   0.00000   0.01586   0.01373  38.86650
   X85       41.61177   0.01767   0.00000   0.04309   0.03971  41.65148
   Y85       47.29985  -0.00507   0.00000  -0.00846  -0.00755  47.29229
   Z85       36.88745   0.00272   0.00000   0.03046   0.02866  36.91611
   X86       32.06865   0.00386   0.00000   0.02390   0.02381  32.09246
   Y86       31.31276  -0.01322   0.00000  -0.01180  -0.01390  31.29886
   Z86       30.27341   0.00406   0.00000   0.00492   0.00564  30.27905
   X87       32.69226  -0.00044   0.00000  -0.00742  -0.00750  32.68476
   Y87       31.31276   0.00482   0.00000   0.01635   0.01409  31.32685
   Z87       28.57266  -0.00555   0.00000  -0.01274  -0.01201  28.56064
   X88       31.89858   0.00120   0.00000   0.00705   0.00659  31.90517
   Y88       33.07021   0.00881   0.00000   0.00410   0.00203  33.07224
   Z88       30.68915  -0.00093   0.00000  -0.00590  -0.00548  30.68367
   X89       33.59933   0.01211   0.00000   0.00575   0.00620  33.60553
   Y89       27.74118  -0.01492   0.00000  -0.01646  -0.01629  27.72489
   Z89       42.10310   0.00119   0.00000   0.00205   0.00338  42.10648
   X90       31.89858  -0.01244   0.00000  -0.01443  -0.01392  31.88465
   Y90       27.43882   0.00303   0.00000   0.01508   0.01481  27.45364
   Z90       41.59287  -0.00428   0.00000  -0.00961  -0.00825  41.58462
   X91       33.65602   0.00079   0.00000   0.01009   0.01018  33.66620
   Y91       29.49862   0.01322   0.00000   0.00794   0.00818  29.50681
   Z91       42.49994  -0.00029   0.00000  -0.01277  -0.01173  42.48821
   X92       35.26229  -0.01088   0.00000  -0.02135  -0.02359  35.23870
   Y92       42.29207   0.00955   0.00000   0.00473   0.00267  42.29474
   Z92       26.75852  -0.00855   0.00000   0.00822   0.00716  26.76568
   X93       35.31898   0.00199   0.00000   0.00692   0.00496  35.32394
   Y93       40.95037  -0.00192   0.00000   0.00405   0.00180  40.95217
   Z93       25.53020   0.00142   0.00000   0.00592   0.00508  25.53528
   X94       35.92369   0.00825   0.00000   0.01802   0.01591  35.93961
   Y94       41.55508  -0.01209   0.00000  -0.02430  -0.02597  41.52911
   Z94       28.27030   0.01011   0.00000   0.00352   0.00259  28.27289
   X95       44.89989   0.02028   0.00000   0.02985   0.03027  44.93017
   Y95       28.00574  -0.00809   0.00000  -0.02452  -0.02244  27.98330
   Z95       39.96771   0.01056   0.00000   0.01464   0.01609  39.98380
   X96       44.21959  -0.00579   0.00000  -0.00350  -0.00282  44.21677
   Y96       26.81521  -0.00341   0.00000  -0.00418  -0.00245  26.81276
   Z96       38.79608  -0.00608   0.00000  -0.00585  -0.00422  38.79186
   X97       43.69047  -0.00706   0.00000   0.00920   0.00936  43.69983
   Y97       29.36634   0.00346   0.00000  -0.01614  -0.01431  29.35203
   Z97       39.98660  -0.00362   0.00000  -0.00873  -0.00752  39.97909
         Item               Value     Threshold  Converged?
 Maximum Force            0.030272     0.000450     NO 
 RMS     Force            0.010131     0.000300     NO 
 Maximum Displacement     0.064749     0.001800     NO 
 RMS     Displacement     0.017544     0.001200     NO 
 Predicted change in Energy=-2.756199D-02
 GradGradGradGradGradGradGradGradGradGradGradGradGradGradGradGradGradGrad

 Leave Link  103 at Wed May  2 23:44:33 2018, MaxMem= 14763950080 cpu:        52.5
 (Enter /cm/shared/gaussian/g09.e01/intel64-sandybridge/g09/l9999.exe)
 1\1\GINC-POPLE03\Force\RPBE1PBE\CC-pVDZ\Br1H64O32(1-)\M.PELUSO\02-May-
 2018\0\\#p PBE1PBE/cc-pvDZ force Counterpoise=2 noSymm\\forces on chlo
 ride comput - NWATER: 32\\-1,1\Br,20.,20.,20.\O,22.41,21.14,21.83\H,22
 .59,20.4,22.4\H,21.58,20.92,21.4\O,22.49,18.55,18.48\H,21.77,18.92,18.
 99\H,23.26,19.07,18.73\O,17.46,18.75,18.6\H,18.17,18.67,19.23\H,17.04,
 19.58,18.8\O,18.19,21.83,22.09\H,18.3,21.11,21.47\H,18.8,22.5,21.78\O,
 21.68,22.61,18.46\H,21.42,23.53,18.57\H,20.99,22.12,18.9\O,18.36,17.49
 ,21.93\H,18.19,17.94,22.75\H,18.85,18.12,21.4\O,19.87,20.88,16.29\H,20
 .33,20.25,15.74\H,20.05,20.59,17.19\O,21.91,16.65,20.82\H,21.15,16.24,
 20.4\H,22.21,17.3,20.18\O,23.93,21.01,18.8\H,23.21,21.58,19.05\H,23.98
 ,21.09,17.85\O,18.98,24.09,20.43\H,18.75,23.64,19.61\H,19.71,24.67,20.
 19\O,16.72,21.74,17.93\H,17.44,22.35,18.08\H,16.06,22.24,17.46\O,21.3,
 22.44,23.92\H,21.73,21.69,24.33\H,21.38,22.27,22.98\O,22.11,17.65,23.5
 1\H,22.07,17.55,22.56\H,21.62,16.9,23.85\O,22.42,19.26,15.5\H,22.19,19
 .84,16.23\H,22.24,18.38,15.84\O,18.76,23.56,17.75\H,19.09,23.19,16.93\
 H,18.77,24.51,17.61\O,18.45,21.32,24.85\H,18.43,21.47,23.91\H,19.36,21
 .47,25.1\O,19.37,15.42,19.77\H,18.78,15.7,20.47\H,18.98,14.62,19.43\O,
 16.86,19.85,15.63\H,17.13,20.,16.53\H,17.15,20.63,15.16\O,15.75,17.09,
 21.16\H,16.61,17.33,21.51\H,15.16,17.77,21.49\O,15.53,21.8,21.31\H,15.
 83,22.,20.42\H,16.23,22.1,21.88\O,23.41,24.17,22.\H,23.23,23.23,21.93\
 H,22.57,24.56,22.24\O,15.07,17.47,18.62\H,15.86,17.88,18.27\H,15.17,17
 .51,19.57\O,22.27,19.95,24.94\H,22.06,19.14,24.47\H,22.9,19.68,25.61\O
 ,17.48,18.58,24.31\H,16.54,18.41,24.37\H,17.56,19.53,24.42\O,25.82,21.
 48,20.82\H,25.43,21.57,21.69\H,25.08,21.3,20.25\O,19.94,14.81,16.98\H,
 20.53,15.42,17.43\H,19.35,15.38,16.48\O,20.11,24.83,23.76\H,19.38,24.9
 1,24.37\H,20.3,23.89,23.73\O,21.25,25.43,19.91\H,21.59,26.04,20.56\H,2
 2.02,25.03,19.52\O,16.97,16.57,16.02\H,17.3,16.57,15.12\H,16.88,17.5,1
 6.24\O,17.78,14.68,22.28\H,16.88,14.52,22.01\H,17.81,15.61,22.49\O,18.
 66,22.38,14.16\H,18.69,21.67,13.51\H,19.01,21.99,14.96\O,23.76,14.82,2
 1.15\H,23.4,14.19,20.53\H,23.12,15.54,21.16\\Version=ES64L-G09RevE.01\
 HF=-2443.2204595\RMSD=3.276e-09\RMSF=1.013e-02\Dipole=-0.1035167,3.626
 2104,-0.5577309\Quadrupole=-100.1387424,203.73004,-103.5912975,-1294.1
 338568,-1468.6100727,-1345.3179877\PG=C01 [X(Br1H64O32)]\\@


 Happiness is a conscious choice, not an automatic response.
 -- Mildred Barthel
 Job cpu time:       0 days  9 hours 14 minutes 25.0 seconds.
 File lengths (MBytes):  RWF=    482 Int=      0 D2E=      0 Chk=    160 Scr=      1
 Normal termination of Gaussian 09 at Wed May  2 23:44:34 2018.
