 Entering Gaussian System, Link 0=/cm/shared/gaussian/g09.e01/intel64-sandybridge/g09/g09
 Initial command:
 /cm/shared/gaussian/g09.e01/intel64-sandybridge/g09/l1.exe "/local/scratch/m.peluso/32_wat/Gau-58854.inp" -scrdir="/local/scratch/m.peluso/32_wat/"
 Entering Link 1 = /cm/shared/gaussian/g09.e01/intel64-sandybridge/g09/l1.exe PID=     58855.
  
 Copyright (c) 1988,1990,1992,1993,1995,1998,2003,2009,2015,
            Gaussian, Inc.  All Rights Reserved.
  
 This is part of the Gaussian(R) 09 program.  It is based on
 the Gaussian(R) 03 system (copyright 2003, Gaussian, Inc.),
 the Gaussian(R) 98 system (copyright 1998, Gaussian, Inc.),
 the Gaussian(R) 94 system (copyright 1995, Gaussian, Inc.),
 the Gaussian 92(TM) system (copyright 1992, Gaussian, Inc.),
 the Gaussian 90(TM) system (copyright 1990, Gaussian, Inc.),
 the Gaussian 88(TM) system (copyright 1988, Gaussian, Inc.),
 the Gaussian 86(TM) system (copyright 1986, Carnegie Mellon
 University), and the Gaussian 82(TM) system (copyright 1983,
 Carnegie Mellon University). Gaussian is a federally registered
 trademark of Gaussian, Inc.
  
 This software contains proprietary and confidential information,
 including trade secrets, belonging to Gaussian, Inc.
  
 This software is provided under written license and may be
 used, copied, transmitted, or stored only in accord with that
 written license.
  
 The following legend is applicable only to US Government
 contracts under FAR:
  
                    RESTRICTED RIGHTS LEGEND
  
 Use, reproduction and disclosure by the US Government is
 subject to restrictions as set forth in subparagraphs (a)
 and (c) of the Commercial Computer Software - Restricted
 Rights clause in FAR 52.227-19.
  
 Gaussian, Inc.
 340 Quinnipiac St., Bldg. 40, Wallingford CT 06492
  
  
 ---------------------------------------------------------------
 Warning -- This program may not be used in any manner that
 competes with the business of Gaussian, Inc. or will provide
 assistance to any competitor of Gaussian, Inc.  The licensee
 of this program is prohibited from giving any competitor of
 Gaussian, Inc. access to this program.  By using this program,
 the user acknowledges that Gaussian, Inc. is engaged in the
 business of creating and licensing software in the field of
 computational chemistry and represents and warrants to the
 licensee that it is not a competitor of Gaussian, Inc. and that
 it will not use this program in any manner prohibited above.
 ---------------------------------------------------------------
  

 Cite this work as:
 Gaussian 09, Revision E.01,
 M. J. Frisch, G. W. Trucks, H. B. Schlegel, G. E. Scuseria, 
 M. A. Robb, J. R. Cheeseman, G. Scalmani, V. Barone, B. Mennucci, 
 G. A. Petersson, H. Nakatsuji, M. Caricato, X. Li, H. P. Hratchian, 
 A. F. Izmaylov, J. Bloino, G. Zheng, J. L. Sonnenberg, M. Hada, 
 M. Ehara, K. Toyota, R. Fukuda, J. Hasegawa, M. Ishida, T. Nakajima, 
 Y. Honda, O. Kitao, H. Nakai, T. Vreven, J. A. Montgomery, Jr., 
 J. E. Peralta, F. Ogliaro, M. Bearpark, J. J. Heyd, E. Brothers, 
 K. N. Kudin, V. N. Staroverov, T. Keith, R. Kobayashi, J. Normand, 
 K. Raghavachari, A. Rendell, J. C. Burant, S. S. Iyengar, J. Tomasi, 
 M. Cossi, N. Rega, J. M. Millam, M. Klene, J. E. Knox, J. B. Cross, 
 V. Bakken, C. Adamo, J. Jaramillo, R. Gomperts, R. E. Stratmann, 
 O. Yazyev, A. J. Austin, R. Cammi, C. Pomelli, J. W. Ochterski, 
 R. L. Martin, K. Morokuma, V. G. Zakrzewski, G. A. Voth, 
 P. Salvador, J. J. Dannenberg, S. Dapprich, A. D. Daniels, 
 O. Farkas, J. B. Foresman, J. V. Ortiz, J. Cioslowski, 
 and D. J. Fox, Gaussian, Inc., Wallingford CT, 2013.
 
 ******************************************
 Gaussian 09:  ES64L-G09RevE.01 30-Nov-2015
                 3-May-2018 
 ******************************************
 %Mem=110GB
 %NProcShared=64
 Will use up to   64 processors via shared memory.
 %chk=snap61.chk
 ----------------------------------------------
 #p PBE1PBE/cc-pvDZ force Counterpoise=2 noSymm
 ----------------------------------------------
 1/10=7,30=1,38=1,62=2/1,3;
 2/12=2,15=1,17=6,18=5,40=1/2;
 1/10=7,30=1,38=1,53=2,62=2,63=101/22;
 3/5=16,11=2,16=1,25=1,30=1,71=1,74=-13/1,2,3;
 4//1;
 5/5=2,38=5/2;
 6/7=2,8=2,9=2,10=2,28=1/1;
 7/7=1,29=1,30=1,33=-1/1,2,3,16;
 1/10=7,30=1,53=2,62=2,63=101/22;
 3/5=7,6=11,11=2,16=1,25=1,30=1,71=1,74=-13,82=7/1,2,3;
 4//1;
 5/5=2,38=5/2;
 6/7=2,8=2,9=2,10=2,28=1/1;
 7/7=1,29=1,30=1,33=-1/1,2,3,16;
 1/10=7,30=1,53=2,62=2,63=101/22(-5);
 7/9=1,29=1,44=-1/16;
 1/10=7,30=1,62=2/3;
 99//99;
 Leave Link    1 at Thu May  3 11:31:55 2018, MaxMem= 14763950080 cpu:         8.9
 (Enter /cm/shared/gaussian/g09.e01/intel64-sandybridge/g09/l101.exe)
 --------------------------------------
 forces on chloride comput - NWATER: 32
 --------------------------------------
 Symbolic Z-matrix:
 Charge = -1 Multiplicity = 1 in supermolecule
 Charge = -1 Multiplicity = 1 in fragment      1.
 Charge =  0 Multiplicity = 1 in fragment      2.
 Br(Fragment=1)        20.       20.       20. 
 O(Fragment=2)         22.15     22.03     19.34 
 H(Fragment=2)         22.83     22.05     20.02 
 H(Fragment=2)         21.56     21.33     19.61 
 O(Fragment=2)         17.17     18.84     19.33 
 H(Fragment=2)         18.04     19.17     19.54 
 H(Fragment=2)         16.65     19.01     20.11 
 O(Fragment=2)         21.44     20.19     17.18 
 H(Fragment=2)         22.13     20.82     17.39 
 H(Fragment=2)         20.86     20.21     17.93 
 O(Fragment=2)         22.29     17.77     19.59 
 H(Fragment=2)         22.88     18.42     19.2 
 H(Fragment=2)         21.68     18.28     20.12 
 O(Fragment=2)         20.7      22.06     23.65 
 H(Fragment=2)         20.68     21.39     22.97 
 H(Fragment=2)         20.3      22.83     23.23 
 O(Fragment=2)         18.8      18.61     23.44 
 H(Fragment=2)         18.4      19.33     22.96 
 H(Fragment=2)         19.7      18.89     23.58 
 O(Fragment=2)         17.05     23.45     20.07 
 H(Fragment=2)         17.7      22.75     20. 
 H(Fragment=2)         17.51     24.23     19.76 
 O(Fragment=2)         21.04     23.35     17.34 
 H(Fragment=2)         20.72     24.2      17.62 
 H(Fragment=2)         21.31     22.91     18.15 
 O(Fragment=2)         19.94     16.23     22.09 
 H(Fragment=2)         19.3      16.95     22.13 
 H(Fragment=2)         19.42     15.47     21.83 
 O(Fragment=2)         18.48     16.08     18.25 
 H(Fragment=2)         18.12     16.77     18.82 
 H(Fragment=2)         18.3      16.39     17.37 
 O(Fragment=2)         21.6      17.57     16.41 
 H(Fragment=2)         21.63     18.49     16.14 
 H(Fragment=2)         21.68     17.59     17.36 
 O(Fragment=2)         22.57     16.65     22.03 
 H(Fragment=2)         22.64     17.28     21.31 
 H(Fragment=2)         21.69     16.29     21.96 
 O(Fragment=2)         16.38     21.15     16.7 
 H(Fragment=2)         17.05     21.69     16.28 
 H(Fragment=2)         16.8      20.82     17.49 
 O(Fragment=2)         17.18     20.66     23.07 
 H(Fragment=2)         17.08     21.51     22.65 
 H(Fragment=2)         16.46     20.13     22.72 
 O(Fragment=2)         19.67     21.93     15.3 
 H(Fragment=2)         20.03     22.12     16.16 
 H(Fragment=2)         19.9      22.69     14.76 
 O(Fragment=2)         16.27     17.55     17.35 
 H(Fragment=2)         16.24     18.06     18.17 
 H(Fragment=2)         16.84     18.06     16.77 
 O(Fragment=2)         21.98     18.92     24.04 
 H(Fragment=2)         22.85     19.3      23.9 
 H(Fragment=2)         22.08     18.       23.83 
 O(Fragment=2)         18.44     18.56     15.45 
 H(Fragment=2)         18.69     17.65     15.33 
 H(Fragment=2)         19.27     19.03     15.51 
 O(Fragment=2)         23.43     22.47     22.29 
 H(Fragment=2)         23.29     23.33     22.7 
 H(Fragment=2)         23.59     21.88     23.02 
 O(Fragment=2)         24.49     19.06     18.06 
 H(Fragment=2)         24.73     18.79     17.18 
 H(Fragment=2)         25.15     18.67     18.63 
 O(Fragment=2)         15.86     18.42     22.49 
 H(Fragment=2)         15.85     18.11     23.4 
 H(Fragment=2)         16.01     17.63     21.97 
 O(Fragment=2)         20.8      14.73     17.85 
 H(Fragment=2)         19.97     15.15     17.61 
 H(Fragment=2)         21.16     15.29     18.54 
 O(Fragment=2)         19.22     24.18     22.79 
 H(Fragment=2)         19.52     24.93     22.28 
 H(Fragment=2)         19.02     24.54     23.66 
 O(Fragment=2)         17.94     23.75     16.09 
 H(Fragment=2)         18.21     24.66     15.97 
 H(Fragment=2)         18.77     23.26     16.16 
 O(Fragment=2)         23.79     15.14     19.81 
 H(Fragment=2)         23.1      15.81     19.89 
 H(Fragment=2)         24.61     15.63     19.87 
 O(Fragment=2)         16.55     16.15     21.03 
 H(Fragment=2)         15.94     16.63     20.48 
 H(Fragment=2)         16.37     15.23     20.85 
 O(Fragment=2)         19.29     20.71     25.76 
 H(Fragment=2)         18.48     20.65     25.25 
 H(Fragment=2)         19.91     21.15     25.18 
 O(Fragment=2)         16.7      23.5      23.18 
 H(Fragment=2)         17.66     23.51     23.23 
 H(Fragment=2)         16.47     24.35     22.81 
 O(Fragment=2)         19.82     25.23     18.89 
 H(Fragment=2)         19.29     25.77     18.3 
 H(Fragment=2)         19.78     25.69     19.73 
 O(Fragment=2)         24.92     21.58     17.04 
 H(Fragment=2)         24.66     20.74     17.42 
 H(Fragment=2)         25.43     22.       17.73 
 O(Fragment=2)         26.02     21.02     21.31 
 H(Fragment=2)         25.34     20.35     21.33 
 H(Fragment=2)         26.65     20.75     21.98 
 O(Fragment=2)         25.18     18.26     21.09 
 H(Fragment=2)         25.58     17.47     20.74 
 H(Fragment=2)         25.01     18.06     22.01 
 
 NAtoms=     97 NQM=       97 NQMF=       0 NMMI=      0 NMMIF=      0
                NMic=       0 NMicF=      0.
                    Isotopes and Nuclear Properties:
 (Nuclear quadrupole moments (NQMom) in fm**2, nuclear magnetic moments (NMagM)
  in nuclear magnetons)

  Atom         1           2           3           4           5           6           7           8           9          10
 IAtWgt=          79          16           1           1          16           1           1          16           1           1
 AtmWgt=  78.9183361  15.9949146   1.0078250   1.0078250  15.9949146   1.0078250   1.0078250  15.9949146   1.0078250   1.0078250
 NucSpn=           3           0           1           1           0           1           1           0           1           1
 AtZEff=   0.0000000   0.0000000   0.0000000   0.0000000   0.0000000   0.0000000   0.0000000   0.0000000   0.0000000   0.0000000
 NQMom=   31.3000000   0.0000000   0.0000000   0.0000000   0.0000000   0.0000000   0.0000000   0.0000000   0.0000000   0.0000000
 NMagM=    2.1063990   0.0000000   2.7928460   2.7928460   0.0000000   2.7928460   2.7928460   0.0000000   2.7928460   2.7928460
 AtZNuc=  35.0000000   8.0000000   1.0000000   1.0000000   8.0000000   1.0000000   1.0000000   8.0000000   1.0000000   1.0000000

  Atom        11          12          13          14          15          16          17          18          19          20
 IAtWgt=          16           1           1          16           1           1          16           1           1          16
 AtmWgt=  15.9949146   1.0078250   1.0078250  15.9949146   1.0078250   1.0078250  15.9949146   1.0078250   1.0078250  15.9949146
 NucSpn=           0           1           1           0           1           1           0           1           1           0
 AtZEff=   0.0000000   0.0000000   0.0000000   0.0000000   0.0000000   0.0000000   0.0000000   0.0000000   0.0000000   0.0000000
 NQMom=    0.0000000   0.0000000   0.0000000   0.0000000   0.0000000   0.0000000   0.0000000   0.0000000   0.0000000   0.0000000
 NMagM=    0.0000000   2.7928460   2.7928460   0.0000000   2.7928460   2.7928460   0.0000000   2.7928460   2.7928460   0.0000000
 AtZNuc=   8.0000000   1.0000000   1.0000000   8.0000000   1.0000000   1.0000000   8.0000000   1.0000000   1.0000000   8.0000000

  Atom        21          22          23          24          25          26          27          28          29          30
 IAtWgt=           1           1          16           1           1          16           1           1          16           1
 AtmWgt=   1.0078250   1.0078250  15.9949146   1.0078250   1.0078250  15.9949146   1.0078250   1.0078250  15.9949146   1.0078250
 NucSpn=           1           1           0           1           1           0           1           1           0           1
 AtZEff=   0.0000000   0.0000000   0.0000000   0.0000000   0.0000000   0.0000000   0.0000000   0.0000000   0.0000000   0.0000000
 NQMom=    0.0000000   0.0000000   0.0000000   0.0000000   0.0000000   0.0000000   0.0000000   0.0000000   0.0000000   0.0000000
 NMagM=    2.7928460   2.7928460   0.0000000   2.7928460   2.7928460   0.0000000   2.7928460   2.7928460   0.0000000   2.7928460
 AtZNuc=   1.0000000   1.0000000   8.0000000   1.0000000   1.0000000   8.0000000   1.0000000   1.0000000   8.0000000   1.0000000

  Atom        31          32          33          34          35          36          37          38          39          40
 IAtWgt=           1          16           1           1          16           1           1          16           1           1
 AtmWgt=   1.0078250  15.9949146   1.0078250   1.0078250  15.9949146   1.0078250   1.0078250  15.9949146   1.0078250   1.0078250
 NucSpn=           1           0           1           1           0           1           1           0           1           1
 AtZEff=   0.0000000   0.0000000   0.0000000   0.0000000   0.0000000   0.0000000   0.0000000   0.0000000   0.0000000   0.0000000
 NQMom=    0.0000000   0.0000000   0.0000000   0.0000000   0.0000000   0.0000000   0.0000000   0.0000000   0.0000000   0.0000000
 NMagM=    2.7928460   0.0000000   2.7928460   2.7928460   0.0000000   2.7928460   2.7928460   0.0000000   2.7928460   2.7928460
 AtZNuc=   1.0000000   8.0000000   1.0000000   1.0000000   8.0000000   1.0000000   1.0000000   8.0000000   1.0000000   1.0000000

  Atom        41          42          43          44          45          46          47          48          49          50
 IAtWgt=          16           1           1          16           1           1          16           1           1          16
 AtmWgt=  15.9949146   1.0078250   1.0078250  15.9949146   1.0078250   1.0078250  15.9949146   1.0078250   1.0078250  15.9949146
 NucSpn=           0           1           1           0           1           1           0           1           1           0
 AtZEff=   0.0000000   0.0000000   0.0000000   0.0000000   0.0000000   0.0000000   0.0000000   0.0000000   0.0000000   0.0000000
 NQMom=    0.0000000   0.0000000   0.0000000   0.0000000   0.0000000   0.0000000   0.0000000   0.0000000   0.0000000   0.0000000
 NMagM=    0.0000000   2.7928460   2.7928460   0.0000000   2.7928460   2.7928460   0.0000000   2.7928460   2.7928460   0.0000000
 AtZNuc=   8.0000000   1.0000000   1.0000000   8.0000000   1.0000000   1.0000000   8.0000000   1.0000000   1.0000000   8.0000000

  Atom        51          52          53          54          55          56          57          58          59          60
 IAtWgt=           1           1          16           1           1          16           1           1          16           1
 AtmWgt=   1.0078250   1.0078250  15.9949146   1.0078250   1.0078250  15.9949146   1.0078250   1.0078250  15.9949146   1.0078250
 NucSpn=           1           1           0           1           1           0           1           1           0           1
 AtZEff=   0.0000000   0.0000000   0.0000000   0.0000000   0.0000000   0.0000000   0.0000000   0.0000000   0.0000000   0.0000000
 NQMom=    0.0000000   0.0000000   0.0000000   0.0000000   0.0000000   0.0000000   0.0000000   0.0000000   0.0000000   0.0000000
 NMagM=    2.7928460   2.7928460   0.0000000   2.7928460   2.7928460   0.0000000   2.7928460   2.7928460   0.0000000   2.7928460
 AtZNuc=   1.0000000   1.0000000   8.0000000   1.0000000   1.0000000   8.0000000   1.0000000   1.0000000   8.0000000   1.0000000

  Atom        61          62          63          64          65          66          67          68          69          70
 IAtWgt=           1          16           1           1          16           1           1          16           1           1
 AtmWgt=   1.0078250  15.9949146   1.0078250   1.0078250  15.9949146   1.0078250   1.0078250  15.9949146   1.0078250   1.0078250
 NucSpn=           1           0           1           1           0           1           1           0           1           1
 AtZEff=   0.0000000   0.0000000   0.0000000   0.0000000   0.0000000   0.0000000   0.0000000   0.0000000   0.0000000   0.0000000
 NQMom=    0.0000000   0.0000000   0.0000000   0.0000000   0.0000000   0.0000000   0.0000000   0.0000000   0.0000000   0.0000000
 NMagM=    2.7928460   0.0000000   2.7928460   2.7928460   0.0000000   2.7928460   2.7928460   0.0000000   2.7928460   2.7928460
 AtZNuc=   1.0000000   8.0000000   1.0000000   1.0000000   8.0000000   1.0000000   1.0000000   8.0000000   1.0000000   1.0000000

  Atom        71          72          73          74          75          76          77          78          79          80
 IAtWgt=          16           1           1          16           1           1          16           1           1          16
 AtmWgt=  15.9949146   1.0078250   1.0078250  15.9949146   1.0078250   1.0078250  15.9949146   1.0078250   1.0078250  15.9949146
 NucSpn=           0           1           1           0           1           1           0           1           1           0
 AtZEff=   0.0000000   0.0000000   0.0000000   0.0000000   0.0000000   0.0000000   0.0000000   0.0000000   0.0000000   0.0000000
 NQMom=    0.0000000   0.0000000   0.0000000   0.0000000   0.0000000   0.0000000   0.0000000   0.0000000   0.0000000   0.0000000
 NMagM=    0.0000000   2.7928460   2.7928460   0.0000000   2.7928460   2.7928460   0.0000000   2.7928460   2.7928460   0.0000000
 AtZNuc=   8.0000000   1.0000000   1.0000000   8.0000000   1.0000000   1.0000000   8.0000000   1.0000000   1.0000000   8.0000000

  Atom        81          82          83          84          85          86          87          88          89          90
 IAtWgt=           1           1          16           1           1          16           1           1          16           1
 AtmWgt=   1.0078250   1.0078250  15.9949146   1.0078250   1.0078250  15.9949146   1.0078250   1.0078250  15.9949146   1.0078250
 NucSpn=           1           1           0           1           1           0           1           1           0           1
 AtZEff=   0.0000000   0.0000000   0.0000000   0.0000000   0.0000000   0.0000000   0.0000000   0.0000000   0.0000000   0.0000000
 NQMom=    0.0000000   0.0000000   0.0000000   0.0000000   0.0000000   0.0000000   0.0000000   0.0000000   0.0000000   0.0000000
 NMagM=    2.7928460   2.7928460   0.0000000   2.7928460   2.7928460   0.0000000   2.7928460   2.7928460   0.0000000   2.7928460
 AtZNuc=   1.0000000   1.0000000   8.0000000   1.0000000   1.0000000   8.0000000   1.0000000   1.0000000   8.0000000   1.0000000

  Atom        91          92          93          94          95          96          97
 IAtWgt=           1          16           1           1          16           1           1
 AtmWgt=   1.0078250  15.9949146   1.0078250   1.0078250  15.9949146   1.0078250   1.0078250
 NucSpn=           1           0           1           1           0           1           1
 AtZEff=   0.0000000   0.0000000   0.0000000   0.0000000   0.0000000   0.0000000   0.0000000
 NQMom=    0.0000000   0.0000000   0.0000000   0.0000000   0.0000000   0.0000000   0.0000000
 NMagM=    2.7928460   0.0000000   2.7928460   2.7928460   0.0000000   2.7928460   2.7928460
 AtZNuc=   1.0000000   8.0000000   1.0000000   1.0000000   8.0000000   1.0000000   1.0000000
 Leave Link  101 at Thu May  3 11:31:55 2018, MaxMem= 14763950080 cpu:        15.0
 (Enter /cm/shared/gaussian/g09.e01/intel64-sandybridge/g09/l103.exe)

 GradGradGradGradGradGradGradGradGradGradGradGradGradGradGradGradGradGrad
 Berny optimization.
 Initialization pass.
 Trust Radius=3.00D-01 FncErr=1.00D-07 GrdErr=1.00D-07
 Number of steps in this run=      2 maximum allowed number of steps=      2.
 GradGradGradGradGradGradGradGradGradGradGradGradGradGradGradGradGradGrad

 Leave Link  103 at Thu May  3 11:31:55 2018, MaxMem= 14763950080 cpu:         2.3
 (Enter /cm/shared/gaussian/g09.e01/intel64-sandybridge/g09/l202.exe)
 Symmetry turned off by external request.
 Stoichiometry    BrH64O32(1-)
 Framework group  C1[X(BrH64O32)]
 Deg. of freedom   285
 Full point group                 C1      NOp   1
                          Input orientation:                          
 ---------------------------------------------------------------------
 Center     Atomic      Atomic             Coordinates (Angstroms)
 Number     Number       Type             X           Y           Z
 ---------------------------------------------------------------------
      1         35           0       20.000000   20.000000   20.000000
      2          8           0       22.150000   22.030000   19.340000
      3          1           0       22.830000   22.050000   20.020000
      4          1           0       21.560000   21.330000   19.610000
      5          8           0       17.170000   18.840000   19.330000
      6          1           0       18.040000   19.170000   19.540000
      7          1           0       16.650000   19.010000   20.110000
      8          8           0       21.440000   20.190000   17.180000
      9          1           0       22.130000   20.820000   17.390000
     10          1           0       20.860000   20.210000   17.930000
     11          8           0       22.290000   17.770000   19.590000
     12          1           0       22.880000   18.420000   19.200000
     13          1           0       21.680000   18.280000   20.120000
     14          8           0       20.700000   22.060000   23.650000
     15          1           0       20.680000   21.390000   22.970000
     16          1           0       20.300000   22.830000   23.230000
     17          8           0       18.800000   18.610000   23.440000
     18          1           0       18.400000   19.330000   22.960000
     19          1           0       19.700000   18.890000   23.580000
     20          8           0       17.050000   23.450000   20.070000
     21          1           0       17.700000   22.750000   20.000000
     22          1           0       17.510000   24.230000   19.760000
     23          8           0       21.040000   23.350000   17.340000
     24          1           0       20.720000   24.200000   17.620000
     25          1           0       21.310000   22.910000   18.150000
     26          8           0       19.940000   16.230000   22.090000
     27          1           0       19.300000   16.950000   22.130000
     28          1           0       19.420000   15.470000   21.830000
     29          8           0       18.480000   16.080000   18.250000
     30          1           0       18.120000   16.770000   18.820000
     31          1           0       18.300000   16.390000   17.370000
     32          8           0       21.600000   17.570000   16.410000
     33          1           0       21.630000   18.490000   16.140000
     34          1           0       21.680000   17.590000   17.360000
     35          8           0       22.570000   16.650000   22.030000
     36          1           0       22.640000   17.280000   21.310000
     37          1           0       21.690000   16.290000   21.960000
     38          8           0       16.380000   21.150000   16.700000
     39          1           0       17.050000   21.690000   16.280000
     40          1           0       16.800000   20.820000   17.490000
     41          8           0       17.180000   20.660000   23.070000
     42          1           0       17.080000   21.510000   22.650000
     43          1           0       16.460000   20.130000   22.720000
     44          8           0       19.670000   21.930000   15.300000
     45          1           0       20.030000   22.120000   16.160000
     46          1           0       19.900000   22.690000   14.760000
     47          8           0       16.270000   17.550000   17.350000
     48          1           0       16.240000   18.060000   18.170000
     49          1           0       16.840000   18.060000   16.770000
     50          8           0       21.980000   18.920000   24.040000
     51          1           0       22.850000   19.300000   23.900000
     52          1           0       22.080000   18.000000   23.830000
     53          8           0       18.440000   18.560000   15.450000
     54          1           0       18.690000   17.650000   15.330000
     55          1           0       19.270000   19.030000   15.510000
     56          8           0       23.430000   22.470000   22.290000
     57          1           0       23.290000   23.330000   22.700000
     58          1           0       23.590000   21.880000   23.020000
     59          8           0       24.490000   19.060000   18.060000
     60          1           0       24.730000   18.790000   17.180000
     61          1           0       25.150000   18.670000   18.630000
     62          8           0       15.860000   18.420000   22.490000
     63          1           0       15.850000   18.110000   23.400000
     64          1           0       16.010000   17.630000   21.970000
     65          8           0       20.800000   14.730000   17.850000
     66          1           0       19.970000   15.150000   17.610000
     67          1           0       21.160000   15.290000   18.540000
     68          8           0       19.220000   24.180000   22.790000
     69          1           0       19.520000   24.930000   22.280000
     70          1           0       19.020000   24.540000   23.660000
     71          8           0       17.940000   23.750000   16.090000
     72          1           0       18.210000   24.660000   15.970000
     73          1           0       18.770000   23.260000   16.160000
     74          8           0       23.790000   15.140000   19.810000
     75          1           0       23.100000   15.810000   19.890000
     76          1           0       24.610000   15.630000   19.870000
     77          8           0       16.550000   16.150000   21.030000
     78          1           0       15.940000   16.630000   20.480000
     79          1           0       16.370000   15.230000   20.850000
     80          8           0       19.290000   20.710000   25.760000
     81          1           0       18.480000   20.650000   25.250000
     82          1           0       19.910000   21.150000   25.180000
     83          8           0       16.700000   23.500000   23.180000
     84          1           0       17.660000   23.510000   23.230000
     85          1           0       16.470000   24.350000   22.810000
     86          8           0       19.820000   25.230000   18.890000
     87          1           0       19.290000   25.770000   18.300000
     88          1           0       19.780000   25.690000   19.730000
     89          8           0       24.920000   21.580000   17.040000
     90          1           0       24.660000   20.740000   17.420000
     91          1           0       25.430000   22.000000   17.730000
     92          8           0       26.020000   21.020000   21.310000
     93          1           0       25.340000   20.350000   21.330000
     94          1           0       26.650000   20.750000   21.980000
     95          8           0       25.180000   18.260000   21.090000
     96          1           0       25.580000   17.470000   20.740000
     97          1           0       25.010000   18.060000   22.010000
 ---------------------------------------------------------------------
 Rotational constants (GHZ):      0.0576365      0.0539913      0.0528163
 Leave Link  202 at Thu May  3 11:31:55 2018, MaxMem= 14763950080 cpu:         0.6
 (Enter /cm/shared/gaussian/g09.e01/intel64-sandybridge/g09/l122.exe)
 Counterpoise: doing full dimer calculation.
 Leave Link  122 at Thu May  3 11:31:55 2018, MaxMem= 14763950080 cpu:         0.1
 (Enter /cm/shared/gaussian/g09.e01/intel64-sandybridge/g09/l301.exe)
 Standard basis: CC-pVDZ (5D, 7F)
 Ernie: Thresh=  0.10000D-02 Tol=  0.10000D-05 Strict=F.
 Ernie:  87 primitive shells out of 1114 were deleted.
   795 basis functions,  1651 primitive gaussians,   829 cartesian basis functions
   178 alpha electrons      178 beta electrons
       nuclear repulsion energy      6086.5956708331 Hartrees.
 IExCor= 1009 DFT=T Ex+Corr=PBE1PBE ExCW=0 ScaHFX=  0.250000
 ScaDFX=  0.750000  0.750000  1.000000  1.000000 ScalE2=  1.000000  1.000000
 IRadAn=      0 IRanWt=     -1 IRanGd=            0 ICorTp=0 IEmpDi=  4
 NAtoms=   97 NActive=   97 NUniq=   97 SFac= 1.00D+00 NAtFMM=   60 NAOKFM=T Big=T
 Integral buffers will be    131072 words long.
 Raffenetti 2 integral format.
 Two-electron integral symmetry is turned off.
 Leave Link  301 at Thu May  3 11:31:55 2018, MaxMem= 14763950080 cpu:         6.4
 (Enter /cm/shared/gaussian/g09.e01/intel64-sandybridge/g09/l302.exe)
 NPDir=0 NMtPBC=     1 NCelOv=     1 NCel=       1 NClECP=     1 NCelD=      1
         NCelK=      1 NCelE2=     1 NClLst=     1 CellRange=     0.0.
 One-electron integrals computed using PRISM.
 NBasis=   795 RedAO= T EigKep=  1.48D-02  NBF=   795
 NBsUse=   795 1.00D-06 EigRej= -1.00D+00 NBFU=   795
 Precomputing XC quadrature grid using
 IXCGrd= 4 IRadAn=           0 IRanWt=          -1 IRanGd=           0 AccXCQ= 0.00D+00.
 Generated NRdTot=       0 NPtTot=           0 NUsed=           0 NTot=          32
 NSgBfM=   742   754   770   777   780 MxSgAt=    97 MxSgA2=    97.
 Leave Link  302 at Thu May  3 11:32:02 2018, MaxMem= 14763950080 cpu:       436.0
 (Enter /cm/shared/gaussian/g09.e01/intel64-sandybridge/g09/l303.exe)
 DipDrv:  MaxL=1.
 Leave Link  303 at Thu May  3 11:32:03 2018, MaxMem= 14763950080 cpu:        30.9
 (Enter /cm/shared/gaussian/g09.e01/intel64-sandybridge/g09/l401.exe)
 ExpMin= 1.22D-01 ExpMax= 6.40D+05 ExpMxC= 6.18D+03 IAcc=2 IRadAn=         4 AccDes= 0.00D+00
 Harris functional with IExCor= 1009 and IRadAn=       4 diagonalized for initial guess.
 HarFok:  IExCor= 1009 AccDes= 0.00D+00 IRadAn=         4 IDoV= 1 UseB2=F ITyADJ=14
 ICtDFT=  3500011 ScaDFX=  1.000000  1.000000  1.000000  1.000000
 FoFCou: FMM=F IPFlag=           0 FMFlag=      100000 FMFlg1=        2001
         NFxFlg=           0 DoJE=T BraDBF=F KetDBF=T FulRan=T
         wScrn=  0.000000 ICntrl=     500 IOpCl=  0 I1Cent=   200000004 NGrid=           0
         NMat0=    1 NMatS0=      1 NMatT0=    0 NMatD0=    1 NMtDS0=    0 NMtDT0=    0
 Symmetry not used in FoFCou.
 Harris En= -5018.40686426321    
 JPrj=0 DoOrth=F DoCkMO=F.
 Leave Link  401 at Thu May  3 11:32:08 2018, MaxMem= 14763950080 cpu:       324.9
 (Enter /cm/shared/gaussian/g09.e01/intel64-sandybridge/g09/l502.exe)
 Closed shell SCF:
 Using DIIS extrapolation, IDIIS=  1040.
 Two-electron integral symmetry not used.
 IVT=     2138497 IEndB=     2138497 NGot= 14763950080 MDV= 14762516294
 LenX= 14762516294 LenY= 14761828224
 Requested convergence on RMS density matrix=1.00D-08 within 128 cycles.
 Requested convergence on MAX density matrix=1.00D-06.
 Requested convergence on             energy=1.00D-06.
 No special actions if energy rises.
 Fock matrices will be formed incrementally for  20 cycles.
 Integral accuracy reduced to 1.0D-05 until final iterations.

 Cycle   1  Pass 0  IDiag  1:
 FoFJK:  IHMeth= 1 ICntrl=       0 DoSepK=F KAlg= 0 I1Cent=   0 FoldK=F
 IRaf= 820000000 NMat=   1 IRICut=       1 DoRegI=T DoRafI=F ISym2E= 0.
 FoFCou: FMM=T IPFlag=           0 FMFlag=      100000 FMFlg1=        2001
         NFxFlg=           0 DoJE=F BraDBF=F KetDBF=F FulRan=T
         wScrn=  0.000000 ICntrl=       0 IOpCl=  0 I1Cent=           0 NGrid=           0
         NMat0=    1 NMatS0=      1 NMatT0=    0 NMatD0=    1 NMtDS0=    0 NMtDT0=    0
 Symmetry not used in FoFCou.
 FMM levels:  10  Number of levels for PrismC:   9
 E= -5015.18403761891    
 DIIS: error= 3.19D-02 at cycle   1 NSaved=   1.
 NSaved= 1 IEnMin= 1 EnMin= -5015.18403761891     IErMin= 1 ErrMin= 3.19D-02
 ErrMax= 3.19D-02  0.00D+00 EMaxC= 1.00D-01 BMatC= 2.75D+00 BMatP= 2.75D+00
 IDIUse=3 WtCom= 6.81D-01 WtEn= 3.19D-01
 Coeff-Com:  0.100D+01
 Coeff-En:   0.100D+01
 Coeff:      0.100D+01
 Gap=     0.277 Goal=   None    Shift=    0.000
 GapD=    0.277 DampG=1.000 DampE=0.500 DampFc=0.5000 IDamp=-1.
 Damping current iteration by 5.00D-01
 RMSDP=2.89D-03 MaxDP=1.63D-01              OVMax= 1.80D-01

 Cycle   2  Pass 0  IDiag  1:
 RMSU=  1.44D-03    CP:  9.85D-01
 E= -5015.98820046327     Delta-E=       -0.804162844359 Rises=F Damp=T
 DIIS: error= 7.37D-03 at cycle   2 NSaved=   2.
 NSaved= 2 IEnMin= 2 EnMin= -5015.98820046327     IErMin= 2 ErrMin= 7.37D-03
 ErrMax= 7.37D-03  0.00D+00 EMaxC= 1.00D-01 BMatC= 8.92D-02 BMatP= 2.75D+00
 IDIUse=3 WtCom= 9.26D-01 WtEn= 7.37D-02
 Coeff-Com:  0.121D+00 0.879D+00
 Coeff-En:   0.215D+00 0.785D+00
 Coeff:      0.128D+00 0.872D+00
 Gap=     0.171 Goal=   None    Shift=    0.000
 RMSDP=3.60D-04 MaxDP=2.00D-02 DE=-8.04D-01 OVMax= 1.01D-01

 Cycle   3  Pass 0  IDiag  1:
 RMSU=  2.86D-04    CP:  9.87D-01  8.49D-01
 E= -5017.16125729789     Delta-E=       -1.173056834617 Rises=F Damp=F
 DIIS: error= 1.18D-03 at cycle   3 NSaved=   3.
 NSaved= 3 IEnMin= 3 EnMin= -5017.16125729789     IErMin= 3 ErrMin= 1.18D-03
 ErrMax= 1.18D-03  0.00D+00 EMaxC= 1.00D-01 BMatC= 1.49D-03 BMatP= 8.92D-02
 IDIUse=3 WtCom= 9.88D-01 WtEn= 1.18D-02
 Coeff-Com:  0.801D-02 0.593D-01 0.933D+00
 Coeff-En:   0.000D+00 0.000D+00 0.100D+01
 Coeff:      0.792D-02 0.586D-01 0.933D+00
 Gap=     0.204 Goal=   None    Shift=    0.000
 RMSDP=8.53D-05 MaxDP=1.28D-02 DE=-1.17D+00 OVMax= 1.53D-02

 Cycle   4  Pass 0  IDiag  1:
 RMSU=  7.76D-05    CP:  9.87D-01  8.49D-01  8.76D-01
 E= -5017.16165307363     Delta-E=       -0.000395775747 Rises=F Damp=F
 DIIS: error= 1.12D-03 at cycle   4 NSaved=   4.
 NSaved= 4 IEnMin= 4 EnMin= -5017.16165307363     IErMin= 4 ErrMin= 1.12D-03
 ErrMax= 1.12D-03  0.00D+00 EMaxC= 1.00D-01 BMatC= 1.40D-03 BMatP= 1.49D-03
 IDIUse=3 WtCom= 9.89D-01 WtEn= 1.12D-02
 Coeff-Com:  0.180D-02 0.719D-02 0.491D+00 0.500D+00
 Coeff-En:   0.000D+00 0.000D+00 0.417D+00 0.583D+00
 Coeff:      0.178D-02 0.711D-02 0.490D+00 0.501D+00
 Gap=     0.186 Goal=   None    Shift=    0.000
 RMSDP=3.66D-05 MaxDP=4.76D-03 DE=-3.96D-04 OVMax= 4.85D-03

 Cycle   5  Pass 0  IDiag  1:
 RMSU=  1.64D-05    CP:  9.87D-01  8.48D-01  9.23D-01  6.16D-01
 E= -5017.16273429847     Delta-E=       -0.001081224837 Rises=F Damp=F
 DIIS: error= 1.10D-04 at cycle   5 NSaved=   5.
 NSaved= 5 IEnMin= 5 EnMin= -5017.16273429847     IErMin= 5 ErrMin= 1.10D-04
 ErrMax= 1.10D-04  0.00D+00 EMaxC= 1.00D-01 BMatC= 3.31D-05 BMatP= 1.40D-03
 IDIUse=3 WtCom= 9.99D-01 WtEn= 1.10D-03
 Coeff-Com:  0.545D-03-0.186D-02 0.129D+00 0.180D+00 0.692D+00
 Coeff-En:   0.000D+00 0.000D+00 0.000D+00 0.000D+00 0.100D+01
 Coeff:      0.544D-03-0.185D-02 0.129D+00 0.180D+00 0.692D+00
 Gap=     0.186 Goal=   None    Shift=    0.000
 RMSDP=7.52D-06 MaxDP=1.07D-03 DE=-1.08D-03 OVMax= 1.13D-03

 Cycle   6  Pass 0  IDiag  1:
 RMSU=  5.39D-06    CP:  9.87D-01  8.48D-01  9.32D-01  6.01D-01  7.38D-01
 E= -5017.16275775355     Delta-E=       -0.000023455083 Rises=F Damp=F
 DIIS: error= 9.50D-05 at cycle   6 NSaved=   6.
 NSaved= 6 IEnMin= 6 EnMin= -5017.16275775355     IErMin= 6 ErrMin= 9.50D-05
 ErrMax= 9.50D-05  0.00D+00 EMaxC= 1.00D-01 BMatC= 3.60D-06 BMatP= 3.31D-05
 IDIUse=1 WtCom= 1.00D+00 WtEn= 0.00D+00
 Coeff-Com:  0.111D-03-0.192D-02 0.298D-01 0.457D-01 0.291D+00 0.635D+00
 Coeff:      0.111D-03-0.192D-02 0.298D-01 0.457D-01 0.291D+00 0.635D+00
 Gap=     0.186 Goal=   None    Shift=    0.000
 RMSDP=2.36D-06 MaxDP=4.53D-04 DE=-2.35D-05 OVMax= 4.00D-04

 Initial convergence to 1.0D-05 achieved.  Increase integral accuracy.
 Cycle   7  Pass 1  IDiag  1:
 E= -5017.16345262150     Delta-E=       -0.000694867949 Rises=F Damp=F
 DIIS: error= 3.34D-05 at cycle   1 NSaved=   1.
 NSaved= 1 IEnMin= 1 EnMin= -5017.16345262150     IErMin= 1 ErrMin= 3.34D-05
 ErrMax= 3.34D-05  0.00D+00 EMaxC= 1.00D-01 BMatC= 1.41D-06 BMatP= 1.41D-06
 IDIUse=1 WtCom= 1.00D+00 WtEn= 0.00D+00
 Coeff-Com:  0.100D+01
 Coeff:      0.100D+01
 Gap=     0.186 Goal=   None    Shift=    0.000
 RMSDP=2.36D-06 MaxDP=4.53D-04 DE=-6.95D-04 OVMax= 2.38D-04

 Cycle   8  Pass 1  IDiag  1:
 RMSU=  4.35D-06    CP:  1.00D+00
 E= -5017.16345408643     Delta-E=       -0.000001464932 Rises=F Damp=F
 DIIS: error= 1.31D-05 at cycle   2 NSaved=   2.
 NSaved= 2 IEnMin= 2 EnMin= -5017.16345408643     IErMin= 2 ErrMin= 1.31D-05
 ErrMax= 1.31D-05  0.00D+00 EMaxC= 1.00D-01 BMatC= 2.25D-07 BMatP= 1.41D-06
 IDIUse=1 WtCom= 1.00D+00 WtEn= 0.00D+00
 Coeff-Com:  0.196D+00 0.804D+00
 Coeff:      0.196D+00 0.804D+00
 Gap=     0.186 Goal=   None    Shift=    0.000
 RMSDP=7.41D-07 MaxDP=7.00D-05 DE=-1.46D-06 OVMax= 7.50D-05

 Cycle   9  Pass 1  IDiag  1:
 RMSU=  7.41D-07    CP:  1.00D+00  9.96D-01
 E= -5017.16345413077     Delta-E=       -0.000000044332 Rises=F Damp=F
 DIIS: error= 1.16D-05 at cycle   3 NSaved=   3.
 NSaved= 3 IEnMin= 3 EnMin= -5017.16345413077     IErMin= 3 ErrMin= 1.16D-05
 ErrMax= 1.16D-05  0.00D+00 EMaxC= 1.00D-01 BMatC= 1.74D-07 BMatP= 2.25D-07
 IDIUse=1 WtCom= 1.00D+00 WtEn= 0.00D+00
 Coeff-Com: -0.675D-02 0.468D+00 0.539D+00
 Coeff:     -0.675D-02 0.468D+00 0.539D+00
 Gap=     0.186 Goal=   None    Shift=    0.000
 RMSDP=3.32D-07 MaxDP=3.53D-05 DE=-4.43D-08 OVMax= 3.11D-05

 Cycle  10  Pass 1  IDiag  1:
 RMSU=  1.12D-07    CP:  1.00D+00  1.01D+00  5.92D-01
 E= -5017.16345425468     Delta-E=       -0.000000123917 Rises=F Damp=F
 DIIS: error= 1.72D-06 at cycle   4 NSaved=   4.
 NSaved= 4 IEnMin= 4 EnMin= -5017.16345425468     IErMin= 4 ErrMin= 1.72D-06
 ErrMax= 1.72D-06  0.00D+00 EMaxC= 1.00D-01 BMatC= 1.27D-09 BMatP= 1.74D-07
 IDIUse=1 WtCom= 1.00D+00 WtEn= 0.00D+00
 Coeff-Com: -0.540D-02 0.201D+00 0.242D+00 0.562D+00
 Coeff:     -0.540D-02 0.201D+00 0.242D+00 0.562D+00
 Gap=     0.186 Goal=   None    Shift=    0.000
 RMSDP=4.67D-08 MaxDP=9.31D-06 DE=-1.24D-07 OVMax= 8.42D-06

 Cycle  11  Pass 1  IDiag  1:
 RMSU=  3.21D-08    CP:  1.00D+00  1.02D+00  5.84D-01  7.06D-01
 E= -5017.16345425583     Delta-E=       -0.000000001150 Rises=F Damp=F
 DIIS: error= 2.73D-07 at cycle   5 NSaved=   5.
 NSaved= 5 IEnMin= 5 EnMin= -5017.16345425583     IErMin= 5 ErrMin= 2.73D-07
 ErrMax= 2.73D-07  0.00D+00 EMaxC= 1.00D-01 BMatC= 5.37D-11 BMatP= 1.27D-09
 IDIUse=1 WtCom= 1.00D+00 WtEn= 0.00D+00
 Coeff-Com: -0.162D-02 0.485D-01 0.593D-01 0.212D+00 0.682D+00
 Coeff:     -0.162D-02 0.485D-01 0.593D-01 0.212D+00 0.682D+00
 Gap=     0.186 Goal=   None    Shift=    0.000
 RMSDP=8.64D-09 MaxDP=1.02D-06 DE=-1.15D-09 OVMax= 8.81D-07

 Cycle  12  Pass 1  IDiag  1:
 RMSU=  7.88D-09    CP:  1.00D+00  1.02D+00  5.85D-01  7.35D-01  9.79D-01
 E= -5017.16345425581     Delta-E=        0.000000000027 Rises=F Damp=F
 DIIS: error= 1.11D-07 at cycle   6 NSaved=   6.
 NSaved= 6 IEnMin= 5 EnMin= -5017.16345425583     IErMin= 6 ErrMin= 1.11D-07
 ErrMax= 1.11D-07  0.00D+00 EMaxC= 1.00D-01 BMatC= 9.42D-12 BMatP= 5.37D-11
 IDIUse=1 WtCom= 1.00D+00 WtEn= 0.00D+00
 Coeff-Com:  0.533D-04-0.701D-02-0.816D-02 0.151D-01 0.319D+00 0.681D+00
 Coeff:      0.533D-04-0.701D-02-0.816D-02 0.151D-01 0.319D+00 0.681D+00
 Gap=     0.186 Goal=   None    Shift=    0.000
 RMSDP=3.66D-09 MaxDP=5.28D-07 DE= 2.73D-11 OVMax= 5.78D-07

 SCF Done:  E(RPBE1PBE) =  -5017.16345426     A.U. after   12 cycles
            NFock= 12  Conv=0.37D-08     -V/T= 2.0027
 KE= 5.003418606255D+03 PE=-2.414552761910D+04 EE= 8.038349887758D+03
 Leave Link  502 at Thu May  3 11:34:33 2018, MaxMem= 14763950080 cpu:      9171.9
 (Enter /cm/shared/gaussian/g09.e01/intel64-sandybridge/g09/l601.exe)
 Copying SCF densities to generalized density rwf, IOpCl= 0 IROHF=0.

 **********************************************************************

            Population analysis using the SCF density.

 **********************************************************************

 Alpha  occ. eigenvalues -- -483.11464 -62.51790 -56.29035 -56.29014 -56.29006
 Alpha  occ. eigenvalues --  -19.22336 -19.19746 -19.18040 -19.17436 -19.16201
 Alpha  occ. eigenvalues --  -19.14585 -19.13302 -19.12895 -19.12652 -19.11917
 Alpha  occ. eigenvalues --  -19.11819 -19.11749 -19.11746 -19.11326 -19.10832
 Alpha  occ. eigenvalues --  -19.10742 -19.10544 -19.10177 -19.09833 -19.09482
 Alpha  occ. eigenvalues --  -19.09279 -19.08884 -19.08875 -19.08375 -19.07887
 Alpha  occ. eigenvalues --  -19.07554 -19.06632 -19.05706 -19.05704 -19.05636
 Alpha  occ. eigenvalues --  -19.04870 -19.04015  -8.62136  -6.42543  -6.42417
 Alpha  occ. eigenvalues --   -6.42379  -2.50812  -2.50780  -2.50747  -2.50648
 Alpha  occ. eigenvalues --   -2.50641  -1.05106  -1.02115  -1.00565  -1.00046
 Alpha  occ. eigenvalues --   -0.99031  -0.96896  -0.95866  -0.95465  -0.95411
 Alpha  occ. eigenvalues --   -0.94982  -0.94739  -0.94513  -0.94259  -0.94136
 Alpha  occ. eigenvalues --   -0.93999  -0.93887  -0.93014  -0.92596  -0.92294
 Alpha  occ. eigenvalues --   -0.92088  -0.91968  -0.91493  -0.91295  -0.91249
 Alpha  occ. eigenvalues --   -0.90648  -0.90105  -0.89250  -0.88262  -0.88241
 Alpha  occ. eigenvalues --   -0.88146  -0.87448  -0.86447  -0.61884  -0.55715
 Alpha  occ. eigenvalues --   -0.52577  -0.51550  -0.50619  -0.50292  -0.47614
 Alpha  occ. eigenvalues --   -0.46838  -0.46294  -0.46030  -0.45896  -0.45578
 Alpha  occ. eigenvalues --   -0.45423  -0.45039  -0.44747  -0.44727  -0.44595
 Alpha  occ. eigenvalues --   -0.43594  -0.43485  -0.43274  -0.43073  -0.43038
 Alpha  occ. eigenvalues --   -0.42691  -0.42532  -0.41853  -0.41653  -0.41546
 Alpha  occ. eigenvalues --   -0.40266  -0.40049  -0.39629  -0.39333  -0.39261
 Alpha  occ. eigenvalues --   -0.38876  -0.38341  -0.37281  -0.36924  -0.36054
 Alpha  occ. eigenvalues --   -0.35376  -0.34900  -0.33474  -0.32700  -0.32425
 Alpha  occ. eigenvalues --   -0.32024  -0.31811  -0.31459  -0.30867  -0.30844
 Alpha  occ. eigenvalues --   -0.30723  -0.30645  -0.30327  -0.29860  -0.29552
 Alpha  occ. eigenvalues --   -0.29431  -0.29367  -0.28737  -0.28658  -0.28458
 Alpha  occ. eigenvalues --   -0.28309  -0.27833  -0.27043  -0.26769  -0.26353
 Alpha  occ. eigenvalues --   -0.26153  -0.26095  -0.25854  -0.25619  -0.24842
 Alpha  occ. eigenvalues --   -0.24466  -0.24451  -0.24165  -0.23930  -0.23560
 Alpha  occ. eigenvalues --   -0.23265  -0.22907  -0.22674  -0.22465  -0.22209
 Alpha  occ. eigenvalues --   -0.22203  -0.21975  -0.21803  -0.21588  -0.21253
 Alpha  occ. eigenvalues --   -0.20755  -0.20682  -0.20436  -0.20354  -0.20241
 Alpha  occ. eigenvalues --   -0.20129  -0.18980  -0.18769  -0.18444  -0.18068
 Alpha  occ. eigenvalues --   -0.16982  -0.16844  -0.16580  -0.16450  -0.15994
 Alpha  occ. eigenvalues --   -0.15760  -0.15694  -0.14943
 Alpha virt. eigenvalues --    0.03631   0.06486   0.08551   0.09912   0.10314
 Alpha virt. eigenvalues --    0.11895   0.12639   0.14299   0.14546   0.14752
 Alpha virt. eigenvalues --    0.15246   0.16114   0.16948   0.17008   0.17841
 Alpha virt. eigenvalues --    0.18221   0.18536   0.18954   0.19422   0.19851
 Alpha virt. eigenvalues --    0.20564   0.20926   0.21541   0.21836   0.22415
 Alpha virt. eigenvalues --    0.22637   0.23126   0.23796   0.23863   0.24052
 Alpha virt. eigenvalues --    0.24851   0.25624   0.26326   0.26769   0.26966
 Alpha virt. eigenvalues --    0.27451   0.28072   0.28309   0.28870   0.29204
 Alpha virt. eigenvalues --    0.29671   0.30441   0.30743   0.31191   0.31722
 Alpha virt. eigenvalues --    0.32218   0.32509   0.33035   0.33514   0.33568
 Alpha virt. eigenvalues --    0.34145   0.34901   0.35449   0.36225   0.36444
 Alpha virt. eigenvalues --    0.36646   0.36983   0.37696   0.38474   0.38747
 Alpha virt. eigenvalues --    0.39367   0.39702   0.40001   0.41771   0.56999
 Alpha virt. eigenvalues --    0.59395   0.60601   0.60998   0.61352   0.61899
 Alpha virt. eigenvalues --    0.62123   0.62343   0.63140   0.63419   0.64290
 Alpha virt. eigenvalues --    0.64704   0.65098   0.65474   0.65647   0.66158
 Alpha virt. eigenvalues --    0.66368   0.66700   0.66937   0.67016   0.67210
 Alpha virt. eigenvalues --    0.67530   0.67855   0.68044   0.68361   0.68739
 Alpha virt. eigenvalues --    0.69165   0.69340   0.69794   0.69935   0.70513
 Alpha virt. eigenvalues --    0.70804   0.70878   0.71157   0.71479   0.71501
 Alpha virt. eigenvalues --    0.71818   0.72363   0.72668   0.73267   0.73282
 Alpha virt. eigenvalues --    0.73521   0.73832   0.74165   0.74569   0.75172
 Alpha virt. eigenvalues --    0.75750   0.75883   0.76120   0.76575   0.77512
 Alpha virt. eigenvalues --    0.77688   0.78057   0.78147   0.79070   0.79294
 Alpha virt. eigenvalues --    0.79678   0.80003   0.80410   0.81382   0.82086
 Alpha virt. eigenvalues --    0.82423   0.82579   0.82849   0.83531   0.84150
 Alpha virt. eigenvalues --    0.85253   0.85711   0.87124   0.88032   0.88780
 Alpha virt. eigenvalues --    0.92146   0.93135   0.93888   0.94799   0.95705
 Alpha virt. eigenvalues --    0.96412   0.97138   0.97359   0.97612   0.97793
 Alpha virt. eigenvalues --    0.98297   0.98621   0.98995   0.99659   1.00053
 Alpha virt. eigenvalues --    1.00235   1.00745   1.01144   1.01504   1.01787
 Alpha virt. eigenvalues --    1.02122   1.02361   1.02666   1.03010   1.03212
 Alpha virt. eigenvalues --    1.03563   1.03848   1.04119   1.04413   1.04991
 Alpha virt. eigenvalues --    1.05117   1.05569   1.05725   1.06004   1.06148
 Alpha virt. eigenvalues --    1.06440   1.06555   1.06648   1.07173   1.07331
 Alpha virt. eigenvalues --    1.07715   1.07933   1.08194   1.08859   1.09001
 Alpha virt. eigenvalues --    1.09354   1.09420   1.09515   1.10290   1.10521
 Alpha virt. eigenvalues --    1.11127   1.11521   1.11645   1.11856   1.12480
 Alpha virt. eigenvalues --    1.12653   1.12786   1.13070   1.13677   1.13851
 Alpha virt. eigenvalues --    1.14039   1.14283   1.14786   1.15061   1.15489
 Alpha virt. eigenvalues --    1.15646   1.15793   1.15896   1.16243   1.16513
 Alpha virt. eigenvalues --    1.16640   1.17358   1.17540   1.17801   1.18087
 Alpha virt. eigenvalues --    1.18428   1.19071   1.19706   1.19811   1.20577
 Alpha virt. eigenvalues --    1.20805   1.21041   1.21629   1.21942   1.23028
 Alpha virt. eigenvalues --    1.23404   1.23457   1.23835   1.24313   1.24785
 Alpha virt. eigenvalues --    1.25556   1.25938   1.26195   1.26623   1.26963
 Alpha virt. eigenvalues --    1.27245   1.27704   1.27735   1.28319   1.28458
 Alpha virt. eigenvalues --    1.28980   1.29747   1.30070   1.30262   1.30406
 Alpha virt. eigenvalues --    1.30652   1.30908   1.31206   1.31800   1.32138
 Alpha virt. eigenvalues --    1.32259   1.32715   1.33073   1.33492   1.33588
 Alpha virt. eigenvalues --    1.33717   1.34268   1.34372   1.34817   1.35176
 Alpha virt. eigenvalues --    1.35499   1.35834   1.36249   1.36473   1.36996
 Alpha virt. eigenvalues --    1.37030   1.37204   1.37683   1.38057   1.38291
 Alpha virt. eigenvalues --    1.38779   1.39101   1.39359   1.39541   1.39742
 Alpha virt. eigenvalues --    1.40142   1.40528   1.40721   1.40985   1.41920
 Alpha virt. eigenvalues --    1.42267   1.42981   1.43289   1.43703   1.43736
 Alpha virt. eigenvalues --    1.44188   1.44375   1.44545   1.44641   1.45320
 Alpha virt. eigenvalues --    1.45925   1.46578   1.46832   1.47427   1.47592
 Alpha virt. eigenvalues --    1.47867   1.48354   1.48559   1.49623   1.49913
 Alpha virt. eigenvalues --    1.50906   1.51224   1.51793   1.52378   1.52816
 Alpha virt. eigenvalues --    1.53716   1.53895   1.54318   1.54467   1.54657
 Alpha virt. eigenvalues --    1.55726   1.56741   1.56933   1.57473   1.57659
 Alpha virt. eigenvalues --    1.58123   1.58165   1.59241   1.59441   1.59673
 Alpha virt. eigenvalues --    1.60049   1.60233   1.61287   1.61458   1.62025
 Alpha virt. eigenvalues --    1.62943   1.63035   1.63863   1.64665   1.64715
 Alpha virt. eigenvalues --    1.66562   1.66853   1.67704   1.67988   1.68485
 Alpha virt. eigenvalues --    1.69158   1.69608   1.70102   1.70459   1.72464
 Alpha virt. eigenvalues --    1.72725   1.73058   1.73380   1.73506   1.73864
 Alpha virt. eigenvalues --    1.74188   1.75236   1.75913   1.76201   1.76261
 Alpha virt. eigenvalues --    1.76613   1.77633   1.78001   1.78115   1.78597
 Alpha virt. eigenvalues --    1.79134   1.79869   1.80248   1.80627   1.80857
 Alpha virt. eigenvalues --    1.81241   1.81570   1.82581   1.83219   1.83287
 Alpha virt. eigenvalues --    1.83602   1.83870   1.84160   1.84549   1.85044
 Alpha virt. eigenvalues --    1.85247   1.86202   1.86704   1.87339   1.87884
 Alpha virt. eigenvalues --    1.88088   1.89521   1.89932   1.90660   1.91534
 Alpha virt. eigenvalues --    1.92829   1.93056   1.93774   1.94217   1.94790
 Alpha virt. eigenvalues --    1.95451   1.96130   1.96362   1.97552   1.98404
 Alpha virt. eigenvalues --    2.00994   2.01622   2.02579   2.03517   2.04278
 Alpha virt. eigenvalues --    2.05574   2.08483   2.09989   2.13885   2.14548
 Alpha virt. eigenvalues --    2.16532   2.19075   2.19363   2.20031   2.20517
 Alpha virt. eigenvalues --    2.21328   2.21834   2.22287   2.22916   2.23121
 Alpha virt. eigenvalues --    2.23240   2.23370   2.23977   2.24427   2.24474
 Alpha virt. eigenvalues --    2.25058   2.25316   2.25516   2.25851   2.26728
 Alpha virt. eigenvalues --    2.26956   2.27068   2.27502   2.27953   2.28600
 Alpha virt. eigenvalues --    2.29380   2.30323   2.30358   2.30817   2.31192
 Alpha virt. eigenvalues --    2.31337   2.31599   2.31886   2.31980   2.32361
 Alpha virt. eigenvalues --    2.32813   2.33405   2.34177   2.34608   2.34801
 Alpha virt. eigenvalues --    2.35195   2.35336   2.35650   2.36428   2.37286
 Alpha virt. eigenvalues --    2.38790   2.38867   2.39426   2.43691   2.45127
 Alpha virt. eigenvalues --    2.46966   2.47353   2.47974   2.48711   2.48771
 Alpha virt. eigenvalues --    2.49133   2.53966   2.56258   2.57985   2.58981
 Alpha virt. eigenvalues --    2.58994   2.65497   2.91797   2.94052   2.95957
 Alpha virt. eigenvalues --    2.96605   2.97839   2.98262   2.98480   2.98978
 Alpha virt. eigenvalues --    2.99571   3.00108   3.00145   3.00965   3.01161
 Alpha virt. eigenvalues --    3.01376   3.01883   3.02224   3.02286   3.02464
 Alpha virt. eigenvalues --    3.02716   3.02910   3.03004   3.03131   3.03496
 Alpha virt. eigenvalues --    3.03623   3.03846   3.04130   3.04397   3.04842
 Alpha virt. eigenvalues --    3.05007   3.05120   3.05557   3.05683   3.06020
 Alpha virt. eigenvalues --    3.06079   3.06208   3.06375   3.06748   3.06974
 Alpha virt. eigenvalues --    3.07283   3.07465   3.07650   3.08094   3.08134
 Alpha virt. eigenvalues --    3.08224   3.08284   3.08533   3.08554   3.08822
 Alpha virt. eigenvalues --    3.09244   3.09657   3.09945   3.10345   3.10682
 Alpha virt. eigenvalues --    3.10850   3.11454   3.12370   3.12622   3.12640
 Alpha virt. eigenvalues --    3.13180   3.14018   3.14967   3.15431   3.15692
 Alpha virt. eigenvalues --    3.16201   3.16689   3.17923   3.19195   3.19576
 Alpha virt. eigenvalues --    3.21430   3.21572   3.22182   3.23451   3.24236
 Alpha virt. eigenvalues --    3.24522   3.24852   3.24929   3.25195   3.25707
 Alpha virt. eigenvalues --    3.25902   3.26217   3.26568   3.26812   3.27121
 Alpha virt. eigenvalues --    3.27331   3.28716   3.29118   3.29327   3.29528
 Alpha virt. eigenvalues --    3.30393   3.30490   3.30959   3.31665   3.32386
 Alpha virt. eigenvalues --    3.32721   3.33649   3.34625   3.49308   3.53809
 Alpha virt. eigenvalues --    3.54598   3.55684   3.55881   3.56731   3.58411
 Alpha virt. eigenvalues --    3.58737   3.60549   3.61023   3.61384   3.61936
 Alpha virt. eigenvalues --    3.62151   3.62614   3.63087   3.63514   3.63719
 Alpha virt. eigenvalues --    3.64173   3.64911   3.65211   3.65302   3.65589
 Alpha virt. eigenvalues --    3.66225   3.67446   3.67884   3.68875   3.69157
 Alpha virt. eigenvalues --    3.70088   3.70453   3.71532   3.72578   3.73485
 Alpha virt. eigenvalues --    3.82138   3.82286   3.82485   3.82879   3.85031
 Alpha virt. eigenvalues --    3.85200   3.85962   3.87100   3.87611   3.88416
 Alpha virt. eigenvalues --    3.88685   3.89271   3.89503   3.90271   3.90978
 Alpha virt. eigenvalues --    3.91338   3.91625   3.92393   3.92817   3.93089
 Alpha virt. eigenvalues --    3.93969   3.94144   3.95289   3.95768   3.96106
 Alpha virt. eigenvalues --    3.96882   3.96924   3.97486   3.97650   3.99314
 Alpha virt. eigenvalues --    3.99594   4.01656
          Condensed to atoms (all electrons):
 Mulliken charges:
               1
     1  Br  -0.713425
     2  O   -0.272554
     3  H    0.128894
     4  H    0.144624
     5  O   -0.253668
     6  H    0.164863
     7  H    0.121888
     8  O   -0.283156
     9  H    0.133739
    10  H    0.142129
    11  O   -0.267512
    12  H    0.129918
    13  H    0.160186
    14  O   -0.292538
    15  H    0.146662
    16  H    0.123902
    17  O   -0.300440
    18  H    0.123203
    19  H    0.130316
    20  O   -0.265925
    21  H    0.144150
    22  H    0.100165
    23  O   -0.307322
    24  H    0.110781
    25  H    0.137222
    26  O   -0.262028
    27  H    0.135877
    28  H    0.136222
    29  O   -0.280572
    30  H    0.126607
    31  H    0.114813
    32  O   -0.310453
    33  H    0.134945
    34  H    0.113694
    35  O   -0.326447
    36  H    0.107194
    37  H    0.145017
    38  O   -0.290540
    39  H    0.132568
    40  H    0.113978
    41  O   -0.272792
    42  H    0.126498
    43  H    0.141361
    44  O   -0.238233
    45  H    0.144430
    46  H    0.116099
    47  O   -0.340160
    48  H    0.145945
    49  H    0.128224
    50  O   -0.248687
    51  H    0.113394
    52  H    0.126083
    53  O   -0.247886
    54  H    0.132272
    55  H    0.141883
    56  O   -0.236729
    57  H    0.130859
    58  H    0.125584
    59  O   -0.206507
    60  H    0.155545
    61  H    0.141506
    62  O   -0.268738
    63  H    0.157040
    64  H    0.121940
    65  O   -0.310403
    66  H    0.135475
    67  H    0.126638
    68  O   -0.195760
    69  H    0.143374
    70  H    0.153034
    71  O   -0.266549
    72  H    0.104158
    73  H    0.089483
    74  O   -0.280265
    75  H    0.141831
    76  H    0.093491
    77  O   -0.223354
    78  H    0.141631
    79  H    0.150973
    80  O   -0.321316
    81  H    0.120703
    82  H    0.121048
    83  O   -0.263930
    84  H    0.136249
    85  H    0.113540
    86  O   -0.211990
    87  H    0.139922
    88  H    0.128546
    89  O   -0.303623
    90  H    0.124349
    91  H    0.124232
    92  O   -0.277204
    93  H    0.133408
    94  H    0.117233
    95  O   -0.232862
    96  H    0.131887
    97  H    0.150142
 Sum of Mulliken charges =  -1.00000
 Mulliken charges with hydrogens summed into heavy atoms:
               1
     1  Br  -0.713425
     2  O    0.000964
     5  O    0.033083
     8  O   -0.007288
    11  O    0.022591
    14  O   -0.021974
    17  O   -0.046921
    20  O   -0.021610
    23  O   -0.059320
    26  O    0.010071
    29  O   -0.039152
    32  O   -0.061814
    35  O   -0.074236
    38  O   -0.043994
    41  O   -0.004932
    44  O    0.022297
    47  O   -0.065992
    50  O   -0.009210
    53  O    0.026269
    56  O    0.019714
    59  O    0.090543
    62  O    0.010241
    65  O   -0.048289
    68  O    0.100649
    71  O   -0.072907
    74  O   -0.044944
    77  O    0.069250
    80  O   -0.079565
    83  O   -0.014141
    86  O    0.056478
    89  O   -0.055041
    92  O   -0.026563
    95  O    0.049168
         Mulliken charges condensed to fragments:
      1     -0.713425
      2     -0.286575
 Electronic spatial extent (au):  <R**2>=        1556947.8039
 Charge=             -1.0000 electrons
 Dipole moment (field-independent basis, Debye):
    X=            -89.7042    Y=            -80.4503    Z=            -87.7358  Tot=            149.0526
 Quadrupole moment (field-independent basis, Debye-Ang):
   XX=          -1904.0407   YY=          -1506.1871   ZZ=          -1909.8396
   XY=          -1469.5208   XZ=          -1627.6169   YZ=          -1447.4252
 Traceless Quadrupole moment (field-independent basis, Debye-Ang):
   XX=           -130.6849   YY=            267.1687   ZZ=           -136.4838
   XY=          -1469.5208   XZ=          -1627.6169   YZ=          -1447.4252
 Octapole moment (field-independent basis, Debye-Ang**2):
  XXX=         -44834.8479  YYY=         -31380.7768  ZZZ=         -47862.3577  XYY=         -27362.5153
  XXY=         -31516.7321  XXZ=         -34489.2788  XZZ=         -35554.0287  YZZ=         -32021.3389
  YYZ=         -26783.8178  XYZ=         -26107.6382
 Hexadecapole moment (field-independent basis, Debye-Ang**3):
 XXXX=       -1128672.1961 YYYY=        -710337.0381 ZZZZ=       -1296848.5838 XXXY=        -767332.3195
 XXXZ=        -814295.7987 YYYX=        -577316.8717 YYYZ=        -555074.6740 ZZZX=        -900109.1750
 ZZZY=        -830766.3537 XXYY=        -597315.0981 XXZZ=        -746277.9655 YYZZ=        -595483.1722
 XXYZ=        -558421.9496 YYXZ=        -478331.7289 ZZXY=        -580286.2772
 N-N= 6.086595670833D+03 E-N=-2.414552769708D+04  KE= 5.003418606255D+03
 No NMR shielding tensors so no spin-rotation constants.
 Leave Link  601 at Thu May  3 11:34:34 2018, MaxMem= 14763950080 cpu:        69.8
 (Enter /cm/shared/gaussian/g09.e01/intel64-sandybridge/g09/l701.exe)
 Compute integral first derivatives.
 ... and contract with generalized density number  0.
 Leave Link  701 at Thu May  3 11:34:37 2018, MaxMem= 14763950080 cpu:       149.9
 (Enter /cm/shared/gaussian/g09.e01/intel64-sandybridge/g09/l702.exe)
 L702 exits ... SP integral derivatives will be done elsewhere.
 Leave Link  702 at Thu May  3 11:34:37 2018, MaxMem= 14763950080 cpu:         2.6
 (Enter /cm/shared/gaussian/g09.e01/intel64-sandybridge/g09/l703.exe)
 Compute integral first derivatives, UseDBF=F ICtDFT=           0.
 Integral derivatives from FoFJK, PRISM(SPDF).
 Calling FoFJK, ICntrl=      2127 FMM=T ISym2X=0 I1Cent= 0 IOpClX= 0 NMat=1 NMatS=1 NMatT=0.
 FoFJK:  IHMeth= 1 ICntrl=    2127 DoSepK=F KAlg= 0 I1Cent=   0 FoldK=F
 IRaf=         0 NMat=   1 IRICut=       1 DoRegI=T DoRafI=F ISym2E= 0.
 FoFCou: FMM=T IPFlag=           0 FMFlag=      100000 FMFlg1=        2001
         NFxFlg=           0 DoJE=F BraDBF=F KetDBF=F FulRan=T
         wScrn=  0.000000 ICntrl=    2127 IOpCl=  0 I1Cent=           0 NGrid=           0
         NMat0=    1 NMatS0=      1 NMatT0=    0 NMatD0=    1 NMtDS0=    0 NMtDT0=    0
 Symmetry not used in FoFCou.
 FMM levels:  10  Number of levels for PrismC:   9
 Leave Link  703 at Thu May  3 11:34:55 2018, MaxMem= 14763950080 cpu:      1066.9
 (Enter /cm/shared/gaussian/g09.e01/intel64-sandybridge/g09/l716.exe)
 Dipole        =-3.52923584D+01-3.16515990D+01-3.45179316D+01
 Cartesian Forces:  Max     0.031677213 RMS     0.009977659
 Leave Link  716 at Thu May  3 11:34:55 2018, MaxMem= 14763950080 cpu:         4.6
 (Enter /cm/shared/gaussian/g09.e01/intel64-sandybridge/g09/l122.exe)
 CPIOFr:  IOpCl= 0 IRwI=-1 IRwCP=  731 ICalc= -1 LCPTot=     1005244 Len1MO=     2550559 IndFrg=     1005244
 CPIOFr:  IOpCl= 0 IRwI=-1 IRwCP=  731 ICalc=  0 LCPTot=     1005244 Len1MO=     2550559 IndFrg=     3555803
 Counterpoise: doing DCBS calculation for fragment   1 NewBq=T
 Leave Link  122 at Thu May  3 11:34:55 2018, MaxMem= 14763950080 cpu:         9.3
 (Enter /cm/shared/gaussian/g09.e01/intel64-sandybridge/g09/l301.exe)
 Basis read from rwf:  (5D, 7F)
 No pseudopotential information found on rwf file.
   795 basis functions,  1651 primitive gaussians,   829 cartesian basis functions
    18 alpha electrons       18 beta electrons
       nuclear repulsion energy         0.0000000000 Hartrees.
 IExCor= 1009 DFT=T Ex+Corr=PBE1PBE ExCW=0 ScaHFX=  0.250000
 ScaDFX=  0.750000  0.750000  1.000000  1.000000 ScalE2=  1.000000  1.000000
 IRadAn=      0 IRanWt=     -1 IRanGd=            0 ICorTp=0 IEmpDi=  4
 NAtoms=   97 NActive=   97 NUniq=   97 SFac= 1.00D+00 NAtFMM=   60 NAOKFM=T Big=T
 Integral buffers will be    131072 words long.
 Raffenetti 2 integral format.
 Two-electron integral symmetry is turned off.
 No density basis found on file   718.
 Leave Link  301 at Thu May  3 11:34:55 2018, MaxMem= 14763950080 cpu:         7.0
 (Enter /cm/shared/gaussian/g09.e01/intel64-sandybridge/g09/l302.exe)
 NPDir=0 NMtPBC=     1 NCelOv=     1 NCel=       1 NClECP=     1 NCelD=      1
         NCelK=      1 NCelE2=     1 NClLst=     1 CellRange=     0.0.
 One-electron integrals computed using PRISM.
 NBasis=   795 RedAO= T EigKep=  1.48D-02  NBF=   795
 NBsUse=   795 1.00D-06 EigRej= -1.00D+00 NBFU=   795
 Precomputing XC quadrature grid using
 IXCGrd= 4 IRadAn=           0 IRanWt=          -1 IRanGd=           0 AccXCQ= 0.00D+00.
 Generated NRdTot=       0 NPtTot=           0 NUsed=           0 NTot=          32
 NSgBfM=   742   754   770   777   780 MxSgAt=    97 MxSgA2=    97.
 Leave Link  302 at Thu May  3 11:35:00 2018, MaxMem= 14763950080 cpu:       270.2
 (Enter /cm/shared/gaussian/g09.e01/intel64-sandybridge/g09/l303.exe)
 DipDrv:  MaxL=1.
 Leave Link  303 at Thu May  3 11:35:01 2018, MaxMem= 14763950080 cpu:       107.1
 (Enter /cm/shared/gaussian/g09.e01/intel64-sandybridge/g09/l401.exe)
 ExpMin= 1.22D-01 ExpMax= 6.40D+05 ExpMxC= 6.18D+03 IAcc=2 IRadAn=         4 AccDes= 0.00D+00
 Harris functional with IExCor= 1009 and IRadAn=       4 diagonalized for initial guess.
 HarFok:  IExCor= 1009 AccDes= 0.00D+00 IRadAn=         4 IDoV= 1 UseB2=F ITyADJ=14
 ICtDFT=  3500011 ScaDFX=  1.000000  1.000000  1.000000  1.000000
 FoFCou: FMM=F IPFlag=           0 FMFlag=      100000 FMFlg1=        2001
         NFxFlg=           0 DoJE=T BraDBF=F KetDBF=T FulRan=T
         wScrn=  0.000000 ICntrl=     500 IOpCl=  0 I1Cent=   200000004 NGrid=           0
         NMat0=    1 NMatS0=      1 NMatT0=    0 NMatD0=    1 NMtDS0=    0 NMtDT0=    0
 Symmetry not used in FoFCou.
 Harris En= -2574.01958746074    
 JPrj=0 DoOrth=F DoCkMO=F.
 Leave Link  401 at Thu May  3 11:35:06 2018, MaxMem= 14763950080 cpu:       282.9
 (Enter /cm/shared/gaussian/g09.e01/intel64-sandybridge/g09/l502.exe)
 Closed shell SCF:
 Using DIIS extrapolation, IDIIS=  1040.
 Two-electron integral symmetry not used.
 IVT=     2138497 IEndB=     2138497 NGot= 14763950080 MDV= 14762516294
 LenX= 14762516294 LenY= 14761828224
 Requested convergence on RMS density matrix=1.00D-08 within 128 cycles.
 Requested convergence on MAX density matrix=1.00D-06.
 Requested convergence on             energy=1.00D-06.
 No special actions if energy rises.
 Fock matrices will be formed incrementally for  20 cycles.
 Integral accuracy reduced to 1.0D-05 until final iterations.

 Cycle   1  Pass 0  IDiag  1:
 FoFJK:  IHMeth= 1 ICntrl=       0 DoSepK=F KAlg= 0 I1Cent=   0 FoldK=F
 IRaf= 820000000 NMat=   1 IRICut=       1 DoRegI=T DoRafI=F ISym2E= 0.
 FoFCou: FMM=T IPFlag=           0 FMFlag=      100000 FMFlg1=        2001
         NFxFlg=           0 DoJE=F BraDBF=F KetDBF=F FulRan=T
         wScrn=  0.000000 ICntrl=       0 IOpCl=  0 I1Cent=           0 NGrid=           0
         NMat0=    1 NMatS0=      1 NMatT0=    0 NMatD0=    1 NMtDS0=    0 NMtDT0=    0
 Symmetry not used in FoFCou.
 FMM levels:  10  Number of levels for PrismC:   9
 E= -2573.87904908824    
 DIIS: error= 1.25D-02 at cycle   1 NSaved=   1.
 NSaved= 1 IEnMin= 1 EnMin= -2573.87904908824     IErMin= 1 ErrMin= 1.25D-02
 ErrMax= 1.25D-02  0.00D+00 EMaxC= 1.00D-01 BMatC= 3.73D-02 BMatP= 3.73D-02
 IDIUse=3 WtCom= 8.75D-01 WtEn= 1.25D-01
 Coeff-Com:  0.100D+01
 Coeff-En:   0.100D+01
 Coeff:      0.100D+01
 Gap=     0.179 Goal=   None    Shift=    0.000
 GapD=    0.179 DampG=1.000 DampE=0.500 DampFc=0.5000 IDamp=-1.
 Damping current iteration by 5.00D-01
 RMSDP=4.75D-04 MaxDP=7.04D-02              OVMax= 1.47D-01

 Cycle   2  Pass 0  IDiag  1:
 RMSU=  2.36D-04    CP:  9.96D-01
 E= -2573.89485285945     Delta-E=       -0.015803771211 Rises=F Damp=T
 DIIS: error= 7.26D-03 at cycle   2 NSaved=   2.
 NSaved= 2 IEnMin= 2 EnMin= -2573.89485285945     IErMin= 2 ErrMin= 7.26D-03
 ErrMax= 7.26D-03  0.00D+00 EMaxC= 1.00D-01 BMatC= 8.73D-03 BMatP= 3.73D-02
 IDIUse=3 WtCom= 9.27D-01 WtEn= 7.26D-02
 Coeff-Com: -0.595D+00 0.159D+01
 Coeff-En:   0.000D+00 0.100D+01
 Coeff:     -0.552D+00 0.155D+01
 Gap=     0.184 Goal=   None    Shift=    0.000
 RMSDP=1.61D-04 MaxDP=3.79D-02 DE=-1.58D-02 OVMax= 6.12D-02

 Cycle   3  Pass 0  IDiag  1:
 RMSU=  1.40D-04    CP:  9.95D-01  1.34D+00
 E= -2573.90762852933     Delta-E=       -0.012775669884 Rises=F Damp=F
 DIIS: error= 3.27D-03 at cycle   3 NSaved=   3.
 NSaved= 3 IEnMin= 3 EnMin= -2573.90762852933     IErMin= 3 ErrMin= 3.27D-03
 ErrMax= 3.27D-03  0.00D+00 EMaxC= 1.00D-01 BMatC= 2.14D-03 BMatP= 8.73D-03
 IDIUse=3 WtCom= 9.67D-01 WtEn= 3.27D-02
 Coeff-Com: -0.304D+00 0.713D+00 0.590D+00
 Coeff-En:   0.000D+00 0.000D+00 0.100D+01
 Coeff:     -0.294D+00 0.690D+00 0.604D+00
 Gap=     0.168 Goal=   None    Shift=    0.000
 RMSDP=6.95D-05 MaxDP=1.64D-02 DE=-1.28D-02 OVMax= 2.00D-02

 Cycle   4  Pass 0  IDiag  1:
 RMSU=  8.02D-06    CP:  9.94D-01  1.53D+00  6.36D-01
 E= -2573.90992221401     Delta-E=       -0.002293684673 Rises=F Damp=F
 DIIS: error= 1.12D-04 at cycle   4 NSaved=   4.
 NSaved= 4 IEnMin= 4 EnMin= -2573.90992221401     IErMin= 4 ErrMin= 1.12D-04
 ErrMax= 1.12D-04  0.00D+00 EMaxC= 1.00D-01 BMatC= 1.59D-06 BMatP= 2.14D-03
 IDIUse=3 WtCom= 9.99D-01 WtEn= 1.12D-03
 Coeff-Com: -0.140D-01 0.269D-01 0.425D-01 0.945D+00
 Coeff-En:   0.000D+00 0.000D+00 0.000D+00 0.100D+01
 Coeff:     -0.140D-01 0.269D-01 0.424D-01 0.945D+00
 Gap=     0.170 Goal=   None    Shift=    0.000
 RMSDP=2.41D-06 MaxDP=4.46D-04 DE=-2.29D-03 OVMax= 7.64D-04

 Initial convergence to 1.0D-05 achieved.  Increase integral accuracy.
 Cycle   5  Pass 1  IDiag  1:
 E= -2573.91074557322     Delta-E=       -0.000823359214 Rises=F Damp=F
 DIIS: error= 1.34D-05 at cycle   1 NSaved=   1.
 NSaved= 1 IEnMin= 1 EnMin= -2573.91074557322     IErMin= 1 ErrMin= 1.34D-05
 ErrMax= 1.34D-05  0.00D+00 EMaxC= 1.00D-01 BMatC= 1.06D-07 BMatP= 1.06D-07
 IDIUse=1 WtCom= 1.00D+00 WtEn= 0.00D+00
 Coeff-Com:  0.100D+01
 Coeff:      0.100D+01
 Gap=     0.170 Goal=   None    Shift=    0.000
 RMSDP=2.41D-06 MaxDP=4.46D-04 DE=-8.23D-04 OVMax= 2.75D-04

 Cycle   6  Pass 1  IDiag  1:
 RMSU=  1.46D-06    CP:  1.00D+00
 E= -2573.91074575874     Delta-E=       -0.000000185518 Rises=F Damp=F
 DIIS: error= 9.68D-06 at cycle   2 NSaved=   2.
 NSaved= 2 IEnMin= 2 EnMin= -2573.91074575874     IErMin= 2 ErrMin= 9.68D-06
 ErrMax= 9.68D-06  0.00D+00 EMaxC= 1.00D-01 BMatC= 2.15D-08 BMatP= 1.06D-07
 IDIUse=1 WtCom= 1.00D+00 WtEn= 0.00D+00
 Coeff-Com:  0.251D+00 0.749D+00
 Coeff:      0.251D+00 0.749D+00
 Gap=     0.170 Goal=   None    Shift=    0.000
 RMSDP=3.32D-07 MaxDP=7.33D-05 DE=-1.86D-07 OVMax= 1.05D-04

 Cycle   7  Pass 1  IDiag  1:
 RMSU=  3.29D-07    CP:  1.00D+00  9.75D-01
 E= -2573.91074578113     Delta-E=       -0.000000022387 Rises=F Damp=F
 DIIS: error= 4.15D-06 at cycle   3 NSaved=   3.
 NSaved= 3 IEnMin= 3 EnMin= -2573.91074578113     IErMin= 3 ErrMin= 4.15D-06
 ErrMax= 4.15D-06  0.00D+00 EMaxC= 1.00D-01 BMatC= 4.38D-09 BMatP= 2.15D-08
 IDIUse=1 WtCom= 1.00D+00 WtEn= 0.00D+00
 Coeff-Com: -0.300D-01 0.294D+00 0.736D+00
 Coeff:     -0.300D-01 0.294D+00 0.736D+00
 Gap=     0.170 Goal=   None    Shift=    0.000
 RMSDP=1.06D-07 MaxDP=2.62D-05 DE=-2.24D-08 OVMax= 3.12D-05

 Cycle   8  Pass 1  IDiag  1:
 RMSU=  4.22D-08    CP:  1.00D+00  1.02D+00  7.64D-01
 E= -2573.91074578623     Delta-E=       -0.000000005104 Rises=F Damp=F
 DIIS: error= 3.57D-07 at cycle   4 NSaved=   4.
 NSaved= 4 IEnMin= 4 EnMin= -2573.91074578623     IErMin= 4 ErrMin= 3.57D-07
 ErrMax= 3.57D-07  0.00D+00 EMaxC= 1.00D-01 BMatC= 1.88D-11 BMatP= 4.38D-09
 IDIUse=1 WtCom= 1.00D+00 WtEn= 0.00D+00
 Coeff-Com: -0.849D-02 0.650D-01 0.165D+00 0.778D+00
 Coeff:     -0.849D-02 0.650D-01 0.165D+00 0.778D+00
 Gap=     0.170 Goal=   None    Shift=    0.000
 RMSDP=8.71D-09 MaxDP=1.06D-06 DE=-5.10D-09 OVMax= 3.25D-06

 Cycle   9  Pass 1  IDiag  1:
 RMSU=  7.74D-09    CP:  1.00D+00  1.02D+00  7.71D-01  9.92D-01
 E= -2573.91074578625     Delta-E=       -0.000000000020 Rises=F Damp=F
 DIIS: error= 9.47D-08 at cycle   5 NSaved=   5.
 NSaved= 5 IEnMin= 5 EnMin= -2573.91074578625     IErMin= 5 ErrMin= 9.47D-08
 ErrMax= 9.47D-08  0.00D+00 EMaxC= 1.00D-01 BMatC= 1.86D-12 BMatP= 1.88D-11
 IDIUse=1 WtCom= 1.00D+00 WtEn= 0.00D+00
 Coeff-Com:  0.642D-03-0.130D-01-0.339D-01 0.200D+00 0.846D+00
 Coeff:      0.642D-03-0.130D-01-0.339D-01 0.200D+00 0.846D+00
 Gap=     0.170 Goal=   None    Shift=    0.000
 RMSDP=2.95D-09 MaxDP=4.60D-07 DE=-2.00D-11 OVMax= 1.15D-06

 SCF Done:  E(RPBE1PBE) =  -2573.91074579     A.U. after    9 cycles
            NFock=  9  Conv=0.29D-08     -V/T= 2.0013
 KE= 2.570509598680D+03 PE=-6.163019553080D+03 EE= 1.018599208614D+03
 Leave Link  502 at Thu May  3 11:36:46 2018, MaxMem= 14763950080 cpu:      6312.9
 (Enter /cm/shared/gaussian/g09.e01/intel64-sandybridge/g09/l601.exe)
 Copying SCF densities to generalized density rwf, IOpCl= 0 IROHF=0.

 **********************************************************************

            Population analysis using the SCF density.

 **********************************************************************

 Alpha  occ. eigenvalues -- -482.98663 -62.38804 -56.16062 -56.16056 -56.16055
 Alpha  occ. eigenvalues --   -8.48923  -6.29240  -6.29221  -6.29216  -2.37503
 Alpha  occ. eigenvalues --   -2.37498  -2.37494  -2.37479  -2.37478  -0.46971
 Alpha  occ. eigenvalues --   -0.02860  -0.02852  -0.02838
 Alpha virt. eigenvalues --    0.14132   0.15575   0.16176   0.16325   0.18252
 Alpha virt. eigenvalues --    0.18353   0.18764   0.19160   0.19906   0.21653
 Alpha virt. eigenvalues --    0.21967   0.22278   0.22612   0.22939   0.23860
 Alpha virt. eigenvalues --    0.24218   0.24751   0.25574   0.25983   0.26452
 Alpha virt. eigenvalues --    0.27484   0.27716   0.28168   0.28409   0.29035
 Alpha virt. eigenvalues --    0.29366   0.29752   0.30346   0.30926   0.31566
 Alpha virt. eigenvalues --    0.31841   0.32384   0.32678   0.33408   0.33525
 Alpha virt. eigenvalues --    0.34132   0.34651   0.35382   0.36416   0.37186
 Alpha virt. eigenvalues --    0.37298   0.37543   0.38286   0.39071   0.39413
 Alpha virt. eigenvalues --    0.40065   0.40384   0.40701   0.41461   0.42116
 Alpha virt. eigenvalues --    0.42289   0.42896   0.43462   0.43725   0.44796
 Alpha virt. eigenvalues --    0.44994   0.45587   0.46143   0.47134   0.47706
 Alpha virt. eigenvalues --    0.48725   0.49418   0.49538   0.50564   0.61589
 Alpha virt. eigenvalues --    0.62224   0.62711   0.62822   0.63030   0.63742
 Alpha virt. eigenvalues --    0.63898   0.64400   0.65202   0.65423   0.65573
 Alpha virt. eigenvalues --    0.66480   0.66524   0.67110   0.67873   0.68082
 Alpha virt. eigenvalues --    0.68857   0.69163   0.69884   0.70742   0.71011
 Alpha virt. eigenvalues --    0.71328   0.71706   0.72285   0.72427   0.72669
 Alpha virt. eigenvalues --    0.72964   0.73448   0.74038   0.74319   0.74721
 Alpha virt. eigenvalues --    0.74892   0.75410   0.75741   0.75942   0.75990
 Alpha virt. eigenvalues --    0.76520   0.76696   0.76798   0.77358   0.77739
 Alpha virt. eigenvalues --    0.78418   0.78779   0.79134   0.79289   0.79806
 Alpha virt. eigenvalues --    0.80146   0.80360   0.80421   0.80935   0.81361
 Alpha virt. eigenvalues --    0.81578   0.82171   0.82705   0.82891   0.83169
 Alpha virt. eigenvalues --    0.83534   0.84020   0.84075   0.84295   0.85201
 Alpha virt. eigenvalues --    0.85286   0.85574   0.85943   0.86172   0.86788
 Alpha virt. eigenvalues --    0.87270   0.87966   0.88497   0.89027   0.89248
 Alpha virt. eigenvalues --    0.89723   0.90003   0.90423   0.90911   0.91070
 Alpha virt. eigenvalues --    0.91697   0.91911   0.92223   0.92506   0.92742
 Alpha virt. eigenvalues --    0.93087   0.93264   0.94182   0.94209   0.94651
 Alpha virt. eigenvalues --    0.95090   0.95383   0.95644   0.96440   0.96577
 Alpha virt. eigenvalues --    0.96658   0.97012   0.97184   0.97684   0.97933
 Alpha virt. eigenvalues --    0.98487   0.98651   0.98901   0.99674   1.00296
 Alpha virt. eigenvalues --    1.00743   1.00825   1.01354   1.01916   1.02209
 Alpha virt. eigenvalues --    1.02837   1.04065   1.04449   1.04707   1.04755
 Alpha virt. eigenvalues --    1.05763   1.06532   1.06626   1.07118   1.08175
 Alpha virt. eigenvalues --    1.08357   1.08651   1.08821   1.09212   1.09969
 Alpha virt. eigenvalues --    1.10405   1.11171   1.12098   1.12324   1.13070
 Alpha virt. eigenvalues --    1.13775   1.14185   1.15295   1.15803   1.16918
 Alpha virt. eigenvalues --    1.18073   1.18894   1.22670   1.24144   1.25878
 Alpha virt. eigenvalues --    1.28621   1.65245   1.66425   1.66762   1.67278
 Alpha virt. eigenvalues --    1.67988   1.68430   1.68947   1.69648   1.70044
 Alpha virt. eigenvalues --    1.70285   1.70913   1.71966   1.72270   1.72711
 Alpha virt. eigenvalues --    1.72842   1.73193   1.73601   1.73885   1.74133
 Alpha virt. eigenvalues --    1.74480   1.74713   1.74927   1.75354   1.75499
 Alpha virt. eigenvalues --    1.75761   1.76521   1.76754   1.77097   1.77201
 Alpha virt. eigenvalues --    1.77378   1.77930   1.78415   1.78506   1.78776
 Alpha virt. eigenvalues --    1.78881   1.79360   1.79594   1.79977   1.80442
 Alpha virt. eigenvalues --    1.80490   1.80929   1.81573   1.81782   1.82098
 Alpha virt. eigenvalues --    1.82594   1.82928   1.83290   1.84305   1.84417
 Alpha virt. eigenvalues --    1.84815   1.85046   1.85995   1.86176   1.86820
 Alpha virt. eigenvalues --    1.87299   1.87751   1.88114   1.89188   1.90149
 Alpha virt. eigenvalues --    1.90645   1.91494   1.92113   1.93476   1.94967
 Alpha virt. eigenvalues --    1.95694   1.97797   1.98069   1.98399   1.98887
 Alpha virt. eigenvalues --    1.99247   1.99351   2.00054   2.00274   2.00552
 Alpha virt. eigenvalues --    2.01110   2.01375   2.01837   2.02301   2.02568
 Alpha virt. eigenvalues --    2.02847   2.03005   2.03089   2.03346   2.03656
 Alpha virt. eigenvalues --    2.03684   2.04077   2.04171   2.04480   2.05071
 Alpha virt. eigenvalues --    2.05114   2.05404   2.05838   2.05978   2.06247
 Alpha virt. eigenvalues --    2.06868   2.06987   2.07330   2.07614   2.07879
 Alpha virt. eigenvalues --    2.07920   2.08138   2.08472   2.08699   2.08992
 Alpha virt. eigenvalues --    2.09767   2.09982   2.10744   2.11183   2.11658
 Alpha virt. eigenvalues --    2.11670   2.12266   2.12324   2.12893   2.13385
 Alpha virt. eigenvalues --    2.13812   2.13902   2.14513   2.14874   2.15647
 Alpha virt. eigenvalues --    2.16399   2.17105   2.17205   2.17995   2.18025
 Alpha virt. eigenvalues --    2.18231   2.18704   2.19414   2.19694   2.19970
 Alpha virt. eigenvalues --    2.20667   2.21035   2.21269   2.21642   2.21762
 Alpha virt. eigenvalues --    2.22490   2.22670   2.23026   2.23631   2.24058
 Alpha virt. eigenvalues --    2.24530   2.24858   2.25113   2.25673   2.26041
 Alpha virt. eigenvalues --    2.26552   2.26628   2.27100   2.27374   2.27905
 Alpha virt. eigenvalues --    2.28855   2.29028   2.30176   2.30596   2.33685
 Alpha virt. eigenvalues --    2.35352   2.36215   2.36542   2.37461   2.39070
 Alpha virt. eigenvalues --    2.39406   2.40743   2.41562   2.41691   2.42141
 Alpha virt. eigenvalues --    2.42293   2.42776   2.43305   2.43499   2.43906
 Alpha virt. eigenvalues --    2.43997   2.44281   2.44899   2.45364   2.45813
 Alpha virt. eigenvalues --    2.46360   2.47576   2.47887   2.48315   2.48590
 Alpha virt. eigenvalues --    2.49031   2.49848   2.50210   2.50598   2.51200
 Alpha virt. eigenvalues --    2.52054   2.52649   2.52982   2.53623   2.53776
 Alpha virt. eigenvalues --    2.55323   2.58709   2.59068   2.66780   2.69089
 Alpha virt. eigenvalues --    2.69490   2.69924   2.70210   2.70641   2.70738
 Alpha virt. eigenvalues --    2.71074   2.71181   2.72042   2.72453   2.72657
 Alpha virt. eigenvalues --    2.73239   2.73776   2.75015   2.75454   2.75823
 Alpha virt. eigenvalues --    2.76588   2.76703   2.77088   2.77974   2.78386
 Alpha virt. eigenvalues --    2.78792   2.78891   2.79913   2.79991   2.81467
 Alpha virt. eigenvalues --    2.82827   2.83133   2.84191   2.84836   2.85253
 Alpha virt. eigenvalues --    2.85677   2.86055   2.86634   2.87247   2.87514
 Alpha virt. eigenvalues --    2.88095   2.89046   2.89280   2.89906   2.90219
 Alpha virt. eigenvalues --    2.90465   2.90928   2.91425   2.91777   2.92467
 Alpha virt. eigenvalues --    2.92845   2.93075   2.94901   2.96399   2.97013
 Alpha virt. eigenvalues --    2.97290   2.97516   2.98503   2.99200   2.99966
 Alpha virt. eigenvalues --    3.00408   3.00994   3.02500   3.05192   3.08088
 Alpha virt. eigenvalues --    3.11077   3.13571   3.14417   3.14785   3.15249
 Alpha virt. eigenvalues --    3.15817   3.17347   3.17725   3.18537   3.20789
 Alpha virt. eigenvalues --    3.21771   3.22707   3.23094   3.24350   3.24593
 Alpha virt. eigenvalues --    3.25500   3.27365   3.29089   3.31681   3.32302
 Alpha virt. eigenvalues --    3.32987   3.35623   3.37601   3.38185   3.39261
 Alpha virt. eigenvalues --    3.40209   3.40772   3.43981   3.45297   3.49504
 Alpha virt. eigenvalues --    3.52651   3.53600   3.56709   3.64169   4.50252
 Alpha virt. eigenvalues --    4.51688   4.51767   4.51921   4.52024   4.52151
 Alpha virt. eigenvalues --    4.52213   4.52642   4.52788   4.52814   4.53166
 Alpha virt. eigenvalues --    4.53473   4.53580   4.53640   4.53688   4.53811
 Alpha virt. eigenvalues --    4.53900   4.54086   4.54213   4.54349   4.54361
 Alpha virt. eigenvalues --    4.54425   4.54682   4.54950   4.55574   4.56315
 Alpha virt. eigenvalues --    4.56449   4.56605   4.56981   4.57346   4.57688
 Alpha virt. eigenvalues --    4.57935   4.59715   4.59880   4.60346   4.60488
 Alpha virt. eigenvalues --    4.60556   4.60907   4.60953   4.61133   4.61198
 Alpha virt. eigenvalues --    4.61303   4.61395   4.61514   4.61550   4.61598
 Alpha virt. eigenvalues --    4.61771   4.62220   4.62307   4.62429   4.62548
 Alpha virt. eigenvalues --    4.62731   4.62826   4.63406   4.63574   4.63838
 Alpha virt. eigenvalues --    4.64101   4.64574   4.64702   4.64893   4.65671
 Alpha virt. eigenvalues --    4.65896   4.67111   4.68409   4.74215   4.75167
 Alpha virt. eigenvalues --    4.75296   4.75518   4.76138   4.76311   4.76630
 Alpha virt. eigenvalues --    4.77188   4.77276   4.78179   4.78337   4.79118
 Alpha virt. eigenvalues --    4.79611   4.79724   4.79922   4.80094   4.80623
 Alpha virt. eigenvalues --    4.80860   4.81181   4.81525   4.81859   4.82177
 Alpha virt. eigenvalues --    4.82340   4.82427   4.82621   4.83148   4.83501
 Alpha virt. eigenvalues --    4.83837   4.84222   4.84627   4.85103   4.85815
 Alpha virt. eigenvalues --    4.86917   4.87428   4.87443   4.87678   4.88074
 Alpha virt. eigenvalues --    4.88287   4.88453   4.88730   4.88870   4.89130
 Alpha virt. eigenvalues --    4.89593   4.89762   4.90150   4.90396   4.90774
 Alpha virt. eigenvalues --    4.91138   4.91911   4.92341   4.92904   4.93197
 Alpha virt. eigenvalues --    4.93832   4.93988   4.94266   4.94491   4.95771
 Alpha virt. eigenvalues --    4.96235   4.97240   4.97901   4.98802   5.00185
[...]
   Z20       37.92680   0.00811   0.00000   0.01924   0.02133  37.94813
   X21       33.44815   0.00732   0.00000   0.00241   0.00067  33.44882
   Y21       42.99127  -0.00567   0.00000  -0.00241  -0.00331  42.98796
   Z21       37.79452  -0.00267   0.00000  -0.00693  -0.00516  37.78937
   X22       33.08910   0.00774   0.00000   0.01866   0.01637  33.10547
   Y22       45.78806   0.00092   0.00000  -0.00762  -0.00857  45.77949
   Z22       37.34099  -0.00690   0.00000  -0.02312  -0.02127  37.31972
   X23       39.75984  -0.00684   0.00000  -0.01907  -0.02230  39.73754
   Y23       44.12511  -0.00533   0.00000  -0.01081  -0.01076  44.11435
   Z23       32.76785  -0.03171   0.00000  -0.03854  -0.03841  32.72944
   X24       39.15513  -0.00171   0.00000   0.00614   0.00281  39.15793
   Y24       45.73137   0.00819   0.00000   0.00019   0.00016  45.73153
   Z24       33.29697   0.00985   0.00000   0.01595   0.01623  33.31320
   X25       40.27006   0.00949   0.00000   0.02554   0.02284  40.29291
   Y25       43.29363  -0.00446   0.00000   0.00346   0.00361  43.29723
   Z25       34.29853   0.01460   0.00000  -0.00821  -0.00822  34.29031
   X26       37.68114   0.00439   0.00000  -0.00641  -0.00523  37.67591
   Y26       30.67026  -0.00661   0.00000  -0.01021  -0.01044  30.65982
   Z26       41.74405  -0.00152   0.00000  -0.00735  -0.00663  41.73742
   X27       36.47171  -0.00315   0.00000   0.00626   0.00726  36.47897
   Y27       32.03086   0.01172   0.00000   0.02003   0.01961  32.05047
   Z27       41.81964   0.00746   0.00000   0.02918   0.03021  41.84985
   X28       36.69848  -0.00440   0.00000  -0.01791  -0.01664  36.68185
   Y28       29.23406  -0.00450   0.00000  -0.00630  -0.00669  29.22738
   Z28       41.25272  -0.00402   0.00000  -0.01460  -0.01361  41.23911
   X29       34.92214   0.00846   0.00000   0.01316   0.01250  34.93464
   Y29       30.38680  -0.01277   0.00000  -0.01047  -0.01115  30.37564
   Z29       34.48750   0.01411   0.00000   0.00874   0.01017  34.49767
   X30       34.24184  -0.00243   0.00000  -0.00278  -0.00336  34.23848
   Y30       31.69071   0.00317   0.00000   0.00026  -0.00053  31.69018
   Z30       35.56465  -0.00316   0.00000  -0.00790  -0.00629  35.55836
   X31       34.58199  -0.01202   0.00000  -0.03521  -0.03639  34.54559
   Y31       30.97261   0.01167   0.00000   0.02142   0.02068  30.99329
   Z31       32.82454  -0.00854   0.00000   0.00660   0.00814  32.83268
   X32       40.81808  -0.00107   0.00000   0.00694   0.00494  40.82302
   Y32       33.20249  -0.01632   0.00000  -0.02016  -0.01994  33.18255
   Z32       31.01041  -0.02243   0.00000  -0.02785  -0.02796  30.98245
   X33       40.87478   0.00016   0.00000  -0.00065  -0.00304  40.87174
   Y33       34.94104   0.00983   0.00000   0.01091   0.01113  34.95217
   Z33       30.50018   0.01043   0.00000   0.03629   0.03616  30.53634
   X34       40.96926  -0.00138   0.00000  -0.01134  -0.01288  40.95638
   Y34       33.24028   0.00414   0.00000  -0.00171  -0.00147  33.23881
   Z34       32.80565   0.01302   0.00000  -0.00235  -0.00249  32.80315
   X35       42.65112   0.03169   0.00000   0.03023   0.03127  42.68239
   Y35       31.46394   0.00480   0.00000   0.01587   0.01642  31.48036
   Z35       41.63067   0.02378   0.00000   0.04989   0.04930  41.67997
   X36       42.78340  -0.00074   0.00000   0.00872   0.00921  42.79261
   Y36       32.65447   0.00129   0.00000  -0.01810  -0.01755  32.63692
   Z36       40.27006  -0.00923   0.00000  -0.00438  -0.00500  40.26506
   X37       40.98816  -0.02351   0.00000  -0.01002  -0.00892  40.97924
   Y37       30.78364  -0.00251   0.00000   0.01636   0.01664  30.80028
   Z37       41.49839  -0.00121   0.00000   0.01549   0.01535  41.51374
   X38       30.95371  -0.01392   0.00000  -0.00972  -0.01262  30.94109
   Y38       39.96771  -0.00124   0.00000   0.00105  -0.00026  39.96745
   Z38       31.55843  -0.00551   0.00000  -0.00411  -0.00167  31.55675
   X39       32.21983   0.00647   0.00000   0.00555   0.00228  32.22211
   Y39       40.98816   0.00490   0.00000   0.00511   0.00399  40.99215
   Z39       30.76474  -0.00320   0.00000  -0.00397  -0.00187  30.76287
   X40       31.74740   0.00663   0.00000   0.00829   0.00588  31.75328
   Y40       39.34410  -0.00483   0.00000  -0.00753  -0.00870  39.33540
   Z40       33.05131   0.00890   0.00000   0.00344   0.00567  33.05698
   X41       32.46549   0.00979   0.00000   0.00617   0.00655  32.47204
   Y41       39.04174   0.00234   0.00000   0.02138   0.02035  39.06209
   Z41       43.59598   0.00756   0.00000  -0.00124   0.00080  43.59678
   X42       32.27652  -0.00490   0.00000  -0.01937  -0.01946  32.25706
   Y42       40.64801   0.01595   0.00000   0.03386   0.03279  40.68080
   Z42       42.80230  -0.00497   0.00000  -0.00637  -0.00428  42.79802
   X43       31.10489  -0.00616   0.00000   0.00611   0.00647  31.11136
   Y43       38.04019  -0.00992   0.00000  -0.01544  -0.01667  38.02351
   Z43       42.93458  -0.00251   0.00000   0.00306   0.00546  42.94004
   X44       37.17091  -0.01466   0.00000  -0.01137  -0.01519  37.15573
   Y44       41.44169  -0.01363   0.00000  -0.01568  -0.01604  41.42565
   Z44       28.91281  -0.01921   0.00000  -0.00526  -0.00445  28.90836
   X45       37.85121   0.02483   0.00000   0.07209   0.06864  37.91986
   Y45       41.80074   0.00310   0.00000  -0.01385  -0.01408  41.78666
   Z45       30.53797   0.01807   0.00000  -0.00022   0.00040  30.53837
   X46       37.60555   0.00455   0.00000   0.01411   0.00981  37.61536
   Y46       42.87789   0.00122   0.00000  -0.01020  -0.01050  42.86739
   Z46       27.89236   0.00074   0.00000   0.00283   0.00352  27.89588
   X47       30.74584  -0.01840   0.00000  -0.03790  -0.03944  30.70641
   Y47       33.16469  -0.01875   0.00000  -0.01925  -0.02059  33.14410
   Z47       32.78675  -0.00834   0.00000  -0.04541  -0.04288  32.74387
   X48       30.68915   0.00935   0.00000   0.02870   0.02741  30.71656
   Y48       34.12845   0.00346   0.00000  -0.00704  -0.00838  34.12008
   Z48       34.33632  -0.00862   0.00000  -0.04300  -0.04048  34.29585
   X49       31.82299   0.00506   0.00000  -0.00448  -0.00645  31.81654
   Y49       34.12845   0.01251   0.00000   0.01806   0.01689  34.14534
   Z49       31.69071  -0.00385   0.00000  -0.00840  -0.00616  31.68454
   X50       41.53618  -0.00930   0.00000  -0.01345  -0.01208  41.52410
   Y50       35.75362   0.02203   0.00000   0.00859   0.00896  35.76258
   Z50       45.42902   0.00882   0.00000   0.01485   0.01455  45.44357
   X51       43.18024   0.00150   0.00000  -0.00647  -0.00529  43.17495
   Y51       36.47171  -0.00170   0.00000  -0.00380  -0.00317  36.46854
   Z51       45.16445  -0.00187   0.00000  -0.00361  -0.00434  45.16011
   X52       41.72515   0.00501   0.00000   0.00296   0.00447  41.72963
   Y52       34.01507  -0.02205   0.00000  -0.01365  -0.01324  34.00183
   Z52       45.03217  -0.01302   0.00000  -0.03528  -0.03563  44.99655
   X53       34.84655  -0.01878   0.00000  -0.01465  -0.01741  34.82914
   Y53       35.07332   0.00474   0.00000  -0.00275  -0.00347  35.06985
   Z53       29.19627   0.00121   0.00000   0.00020   0.00165  29.19791
   X54       35.31898   0.00989   0.00000   0.02572   0.02317  35.34215
   Y54       33.35367  -0.01189   0.00000  -0.00993  -0.01057  33.34310
   Z54       28.96950  -0.00230   0.00000  -0.00505  -0.00374  28.96577
   X55       36.41502   0.00977   0.00000   0.00000  -0.00286  36.41216
   Y55       35.96149   0.00567   0.00000   0.00815   0.00768  35.96916
   Z55       29.30965   0.00404   0.00000   0.01517   0.01620  29.32585
   X56       44.27628   0.00000   0.00000   0.00841   0.00786  44.28415
   Y56       42.46215   0.00677   0.00000   0.00383   0.00462  42.46676
   Z56       42.12200  -0.01718   0.00000  -0.02226  -0.02331  42.09869
   X57       44.01172  -0.00203   0.00000  -0.00964  -0.01022  44.00150
   Y57       44.08731  -0.00280   0.00000  -0.01048  -0.00973  44.07759
   Z57       42.89678   0.00250   0.00000   0.00309   0.00211  42.89889
   X58       44.57864  -0.00083   0.00000  -0.01064  -0.01065  44.56799
   Y58       41.34721  -0.00488   0.00000   0.00023   0.00107  41.34828
   Z58       43.50150   0.01007   0.00000   0.00339   0.00228  43.50377
   X59       46.27939  -0.01172   0.00000  -0.01095  -0.01257  46.26682
   Y59       36.01818   0.00612   0.00000  -0.00585  -0.00478  36.01340
   Z59       34.12845   0.01070   0.00000   0.01260   0.01107  34.13952
   X60       46.73293  -0.00025   0.00000  -0.01585  -0.01783  46.71510
   Y60       35.50795  -0.00985   0.00000  -0.02620  -0.02507  35.48288
   Z60       32.46549  -0.01505   0.00000  -0.00863  -0.01028  32.45521
   X61       47.52661   0.00802   0.00000   0.01350   0.01227  47.53889
   Y61       35.28119  -0.00129   0.00000   0.00673   0.00799  35.28918
   Z61       35.20560   0.00716   0.00000   0.01435   0.01248  35.21808
   X62       29.97106  -0.01415   0.00000  -0.05562  -0.05488  29.91618
   Y62       34.80876   0.01275   0.00000   0.00604   0.00462  34.81337
   Z62       42.49994  -0.00074   0.00000  -0.00920  -0.00648  42.49346
   X63       29.95216   0.00524   0.00000   0.02040   0.02168  29.97384
   Y63       34.22294  -0.00150   0.00000   0.00883   0.00742  34.23036
   Z63       44.21959   0.00225   0.00000  -0.00133   0.00139  44.22098
   X64       30.25452   0.00855   0.00000   0.03038   0.03110  30.28562
   Y64       33.31587  -0.01303   0.00000  -0.01843  -0.01980  33.29607
   Z64       41.51728   0.00304   0.00000   0.02382   0.02645  41.54374
   X65       39.30630   0.01153   0.00000   0.02453   0.02407  39.33037
   Y65       27.83567  -0.01624   0.00000  -0.02283  -0.02284  27.81283
   Z65       33.73161  -0.00815   0.00000  -0.01539  -0.01509  33.71653
   X66       37.73783  -0.00155   0.00000   0.01174   0.01104  37.74887
   Y66       28.62935   0.00684   0.00000   0.00533   0.00508  28.63443
   Z66       33.27808   0.01008   0.00000   0.03696   0.03767  33.31575
   X67       39.98660  -0.00318   0.00000  -0.00608  -0.00637  39.98023
   Y67       28.89391   0.00538   0.00000   0.00004   0.00014  28.89405
   Z67       35.03552   0.00147   0.00000  -0.00647  -0.00634  35.02918
   X68       36.32054   0.00618   0.00000   0.03093   0.03014  36.35068
   Y68       45.69358  -0.00170   0.00000   0.01113   0.01070  45.70427
   Z68       43.06686   0.00287   0.00000   0.01300   0.01401  43.08087
   X69       36.88745   0.00211   0.00000   0.00335   0.00209  36.88954
   Y69       47.11087   0.00653   0.00000   0.01440   0.01405  47.12492
   Z69       42.10310  -0.00585   0.00000  -0.01350  -0.01263  42.09046
   X70       35.94259   0.00351   0.00000   0.01907   0.01860  35.96119
   Y70       46.37388   0.00546   0.00000   0.02069   0.02020  46.39408
   Z70       44.71092   0.00621   0.00000   0.01299   0.01409  44.72501
   X71       33.90169  -0.01082   0.00000  -0.01766  -0.02161  33.88007
   Y71       44.88100   0.00716   0.00000   0.02816   0.02730  44.90830
   Z71       30.40569   0.00719   0.00000   0.03010   0.03175  30.43744
   X72       34.41191   0.00191   0.00000   0.00835   0.00407  34.41598
   Y72       46.60065   0.00581   0.00000   0.01856   0.01779  46.61843
   Z72       30.17893  -0.00220   0.00000  -0.00930  -0.00779  30.17114
   X73       35.47016  -0.00066   0.00000  -0.02145  -0.02523  35.44493
   Y73       43.95503  -0.00379   0.00000  -0.00425  -0.00487  43.95016
   Z73       30.53797  -0.00222   0.00000  -0.01186  -0.01061  30.52736
   X74       44.95658  -0.00010   0.00000   0.00012   0.00050  44.95709
   Y74       28.61045  -0.01231   0.00000  -0.01701  -0.01613  28.59432
   Z74       37.43547  -0.00494   0.00000  -0.01422  -0.01538  37.42009
   X75       43.65267   0.00171   0.00000   0.01321   0.01343  43.66611
   Y75       29.87657   0.00606   0.00000   0.00505   0.00573  29.88230
   Z75       37.58665   0.00290   0.00000   0.01090   0.01006  37.59671
   X76       46.50616   0.00024   0.00000  -0.00711  -0.00684  46.49932
   Y76       29.53642   0.00546   0.00000   0.00578   0.00689  29.54331
   Z76       37.54886   0.00036   0.00000   0.00068  -0.00089  37.54797
   X77       31.27497   0.01027   0.00000  -0.00679  -0.00610  31.26886
   Y77       30.51908   0.00579   0.00000   0.01136   0.01013  30.52921
   Z77       39.74094   0.01446   0.00000   0.01382   0.01621  39.75715
   X78       30.12223  -0.00691   0.00000   0.00605   0.00631  30.12855
   Y78       31.42615   0.00185   0.00000  -0.00989  -0.01130  31.41485
   Z78       38.70159  -0.01985   0.00000  -0.05492  -0.05224  38.64935
   X79       30.93482  -0.00245   0.00000   0.00200   0.00287  30.93768
   Y79       28.78053  -0.00882   0.00000  -0.00281  -0.00409  28.77644
   Z79       39.40079  -0.00387   0.00000  -0.00527  -0.00279  39.39800
   X80       36.45282  -0.00420   0.00000  -0.01151  -0.00982  36.44300
   Y80       39.13623  -0.00366   0.00000   0.01417   0.01378  39.15000
   Z80       48.67935   0.02054   0.00000   0.02435   0.02536  48.70470
   X81       34.92214  -0.00253   0.00000   0.00536   0.00681  34.92894
   Y81       39.02284  -0.00218   0.00000  -0.01273  -0.01336  39.00949
   Z81       47.71558  -0.00969   0.00000  -0.01992  -0.01852  47.69707
   X82       37.62445   0.00518   0.00000  -0.00583  -0.00456  37.61988
   Y82       39.96771   0.00595   0.00000   0.00019  -0.00003  39.96768
   Z82       47.58330  -0.01335   0.00000  -0.01702  -0.01632  47.56699
   X83       31.55843  -0.01059   0.00000  -0.03324  -0.03362  31.52480
   Y83       44.40856  -0.01134   0.00000  -0.00489  -0.00606  44.40251
   Z83       43.80385   0.01546   0.00000   0.04726   0.04953  43.85338
   X84       33.37256  -0.00369   0.00000  -0.02510  -0.02548  33.34708
   Y84       44.42746  -0.00121   0.00000  -0.01562  -0.01651  44.41095
   Z84       43.89834  -0.00884   0.00000  -0.03535  -0.03356  43.86478
   X85       31.12379   0.00063   0.00000  -0.00048  -0.00131  31.12248
   Y85       46.01483   0.00371   0.00000  -0.01474  -0.01598  45.99886
   Z85       43.10465  -0.00952   0.00000  -0.02963  -0.02726  43.07740
   X86       37.45437  -0.00227   0.00000  -0.01394  -0.01695  37.43742
   Y86       47.67779  -0.00254   0.00000   0.00219   0.00190  47.67969
   Z86       35.69693   0.00132   0.00000   0.00352   0.00424  35.70117
   X87       36.45282  -0.00626   0.00000  -0.01646  -0.01992  36.43290
   Y87       48.69824   0.00350   0.00000   0.00688   0.00643  48.70467
   Z87       34.58199  -0.00259   0.00000  -0.00090   0.00007  34.58206
   X88       37.37878   0.00153   0.00000   0.00815   0.00541  37.38419
   Y88       48.54706   0.00412   0.00000   0.01407   0.01378  48.56084
   Z88       37.28430   0.00268   0.00000   0.00264   0.00337  37.28767
   X89       47.09198  -0.00010   0.00000   0.01162   0.00876  47.10073
   Y89       40.78029   0.00962   0.00000   0.00676   0.00795  40.78824
   Z89       32.20093  -0.01804   0.00000  -0.01875  -0.02052  32.18042
   X90       46.60065  -0.00190   0.00000   0.00033  -0.00210  46.59855
   Y90       39.19292  -0.00700   0.00000   0.00676   0.00787  39.20079
   Z90       32.91903   0.01089   0.00000   0.02127   0.01963  32.93866
   X91       48.05574   0.00223   0.00000  -0.00370  -0.00634  48.04939
   Y91       41.57397   0.00217   0.00000   0.00374   0.00508  41.57905
   Z91       33.50484   0.00892   0.00000   0.01173   0.00971  33.51455
   X92       49.17067   0.00507   0.00000   0.00115   0.00056  49.17123
   Y92       39.72204   0.01617   0.00000   0.02281   0.02434  39.74639
   Z92       40.27006  -0.00424   0.00000   0.00523   0.00293  40.27299
   X93       47.88566  -0.00366   0.00000   0.01149   0.01110  47.89676
   Y93       38.45593  -0.01080   0.00000  -0.01353  -0.01219  38.44374
   Z93       40.30786  -0.00200   0.00000  -0.01389  -0.01586  40.29200
   X94       50.36120   0.00122   0.00000  -0.00052  -0.00071  50.36049
   Y94       39.21182  -0.00490   0.00000  -0.01191  -0.01019  39.20163
   Z94       41.53618   0.00286   0.00000   0.00191  -0.00070  41.53548
   X95       47.58330  -0.00065   0.00000   0.01233   0.01243  47.59573
   Y95       34.50640   0.01726   0.00000   0.01745   0.01875  34.52515
   Z95       39.85432  -0.00476   0.00000   0.00441   0.00253  39.85686
   X96       48.33919   0.00351   0.00000  -0.00283  -0.00267  48.33653
   Y96       33.01352  -0.01223   0.00000  -0.01362  -0.01222  33.00130
   Z96       39.19292  -0.00009   0.00000   0.00910   0.00704  39.19996
   X97       47.26205  -0.00582   0.00000  -0.02387  -0.02325  47.23880
   Y97       34.12845  -0.00869   0.00000  -0.02377  -0.02253  34.10592
   Z97       41.59287   0.00688   0.00000   0.00215   0.00037  41.59325
         Item               Value     Threshold  Converged?
 Maximum Force            0.031938     0.000450     NO 
 RMS     Force            0.009993     0.000300     NO 
 Maximum Displacement     0.068643     0.001800     NO 
 RMS     Displacement     0.017528     0.001200     NO 
 Predicted change in Energy=-2.891528D-02
 GradGradGradGradGradGradGradGradGradGradGradGradGradGradGradGradGradGrad

 Leave Link  103 at Thu May  3 11:42:20 2018, MaxMem= 14763950080 cpu:        66.7
 (Enter /cm/shared/gaussian/g09.e01/intel64-sandybridge/g09/l9999.exe)
 1\1\GINC-POPLE03\Force\RPBE1PBE\CC-pVDZ\Br1H64O32(1-)\M.PELUSO\03-May-
 2018\0\\#p PBE1PBE/cc-pvDZ force Counterpoise=2 noSymm\\forces on chlo
 ride comput - NWATER: 32\\-1,1\Br,20.,20.,20.\O,22.15,22.03,19.34\H,22
 .83,22.05,20.02\H,21.56,21.33,19.61\O,17.17,18.84,19.33\H,18.04,19.17,
 19.54\H,16.65,19.01,20.11\O,21.44,20.19,17.18\H,22.13,20.82,17.39\H,20
 .86,20.21,17.93\O,22.29,17.77,19.59\H,22.88,18.42,19.2\H,21.68,18.28,2
 0.12\O,20.7,22.06,23.65\H,20.68,21.39,22.97\H,20.3,22.83,23.23\O,18.8,
 18.61,23.44\H,18.4,19.33,22.96\H,19.7,18.89,23.58\O,17.05,23.45,20.07\
 H,17.7,22.75,20.\H,17.51,24.23,19.76\O,21.04,23.35,17.34\H,20.72,24.2,
 17.62\H,21.31,22.91,18.15\O,19.94,16.23,22.09\H,19.3,16.95,22.13\H,19.
 42,15.47,21.83\O,18.48,16.08,18.25\H,18.12,16.77,18.82\H,18.3,16.39,17
 .37\O,21.6,17.57,16.41\H,21.63,18.49,16.14\H,21.68,17.59,17.36\O,22.57
 ,16.65,22.03\H,22.64,17.28,21.31\H,21.69,16.29,21.96\O,16.38,21.15,16.
 7\H,17.05,21.69,16.28\H,16.8,20.82,17.49\O,17.18,20.66,23.07\H,17.08,2
 1.51,22.65\H,16.46,20.13,22.72\O,19.67,21.93,15.3\H,20.03,22.12,16.16\
 H,19.9,22.69,14.76\O,16.27,17.55,17.35\H,16.24,18.06,18.17\H,16.84,18.
 06,16.77\O,21.98,18.92,24.04\H,22.85,19.3,23.9\H,22.08,18.,23.83\O,18.
 44,18.56,15.45\H,18.69,17.65,15.33\H,19.27,19.03,15.51\O,23.43,22.47,2
 2.29\H,23.29,23.33,22.7\H,23.59,21.88,23.02\O,24.49,19.06,18.06\H,24.7
 3,18.79,17.18\H,25.15,18.67,18.63\O,15.86,18.42,22.49\H,15.85,18.11,23
 .4\H,16.01,17.63,21.97\O,20.8,14.73,17.85\H,19.97,15.15,17.61\H,21.16,
 15.29,18.54\O,19.22,24.18,22.79\H,19.52,24.93,22.28\H,19.02,24.54,23.6
 6\O,17.94,23.75,16.09\H,18.21,24.66,15.97\H,18.77,23.26,16.16\O,23.79,
 15.14,19.81\H,23.1,15.81,19.89\H,24.61,15.63,19.87\O,16.55,16.15,21.03
 \H,15.94,16.63,20.48\H,16.37,15.23,20.85\O,19.29,20.71,25.76\H,18.48,2
 0.65,25.25\H,19.91,21.15,25.18\O,16.7,23.5,23.18\H,17.66,23.51,23.23\H
 ,16.47,24.35,22.81\O,19.82,25.23,18.89\H,19.29,25.77,18.3\H,19.78,25.6
 9,19.73\O,24.92,21.58,17.04\H,24.66,20.74,17.42\H,25.43,22.,17.73\O,26
 .02,21.02,21.31\H,25.34,20.35,21.33\H,26.65,20.75,21.98\O,25.18,18.26,
 21.09\H,25.58,17.47,20.74\H,25.01,18.06,22.01\\Version=ES64L-G09RevE.0
 1\HF=-2443.1493271\RMSD=3.366e-09\RMSF=9.993e-03\Dipole=2.9398516,5.94
 07135,3.1614957\Quadrupole=-93.5421653,197.6080979,-104.0659326,-1092.
 129245,-1210.7341805,-1078.8141192\PG=C01 [X(Br1H64O32)]\\@


 A successful marriage requires falling in love
 many times, always with the same person.
                           -- Mignon McLaughlin
 Job cpu time:       0 days 10 hours 54 minutes  0.4 seconds.
 File lengths (MBytes):  RWF=    482 Int=      0 D2E=      0 Chk=    160 Scr=      1
 Normal termination of Gaussian 09 at Thu May  3 11:42:20 2018.
