 Entering Gaussian System, Link 0=/cm/shared/gaussian/g09.e01/intel64-sandybridge/g09/g09
 Initial command:
 /cm/shared/gaussian/g09.e01/intel64-sandybridge/g09/l1.exe "/local/scratch/m.peluso/32_wat/Gau-7393.inp" -scrdir="/local/scratch/m.peluso/32_wat/"
 Entering Link 1 = /cm/shared/gaussian/g09.e01/intel64-sandybridge/g09/l1.exe PID=      7394.
  
 Copyright (c) 1988,1990,1992,1993,1995,1998,2003,2009,2015,
            Gaussian, Inc.  All Rights Reserved.
  
 This is part of the Gaussian(R) 09 program.  It is based on
 the Gaussian(R) 03 system (copyright 2003, Gaussian, Inc.),
 the Gaussian(R) 98 system (copyright 1998, Gaussian, Inc.),
 the Gaussian(R) 94 system (copyright 1995, Gaussian, Inc.),
 the Gaussian 92(TM) system (copyright 1992, Gaussian, Inc.),
 the Gaussian 90(TM) system (copyright 1990, Gaussian, Inc.),
 the Gaussian 88(TM) system (copyright 1988, Gaussian, Inc.),
 the Gaussian 86(TM) system (copyright 1986, Carnegie Mellon
 University), and the Gaussian 82(TM) system (copyright 1983,
 Carnegie Mellon University). Gaussian is a federally registered
 trademark of Gaussian, Inc.
  
 This software contains proprietary and confidential information,
 including trade secrets, belonging to Gaussian, Inc.
  
 This software is provided under written license and may be
 used, copied, transmitted, or stored only in accord with that
 written license.
  
 The following legend is applicable only to US Government
 contracts under FAR:
  
                    RESTRICTED RIGHTS LEGEND
  
 Use, reproduction and disclosure by the US Government is
 subject to restrictions as set forth in subparagraphs (a)
 and (c) of the Commercial Computer Software - Restricted
 Rights clause in FAR 52.227-19.
  
 Gaussian, Inc.
 340 Quinnipiac St., Bldg. 40, Wallingford CT 06492
  
  
 ---------------------------------------------------------------
 Warning -- This program may not be used in any manner that
 competes with the business of Gaussian, Inc. or will provide
 assistance to any competitor of Gaussian, Inc.  The licensee
 of this program is prohibited from giving any competitor of
 Gaussian, Inc. access to this program.  By using this program,
 the user acknowledges that Gaussian, Inc. is engaged in the
 business of creating and licensing software in the field of
 computational chemistry and represents and warrants to the
 licensee that it is not a competitor of Gaussian, Inc. and that
 it will not use this program in any manner prohibited above.
 ---------------------------------------------------------------
  

 Cite this work as:
 Gaussian 09, Revision E.01,
 M. J. Frisch, G. W. Trucks, H. B. Schlegel, G. E. Scuseria, 
 M. A. Robb, J. R. Cheeseman, G. Scalmani, V. Barone, B. Mennucci, 
 G. A. Petersson, H. Nakatsuji, M. Caricato, X. Li, H. P. Hratchian, 
 A. F. Izmaylov, J. Bloino, G. Zheng, J. L. Sonnenberg, M. Hada, 
 M. Ehara, K. Toyota, R. Fukuda, J. Hasegawa, M. Ishida, T. Nakajima, 
 Y. Honda, O. Kitao, H. Nakai, T. Vreven, J. A. Montgomery, Jr., 
 J. E. Peralta, F. Ogliaro, M. Bearpark, J. J. Heyd, E. Brothers, 
 K. N. Kudin, V. N. Staroverov, T. Keith, R. Kobayashi, J. Normand, 
 K. Raghavachari, A. Rendell, J. C. Burant, S. S. Iyengar, J. Tomasi, 
 M. Cossi, N. Rega, J. M. Millam, M. Klene, J. E. Knox, J. B. Cross, 
 V. Bakken, C. Adamo, J. Jaramillo, R. Gomperts, R. E. Stratmann, 
 O. Yazyev, A. J. Austin, R. Cammi, C. Pomelli, J. W. Ochterski, 
 R. L. Martin, K. Morokuma, V. G. Zakrzewski, G. A. Voth, 
 P. Salvador, J. J. Dannenberg, S. Dapprich, A. D. Daniels, 
 O. Farkas, J. B. Foresman, J. V. Ortiz, J. Cioslowski, 
 and D. J. Fox, Gaussian, Inc., Wallingford CT, 2013.
 
 ******************************************
 Gaussian 09:  ES64L-G09RevE.01 30-Nov-2015
                 2-May-2018 
 ******************************************
 %Mem=110GB
 %NProcShared=64
 Will use up to   64 processors via shared memory.
 %chk=snap102.chk
 ----------------------------------------------
 #p PBE1PBE/cc-pvDZ force Counterpoise=2 noSymm
 ----------------------------------------------
 1/10=7,30=1,38=1,62=2/1,3;
 2/12=2,15=1,17=6,18=5,40=1/2;
 1/10=7,30=1,38=1,53=2,62=2,63=101/22;
 3/5=16,11=2,16=1,25=1,30=1,71=1,74=-13/1,2,3;
 4//1;
 5/5=2,38=5/2;
 6/7=2,8=2,9=2,10=2,28=1/1;
 7/7=1,29=1,30=1,33=-1/1,2,3,16;
 1/10=7,30=1,53=2,62=2,63=101/22;
 3/5=7,6=11,11=2,16=1,25=1,30=1,71=1,74=-13,82=7/1,2,3;
 4//1;
 5/5=2,38=5/2;
 6/7=2,8=2,9=2,10=2,28=1/1;
 7/7=1,29=1,30=1,33=-1/1,2,3,16;
 1/10=7,30=1,53=2,62=2,63=101/22(-5);
 7/9=1,29=1,44=-1/16;
 1/10=7,30=1,62=2/3;
 99//99;
 Leave Link    1 at Wed May  2 23:55:38 2018, MaxMem= 14763950080 cpu:         8.9
 (Enter /cm/shared/gaussian/g09.e01/intel64-sandybridge/g09/l101.exe)
 --------------------------------------
 forces on chloride comput - NWATER: 32
 --------------------------------------
 Symbolic Z-matrix:
 Charge = -1 Multiplicity = 1 in supermolecule
 Charge = -1 Multiplicity = 1 in fragment      1.
 Charge =  0 Multiplicity = 1 in fragment      2.
 Br(Fragment=1)        20.       20.       20. 
 O(Fragment=2)         17.89     22.24     19.09 
 H(Fragment=2)         18.58     21.61     19.32 
 H(Fragment=2)         17.18     22.04     19.71 
 O(Fragment=2)         22.04     22.17     21.29 
 H(Fragment=2)         21.46     21.48     20.97 
 H(Fragment=2)         22.87     21.72     21.46 
 O(Fragment=2)         17.54     18.88     21.75 
 H(Fragment=2)         18.14     19.4      21.21 
 H(Fragment=2)         18.04     18.7      22.55 
 O(Fragment=2)         20.84     17.81     17.55 
 H(Fragment=2)         20.42     18.3      18.26 
 H(Fragment=2)         20.33     18.04     16.77 
 O(Fragment=2)         21.41     22.28     17.67 
 H(Fragment=2)         22.17     21.93     17.2 
 H(Fragment=2)         21.05     21.53     18.13 
 O(Fragment=2)         22.56     17.81     22.07 
 H(Fragment=2)         22.87     17.09     21.52 
 H(Fragment=2)         22.03     18.36     21.48 
 O(Fragment=2)         17.16     17.8      18.12 
 H(Fragment=2)         17.68     18.56     17.84 
 H(Fragment=2)         16.33     18.17     18.42 
 O(Fragment=2)         18.12     16.48     20.5 
 H(Fragment=2)         17.69     16.43     19.65 
 H(Fragment=2)         17.88     17.35     20.83 
 O(Fragment=2)         20.96     21.55     23.86 
 H(Fragment=2)         21.66     22.06     24.26 
 H(Fragment=2)         21.1      21.66     22.91 
 O(Fragment=2)         16.21     21.17     20.79 
 H(Fragment=2)         16.68     20.48     21.27 
 H(Fragment=2)         15.33     20.8      20.65 
 O(Fragment=2)         17.75     21.29     16.43 
 H(Fragment=2)         18.06     21.49     17.31 
 H(Fragment=2)         16.82     21.53     16.45 
 O(Fragment=2)         18.15     21.53     23.91 
 H(Fragment=2)         17.91     22.44     23.74 
 H(Fragment=2)         19.08     21.48     23.67 
 O(Fragment=2)         19.63     17.44     23.95 
 H(Fragment=2)         18.87     16.94     23.67 
 H(Fragment=2)         20.25     17.37     23.23 
 O(Fragment=2)         20.7      15.2      20.36 
 H(Fragment=2)         21.25     15.97     20.45 
 H(Fragment=2)         19.81     15.55     20.3 
 O(Fragment=2)         23.69     18.3      17.51 
 H(Fragment=2)         24.1      18.       16.7 
 H(Fragment=2)         22.77     18.05     17.43 
 O(Fragment=2)         21.14     24.83     20.49 
 H(Fragment=2)         21.41     23.97     20.79 
 H(Fragment=2)         20.99     24.73     19.55 
 O(Fragment=2)         19.72     24.32     17.95 
 H(Fragment=2)         18.97     23.85     18.3 
 H(Fragment=2)         20.32     23.64     17.65 
 O(Fragment=2)         23.44     21.03     16.77 
 H(Fragment=2)         23.56     20.7      15.88 
 H(Fragment=2)         23.41     20.25     17.32 
 O(Fragment=2)         23.51     16.7      19.71 
 H(Fragment=2)         23.53     17.39     19.04 
 H(Fragment=2)         24.43     16.49     19.87 
 O(Fragment=2)         17.42     23.91     22.06 
 H(Fragment=2)         16.97     24.52     21.48 
 H(Fragment=2)         17.08     23.05     21.83 
 O(Fragment=2)         19.95     22.92     15.36 
 H(Fragment=2)         20.33     22.66     16.2 
 H(Fragment=2)         19.24     22.29     15.21 
 O(Fragment=2)         22.82     18.64     24.68 
 H(Fragment=2)         22.02     19.11     24.89 
 H(Fragment=2)         22.74     18.41     23.75 
 O(Fragment=2)         17.29     16.12     23.06 
 H(Fragment=2)         17.58     16.04     22.15 
 H(Fragment=2)         16.4      15.77     23.06 
 O(Fragment=2)         19.41     18.65     15.07 
 H(Fragment=2)         18.54     19.03     14.97 
 H(Fragment=2)         19.93     19.06     14.37 
 O(Fragment=2)         24.23     21.08     22.84 
 H(Fragment=2)         24.23     20.73     23.73 
 H(Fragment=2)         24.62     20.39     22.31 
 O(Fragment=2)         14.81     19.24     18.88 
 H(Fragment=2)         14.92     18.75     19.7 
 H(Fragment=2)         13.94     18.99     18.56 
 O(Fragment=2)         25.87     19.22     18.82 
 H(Fragment=2)         25.03     18.92     18.47 
 H(Fragment=2)         25.85     20.18     18.7 
 O(Fragment=2)         17.03     19.9      14.28 
 H(Fragment=2)         17.31     20.43     15.03 
 H(Fragment=2)         16.15     20.23     14.07 
 O(Fragment=2)         16.53     15.73     16.09 
 H(Fragment=2)         16.8      16.43     16.69 
 H(Fragment=2)         15.83     16.13     15.57 
 O(Fragment=2)         19.32     25.88     22.54 
 H(Fragment=2)         18.69     25.17     22.36 
 H(Fragment=2)         20.04     25.72     21.93 
 O(Fragment=2)         22.35     14.24     17.45 
 H(Fragment=2)         22.4      15.05     17.97 
 H(Fragment=2)         23.       14.35     16.76 
 O(Fragment=2)         14.96     20.81     23.77 
 H(Fragment=2)         14.87     20.72     22.82 
 H(Fragment=2)         14.62     19.98     24.12 
 
 NAtoms=     97 NQM=       97 NQMF=       0 NMMI=      0 NMMIF=      0
                NMic=       0 NMicF=      0.
                    Isotopes and Nuclear Properties:
 (Nuclear quadrupole moments (NQMom) in fm**2, nuclear magnetic moments (NMagM)
  in nuclear magnetons)

  Atom         1           2           3           4           5           6           7           8           9          10
 IAtWgt=          79          16           1           1          16           1           1          16           1           1
 AtmWgt=  78.9183361  15.9949146   1.0078250   1.0078250  15.9949146   1.0078250   1.0078250  15.9949146   1.0078250   1.0078250
 NucSpn=           3           0           1           1           0           1           1           0           1           1
 AtZEff=   0.0000000   0.0000000   0.0000000   0.0000000   0.0000000   0.0000000   0.0000000   0.0000000   0.0000000   0.0000000
 NQMom=   31.3000000   0.0000000   0.0000000   0.0000000   0.0000000   0.0000000   0.0000000   0.0000000   0.0000000   0.0000000
 NMagM=    2.1063990   0.0000000   2.7928460   2.7928460   0.0000000   2.7928460   2.7928460   0.0000000   2.7928460   2.7928460
 AtZNuc=  35.0000000   8.0000000   1.0000000   1.0000000   8.0000000   1.0000000   1.0000000   8.0000000   1.0000000   1.0000000

  Atom        11          12          13          14          15          16          17          18          19          20
 IAtWgt=          16           1           1          16           1           1          16           1           1          16
 AtmWgt=  15.9949146   1.0078250   1.0078250  15.9949146   1.0078250   1.0078250  15.9949146   1.0078250   1.0078250  15.9949146
 NucSpn=           0           1           1           0           1           1           0           1           1           0
 AtZEff=   0.0000000   0.0000000   0.0000000   0.0000000   0.0000000   0.0000000   0.0000000   0.0000000   0.0000000   0.0000000
 NQMom=    0.0000000   0.0000000   0.0000000   0.0000000   0.0000000   0.0000000   0.0000000   0.0000000   0.0000000   0.0000000
 NMagM=    0.0000000   2.7928460   2.7928460   0.0000000   2.7928460   2.7928460   0.0000000   2.7928460   2.7928460   0.0000000
 AtZNuc=   8.0000000   1.0000000   1.0000000   8.0000000   1.0000000   1.0000000   8.0000000   1.0000000   1.0000000   8.0000000

  Atom        21          22          23          24          25          26          27          28          29          30
 IAtWgt=           1           1          16           1           1          16           1           1          16           1
 AtmWgt=   1.0078250   1.0078250  15.9949146   1.0078250   1.0078250  15.9949146   1.0078250   1.0078250  15.9949146   1.0078250
 NucSpn=           1           1           0           1           1           0           1           1           0           1
 AtZEff=   0.0000000   0.0000000   0.0000000   0.0000000   0.0000000   0.0000000   0.0000000   0.0000000   0.0000000   0.0000000
 NQMom=    0.0000000   0.0000000   0.0000000   0.0000000   0.0000000   0.0000000   0.0000000   0.0000000   0.0000000   0.0000000
 NMagM=    2.7928460   2.7928460   0.0000000   2.7928460   2.7928460   0.0000000   2.7928460   2.7928460   0.0000000   2.7928460
 AtZNuc=   1.0000000   1.0000000   8.0000000   1.0000000   1.0000000   8.0000000   1.0000000   1.0000000   8.0000000   1.0000000

  Atom        31          32          33          34          35          36          37          38          39          40
 IAtWgt=           1          16           1           1          16           1           1          16           1           1
 AtmWgt=   1.0078250  15.9949146   1.0078250   1.0078250  15.9949146   1.0078250   1.0078250  15.9949146   1.0078250   1.0078250
 NucSpn=           1           0           1           1           0           1           1           0           1           1
 AtZEff=   0.0000000   0.0000000   0.0000000   0.0000000   0.0000000   0.0000000   0.0000000   0.0000000   0.0000000   0.0000000
 NQMom=    0.0000000   0.0000000   0.0000000   0.0000000   0.0000000   0.0000000   0.0000000   0.0000000   0.0000000   0.0000000
 NMagM=    2.7928460   0.0000000   2.7928460   2.7928460   0.0000000   2.7928460   2.7928460   0.0000000   2.7928460   2.7928460
 AtZNuc=   1.0000000   8.0000000   1.0000000   1.0000000   8.0000000   1.0000000   1.0000000   8.0000000   1.0000000   1.0000000

  Atom        41          42          43          44          45          46          47          48          49          50
 IAtWgt=          16           1           1          16           1           1          16           1           1          16
 AtmWgt=  15.9949146   1.0078250   1.0078250  15.9949146   1.0078250   1.0078250  15.9949146   1.0078250   1.0078250  15.9949146
 NucSpn=           0           1           1           0           1           1           0           1           1           0
 AtZEff=   0.0000000   0.0000000   0.0000000   0.0000000   0.0000000   0.0000000   0.0000000   0.0000000   0.0000000   0.0000000
 NQMom=    0.0000000   0.0000000   0.0000000   0.0000000   0.0000000   0.0000000   0.0000000   0.0000000   0.0000000   0.0000000
 NMagM=    0.0000000   2.7928460   2.7928460   0.0000000   2.7928460   2.7928460   0.0000000   2.7928460   2.7928460   0.0000000
 AtZNuc=   8.0000000   1.0000000   1.0000000   8.0000000   1.0000000   1.0000000   8.0000000   1.0000000   1.0000000   8.0000000

  Atom        51          52          53          54          55          56          57          58          59          60
 IAtWgt=           1           1          16           1           1          16           1           1          16           1
 AtmWgt=   1.0078250   1.0078250  15.9949146   1.0078250   1.0078250  15.9949146   1.0078250   1.0078250  15.9949146   1.0078250
 NucSpn=           1           1           0           1           1           0           1           1           0           1
 AtZEff=   0.0000000   0.0000000   0.0000000   0.0000000   0.0000000   0.0000000   0.0000000   0.0000000   0.0000000   0.0000000
 NQMom=    0.0000000   0.0000000   0.0000000   0.0000000   0.0000000   0.0000000   0.0000000   0.0000000   0.0000000   0.0000000
 NMagM=    2.7928460   2.7928460   0.0000000   2.7928460   2.7928460   0.0000000   2.7928460   2.7928460   0.0000000   2.7928460
 AtZNuc=   1.0000000   1.0000000   8.0000000   1.0000000   1.0000000   8.0000000   1.0000000   1.0000000   8.0000000   1.0000000

  Atom        61          62          63          64          65          66          67          68          69          70
 IAtWgt=           1          16           1           1          16           1           1          16           1           1
 AtmWgt=   1.0078250  15.9949146   1.0078250   1.0078250  15.9949146   1.0078250   1.0078250  15.9949146   1.0078250   1.0078250
 NucSpn=           1           0           1           1           0           1           1           0           1           1
 AtZEff=   0.0000000   0.0000000   0.0000000   0.0000000   0.0000000   0.0000000   0.0000000   0.0000000   0.0000000   0.0000000
 NQMom=    0.0000000   0.0000000   0.0000000   0.0000000   0.0000000   0.0000000   0.0000000   0.0000000   0.0000000   0.0000000
 NMagM=    2.7928460   0.0000000   2.7928460   2.7928460   0.0000000   2.7928460   2.7928460   0.0000000   2.7928460   2.7928460
 AtZNuc=   1.0000000   8.0000000   1.0000000   1.0000000   8.0000000   1.0000000   1.0000000   8.0000000   1.0000000   1.0000000

  Atom        71          72          73          74          75          76          77          78          79          80
 IAtWgt=          16           1           1          16           1           1          16           1           1          16
 AtmWgt=  15.9949146   1.0078250   1.0078250  15.9949146   1.0078250   1.0078250  15.9949146   1.0078250   1.0078250  15.9949146
 NucSpn=           0           1           1           0           1           1           0           1           1           0
 AtZEff=   0.0000000   0.0000000   0.0000000   0.0000000   0.0000000   0.0000000   0.0000000   0.0000000   0.0000000   0.0000000
 NQMom=    0.0000000   0.0000000   0.0000000   0.0000000   0.0000000   0.0000000   0.0000000   0.0000000   0.0000000   0.0000000
 NMagM=    0.0000000   2.7928460   2.7928460   0.0000000   2.7928460   2.7928460   0.0000000   2.7928460   2.7928460   0.0000000
 AtZNuc=   8.0000000   1.0000000   1.0000000   8.0000000   1.0000000   1.0000000   8.0000000   1.0000000   1.0000000   8.0000000

  Atom        81          82          83          84          85          86          87          88          89          90
 IAtWgt=           1           1          16           1           1          16           1           1          16           1
 AtmWgt=   1.0078250   1.0078250  15.9949146   1.0078250   1.0078250  15.9949146   1.0078250   1.0078250  15.9949146   1.0078250
 NucSpn=           1           1           0           1           1           0           1           1           0           1
 AtZEff=   0.0000000   0.0000000   0.0000000   0.0000000   0.0000000   0.0000000   0.0000000   0.0000000   0.0000000   0.0000000
 NQMom=    0.0000000   0.0000000   0.0000000   0.0000000   0.0000000   0.0000000   0.0000000   0.0000000   0.0000000   0.0000000
 NMagM=    2.7928460   2.7928460   0.0000000   2.7928460   2.7928460   0.0000000   2.7928460   2.7928460   0.0000000   2.7928460
 AtZNuc=   1.0000000   1.0000000   8.0000000   1.0000000   1.0000000   8.0000000   1.0000000   1.0000000   8.0000000   1.0000000

  Atom        91          92          93          94          95          96          97
 IAtWgt=           1          16           1           1          16           1           1
 AtmWgt=   1.0078250  15.9949146   1.0078250   1.0078250  15.9949146   1.0078250   1.0078250
 NucSpn=           1           0           1           1           0           1           1
 AtZEff=   0.0000000   0.0000000   0.0000000   0.0000000   0.0000000   0.0000000   0.0000000
 NQMom=    0.0000000   0.0000000   0.0000000   0.0000000   0.0000000   0.0000000   0.0000000
 NMagM=    2.7928460   0.0000000   2.7928460   2.7928460   0.0000000   2.7928460   2.7928460
 AtZNuc=   1.0000000   8.0000000   1.0000000   1.0000000   8.0000000   1.0000000   1.0000000
 Leave Link  101 at Wed May  2 23:55:38 2018, MaxMem= 14763950080 cpu:        12.6
 (Enter /cm/shared/gaussian/g09.e01/intel64-sandybridge/g09/l103.exe)

 GradGradGradGradGradGradGradGradGradGradGradGradGradGradGradGradGradGrad
 Berny optimization.
 Initialization pass.
 Trust Radius=3.00D-01 FncErr=1.00D-07 GrdErr=1.00D-07
 Number of steps in this run=      2 maximum allowed number of steps=      2.
 GradGradGradGradGradGradGradGradGradGradGradGradGradGradGradGradGradGrad

 Leave Link  103 at Wed May  2 23:55:38 2018, MaxMem= 14763950080 cpu:         1.7
 (Enter /cm/shared/gaussian/g09.e01/intel64-sandybridge/g09/l202.exe)
 Symmetry turned off by external request.
 Stoichiometry    BrH64O32(1-)
 Framework group  C1[X(BrH64O32)]
 Deg. of freedom   285
 Full point group                 C1      NOp   1
                          Input orientation:                          
 ---------------------------------------------------------------------
 Center     Atomic      Atomic             Coordinates (Angstroms)
 Number     Number       Type             X           Y           Z
 ---------------------------------------------------------------------
      1         35           0       20.000000   20.000000   20.000000
      2          8           0       17.890000   22.240000   19.090000
      3          1           0       18.580000   21.610000   19.320000
      4          1           0       17.180000   22.040000   19.710000
      5          8           0       22.040000   22.170000   21.290000
      6          1           0       21.460000   21.480000   20.970000
      7          1           0       22.870000   21.720000   21.460000
      8          8           0       17.540000   18.880000   21.750000
      9          1           0       18.140000   19.400000   21.210000
     10          1           0       18.040000   18.700000   22.550000
     11          8           0       20.840000   17.810000   17.550000
     12          1           0       20.420000   18.300000   18.260000
     13          1           0       20.330000   18.040000   16.770000
     14          8           0       21.410000   22.280000   17.670000
     15          1           0       22.170000   21.930000   17.200000
     16          1           0       21.050000   21.530000   18.130000
     17          8           0       22.560000   17.810000   22.070000
     18          1           0       22.870000   17.090000   21.520000
     19          1           0       22.030000   18.360000   21.480000
     20          8           0       17.160000   17.800000   18.120000
     21          1           0       17.680000   18.560000   17.840000
     22          1           0       16.330000   18.170000   18.420000
     23          8           0       18.120000   16.480000   20.500000
     24          1           0       17.690000   16.430000   19.650000
     25          1           0       17.880000   17.350000   20.830000
     26          8           0       20.960000   21.550000   23.860000
     27          1           0       21.660000   22.060000   24.260000
     28          1           0       21.100000   21.660000   22.910000
     29          8           0       16.210000   21.170000   20.790000
     30          1           0       16.680000   20.480000   21.270000
     31          1           0       15.330000   20.800000   20.650000
     32          8           0       17.750000   21.290000   16.430000
     33          1           0       18.060000   21.490000   17.310000
     34          1           0       16.820000   21.530000   16.450000
     35          8           0       18.150000   21.530000   23.910000
     36          1           0       17.910000   22.440000   23.740000
     37          1           0       19.080000   21.480000   23.670000
     38          8           0       19.630000   17.440000   23.950000
     39          1           0       18.870000   16.940000   23.670000
     40          1           0       20.250000   17.370000   23.230000
     41          8           0       20.700000   15.200000   20.360000
     42          1           0       21.250000   15.970000   20.450000
     43          1           0       19.810000   15.550000   20.300000
     44          8           0       23.690000   18.300000   17.510000
     45          1           0       24.100000   18.000000   16.700000
     46          1           0       22.770000   18.050000   17.430000
     47          8           0       21.140000   24.830000   20.490000
     48          1           0       21.410000   23.970000   20.790000
     49          1           0       20.990000   24.730000   19.550000
     50          8           0       19.720000   24.320000   17.950000
     51          1           0       18.970000   23.850000   18.300000
     52          1           0       20.320000   23.640000   17.650000
     53          8           0       23.440000   21.030000   16.770000
     54          1           0       23.560000   20.700000   15.880000
     55          1           0       23.410000   20.250000   17.320000
     56          8           0       23.510000   16.700000   19.710000
     57          1           0       23.530000   17.390000   19.040000
     58          1           0       24.430000   16.490000   19.870000
     59          8           0       17.420000   23.910000   22.060000
     60          1           0       16.970000   24.520000   21.480000
     61          1           0       17.080000   23.050000   21.830000
     62          8           0       19.950000   22.920000   15.360000
     63          1           0       20.330000   22.660000   16.200000
     64          1           0       19.240000   22.290000   15.210000
     65          8           0       22.820000   18.640000   24.680000
     66          1           0       22.020000   19.110000   24.890000
     67          1           0       22.740000   18.410000   23.750000
     68          8           0       17.290000   16.120000   23.060000
     69          1           0       17.580000   16.040000   22.150000
     70          1           0       16.400000   15.770000   23.060000
     71          8           0       19.410000   18.650000   15.070000
     72          1           0       18.540000   19.030000   14.970000
     73          1           0       19.930000   19.060000   14.370000
     74          8           0       24.230000   21.080000   22.840000
     75          1           0       24.230000   20.730000   23.730000
     76          1           0       24.620000   20.390000   22.310000
     77          8           0       14.810000   19.240000   18.880000
     78          1           0       14.920000   18.750000   19.700000
     79          1           0       13.940000   18.990000   18.560000
     80          8           0       25.870000   19.220000   18.820000
     81          1           0       25.030000   18.920000   18.470000
     82          1           0       25.850000   20.180000   18.700000
     83          8           0       17.030000   19.900000   14.280000
     84          1           0       17.310000   20.430000   15.030000
     85          1           0       16.150000   20.230000   14.070000
     86          8           0       16.530000   15.730000   16.090000
     87          1           0       16.800000   16.430000   16.690000
     88          1           0       15.830000   16.130000   15.570000
     89          8           0       19.320000   25.880000   22.540000
     90          1           0       18.690000   25.170000   22.360000
     91          1           0       20.040000   25.720000   21.930000
     92          8           0       22.350000   14.240000   17.450000
     93          1           0       22.400000   15.050000   17.970000
     94          1           0       23.000000   14.350000   16.760000
     95          8           0       14.960000   20.810000   23.770000
     96          1           0       14.870000   20.720000   22.820000
     97          1           0       14.620000   19.980000   24.120000
 ---------------------------------------------------------------------
 Rotational constants (GHZ):      0.0568357      0.0531299      0.0505407
 Leave Link  202 at Wed May  2 23:55:39 2018, MaxMem= 14763950080 cpu:         0.5
 (Enter /cm/shared/gaussian/g09.e01/intel64-sandybridge/g09/l122.exe)
 Counterpoise: doing full dimer calculation.
 Leave Link  122 at Wed May  2 23:55:39 2018, MaxMem= 14763950080 cpu:         0.1
 (Enter /cm/shared/gaussian/g09.e01/intel64-sandybridge/g09/l301.exe)
 Standard basis: CC-pVDZ (5D, 7F)
 Ernie: Thresh=  0.10000D-02 Tol=  0.10000D-05 Strict=F.
 Ernie:  87 primitive shells out of 1114 were deleted.
   795 basis functions,  1651 primitive gaussians,   829 cartesian basis functions
   178 alpha electrons      178 beta electrons
       nuclear repulsion energy      6054.0181256377 Hartrees.
 IExCor= 1009 DFT=T Ex+Corr=PBE1PBE ExCW=0 ScaHFX=  0.250000
 ScaDFX=  0.750000  0.750000  1.000000  1.000000 ScalE2=  1.000000  1.000000
 IRadAn=      0 IRanWt=     -1 IRanGd=            0 ICorTp=0 IEmpDi=  4
 NAtoms=   97 NActive=   97 NUniq=   97 SFac= 1.00D+00 NAtFMM=   60 NAOKFM=T Big=T
 Integral buffers will be    131072 words long.
 Raffenetti 2 integral format.
 Two-electron integral symmetry is turned off.
 Leave Link  301 at Wed May  2 23:55:39 2018, MaxMem= 14763950080 cpu:         4.3
 (Enter /cm/shared/gaussian/g09.e01/intel64-sandybridge/g09/l302.exe)
 NPDir=0 NMtPBC=     1 NCelOv=     1 NCel=       1 NClECP=     1 NCelD=      1
         NCelK=      1 NCelE2=     1 NClLst=     1 CellRange=     0.0.
 One-electron integrals computed using PRISM.
 NBasis=   795 RedAO= T EigKep=  1.54D-02  NBF=   795
 NBsUse=   795 1.00D-06 EigRej= -1.00D+00 NBFU=   795
 Precomputing XC quadrature grid using
 IXCGrd= 4 IRadAn=           0 IRanWt=          -1 IRanGd=           0 AccXCQ= 0.00D+00.
 Generated NRdTot=       0 NPtTot=           0 NUsed=           0 NTot=          32
 NSgBfM=   715   725   725   725   725 MxSgAt=    97 MxSgA2=    97.
 Leave Link  302 at Wed May  2 23:55:45 2018, MaxMem= 14763950080 cpu:       377.0
 (Enter /cm/shared/gaussian/g09.e01/intel64-sandybridge/g09/l303.exe)
 DipDrv:  MaxL=1.
 Leave Link  303 at Wed May  2 23:55:46 2018, MaxMem= 14763950080 cpu:        29.0
 (Enter /cm/shared/gaussian/g09.e01/intel64-sandybridge/g09/l401.exe)
 ExpMin= 1.22D-01 ExpMax= 6.40D+05 ExpMxC= 6.18D+03 IAcc=2 IRadAn=         4 AccDes= 0.00D+00
 Harris functional with IExCor= 1009 and IRadAn=       4 diagonalized for initial guess.
 HarFok:  IExCor= 1009 AccDes= 0.00D+00 IRadAn=         4 IDoV= 1 UseB2=F ITyADJ=14
 ICtDFT=  3500011 ScaDFX=  1.000000  1.000000  1.000000  1.000000
 FoFCou: FMM=F IPFlag=           0 FMFlag=      100000 FMFlg1=        2001
         NFxFlg=           0 DoJE=T BraDBF=F KetDBF=T FulRan=T
         wScrn=  0.000000 ICntrl=     500 IOpCl=  0 I1Cent=   200000004 NGrid=           0
         NMat0=    1 NMatS0=      1 NMatT0=    0 NMatD0=    1 NMtDS0=    0 NMtDT0=    0
 Symmetry not used in FoFCou.
 Harris En= -5018.44231421936    
 JPrj=0 DoOrth=F DoCkMO=F.
 Leave Link  401 at Wed May  2 23:55:51 2018, MaxMem= 14763950080 cpu:       309.3
 (Enter /cm/shared/gaussian/g09.e01/intel64-sandybridge/g09/l502.exe)
 Closed shell SCF:
 Using DIIS extrapolation, IDIIS=  1040.
 Two-electron integral symmetry not used.
 IVT=     2138497 IEndB=     2138497 NGot= 14763950080 MDV= 14762516294
 LenX= 14762516294 LenY= 14761828224
 Requested convergence on RMS density matrix=1.00D-08 within 128 cycles.
 Requested convergence on MAX density matrix=1.00D-06.
 Requested convergence on             energy=1.00D-06.
 No special actions if energy rises.
 Fock matrices will be formed incrementally for  20 cycles.
 Integral accuracy reduced to 1.0D-05 until final iterations.

 Cycle   1  Pass 0  IDiag  1:
 FoFJK:  IHMeth= 1 ICntrl=       0 DoSepK=F KAlg= 0 I1Cent=   0 FoldK=F
 IRaf= 820000000 NMat=   1 IRICut=       1 DoRegI=T DoRafI=F ISym2E= 0.
 FoFCou: FMM=T IPFlag=           0 FMFlag=      100000 FMFlg1=        2001
         NFxFlg=           0 DoJE=F BraDBF=F KetDBF=F FulRan=T
         wScrn=  0.000000 ICntrl=       0 IOpCl=  0 I1Cent=           0 NGrid=           0
         NMat0=    1 NMatS0=      1 NMatT0=    0 NMatD0=    1 NMtDS0=    0 NMtDT0=    0
 Symmetry not used in FoFCou.
 FMM levels:  10  Number of levels for PrismC:   9
 E= -5015.34979624882    
 DIIS: error= 2.98D-02 at cycle   1 NSaved=   1.
 NSaved= 1 IEnMin= 1 EnMin= -5015.34979624882     IErMin= 1 ErrMin= 2.98D-02
 ErrMax= 2.98D-02  0.00D+00 EMaxC= 1.00D-01 BMatC= 2.68D+00 BMatP= 2.68D+00
 IDIUse=3 WtCom= 7.02D-01 WtEn= 2.98D-01
 Coeff-Com:  0.100D+01
 Coeff-En:   0.100D+01
 Coeff:      0.100D+01
 Gap=     0.312 Goal=   None    Shift=    0.000
 GapD=    0.312 DampG=1.000 DampE=0.500 DampFc=0.5000 IDamp=-1.
 Damping current iteration by 5.00D-01
 RMSDP=2.83D-03 MaxDP=1.62D-01              OVMax= 1.85D-01

 Cycle   2  Pass 0  IDiag  1:
 RMSU=  1.40D-03    CP:  9.85D-01
 E= -5016.13619288483     Delta-E=       -0.786396636006 Rises=F Damp=T
 DIIS: error= 7.53D-03 at cycle   2 NSaved=   2.
 NSaved= 2 IEnMin= 2 EnMin= -5016.13619288483     IErMin= 2 ErrMin= 7.53D-03
 ErrMax= 7.53D-03  0.00D+00 EMaxC= 1.00D-01 BMatC= 8.38D-02 BMatP= 2.68D+00
 IDIUse=3 WtCom= 9.25D-01 WtEn= 7.53D-02
 Coeff-Com:  0.117D+00 0.883D+00
 Coeff-En:   0.210D+00 0.790D+00
 Coeff:      0.124D+00 0.876D+00
 Gap=     0.171 Goal=   None    Shift=    0.000
 RMSDP=3.49D-04 MaxDP=2.11D-02 DE=-7.86D-01 OVMax= 1.08D-01

 Cycle   3  Pass 0  IDiag  1:
 RMSU=  2.78D-04    CP:  9.87D-01  8.51D-01
 E= -5017.26437482257     Delta-E=       -1.128181937744 Rises=F Damp=F
 DIIS: error= 1.14D-03 at cycle   3 NSaved=   3.
 NSaved= 3 IEnMin= 3 EnMin= -5017.26437482257     IErMin= 3 ErrMin= 1.14D-03
 ErrMax= 1.14D-03  0.00D+00 EMaxC= 1.00D-01 BMatC= 2.46D-03 BMatP= 8.38D-02
 IDIUse=3 WtCom= 9.89D-01 WtEn= 1.14D-02
 Coeff-Com:  0.112D-01 0.888D-01 0.900D+00
 Coeff-En:   0.000D+00 0.000D+00 0.100D+01
 Coeff:      0.110D-01 0.878D-01 0.901D+00
 Gap=     0.192 Goal=   None    Shift=    0.000
 RMSDP=1.00D-04 MaxDP=1.32D-02 DE=-1.13D+00 OVMax= 1.68D-02

 Cycle   4  Pass 0  IDiag  1:
 RMSU=  8.92D-05    CP:  9.88D-01  8.55D-01  8.39D-01
 E= -5017.26464403017     Delta-E=       -0.000269207594 Rises=F Damp=F
 DIIS: error= 1.40D-03 at cycle   4 NSaved=   4.
 NSaved= 4 IEnMin= 4 EnMin= -5017.26464403017     IErMin= 3 ErrMin= 1.14D-03
 ErrMax= 1.40D-03  0.00D+00 EMaxC= 1.00D-01 BMatC= 2.61D-03 BMatP= 2.46D-03
 IDIUse=3 WtCom= 9.86D-01 WtEn= 1.40D-02
 Coeff-Com:  0.162D-02 0.825D-02 0.506D+00 0.484D+00
 Coeff-En:   0.000D+00 0.000D+00 0.469D+00 0.531D+00
 Coeff:      0.160D-02 0.813D-02 0.505D+00 0.485D+00
 Gap=     0.187 Goal=   None    Shift=    0.000
 RMSDP=4.51D-05 MaxDP=5.69D-03 DE=-2.69D-04 OVMax= 5.48D-03

 Cycle   5  Pass 0  IDiag  1:
 RMSU=  1.78D-05    CP:  9.87D-01  8.53D-01  9.00D-01  5.78D-01
 E= -5017.26659104223     Delta-E=       -0.001947012064 Rises=F Damp=F
 DIIS: error= 1.21D-04 at cycle   5 NSaved=   5.
 NSaved= 5 IEnMin= 5 EnMin= -5017.26659104223     IErMin= 5 ErrMin= 1.21D-04
 ErrMax= 1.21D-04  0.00D+00 EMaxC= 1.00D-01 BMatC= 3.32D-05 BMatP= 2.46D-03
 IDIUse=3 WtCom= 9.99D-01 WtEn= 1.21D-03
 Coeff-Com:  0.561D-03-0.117D-02 0.145D+00 0.165D+00 0.690D+00
 Coeff-En:   0.000D+00 0.000D+00 0.000D+00 0.000D+00 0.100D+01
 Coeff:      0.561D-03-0.117D-02 0.145D+00 0.165D+00 0.691D+00
 Gap=     0.187 Goal=   None    Shift=    0.000
 RMSDP=8.43D-06 MaxDP=1.38D-03 DE=-1.95D-03 OVMax= 1.49D-03

 Cycle   6  Pass 0  IDiag  1:
 RMSU=  5.65D-06    CP:  9.87D-01  8.52D-01  9.11D-01  5.63D-01  7.04D-01
 E= -5017.26661719750     Delta-E=       -0.000026155274 Rises=F Damp=F
 DIIS: error= 8.26D-05 at cycle   6 NSaved=   6.
 NSaved= 6 IEnMin= 6 EnMin= -5017.26661719750     IErMin= 6 ErrMin= 8.26D-05
 ErrMax= 8.26D-05  0.00D+00 EMaxC= 1.00D-01 BMatC= 4.62D-06 BMatP= 3.32D-05
 IDIUse=1 WtCom= 1.00D+00 WtEn= 0.00D+00
 Coeff-Com:  0.117D-03-0.186D-02 0.334D-01 0.405D-01 0.301D+00 0.627D+00
 Coeff:      0.117D-03-0.186D-02 0.334D-01 0.405D-01 0.301D+00 0.627D+00
 Gap=     0.188 Goal=   None    Shift=    0.000
 RMSDP=2.37D-06 MaxDP=4.07D-04 DE=-2.62D-05 OVMax= 3.48D-04

 Initial convergence to 1.0D-05 achieved.  Increase integral accuracy.
 Cycle   7  Pass 1  IDiag  1:
 E= -5017.26729782553     Delta-E=       -0.000680628029 Rises=F Damp=F
 DIIS: error= 2.50D-05 at cycle   1 NSaved=   1.
 NSaved= 1 IEnMin= 1 EnMin= -5017.26729782553     IErMin= 1 ErrMin= 2.50D-05
 ErrMax= 2.50D-05  0.00D+00 EMaxC= 1.00D-01 BMatC= 1.53D-06 BMatP= 1.53D-06
 IDIUse=1 WtCom= 1.00D+00 WtEn= 0.00D+00
 Coeff-Com:  0.100D+01
 Coeff:      0.100D+01
 Gap=     0.188 Goal=   None    Shift=    0.000
 RMSDP=2.37D-06 MaxDP=4.07D-04 DE=-6.81D-04 OVMax= 2.03D-04

 Cycle   8  Pass 1  IDiag  1:
 RMSU=  4.38D-06    CP:  1.00D+00
 E= -5017.26729910527     Delta-E=       -0.000001279739 Rises=F Damp=F
 DIIS: error= 1.84D-05 at cycle   2 NSaved=   2.
 NSaved= 2 IEnMin= 2 EnMin= -5017.26729910527     IErMin= 2 ErrMin= 1.84D-05
 ErrMax= 1.84D-05  0.00D+00 EMaxC= 1.00D-01 BMatC= 4.92D-07 BMatP= 1.53D-06
 IDIUse=1 WtCom= 1.00D+00 WtEn= 0.00D+00
 Coeff-Com:  0.307D+00 0.693D+00
 Coeff:      0.307D+00 0.693D+00
 Gap=     0.188 Goal=   None    Shift=    0.000
 RMSDP=8.84D-07 MaxDP=8.07D-05 DE=-1.28D-06 OVMax= 7.60D-05

 Cycle   9  Pass 1  IDiag  1:
 RMSU=  8.78D-07    CP:  1.00D+00  9.76D-01
 E= -5017.26729931036     Delta-E=       -0.000000205089 Rises=F Damp=F
 DIIS: error= 1.03D-05 at cycle   3 NSaved=   3.
 NSaved= 3 IEnMin= 3 EnMin= -5017.26729931036     IErMin= 3 ErrMin= 1.03D-05
 ErrMax= 1.03D-05  0.00D+00 EMaxC= 1.00D-01 BMatC= 2.06D-07 BMatP= 4.92D-07
 IDIUse=1 WtCom= 1.00D+00 WtEn= 0.00D+00
 Coeff-Com: -0.633D-02 0.392D+00 0.614D+00
 Coeff:     -0.633D-02 0.392D+00 0.614D+00
 Gap=     0.188 Goal=   None    Shift=    0.000
 RMSDP=3.60D-07 MaxDP=3.54D-05 DE=-2.05D-07 OVMax= 3.34D-05

 Cycle  10  Pass 1  IDiag  1:
 RMSU=  9.51D-08    CP:  1.00D+00  1.00D+00  6.27D-01
 E= -5017.26729945576     Delta-E=       -0.000000145403 Rises=F Damp=F
 DIIS: error= 1.15D-06 at cycle   4 NSaved=   4.
 NSaved= 4 IEnMin= 4 EnMin= -5017.26729945576     IErMin= 4 ErrMin= 1.15D-06
 ErrMax= 1.15D-06  0.00D+00 EMaxC= 1.00D-01 BMatC= 1.70D-09 BMatP= 2.06D-07
 IDIUse=1 WtCom= 1.00D+00 WtEn= 0.00D+00
 Coeff-Com: -0.532D-02 0.188D+00 0.302D+00 0.516D+00
 Coeff:     -0.532D-02 0.188D+00 0.302D+00 0.516D+00
 Gap=     0.188 Goal=   None    Shift=    0.000
 RMSDP=3.97D-08 MaxDP=3.85D-06 DE=-1.45D-07 OVMax= 3.73D-06

 Cycle  11  Pass 1  IDiag  1:
 RMSU=  3.04D-08    CP:  1.00D+00  1.00D+00  6.33D-01  7.38D-01
 E= -5017.26729945702     Delta-E=       -0.000000001261 Rises=F Damp=F
 DIIS: error= 2.71D-07 at cycle   5 NSaved=   5.
 NSaved= 5 IEnMin= 5 EnMin= -5017.26729945702     IErMin= 5 ErrMin= 2.71D-07
 ErrMax= 2.71D-07  0.00D+00 EMaxC= 1.00D-01 BMatC= 7.94D-11 BMatP= 1.70D-09
 IDIUse=1 WtCom= 1.00D+00 WtEn= 0.00D+00
 Coeff-Com: -0.171D-02 0.460D-01 0.756D-01 0.217D+00 0.663D+00
 Coeff:     -0.171D-02 0.460D-01 0.756D-01 0.217D+00 0.663D+00
 Gap=     0.188 Goal=   None    Shift=    0.000
 RMSDP=9.11D-09 MaxDP=7.81D-07 DE=-1.26D-09 OVMax= 7.09D-07

 SCF Done:  E(RPBE1PBE) =  -5017.26729946     A.U. after   11 cycles
            NFock= 11  Conv=0.91D-08     -V/T= 2.0028
 KE= 5.003235471290D+03 PE=-2.407361112349D+04 EE= 7.999090227103D+03
 Leave Link  502 at Wed May  2 23:57:46 2018, MaxMem= 14763950080 cpu:      7282.0
 (Enter /cm/shared/gaussian/g09.e01/intel64-sandybridge/g09/l601.exe)
 Copying SCF densities to generalized density rwf, IOpCl= 0 IROHF=0.

 **********************************************************************

            Population analysis using the SCF density.

 **********************************************************************

 Alpha  occ. eigenvalues -- -483.15596 -62.55870 -56.33113 -56.33106 -56.33099
 Alpha  occ. eigenvalues --  -19.22615 -19.21789 -19.17984 -19.17753 -19.17101
 Alpha  occ. eigenvalues --  -19.17091 -19.15906 -19.15801 -19.15454 -19.14662
 Alpha  occ. eigenvalues --  -19.14035 -19.13628 -19.13610 -19.13500 -19.13067
 Alpha  occ. eigenvalues --  -19.12894 -19.12854 -19.12753 -19.12270 -19.12089
 Alpha  occ. eigenvalues --  -19.11733 -19.11116 -19.10641 -19.10184 -19.09027
 Alpha  occ. eigenvalues --  -19.07719 -19.07717 -19.07335 -19.06403 -19.06386
 Alpha  occ. eigenvalues --  -19.05446 -19.02905  -8.66154  -6.46496  -6.46454
 Alpha  occ. eigenvalues --   -6.46436  -2.54764  -2.54762  -2.54746  -2.54712
 Alpha  occ. eigenvalues --   -2.54706  -1.04815  -1.04802  -1.00817  -1.00611
 Alpha  occ. eigenvalues --   -1.00283  -0.99391  -0.98499  -0.98302  -0.98093
 Alpha  occ. eigenvalues --   -0.96909  -0.96783  -0.96075  -0.95746  -0.95734
 Alpha  occ. eigenvalues --   -0.95539  -0.95507  -0.95460  -0.95362  -0.95241
 Alpha  occ. eigenvalues --   -0.94810  -0.94539  -0.93686  -0.93101  -0.92492
 Alpha  occ. eigenvalues --   -0.91714  -0.90543  -0.90491  -0.89907  -0.89447
 Alpha  occ. eigenvalues --   -0.88774  -0.88168  -0.85512  -0.65429  -0.55324
 Alpha  occ. eigenvalues --   -0.55157  -0.52036  -0.51277  -0.51266  -0.49927
 Alpha  occ. eigenvalues --   -0.49565  -0.49380  -0.48834  -0.47861  -0.47411
 Alpha  occ. eigenvalues --   -0.47031  -0.46783  -0.46678  -0.46416  -0.46413
 Alpha  occ. eigenvalues --   -0.46266  -0.46197  -0.45748  -0.45568  -0.44960
 Alpha  occ. eigenvalues --   -0.44533  -0.43743  -0.43467  -0.43284  -0.42509
 Alpha  occ. eigenvalues --   -0.41879  -0.41587  -0.40868  -0.40831  -0.40291
 Alpha  occ. eigenvalues --   -0.39567  -0.39380  -0.38281  -0.37905  -0.37745
 Alpha  occ. eigenvalues --   -0.37369  -0.36803  -0.35755  -0.35566  -0.35278
 Alpha  occ. eigenvalues --   -0.34219  -0.33618  -0.33390  -0.32780  -0.32706
 Alpha  occ. eigenvalues --   -0.32511  -0.32319  -0.31944  -0.31699  -0.31378
 Alpha  occ. eigenvalues --   -0.31257  -0.31069  -0.31050  -0.30739  -0.30212
 Alpha  occ. eigenvalues --   -0.29801  -0.29266  -0.29022  -0.28331  -0.27933
 Alpha  occ. eigenvalues --   -0.27726  -0.27400  -0.27146  -0.26849  -0.26795
 Alpha  occ. eigenvalues --   -0.26343  -0.26263  -0.25546  -0.25480  -0.25425
 Alpha  occ. eigenvalues --   -0.25111  -0.24714  -0.24696  -0.24601  -0.24465
 Alpha  occ. eigenvalues --   -0.24134  -0.24075  -0.24042  -0.23835  -0.23247
 Alpha  occ. eigenvalues --   -0.23163  -0.23049  -0.22276  -0.21995  -0.21287
 Alpha  occ. eigenvalues --   -0.21222  -0.20860  -0.20397  -0.20274  -0.20052
 Alpha  occ. eigenvalues --   -0.19953  -0.19548  -0.18759  -0.18534  -0.17397
 Alpha  occ. eigenvalues --   -0.17373  -0.16273  -0.14440
 Alpha virt. eigenvalues --    0.04330   0.06217   0.08476   0.09993   0.10749
 Alpha virt. eigenvalues --    0.11860   0.12260   0.13378   0.13896   0.14150
 Alpha virt. eigenvalues --    0.14516   0.14861   0.15527   0.15750   0.16404
 Alpha virt. eigenvalues --    0.16614   0.17178   0.17707   0.17912   0.18269
 Alpha virt. eigenvalues --    0.19100   0.19582   0.20229   0.20693   0.22339
 Alpha virt. eigenvalues --    0.22643   0.23164   0.24103   0.24318   0.24616
 Alpha virt. eigenvalues --    0.24678   0.25373   0.25664   0.26116   0.26454
 Alpha virt. eigenvalues --    0.26969   0.27376   0.27747   0.28340   0.28861
 Alpha virt. eigenvalues --    0.29122   0.29310   0.29719   0.30703   0.31244
 Alpha virt. eigenvalues --    0.31474   0.31635   0.32250   0.32347   0.32819
 Alpha virt. eigenvalues --    0.32956   0.33769   0.34173   0.34352   0.35260
 Alpha virt. eigenvalues --    0.35364   0.35859   0.36655   0.37556   0.38202
 Alpha virt. eigenvalues --    0.39247   0.39726   0.40420   0.42960   0.54971
 Alpha virt. eigenvalues --    0.56294   0.57140   0.57923   0.58649   0.59177
 Alpha virt. eigenvalues --    0.60135   0.60788   0.61414   0.61777   0.61971
 Alpha virt. eigenvalues --    0.62351   0.62794   0.63330   0.63876   0.64057
 Alpha virt. eigenvalues --    0.64182   0.64647   0.64893   0.65541   0.65592
 Alpha virt. eigenvalues --    0.66005   0.66409   0.66574   0.66696   0.67336
 Alpha virt. eigenvalues --    0.67535   0.67889   0.68047   0.68501   0.68780
 Alpha virt. eigenvalues --    0.68980   0.69204   0.69463   0.69818   0.70202
 Alpha virt. eigenvalues --    0.70534   0.70717   0.71237   0.71491   0.71562
 Alpha virt. eigenvalues --    0.71952   0.72268   0.72694   0.72911   0.73169
 Alpha virt. eigenvalues --    0.73380   0.73505   0.74182   0.74537   0.74996
 Alpha virt. eigenvalues --    0.75635   0.75959   0.76360   0.76776   0.77444
 Alpha virt. eigenvalues --    0.77507   0.78082   0.78883   0.79512   0.79843
 Alpha virt. eigenvalues --    0.80342   0.80740   0.81071   0.81635   0.82733
 Alpha virt. eigenvalues --    0.83738   0.84920   0.85542   0.87559   0.88447
 Alpha virt. eigenvalues --    0.90239   0.92820   0.93224   0.93742   0.94880
 Alpha virt. eigenvalues --    0.95331   0.95796   0.96537   0.96870   0.97543
 Alpha virt. eigenvalues --    0.98075   0.98330   0.98586   0.98969   0.99527
 Alpha virt. eigenvalues --    0.99717   1.00079   1.00184   1.00387   1.00579
 Alpha virt. eigenvalues --    1.01025   1.01088   1.01296   1.01795   1.02344
 Alpha virt. eigenvalues --    1.02499   1.02770   1.02881   1.03237   1.03652
 Alpha virt. eigenvalues --    1.03839   1.04112   1.04121   1.04713   1.05003
 Alpha virt. eigenvalues --    1.05119   1.05475   1.05651   1.06047   1.06352
 Alpha virt. eigenvalues --    1.06609   1.06722   1.07374   1.07793   1.07819
 Alpha virt. eigenvalues --    1.08259   1.08361   1.08913   1.09287   1.09474
 Alpha virt. eigenvalues --    1.09721   1.10050   1.10277   1.10526   1.11154
 Alpha virt. eigenvalues --    1.11206   1.11354   1.11790   1.11986   1.12239
 Alpha virt. eigenvalues --    1.12726   1.13027   1.13244   1.13555   1.13954
 Alpha virt. eigenvalues --    1.14224   1.14384   1.15429   1.15677   1.15872
 Alpha virt. eigenvalues --    1.16141   1.16495   1.16747   1.17159   1.17567
 Alpha virt. eigenvalues --    1.18031   1.18652   1.18930   1.19497   1.19798
 Alpha virt. eigenvalues --    1.20157   1.20524   1.21003   1.21440   1.22020
 Alpha virt. eigenvalues --    1.22264   1.22571   1.22616   1.23237   1.23367
 Alpha virt. eigenvalues --    1.23795   1.24051   1.24403   1.25080   1.25285
 Alpha virt. eigenvalues --    1.25691   1.26258   1.26673   1.27093   1.27542
 Alpha virt. eigenvalues --    1.27823   1.27955   1.28265   1.28887   1.29431
 Alpha virt. eigenvalues --    1.29897   1.30197   1.30249   1.30929   1.31081
 Alpha virt. eigenvalues --    1.31516   1.31593   1.31827   1.31990   1.32159
 Alpha virt. eigenvalues --    1.32286   1.32646   1.32813   1.32966   1.33348
 Alpha virt. eigenvalues --    1.33456   1.33706   1.33954   1.34366   1.34784
 Alpha virt. eigenvalues --    1.34902   1.35322   1.35361   1.35906   1.36503
 Alpha virt. eigenvalues --    1.36669   1.37154   1.37630   1.37671   1.37930
 Alpha virt. eigenvalues --    1.38232   1.39297   1.39476   1.40002   1.40071
 Alpha virt. eigenvalues --    1.40316   1.40688   1.41270   1.41445   1.42203
 Alpha virt. eigenvalues --    1.42723   1.43087   1.43344   1.43556   1.44363
 Alpha virt. eigenvalues --    1.44777   1.45064   1.45548   1.46105   1.46308
 Alpha virt. eigenvalues --    1.46382   1.47231   1.47957   1.48342   1.49590
 Alpha virt. eigenvalues --    1.49986   1.50304   1.50716   1.50974   1.51242
 Alpha virt. eigenvalues --    1.51885   1.52033   1.52443   1.52974   1.53278
 Alpha virt. eigenvalues --    1.53645   1.53948   1.54622   1.55081   1.55226
 Alpha virt. eigenvalues --    1.55442   1.56316   1.56780   1.57155   1.57723
 Alpha virt. eigenvalues --    1.58289   1.58409   1.59534   1.59668   1.60539
 Alpha virt. eigenvalues --    1.61469   1.61793   1.61960   1.62481   1.62781
 Alpha virt. eigenvalues --    1.63517   1.64173   1.64883   1.65936   1.66892
 Alpha virt. eigenvalues --    1.67372   1.68128   1.69225   1.71008   1.71569
 Alpha virt. eigenvalues --    1.72063   1.72295   1.72489   1.72869   1.73498
 Alpha virt. eigenvalues --    1.73636   1.74368   1.75384   1.75653   1.75814
 Alpha virt. eigenvalues --    1.76548   1.77230   1.77809   1.78270   1.78727
 Alpha virt. eigenvalues --    1.79226   1.79340   1.79702   1.80022   1.80187
 Alpha virt. eigenvalues --    1.80825   1.80990   1.81708   1.81945   1.82308
 Alpha virt. eigenvalues --    1.82727   1.82958   1.83097   1.84198   1.84547
 Alpha virt. eigenvalues --    1.84690   1.85141   1.85401   1.85779   1.86005
 Alpha virt. eigenvalues --    1.86145   1.87113   1.87381   1.88330   1.88880
 Alpha virt. eigenvalues --    1.89297   1.89466   1.91239   1.91614   1.91895
 Alpha virt. eigenvalues --    1.92625   1.93031   1.93150   1.94890   1.95179
 Alpha virt. eigenvalues --    1.95644   1.96398   1.96934   1.97895   1.98569
 Alpha virt. eigenvalues --    1.98982   2.00046   2.01670   2.12697   2.15798
 Alpha virt. eigenvalues --    2.16739   2.17432   2.18438   2.19144   2.20420
 Alpha virt. eigenvalues --    2.20513   2.20590   2.20693   2.21035   2.21392
 Alpha virt. eigenvalues --    2.21568   2.22902   2.23443   2.23689   2.24430
 Alpha virt. eigenvalues --    2.24653   2.24669   2.25359   2.25946   2.26172
 Alpha virt. eigenvalues --    2.26262   2.27129   2.27267   2.27950   2.28430
 Alpha virt. eigenvalues --    2.28531   2.29192   2.29860   2.30425   2.31261
 Alpha virt. eigenvalues --    2.31848   2.31946   2.32438   2.32756   2.34097
 Alpha virt. eigenvalues --    2.35744   2.37180   2.37361   2.39479   2.40167
 Alpha virt. eigenvalues --    2.40986   2.41670   2.43024   2.43670   2.44706
 Alpha virt. eigenvalues --    2.45273   2.45531   2.46823   2.47556   2.49492
 Alpha virt. eigenvalues --    2.49806   2.50905   2.51376   2.53410   2.54122
 Alpha virt. eigenvalues --    2.59496   2.61236   2.61481   2.61720   2.63241
 Alpha virt. eigenvalues --    2.64441   2.67242   2.90345   2.93077   2.95857
 Alpha virt. eigenvalues --    2.96342   2.96475   2.96714   2.97028   2.97353
 Alpha virt. eigenvalues --    2.98343   2.98878   2.98976   2.99190   2.99466
 Alpha virt. eigenvalues --    2.99574   2.99919   2.99937   3.00401   3.00544
 Alpha virt. eigenvalues --    3.00595   3.00894   3.00978   3.01327   3.01571
 Alpha virt. eigenvalues --    3.02021   3.02253   3.02444   3.02497   3.03092
 Alpha virt. eigenvalues --    3.03341   3.03569   3.03655   3.04034   3.04307
 Alpha virt. eigenvalues --    3.04556   3.04661   3.04777   3.05134   3.05228
 Alpha virt. eigenvalues --    3.05726   3.05953   3.06260   3.06395   3.06436
 Alpha virt. eigenvalues --    3.06656   3.06795   3.07127   3.07242   3.07478
 Alpha virt. eigenvalues --    3.07563   3.08096   3.08415   3.09214   3.09340
 Alpha virt. eigenvalues --    3.09397   3.09932   3.10318   3.10710   3.11219
 Alpha virt. eigenvalues --    3.11551   3.11994   3.12181   3.13959   3.14356
 Alpha virt. eigenvalues --    3.15118   3.15123   3.17203   3.19349   3.19884
 Alpha virt. eigenvalues --    3.20580   3.20712   3.21177   3.21303   3.21640
 Alpha virt. eigenvalues --    3.21846   3.22399   3.22555   3.23014   3.23374
 Alpha virt. eigenvalues --    3.23539   3.23701   3.23940   3.24138   3.24289
 Alpha virt. eigenvalues --    3.26415   3.26858   3.27145   3.27336   3.27411
 Alpha virt. eigenvalues --    3.27868   3.28732   3.29179   3.30049   3.30596
 Alpha virt. eigenvalues --    3.30998   3.32327   3.32924   3.48396   3.51432
 Alpha virt. eigenvalues --    3.51731   3.55728   3.56108   3.56441   3.57151
 Alpha virt. eigenvalues --    3.57609   3.58215   3.58502   3.58920   3.59308
 Alpha virt. eigenvalues --    3.59923   3.60246   3.60620   3.60915   3.61471
 Alpha virt. eigenvalues --    3.61982   3.62216   3.62911   3.63344   3.63910
 Alpha virt. eigenvalues --    3.65242   3.65715   3.65855   3.66698   3.67228
 Alpha virt. eigenvalues --    3.67646   3.69675   3.70611   3.72329   3.72500
 Alpha virt. eigenvalues --    3.77962   3.80010   3.82065   3.84099   3.84209
 Alpha virt. eigenvalues --    3.85302   3.85396   3.85844   3.86231   3.86533
 Alpha virt. eigenvalues --    3.87039   3.87294   3.87953   3.88148   3.88997
 Alpha virt. eigenvalues --    3.90307   3.90807   3.91386   3.91752   3.92032
 Alpha virt. eigenvalues --    3.92754   3.93099   3.93808   3.94823   3.95252
 Alpha virt. eigenvalues --    3.95584   3.96565   3.96765   3.97354   3.98480
 Alpha virt. eigenvalues --    4.00095   4.01652
          Condensed to atoms (all electrons):
 Mulliken charges:
               1
     1  Br  -0.709540
     2  O   -0.300546
     3  H    0.154236
     4  H    0.145417
     5  O   -0.243059
     6  H    0.158051
     7  H    0.122458
     8  O   -0.284420
     9  H    0.179183
    10  H    0.148302
    11  O   -0.288817
    12  H    0.151235
    13  H    0.139223
    14  O   -0.267448
    15  H    0.157340
    16  H    0.119101
    17  O   -0.261747
    18  H    0.148485
    19  H    0.141945
    20  O   -0.260254
    21  H    0.149301
    22  H    0.113564
    23  O   -0.268284
    24  H    0.148802
    25  H    0.114560
    26  O   -0.268688
    27  H    0.137561
    28  H    0.116372
    29  O   -0.263679
    30  H    0.144821
    31  H    0.136328
    32  O   -0.245060
    33  H    0.123203
    34  H    0.136084
    35  O   -0.304179
    36  H    0.128514
    37  H    0.130959
    38  O   -0.276429
    39  H    0.134639
    40  H    0.109456
    41  O   -0.295521
    42  H    0.103525
    43  H    0.130940
    44  O   -0.251884
    45  H    0.160439
    46  H    0.146783
    47  O   -0.297113
    48  H    0.119555
    49  H    0.120056
    50  O   -0.294739
    51  H    0.111860
    52  H    0.148108
    53  O   -0.244742
    54  H    0.140398
    55  H    0.132178
    56  O   -0.266806
    57  H    0.143934
    58  H    0.148139
    59  O   -0.228148
    60  H    0.136838
    61  H    0.115334
    62  O   -0.311553
    63  H    0.100486
    64  H    0.114566
    65  O   -0.320272
    66  H    0.131298
    67  H    0.141513
    68  O   -0.266392
    69  H    0.128450
    70  H    0.121533
    71  O   -0.266296
    72  H    0.139490
    73  H    0.138821
    74  O   -0.254389
    75  H    0.136257
    76  H    0.138065
    77  O   -0.227737
    78  H    0.152242
    79  H    0.158099
    80  O   -0.315827
    81  H    0.132909
    82  H    0.140382
    83  O   -0.290391
    84  H    0.138179
    85  H    0.131182
    86  O   -0.295829
    87  H    0.127987
    88  H    0.114636
    89  O   -0.355805
    90  H    0.119863
    91  H    0.129284
    92  O   -0.273494
    93  H    0.127568
    94  H    0.108664
    95  O   -0.243113
    96  H    0.094978
    97  H    0.128526
 Sum of Mulliken charges =  -1.00000
 Mulliken charges with hydrogens summed into heavy atoms:
               1
     1  Br  -0.709540
     2  O   -0.000893
     5  O    0.037450
     8  O    0.043065
    11  O    0.001641
    14  O    0.008993
    17  O    0.028683
    20  O    0.002611
    23  O   -0.004922
    26  O   -0.014755
    29  O    0.017470
    32  O    0.014228
    35  O   -0.044706
    38  O   -0.032334
    41  O   -0.061056
    44  O    0.055337
    47  O   -0.057502
    50  O   -0.034771
    53  O    0.027835
    56  O    0.025267
    59  O    0.024024
    62  O   -0.096501
    65  O   -0.047461
    68  O   -0.016410
    71  O    0.012015
    74  O    0.019932
    77  O    0.082604
    80  O   -0.042536
    83  O   -0.021030
    86  O   -0.053207
    89  O   -0.106658
    92  O   -0.037262
    95  O   -0.019609
         Mulliken charges condensed to fragments:
      1     -0.709540
      2     -0.290460
 Electronic spatial extent (au):  <R**2>=        1530657.7168
 Charge=             -1.0000 electrons
 Dipole moment (field-independent basis, Debye):
    X=           -103.9102    Y=           -102.9152    Z=           -108.0323  Tot=            181.8237
 Quadrupole moment (field-independent basis, Debye-Ang):
   XX=          -2390.0935   YY=          -2594.6128   ZZ=          -2699.5384
   XY=          -2209.2822   XZ=          -2323.6720   YZ=          -2309.2680
 Traceless Quadrupole moment (field-independent basis, Debye-Ang):
   XX=            171.3214   YY=            -33.1979   ZZ=           -138.1235
   XY=          -2209.2822   XZ=          -2323.6720   YZ=          -2309.2680
 Octapole moment (field-independent basis, Debye-Ang**2):
  XXX=         -57492.0631  YYY=         -70613.6564  ZZZ=         -70925.4276  XYY=         -54783.7596
  XXY=         -50380.0062  XXZ=         -52989.7383  XZZ=         -57263.8504  YZZ=         -57215.2501
  YYZ=         -57073.2212  XYZ=         -49158.9442
 Hexadecapole moment (field-independent basis, Debye-Ang**3):
 XXXX=       -1427835.5595 YYYY=       -1962813.6384 ZZZZ=       -1895618.5057 XXXY=       -1201323.0454
 XXXZ=       -1262046.9743 YYYX=       -1467028.7317 YYYZ=       -1519358.3895 ZZZX=       -1482240.1354
 ZZZY=       -1488568.4404 XXYY=       -1221664.1190 XXZZ=       -1281846.9577 YYZZ=       -1370666.6862
 XXYZ=       -1109605.7238 YYXZ=       -1195280.8439 ZZXY=       -1200540.7999
 N-N= 6.054018125638D+03 E-N=-2.407361112090D+04  KE= 5.003235471290D+03
 No NMR shielding tensors so no spin-rotation constants.
 Leave Link  601 at Wed May  2 23:57:49 2018, MaxMem= 14763950080 cpu:        69.9
 (Enter /cm/shared/gaussian/g09.e01/intel64-sandybridge/g09/l701.exe)
 Compute integral first derivatives.
 ... and contract with generalized density number  0.
 Leave Link  701 at Wed May  2 23:57:51 2018, MaxMem= 14763950080 cpu:       125.0
 (Enter /cm/shared/gaussian/g09.e01/intel64-sandybridge/g09/l702.exe)
 L702 exits ... SP integral derivatives will be done elsewhere.
 Leave Link  702 at Wed May  2 23:57:51 2018, MaxMem= 14763950080 cpu:         1.7
 (Enter /cm/shared/gaussian/g09.e01/intel64-sandybridge/g09/l703.exe)
 Compute integral first derivatives, UseDBF=F ICtDFT=           0.
 Integral derivatives from FoFJK, PRISM(SPDF).
 Calling FoFJK, ICntrl=      2127 FMM=T ISym2X=0 I1Cent= 0 IOpClX= 0 NMat=1 NMatS=1 NMatT=0.
 FoFJK:  IHMeth= 1 ICntrl=    2127 DoSepK=F KAlg= 0 I1Cent=   0 FoldK=F
 IRaf=         0 NMat=   1 IRICut=       1 DoRegI=T DoRafI=F ISym2E= 0.
 FoFCou: FMM=T IPFlag=           0 FMFlag=      100000 FMFlg1=        2001
         NFxFlg=           0 DoJE=F BraDBF=F KetDBF=F FulRan=T
         wScrn=  0.000000 ICntrl=    2127 IOpCl=  0 I1Cent=           0 NGrid=           0
         NMat0=    1 NMatS0=      1 NMatT0=    0 NMatD0=    1 NMtDS0=    0 NMtDT0=    0
 Symmetry not used in FoFCou.
 FMM levels:  10  Number of levels for PrismC:   9
 Leave Link  703 at Wed May  2 23:58:07 2018, MaxMem= 14763950080 cpu:       960.9
 (Enter /cm/shared/gaussian/g09.e01/intel64-sandybridge/g09/l716.exe)
 Dipole        =-4.08814253D+01-4.04899640D+01-4.25031680D+01
 Cartesian Forces:  Max     0.038465082 RMS     0.009495538
 Leave Link  716 at Wed May  2 23:58:07 2018, MaxMem= 14763950080 cpu:         3.5
 (Enter /cm/shared/gaussian/g09.e01/intel64-sandybridge/g09/l122.exe)
 CPIOFr:  IOpCl= 0 IRwI=-1 IRwCP=  731 ICalc= -1 LCPTot=     1005244 Len1MO=     2550559 IndFrg=     1005244
 CPIOFr:  IOpCl= 0 IRwI=-1 IRwCP=  731 ICalc=  0 LCPTot=     1005244 Len1MO=     2550559 IndFrg=     3555803
 Counterpoise: doing DCBS calculation for fragment   1 NewBq=T
 Leave Link  122 at Wed May  2 23:58:07 2018, MaxMem= 14763950080 cpu:         7.0
 (Enter /cm/shared/gaussian/g09.e01/intel64-sandybridge/g09/l301.exe)
 Basis read from rwf:  (5D, 7F)
 No pseudopotential information found on rwf file.
   795 basis functions,  1651 primitive gaussians,   829 cartesian basis functions
    18 alpha electrons       18 beta electrons
       nuclear repulsion energy         0.0000000000 Hartrees.
 IExCor= 1009 DFT=T Ex+Corr=PBE1PBE ExCW=0 ScaHFX=  0.250000
 ScaDFX=  0.750000  0.750000  1.000000  1.000000 ScalE2=  1.000000  1.000000
 IRadAn=      0 IRanWt=     -1 IRanGd=            0 ICorTp=0 IEmpDi=  4
 NAtoms=   97 NActive=   97 NUniq=   97 SFac= 1.00D+00 NAtFMM=   60 NAOKFM=T Big=T
 Integral buffers will be    131072 words long.
 Raffenetti 2 integral format.
 Two-electron integral symmetry is turned off.
 No density basis found on file   718.
 Leave Link  301 at Wed May  2 23:58:07 2018, MaxMem= 14763950080 cpu:         4.6
 (Enter /cm/shared/gaussian/g09.e01/intel64-sandybridge/g09/l302.exe)
 NPDir=0 NMtPBC=     1 NCelOv=     1 NCel=       1 NClECP=     1 NCelD=      1
         NCelK=      1 NCelE2=     1 NClLst=     1 CellRange=     0.0.
 One-electron integrals computed using PRISM.
 NBasis=   795 RedAO= T EigKep=  1.54D-02  NBF=   795
 NBsUse=   795 1.00D-06 EigRej= -1.00D+00 NBFU=   795
 Precomputing XC quadrature grid using
 IXCGrd= 4 IRadAn=           0 IRanWt=          -1 IRanGd=           0 AccXCQ= 0.00D+00.
 Generated NRdTot=       0 NPtTot=           0 NUsed=           0 NTot=          32
 NSgBfM=   715   725   725   725   725 MxSgAt=    97 MxSgA2=    97.
 Leave Link  302 at Wed May  2 23:58:11 2018, MaxMem= 14763950080 cpu:       244.8
 (Enter /cm/shared/gaussian/g09.e01/intel64-sandybridge/g09/l303.exe)
 DipDrv:  MaxL=1.
 Leave Link  303 at Wed May  2 23:58:11 2018, MaxMem= 14763950080 cpu:        28.3
 (Enter /cm/shared/gaussian/g09.e01/intel64-sandybridge/g09/l401.exe)
 ExpMin= 1.22D-01 ExpMax= 6.40D+05 ExpMxC= 6.18D+03 IAcc=2 IRadAn=         4 AccDes= 0.00D+00
 Harris functional with IExCor= 1009 and IRadAn=       4 diagonalized for initial guess.
 HarFok:  IExCor= 1009 AccDes= 0.00D+00 IRadAn=         4 IDoV= 1 UseB2=F ITyADJ=14
 ICtDFT=  3500011 ScaDFX=  1.000000  1.000000  1.000000  1.000000
 FoFCou: FMM=F IPFlag=           0 FMFlag=      100000 FMFlg1=        2001
         NFxFlg=           0 DoJE=T BraDBF=F KetDBF=T FulRan=T
         wScrn=  0.000000 ICntrl=     500 IOpCl=  0 I1Cent=   200000004 NGrid=           0
         NMat0=    1 NMatS0=      1 NMatT0=    0 NMatD0=    1 NMtDS0=    0 NMtDT0=    0
 Symmetry not used in FoFCou.
 Harris En= -2574.01971418754    
 JPrj=0 DoOrth=F DoCkMO=F.
 Leave Link  401 at Wed May  2 23:58:17 2018, MaxMem= 14763950080 cpu:       330.5
 (Enter /cm/shared/gaussian/g09.e01/intel64-sandybridge/g09/l502.exe)
 Closed shell SCF:
 Using DIIS extrapolation, IDIIS=  1040.
 Two-electron integral symmetry not used.
 IVT=     2138497 IEndB=     2138497 NGot= 14763950080 MDV= 14762516294
 LenX= 14762516294 LenY= 14761828224
 Requested convergence on RMS density matrix=1.00D-08 within 128 cycles.
 Requested convergence on MAX density matrix=1.00D-06.
 Requested convergence on             energy=1.00D-06.
 No special actions if energy rises.
 Fock matrices will be formed incrementally for  20 cycles.
 Integral accuracy reduced to 1.0D-05 until final iterations.

 Cycle   1  Pass 0  IDiag  1:
 FoFJK:  IHMeth= 1 ICntrl=       0 DoSepK=F KAlg= 0 I1Cent=   0 FoldK=F
 IRaf= 820000000 NMat=   1 IRICut=       1 DoRegI=T DoRafI=F ISym2E= 0.
 FoFCou: FMM=T IPFlag=           0 FMFlag=      100000 FMFlg1=        2001
         NFxFlg=           0 DoJE=F BraDBF=F KetDBF=F FulRan=T
         wScrn=  0.000000 ICntrl=       0 IOpCl=  0 I1Cent=           0 NGrid=           0
         NMat0=    1 NMatS0=      1 NMatT0=    0 NMatD0=    1 NMtDS0=    0 NMtDT0=    0
 Symmetry not used in FoFCou.
 FMM levels:  10  Number of levels for PrismC:   9
 E= -2573.87910262905    
 DIIS: error= 9.31D-03 at cycle   1 NSaved=   1.
 NSaved= 1 IEnMin= 1 EnMin= -2573.87910262905     IErMin= 1 ErrMin= 9.31D-03
 ErrMax= 9.31D-03  0.00D+00 EMaxC= 1.00D-01 BMatC= 3.77D-02 BMatP= 3.77D-02
 IDIUse=3 WtCom= 9.07D-01 WtEn= 9.31D-02
 Coeff-Com:  0.100D+01
 Coeff-En:   0.100D+01
 Coeff:      0.100D+01
 Gap=     0.180 Goal=   None    Shift=    0.000
 GapD=    0.180 DampG=1.000 DampE=1.000 DampFc=1.0000 IDamp=-1.
 RMSDP=4.68D-04 MaxDP=6.86D-02              OVMax= 1.42D-01

 Cycle   2  Pass 0  IDiag  1:
 RMSU=  4.65D-04    CP:  9.91D-01
 E= -2573.90052334403     Delta-E=       -0.021420714974 Rises=F Damp=F
 DIIS: error= 2.35D-03 at cycle   2 NSaved=   2.
 NSaved= 2 IEnMin= 2 EnMin= -2573.90052334403     IErMin= 2 ErrMin= 2.35D-03
 ErrMax= 2.35D-03  0.00D+00 EMaxC= 1.00D-01 BMatC= 7.07D-03 BMatP= 3.77D-02
 IDIUse=3 WtCom= 9.77D-01 WtEn= 2.35D-02
 Coeff-Com:  0.221D+00 0.779D+00
 Coeff-En:   0.167D-01 0.983D+00
 Coeff:      0.216D+00 0.784D+00
 Gap=     0.195 Goal=   None    Shift=    0.000
 RMSDP=2.18D-04 MaxDP=5.23D-02 DE=-2.14D-02 OVMax= 6.64D-02

 Cycle   3  Pass 0  IDiag  1:
 RMSU=  1.46D-04    CP:  9.95D-01  6.56D-01
 E= -2573.90815379066     Delta-E=       -0.007630446637 Rises=F Damp=F
 DIIS: error= 2.89D-03 at cycle   3 NSaved=   3.
 NSaved= 3 IEnMin= 3 EnMin= -2573.90815379066     IErMin= 2 ErrMin= 2.35D-03
 ErrMax= 2.89D-03  0.00D+00 EMaxC= 1.00D-01 BMatC= 2.58D-03 BMatP= 7.07D-03
 IDIUse=3 WtCom= 9.71D-01 WtEn= 2.89D-02
 Coeff-Com:  0.591D-01 0.364D+00 0.577D+00
 Coeff-En:   0.000D+00 0.174D+00 0.826D+00
 Coeff:      0.574D-01 0.359D+00 0.584D+00
 Gap=     0.174 Goal=   None    Shift=    0.000
 RMSDP=7.52D-05 MaxDP=1.81D-02 DE=-7.63D-03 OVMax= 2.18D-02

 Cycle   4  Pass 0  IDiag  1:
 RMSU=  8.37D-06    CP:  9.94D-01  7.62D-01  6.18D-01
 E= -2573.91103593517     Delta-E=       -0.002882144511 Rises=F Damp=F
 DIIS: error= 8.34D-05 at cycle   4 NSaved=   4.
 NSaved= 4 IEnMin= 4 EnMin= -2573.91103593517     IErMin= 4 ErrMin= 8.34D-05
 ErrMax= 8.34D-05  0.00D+00 EMaxC= 1.00D-01 BMatC= 1.35D-06 BMatP= 2.58D-03
 IDIUse=1 WtCom= 1.00D+00 WtEn= 0.00D+00
 Coeff-Com: -0.979D-03 0.102D-01 0.329D-01 0.958D+00
 Coeff:     -0.979D-03 0.102D-01 0.329D-01 0.958D+00
 Gap=     0.174 Goal=   None    Shift=    0.000
 RMSDP=2.33D-06 MaxDP=5.38D-04 DE=-2.88D-03 OVMax= 5.43D-04

 Initial convergence to 1.0D-05 achieved.  Increase integral accuracy.
 Cycle   5  Pass 1  IDiag  1:
 E= -2573.91181477824     Delta-E=       -0.000778843063 Rises=F Damp=F
 DIIS: error= 7.85D-06 at cycle   1 NSaved=   1.
 NSaved= 1 IEnMin= 1 EnMin= -2573.91181477824     IErMin= 1 ErrMin= 7.85D-06
 ErrMax= 7.85D-06  0.00D+00 EMaxC= 1.00D-01 BMatC= 7.41D-08 BMatP= 7.41D-08
 IDIUse=1 WtCom= 1.00D+00 WtEn= 0.00D+00
 Coeff-Com:  0.100D+01
 Coeff:      0.100D+01
 Gap=     0.175 Goal=   None    Shift=    0.000
 RMSDP=2.33D-06 MaxDP=5.38D-04 DE=-7.79D-04 OVMax= 2.95D-04

 Cycle   6  Pass 1  IDiag  1:
 RMSU=  1.19D-06    CP:  1.00D+00
 E= -2573.91181488746     Delta-E=       -0.000000109228 Rises=F Damp=F
 DIIS: error= 8.71D-06 at cycle   2 NSaved=   2.
 NSaved= 2 IEnMin= 2 EnMin= -2573.91181488746     IErMin= 1 ErrMin= 7.85D-06
 ErrMax= 8.71D-06  0.00D+00 EMaxC= 1.00D-01 BMatC= 2.87D-08 BMatP= 7.41D-08
 IDIUse=1 WtCom= 1.00D+00 WtEn= 0.00D+00
 Coeff-Com:  0.348D+00 0.652D+00
 Coeff:      0.348D+00 0.652D+00
 Gap=     0.174 Goal=   None    Shift=    0.000
 RMSDP=3.29D-07 MaxDP=8.60D-05 DE=-1.09D-07 OVMax= 1.04D-04

 Cycle   7  Pass 1  IDiag  1:
 RMSU=  3.10D-07    CP:  1.00D+00  9.09D-01
 E= -2573.91181492047     Delta-E=       -0.000000033006 Rises=F Damp=F
 DIIS: error= 2.66D-06 at cycle   3 NSaved=   3.
 NSaved= 3 IEnMin= 3 EnMin= -2573.91181492047     IErMin= 3 ErrMin= 2.66D-06
 ErrMax= 2.66D-06  0.00D+00 EMaxC= 1.00D-01 BMatC= 2.35D-09 BMatP= 2.87D-08
 IDIUse=1 WtCom= 1.00D+00 WtEn= 0.00D+00
 Coeff-Com: -0.337D-01 0.202D+00 0.832D+00
 Coeff:     -0.337D-01 0.202D+00 0.832D+00
 Gap=     0.174 Goal=   None    Shift=    0.000
 RMSDP=8.07D-08 MaxDP=2.20D-05 DE=-3.30D-08 OVMax= 2.73D-05

 Cycle   8  Pass 1  IDiag  1:
 RMSU=  2.02D-08    CP:  1.00D+00  9.67D-01  8.78D-01
 E= -2573.91181492321     Delta-E=       -0.000000002736 Rises=F Damp=F
 DIIS: error= 1.77D-07 at cycle   4 NSaved=   4.
 NSaved= 4 IEnMin= 4 EnMin= -2573.91181492321     IErMin= 4 ErrMin= 1.77D-07
 ErrMax= 1.77D-07  0.00D+00 EMaxC= 1.00D-01 BMatC= 8.29D-12 BMatP= 2.35D-09
 IDIUse=1 WtCom= 1.00D+00 WtEn= 0.00D+00
 Coeff-Com: -0.694D-02 0.264D-01 0.817D-01 0.899D+00
 Coeff:     -0.694D-02 0.264D-01 0.817D-01 0.899D+00
 Gap=     0.174 Goal=   None    Shift=    0.000
 RMSDP=6.79D-09 MaxDP=1.30D-06 DE=-2.74D-09 OVMax= 2.49D-06

 Cycle   9  Pass 1  IDiag  1:
 RMSU=  4.73D-09    CP:  1.00D+00  9.70D-01  8.72D-01  1.08D+00
 E= -2573.91181492326     Delta-E=       -0.000000000049 Rises=F Damp=F
 DIIS: error= 8.37D-08 at cycle   5 NSaved=   5.
 NSaved= 5 IEnMin= 5 EnMin= -2573.91181492326     IErMin= 5 ErrMin= 8.37D-08
 ErrMax= 8.37D-08  0.00D+00 EMaxC= 1.00D-01 BMatC= 8.96D-13 BMatP= 8.29D-12
 IDIUse=1 WtCom= 1.00D+00 WtEn= 0.00D+00
 Coeff-Com: -0.378D-03-0.163D-02-0.157D-01 0.282D+00 0.736D+00
 Coeff:     -0.378D-03-0.163D-02-0.157D-01 0.282D+00 0.736D+00
 Gap=     0.174 Goal=   None    Shift=    0.000
 RMSDP=1.68D-09 MaxDP=2.16D-07 DE=-4.91D-11 OVMax= 6.92D-07

 SCF Done:  E(RPBE1PBE) =  -2573.91181492     A.U. after    9 cycles
            NFock=  9  Conv=0.17D-08     -V/T= 2.0013
 KE= 2.570509043991D+03 PE=-6.162950075026D+03 EE= 1.018529216112D+03
 Leave Link  502 at Wed May  2 23:59:39 2018, MaxMem= 14763950080 cpu:      5186.5
 (Enter /cm/shared/gaussian/g09.e01/intel64-sandybridge/g09/l601.exe)
 Copying SCF densities to generalized density rwf, IOpCl= 0 IROHF=0.

 **********************************************************************

            Population analysis using the SCF density.

 **********************************************************************

 Alpha  occ. eigenvalues -- -482.98863 -62.39006 -56.16261 -56.16260 -56.16258
 Alpha  occ. eigenvalues --   -8.49133  -6.29439  -6.29436  -6.29431  -2.37705
 Alpha  occ. eigenvalues --   -2.37705  -2.37700  -2.37699  -2.37697  -0.47166
 Alpha  occ. eigenvalues --   -0.03030  -0.03029  -0.03027
 Alpha virt. eigenvalues --    0.14419   0.16072   0.16361   0.17073   0.17728
 Alpha virt. eigenvalues --    0.18940   0.19373   0.19749   0.20318   0.21409
 Alpha virt. eigenvalues --    0.22153   0.22410   0.22891   0.23177   0.23464
 Alpha virt. eigenvalues --    0.24386   0.24643   0.25201   0.25638   0.26384
 Alpha virt. eigenvalues --    0.26607   0.27192   0.27492   0.28334   0.28581
 Alpha virt. eigenvalues --    0.28746   0.29828   0.30910   0.31386   0.31866
 Alpha virt. eigenvalues --    0.32604   0.32992   0.33315   0.34074   0.34550
 Alpha virt. eigenvalues --    0.35109   0.35806   0.36015   0.36592   0.36946
 Alpha virt. eigenvalues --    0.37464   0.38000   0.38226   0.38586   0.39011
 Alpha virt. eigenvalues --    0.39986   0.40219   0.40718   0.41331   0.41666
 Alpha virt. eigenvalues --    0.42287   0.42596   0.42818   0.43882   0.44264
 Alpha virt. eigenvalues --    0.45104   0.45214   0.46430   0.46900   0.48231
 Alpha virt. eigenvalues --    0.48556   0.49393   0.50324   0.51164   0.61952
 Alpha virt. eigenvalues --    0.62486   0.63103   0.63634   0.64134   0.64236
 Alpha virt. eigenvalues --    0.64592   0.65448   0.65932   0.66269   0.67025
 Alpha virt. eigenvalues --    0.67168   0.67719   0.67991   0.68412   0.69148
 Alpha virt. eigenvalues --    0.69880   0.69916   0.70954   0.71172   0.71561
 Alpha virt. eigenvalues --    0.72729   0.73094   0.73531   0.73690   0.74048
 Alpha virt. eigenvalues --    0.74166   0.74643   0.74655   0.75004   0.75266
 Alpha virt. eigenvalues --    0.75525   0.75581   0.75769   0.75952   0.76625
 Alpha virt. eigenvalues --    0.76751   0.76972   0.77081   0.77310   0.77843
 Alpha virt. eigenvalues --    0.77984   0.78531   0.78956   0.79357   0.79713
 Alpha virt. eigenvalues --    0.80122   0.80665   0.80978   0.81240   0.81508
 Alpha virt. eigenvalues --    0.82009   0.82454   0.82566   0.83450   0.83511
 Alpha virt. eigenvalues --    0.84038   0.84376   0.84657   0.84873   0.85476
 Alpha virt. eigenvalues --    0.85846   0.86499   0.86590   0.87123   0.87988
 Alpha virt. eigenvalues --    0.88602   0.88815   0.89134   0.89308   0.89712
 Alpha virt. eigenvalues --    0.89987   0.90420   0.90762   0.90971   0.91588
 Alpha virt. eigenvalues --    0.91895   0.92113   0.92524   0.92611   0.93167
 Alpha virt. eigenvalues --    0.93441   0.94023   0.94549   0.95034   0.95422
 Alpha virt. eigenvalues --    0.95454   0.96052   0.96134   0.96696   0.96974
 Alpha virt. eigenvalues --    0.97473   0.98485   0.98788   0.99037   0.99125
 Alpha virt. eigenvalues --    0.99770   1.00026   1.00457   1.01452   1.01857
 Alpha virt. eigenvalues --    1.02427   1.02725   1.02997   1.03613   1.04091
 Alpha virt. eigenvalues --    1.05050   1.05654   1.06476   1.07208   1.07422
 Alpha virt. eigenvalues --    1.07746   1.07940   1.08412   1.08578   1.09074
 Alpha virt. eigenvalues --    1.09627   1.10243   1.10755   1.11026   1.11959
 Alpha virt. eigenvalues --    1.12651   1.12978   1.13355   1.14547   1.14904
 Alpha virt. eigenvalues --    1.16421   1.16586   1.17396   1.18128   1.18967
 Alpha virt. eigenvalues --    1.21015   1.22494   1.22900   1.27019   1.28754
 Alpha virt. eigenvalues --    1.29295   1.64082   1.65140   1.65626   1.66672
 Alpha virt. eigenvalues --    1.67223   1.67645   1.67896   1.68496   1.69303
 Alpha virt. eigenvalues --    1.69870   1.70344   1.70477   1.70935   1.71296
 Alpha virt. eigenvalues --    1.71808   1.72340   1.72657   1.73033   1.73301
 Alpha virt. eigenvalues --    1.73481   1.74070   1.74331   1.74495   1.74841
 Alpha virt. eigenvalues --    1.74928   1.75396   1.75629   1.75889   1.76073
 Alpha virt. eigenvalues --    1.76525   1.76588   1.76886   1.77075   1.77170
 Alpha virt. eigenvalues --    1.77638   1.77864   1.78224   1.79089   1.79660
 Alpha virt. eigenvalues --    1.80032   1.80483   1.80658   1.80843   1.81417
 Alpha virt. eigenvalues --    1.81537   1.81895   1.82376   1.82839   1.83751
 Alpha virt. eigenvalues --    1.84010   1.84373   1.85193   1.85871   1.86355
 Alpha virt. eigenvalues --    1.86622   1.86923   1.87112   1.87832   1.88813
 Alpha virt. eigenvalues --    1.90271   1.90841   1.91696   1.92819   1.93253
 Alpha virt. eigenvalues --    1.94864   1.98016   1.98617   1.98834   1.99121
 Alpha virt. eigenvalues --    1.99716   1.99960   2.00373   2.00632   2.00721
 Alpha virt. eigenvalues --    2.00864   2.01137   2.01493   2.01769   2.01833
 Alpha virt. eigenvalues --    2.02038   2.02146   2.02508   2.02686   2.02922
 Alpha virt. eigenvalues --    2.03504   2.03599   2.03731   2.04273   2.04479
 Alpha virt. eigenvalues --    2.04622   2.04781   2.05114   2.05325   2.05650
 Alpha virt. eigenvalues --    2.05899   2.06163   2.06236   2.07125   2.07370
 Alpha virt. eigenvalues --    2.07626   2.07768   2.08196   2.08956   2.08988
 Alpha virt. eigenvalues --    2.09354   2.10030   2.10275   2.10528   2.11139
 Alpha virt. eigenvalues --    2.11606   2.11764   2.12030   2.12532   2.13636
 Alpha virt. eigenvalues --    2.13703   2.14106   2.15017   2.15231   2.15530
 Alpha virt. eigenvalues --    2.15686   2.16249   2.16666   2.17065   2.17142
 Alpha virt. eigenvalues --    2.17472   2.17817   2.18371   2.19317   2.19938
 Alpha virt. eigenvalues --    2.20209   2.20576   2.20982   2.21135   2.21334
 Alpha virt. eigenvalues --    2.22121   2.23069   2.23358   2.24417   2.25104
 Alpha virt. eigenvalues --    2.25225   2.26126   2.26853   2.27221   2.27668
 Alpha virt. eigenvalues --    2.28458   2.29643   2.29778   2.30671   2.32113
 Alpha virt. eigenvalues --    2.32722   2.33044   2.33768   2.34281   2.34813
 Alpha virt. eigenvalues --    2.35186   2.38322   2.39016   2.39391   2.40180
 Alpha virt. eigenvalues --    2.40283   2.40631   2.41523   2.41961   2.42399
 Alpha virt. eigenvalues --    2.42865   2.43076   2.43294   2.43935   2.44186
 Alpha virt. eigenvalues --    2.44564   2.44802   2.45258   2.46159   2.46696
 Alpha virt. eigenvalues --    2.46926   2.47126   2.48053   2.48484   2.49013
 Alpha virt. eigenvalues --    2.49277   2.49668   2.50069   2.51062   2.51551
 Alpha virt. eigenvalues --    2.51806   2.52622   2.53885   2.55383   2.55643
 Alpha virt. eigenvalues --    2.55985   2.57751   2.59216   2.67248   2.67383
 Alpha virt. eigenvalues --    2.67922   2.68333   2.68887   2.69372   2.69742
 Alpha virt. eigenvalues --    2.70123   2.70463   2.70908   2.71878   2.73088
 Alpha virt. eigenvalues --    2.73521   2.73752   2.74769   2.74995   2.76362
 Alpha virt. eigenvalues --    2.76980   2.77499   2.77845   2.78876   2.79790
 Alpha virt. eigenvalues --    2.80266   2.81296   2.81407   2.82544   2.82696
 Alpha virt. eigenvalues --    2.83139   2.83556   2.84414   2.84588   2.85472
 Alpha virt. eigenvalues --    2.85965   2.86314   2.87129   2.87833   2.88051
 Alpha virt. eigenvalues --    2.88622   2.88998   2.89259   2.90625   2.90931
 Alpha virt. eigenvalues --    2.91421   2.91887   2.92171   2.92593   2.93301
 Alpha virt. eigenvalues --    2.94574   2.95136   2.95956   2.96842   2.97384
 Alpha virt. eigenvalues --    2.97816   2.98123   2.98936   3.00204   3.00995
 Alpha virt. eigenvalues --    3.02210   3.03523   3.05169   3.07150   3.08932
 Alpha virt. eigenvalues --    3.10951   3.11168   3.13875   3.14494   3.15370
 Alpha virt. eigenvalues --    3.16634   3.16855   3.17315   3.20722   3.21214
 Alpha virt. eigenvalues --    3.22153   3.23299   3.24971   3.26537   3.28300
 Alpha virt. eigenvalues --    3.30123   3.33615   3.34988   3.36507   3.38958
 Alpha virt. eigenvalues --    3.41635   3.41999   3.43695   3.45358   3.46965
 Alpha virt. eigenvalues --    3.47366   3.49808   3.51616   3.53142   3.54384
 Alpha virt. eigenvalues --    3.58184   3.60516   3.62450   3.65779   4.51039
 Alpha virt. eigenvalues --    4.51295   4.51675   4.51821   4.51887   4.51905
 Alpha virt. eigenvalues --    4.52462   4.52553   4.52624   4.52794   4.53116
 Alpha virt. eigenvalues --    4.53386   4.53438   4.53481   4.53581   4.53785
 Alpha virt. eigenvalues --    4.53862   4.54108   4.54349   4.54412   4.54807
 Alpha virt. eigenvalues --    4.54926   4.55024   4.55236   4.55361   4.55655
 Alpha virt. eigenvalues --    4.55766   4.56494   4.57015   4.57882   4.59037
 Alpha virt. eigenvalues --    4.59113   4.59151   4.59263   4.59436   4.59800
 Alpha virt. eigenvalues --    4.59942   4.60286   4.60556   4.60855   4.61057
 Alpha virt. eigenvalues --    4.61318   4.61395   4.61438   4.61479   4.61605
 Alpha virt. eigenvalues --    4.61653   4.61811   4.62617   4.62792   4.62868
 Alpha virt. eigenvalues --    4.62965   4.63042   4.63134   4.63227   4.63277
 Alpha virt. eigenvalues --    4.64105   4.64150   4.64845   4.65143   4.65816
 Alpha virt. eigenvalues --    4.66406   4.66744   4.69053   4.74120   4.74816
 Alpha virt. eigenvalues --    4.75463   4.75550   4.75792   4.75982   4.76305
 Alpha virt. eigenvalues --    4.76334   4.77442   4.77803   4.78678   4.78948
 Alpha virt. eigenvalues --    4.79032   4.79515   4.79544   4.80204   4.80575
 Alpha virt. eigenvalues --    4.81335   4.81579   4.81717   4.82068   4.82409
 Alpha virt. eigenvalues --    4.82667   4.82862   4.83258   4.83731   4.84125
 Alpha virt. eigenvalues --    4.84563   4.85187   4.85754   4.85962   4.86667
 Alpha virt. eigenvalues --    4.86825   4.87006   4.87171   4.87613   4.88118
 Alpha virt. eigenvalues --    4.88239   4.88798   4.89318   4.89636   4.89719
 Alpha virt. eigenvalues --    4.89828   4.89967   4.90080   4.90760   4.91157
 Alpha virt. eigenvalues --    4.92145   4.92941   4.93248   4.94680   4.95369
 Alpha virt. eigenvalues --    4.95632   4.95938   4.96486   4.96582   4.97359
 Alpha virt. eigenvalues --    4.97823   4.98142   4.99273   5.00059   5.00944
 Alpha virt. eigenvalues --    5.01238   5.01762   5.04285   5.04727   5.07078
 Alpha virt. eigenvalues --    5.07191   5.07842   5.08197   5.09166   5.09247
 Alpha virt. eigenvalues --    5.10073   5.11031   5.11418   5.11986   5.12627
 Alpha virt. eigenvalues --    5.13858   5.14298   5.15084   5.15563   5.15921
 Alpha virt. eigenvalues --    5.17027   5.18497   5.18715   5.19896   5.20426
 Alpha virt. eigenvalues --    5.21811   5.22310   5.22329   5.24699   5.25142
 Alpha virt. eigenvalues --    5.25656   5.26193   5.28170   5.33681   5.35224
 Alpha virt. eigenvalues --    5.35757   5.36456   5.38924   5.39344   5.39975
 Alpha virt. eigenvalues --    5.40019   5.40397   5.40845   5.42941   5.43478
 Alpha virt. eigenvalues --    5.44634   5.45017   5.47654   5.49092   5.49630
[...]
   Z20       34.24184  -0.00416   0.00000  -0.00996  -0.01033  34.23151
   X21       33.41036   0.00267   0.00000   0.00774   0.00794  33.41830
   Y21       35.07332   0.00382   0.00000  -0.00780  -0.00844  35.06488
   Z21       33.71271   0.00016   0.00000   0.00591   0.00534  33.71805
   X22       30.85923  -0.01128   0.00000  -0.01118  -0.01102  30.84821
   Y22       34.33632   0.01141   0.00000   0.02552   0.02485  34.36118
   Z22       34.80876  -0.00240   0.00000  -0.02714  -0.02783  34.78093
   X23       34.24184   0.00696   0.00000  -0.01738  -0.01732  34.22451
   Y23       31.14269  -0.02047   0.00000  -0.02587  -0.02538  31.11731
   Z23       38.73939   0.00817   0.00000   0.01213   0.01247  38.75186
   X24       33.42926  -0.00410   0.00000   0.00829   0.00851  33.43777
   Y24       31.04820   0.00265   0.00000   0.01180   0.01187  31.06007
   Z24       37.13312  -0.01579   0.00000  -0.02673  -0.02645  37.10667
   X25       33.78830  -0.00111   0.00000   0.01826   0.01808  33.80639
   Y25       32.78675   0.01980   0.00000   0.02209   0.02267  32.80942
   Z25       39.36300   0.00492   0.00000  -0.00021  -0.00026  39.36274
   X26       39.60866  -0.01174   0.00000   0.00072  -0.00079  39.60787
   Y26       40.72360  -0.01471   0.00000  -0.03676  -0.03443  40.68917
   Z26       45.08887   0.00203   0.00000  -0.00356  -0.00466  45.08420
   X27       40.93147   0.00558   0.00000  -0.01113  -0.01282  40.91865
   Y27       41.68736   0.00753   0.00000   0.00663   0.00924  41.69660
   Z27       45.84476   0.00108   0.00000   0.00139   0.00020  45.84496
   X28       39.87322   0.01116   0.00000   0.04069   0.03934  39.91256
   Y28       40.93147   0.00685   0.00000   0.02091   0.02290  40.95436
   Z28       43.29363  -0.00406   0.00000   0.00022  -0.00091  43.29272
   X29       30.63246  -0.01473   0.00000  -0.02502  -0.02587  30.60659
   Y29       40.00550   0.00900   0.00000   0.01050   0.01077  40.01628
   Z29       39.28741   0.00214   0.00000   0.04604   0.04414  39.33154
   X30       31.52063   0.00613   0.00000  -0.00495  -0.00577  31.51486
   Y30       38.70159  -0.01116   0.00000  -0.01287  -0.01232  38.68927
   Z30       40.19447   0.01436   0.00000   0.04040   0.03887  40.23334
   X31       28.96950   0.00154   0.00000  -0.00266  -0.00340  28.96610
   Y31       39.30630   0.00171   0.00000  -0.00136  -0.00131  39.30499
   Z31       39.02284  -0.00605   0.00000  -0.02879  -0.03071  38.99213
   X32       33.54264  -0.00587   0.00000  -0.01659  -0.01660  33.52604
   Y32       40.23227  -0.01179   0.00000  -0.02424  -0.02544  40.20683
   Z32       31.04820  -0.02429   0.00000  -0.00344  -0.00508  31.04312
   X33       34.12845   0.00140   0.00000  -0.01282  -0.01304  34.11541
   Y33       40.61021   0.01065   0.00000   0.02702   0.02623  40.63645
   Z33       32.71116   0.02464   0.00000   0.02367   0.02200  32.73316
   X34       31.78519  -0.00259   0.00000  -0.00560  -0.00566  31.77954
   Y34       40.68580   0.00692   0.00000   0.02896   0.02761  40.71342
   Z34       31.08599   0.00788   0.00000   0.02582   0.02390  31.10989
   X35       34.29853  -0.01275   0.00000  -0.02546  -0.02697  34.27156
   Y35       40.68580  -0.01244   0.00000  -0.02193  -0.02009  40.66571
   Z35       45.18335  -0.00416   0.00000  -0.03959  -0.04125  45.14211
   X36       33.84500   0.00038   0.00000   0.00540   0.00375  33.84875
   Y36       42.40545   0.00991   0.00000   0.01005   0.01179  42.41725
   Z36       44.86210   0.00000   0.00000   0.01054   0.00847  44.87057
   X37       36.05597   0.00995   0.00000   0.01303   0.01156  36.06754
   Y37       40.59132   0.00403   0.00000   0.01336   0.01529  40.60661
   Z37       44.72982   0.00645   0.00000   0.04515   0.04369  44.77351
   X38       37.09532   0.00283   0.00000  -0.01161  -0.01241  37.08292
   Y38       32.95682   0.01833   0.00000   0.04199   0.04412  33.00094
   Z38       45.25894   0.01046   0.00000  -0.01402  -0.01378  45.24516
   X39       35.65913  -0.01532   0.00000  -0.01150  -0.01216  35.64697
   Y39       32.01196  -0.01390   0.00000  -0.02884  -0.02696  31.98500
   Z39       44.72982  -0.00129   0.00000   0.01651   0.01683  44.74664
   X40       38.26695   0.01140   0.00000   0.02037   0.01973  38.28668
   Y40       32.82454  -0.00355   0.00000  -0.01546  -0.01350  32.81104
   Z40       43.89834  -0.00983   0.00000  -0.00715  -0.00673  43.89161
   X41       39.11733   0.00464   0.00000   0.00492   0.00523  39.12256
   Y41       28.72384  -0.01838   0.00000  -0.01570  -0.01481  28.70903
   Z41       38.47482  -0.00011   0.00000  -0.00053   0.00083  38.47565
   X42       40.15668   0.00695   0.00000   0.00894   0.00909  40.16577
   Y42       30.17893   0.01182   0.00000   0.00680   0.00783  30.18675
   Z42       38.64490  -0.00033   0.00000  -0.00759  -0.00643  38.63847
   X43       37.43547  -0.00937   0.00000  -0.00303  -0.00277  37.43270
   Y43       29.38524   0.00840   0.00000   0.01482   0.01553  29.40078
   Z43       38.36144   0.00073   0.00000   0.00542   0.00646  38.36790
   X44       44.76761   0.01250   0.00000  -0.03189  -0.03157  44.73604
   Y44       34.58199   0.01075   0.00000   0.01659   0.01688  34.59887
   Z44       33.08910   0.00176   0.00000  -0.02331  -0.02260  33.06650
   X45       45.54240   0.00597   0.00000   0.00491   0.00544  45.54784
   Y45       34.01507  -0.00554   0.00000  -0.01963  -0.01958  33.99549
   Z45       31.55843  -0.00707   0.00000  -0.00712  -0.00620  31.55223
   X46       43.02906  -0.03850   0.00000  -0.07466  -0.07428  42.95478
   Y46       34.10956  -0.00469   0.00000   0.00424   0.00433  34.11389
   Z46       32.93793  -0.00215   0.00000  -0.00993  -0.00930  32.92862
   X47       39.94881   0.00010   0.00000   0.01897   0.01753  39.96634
   Y47       46.92190   0.02333   0.00000   0.02009   0.02112  46.94302
   Z47       38.72049   0.01083   0.00000   0.01483   0.01244  38.73293
   X48       40.45904   0.00741   0.00000   0.01385   0.01251  40.47155
   Y48       45.29674  -0.01983   0.00000  -0.01889  -0.01770  45.27904
   Z48       39.28741   0.00476   0.00000   0.00350   0.00152  39.28892
   X49       39.66535  -0.01072   0.00000  -0.04439  -0.04562  39.61973
   Y49       46.73293  -0.00235   0.00000   0.00096   0.00158  46.73451
   Z49       36.94415  -0.01261   0.00000   0.00292   0.00055  36.94469
   X50       37.26540   0.00187   0.00000  -0.00698  -0.00783  37.25757
   Y50       45.95814   0.02881   0.00000   0.04084   0.04061  45.99875
   Z50       33.92058   0.00052   0.00000   0.01327   0.01080  33.93139
   X51       35.84810  -0.01106   0.00000  -0.00295  -0.00378  35.84432
   Y51       45.06997  -0.01096   0.00000  -0.00787  -0.00810  45.06187
   Z51       34.58199   0.00958   0.00000   0.02559   0.02317  34.60516
   X52       38.39924   0.00798   0.00000   0.00673   0.00606  38.40529
   Y52       44.67313  -0.00800   0.00000   0.01659   0.01634  44.68947
   Z52       33.35367   0.00037   0.00000   0.02038   0.01831  33.37197
   X53       44.29518   0.00923   0.00000   0.04782   0.04779  44.34297
   Y53       39.74094   0.01416   0.00000   0.00310   0.00306  39.74400
   Z53       31.69071  -0.00437   0.00000  -0.00403  -0.00444  31.68626
   X54       44.52195  -0.00005   0.00000  -0.00281  -0.00261  44.51934
   Y54       39.11733  -0.00305   0.00000  -0.00422  -0.00460  39.11273
   Z54       30.00885  -0.00649   0.00000  -0.01570  -0.01596  29.99289
   X55       44.23849   0.00170   0.00000   0.01018   0.01018  44.24867
   Y55       38.26695  -0.01647   0.00000  -0.02650  -0.02633  38.24062
   Z55       32.73006   0.00535   0.00000  -0.00766  -0.00777  32.72229
   X56       44.42746  -0.01082   0.00000  -0.00959  -0.00942  44.41804
   Y56       31.55843  -0.01101   0.00000  -0.03027  -0.02913  31.52929
   Z56       37.24650   0.00818   0.00000   0.00973   0.01105  37.25755
   X57       44.46526   0.00459   0.00000   0.01061   0.01079  44.47604
   Y57       32.86234   0.00313   0.00000  -0.01113  -0.01025  32.85208
   Z57       35.98039  -0.00287   0.00000   0.01080   0.01184  35.99223
   X58       46.16601   0.00821   0.00000   0.00889   0.00906  46.17507
   Y58       31.16158  -0.00083   0.00000  -0.00658  -0.00521  31.15637
   Z58       37.54886  -0.00056   0.00000  -0.00103   0.00055  37.54941
   X59       32.91903   0.00462   0.00000  -0.01391  -0.01550  32.90353
   Y59       45.18335   0.00374   0.00000  -0.00586  -0.00488  45.17848
   Z59       41.68736   0.01031   0.00000   0.01665   0.01390  41.70126
   X60       32.06865  -0.00537   0.00000  -0.00569  -0.00726  32.06139
   Y60       46.33608   0.00511   0.00000  -0.00055   0.00012  46.33621
   Z60       40.59132  -0.00711   0.00000  -0.00818  -0.01126  40.58006
   X61       32.27652  -0.00444   0.00000  -0.00140  -0.00278  32.27374
   Y61       43.55819  -0.01438   0.00000  -0.02479  -0.02396  43.53423
   Z61       41.25272  -0.00485   0.00000  -0.00913  -0.01160  41.24112
   X62       37.70004  -0.00060   0.00000   0.01387   0.01379  37.71383
   Y62       43.31252   0.00398   0.00000  -0.01249  -0.01373  43.29880
   Z62       29.02619  -0.02258   0.00000  -0.04534  -0.04720  28.97900
   X63       38.41813   0.00530   0.00000   0.00885   0.00865  38.42678
   Y63       42.82119  -0.00664   0.00000  -0.00747  -0.00830  42.81290
   Z63       30.61356   0.00801   0.00000  -0.01561  -0.01729  30.59627
   X64       36.35833  -0.00351   0.00000  -0.01605  -0.01600  36.34233
   Y64       42.12200  -0.00131   0.00000   0.00261   0.00120  42.12319
   Z64       28.74273   0.00559   0.00000   0.02043   0.01868  28.76142
   X65       43.12355   0.02093   0.00000   0.03283   0.03167  43.15522
   Y65       35.22450   0.00181   0.00000   0.02834   0.03134  35.25583
   Z65       46.63844   0.01135   0.00000   0.00964   0.01004  46.64848
   X66       41.61177  -0.01508   0.00000  -0.01544  -0.01672  41.59505
   Y66       36.11267   0.00710   0.00000   0.00257   0.00549  36.11816
   Z66       47.03528  -0.00196   0.00000  -0.01278  -0.01272  47.02257
   X67       42.97237  -0.00359   0.00000  -0.00205  -0.00298  42.96939
   Y67       34.78986  -0.00416   0.00000  -0.01621  -0.01360  34.77626
   Z67       44.88100  -0.00873   0.00000   0.00488   0.00537  44.88636
   X68       32.67336   0.00111   0.00000   0.00682   0.00643  32.67980
   Y68       30.46239   0.00325   0.00000  -0.00339  -0.00203  30.46035
   Z68       43.57708   0.01760   0.00000   0.00757   0.00789  43.58497
   X69       33.22139   0.00363   0.00000  -0.00132  -0.00151  33.21988
   Y69       30.31121  -0.00575   0.00000  -0.02139  -0.02034  30.29086
   Z69       41.85743  -0.01954   0.00000  -0.02294  -0.02252  41.83491
   X70       30.99151  -0.00445   0.00000  -0.00255  -0.00287  30.98864
   Y70       29.80098  -0.00159   0.00000  -0.00021   0.00099  29.80197
   Z70       43.57708   0.00110   0.00000   0.00975   0.01004  43.58712
   X71       36.67958   0.01900   0.00000   0.02583   0.02656  36.70615
   Y71       35.24339  -0.00763   0.00000   0.00231   0.00088  35.24427
   Z71       28.47817   0.00896   0.00000   0.02711   0.02684  28.50502
   X72       35.03552  -0.01424   0.00000  -0.01053  -0.00985  35.02568
   Y72       35.96149   0.00043   0.00000  -0.03051  -0.03215  35.92934
   Z72       28.28920  -0.00672   0.00000  -0.01865  -0.01924  28.26996
   X73       37.66224  -0.00257   0.00000  -0.00600  -0.00520  37.65704
   Y73       36.01818   0.00182   0.00000   0.00473   0.00311  36.02129
   Z73       27.15536   0.00023   0.00000   0.00455   0.00422  27.15959
   X74       45.78806  -0.00173   0.00000   0.01730   0.01607  45.80413
   Y74       39.83543   0.01636   0.00000   0.01104   0.01355  39.84897
   Z74       43.16134  -0.00864   0.00000  -0.01195  -0.01223  43.14911
   X75       45.78806  -0.00599   0.00000  -0.03339  -0.03473  45.75333
   Y75       39.17402  -0.01041   0.00000  -0.02579  -0.02293  39.15110
   Z75       44.84320   0.00854   0.00000  -0.00539  -0.00554  44.83766
   X76       46.52506   0.00532   0.00000   0.00813   0.00713  46.53219
   Y76       38.53152  -0.01255   0.00000  -0.02680  -0.02443  38.50709
   Z76       42.15979  -0.00285   0.00000   0.00240   0.00247  42.16226
   X77       27.98684   0.00647   0.00000   0.00529   0.00516  27.99201
   Y77       36.35833   0.00460   0.00000   0.00360   0.00286  36.36119
   Z77       35.67803   0.00064   0.00000   0.01393   0.01252  35.69055
   X78       28.19471  -0.00213   0.00000  -0.00954  -0.00974  28.18497
   Y78       35.43236  -0.00339   0.00000  -0.00613  -0.00652  35.42584
   Z78       37.22760   0.00651   0.00000   0.01797   0.01678  37.24438
   X79       26.34278  -0.00512   0.00000   0.00114   0.00113  26.34391
   Y79       35.88590  -0.00333   0.00000  -0.00666  -0.00769  35.87821
   Z79       35.07332  -0.00118   0.00000   0.00190   0.00043  35.07375
   X80       48.88722   0.01245   0.00000   0.02104   0.02093  48.90815
   Y80       36.32054   0.00587   0.00000   0.00569   0.00691  36.32744
   Z80       35.56465   0.00550   0.00000   0.00919   0.00997  35.57461
   X81       47.29985  -0.00604   0.00000   0.00512   0.00513  47.30498
   Y81       35.75362   0.00072   0.00000   0.00757   0.00849  35.76211
   Z81       34.90324  -0.00131   0.00000   0.00854   0.00927  34.91251
   X82       48.84942  -0.00193   0.00000  -0.00281  -0.00306  48.84636
   Y82       38.13467  -0.00353   0.00000  -0.00200  -0.00085  38.13383
   Z82       35.33788  -0.00017   0.00000  -0.00011   0.00029  35.33816
   X83       32.18204  -0.00532   0.00000  -0.00217  -0.00151  32.18053
   Y83       37.60555  -0.00781   0.00000  -0.00397  -0.00615  37.59940
   Z83       26.98529  -0.01222   0.00000  -0.00878  -0.01001  26.97528
   X84       32.71116   0.00650   0.00000   0.01293   0.01335  32.72451
   Y84       38.60710   0.00908   0.00000   0.01174   0.00991  38.61702
   Z84       28.40258   0.01062   0.00000   0.00397   0.00258  28.40517
   X85       30.51908   0.00103   0.00000  -0.00104  -0.00040  30.51868
   Y85       38.22916  -0.00198   0.00000  -0.00573  -0.00815  38.22101
   Z85       26.58845  -0.00112   0.00000  -0.00543  -0.00697  26.58148
   X86       31.23717  -0.00182   0.00000  -0.00945  -0.00839  31.22878
   Y86       29.72539  -0.01090   0.00000  -0.00771  -0.00926  29.71613
   Z86       30.40569  -0.00332   0.00000   0.00483   0.00516  30.41085
   X87       31.74740   0.00435   0.00000   0.00974   0.01055  31.75795
   Y87       31.04820   0.00892   0.00000   0.00892   0.00766  31.05586
   Z87       31.53953   0.00667   0.00000   0.00443   0.00454  31.54406
   X88       29.91436  -0.00174   0.00000   0.00108   0.00217  29.91653
   Y88       30.48128   0.00379   0.00000   0.01176   0.00988  30.49116
   Z88       29.42304  -0.00211   0.00000  -0.00405  -0.00403  29.41901
   X89       36.50951  -0.00996   0.00000   0.00218   0.00015  36.50966
   Y89       48.90611   0.01127   0.00000   0.02112   0.02264  48.92875
   Z89       42.59443   0.01257   0.00000   0.00902   0.00586  42.60028
   X90       35.31898   0.00794   0.00000   0.03410   0.03223  35.35121
   Y90       47.56441  -0.00379   0.00000  -0.01135  -0.01001  47.55440
   Z90       42.25428   0.00075   0.00000   0.01761   0.01462  42.26890
   X91       37.87011   0.00780   0.00000  -0.00069  -0.00257  37.86754
   Y91       48.60376  -0.00750   0.00000  -0.01490  -0.01351  48.59025
   Z91       41.44169  -0.01393   0.00000  -0.02115  -0.02409  41.41760
   X92       42.23538  -0.00596   0.00000  -0.00436  -0.00331  42.23207
   Y92       26.90970  -0.00525   0.00000  -0.00641  -0.00638  26.90332
   Z92       32.97572   0.00379   0.00000  -0.00228  -0.00022  32.97550
   X93       42.32987  -0.00177   0.00000  -0.01143  -0.01063  42.31924
   Y93       28.44038   0.00141   0.00000  -0.00801  -0.00776  28.43262
   Z93       33.95838   0.00427   0.00000   0.01227   0.01402  33.97240
   X94       43.46370   0.00694   0.00000   0.00918   0.01034  43.47405
   Y94       27.11757   0.00401   0.00000   0.01434   0.01422  27.13179
   Z94       31.67181  -0.00555   0.00000  -0.00379  -0.00164  31.67017
   X95       28.27030  -0.00444   0.00000  -0.02349  -0.02486  28.24544
   Y95       39.32520   0.00431   0.00000   0.01290   0.01413  39.33933
   Z95       44.91879   0.00565   0.00000   0.01179   0.00979  44.92858
   X96       28.10023   0.00256   0.00000   0.01632   0.01516  28.11539
   Y96       39.15513  -0.00044   0.00000   0.00081   0.00165  39.15677
   Z96       43.12355  -0.00354   0.00000   0.00223   0.00025  43.12380
   X97       27.62780   0.00194   0.00000   0.01191   0.01063  27.63843
   Y97       37.75673  -0.00209   0.00000  -0.00876  -0.00746  37.74927
   Z97       45.58019  -0.00095   0.00000  -0.00281  -0.00455  45.57565
         Item               Value     Threshold  Converged?
 Maximum Force            0.038501     0.000450     NO 
 RMS     Force            0.009508     0.000300     NO 
 Maximum Displacement     0.074283     0.001800     NO 
 RMS     Displacement     0.017557     0.001200     NO 
 Predicted change in Energy=-2.594249D-02
 GradGradGradGradGradGradGradGradGradGradGradGradGradGradGradGradGradGrad

 Leave Link  103 at Thu May  3 00:04:28 2018, MaxMem= 14763950080 cpu:        52.4
 (Enter /cm/shared/gaussian/g09.e01/intel64-sandybridge/g09/l9999.exe)
 1\1\GINC-POPLE03\Force\RPBE1PBE\CC-pVDZ\Br1H64O32(1-)\M.PELUSO\03-May-
 2018\0\\#p PBE1PBE/cc-pvDZ force Counterpoise=2 noSymm\\forces on chlo
 ride comput - NWATER: 32\\-1,1\Br,20.,20.,20.\O,17.89,22.24,19.09\H,18
 .58,21.61,19.32\H,17.18,22.04,19.71\O,22.04,22.17,21.29\H,21.46,21.48,
 20.97\H,22.87,21.72,21.46\O,17.54,18.88,21.75\H,18.14,19.4,21.21\H,18.
 04,18.7,22.55\O,20.84,17.81,17.55\H,20.42,18.3,18.26\H,20.33,18.04,16.
 77\O,21.41,22.28,17.67\H,22.17,21.93,17.2\H,21.05,21.53,18.13\O,22.56,
 17.81,22.07\H,22.87,17.09,21.52\H,22.03,18.36,21.48\O,17.16,17.8,18.12
 \H,17.68,18.56,17.84\H,16.33,18.17,18.42\O,18.12,16.48,20.5\H,17.69,16
 .43,19.65\H,17.88,17.35,20.83\O,20.96,21.55,23.86\H,21.66,22.06,24.26\
 H,21.1,21.66,22.91\O,16.21,21.17,20.79\H,16.68,20.48,21.27\H,15.33,20.
 8,20.65\O,17.75,21.29,16.43\H,18.06,21.49,17.31\H,16.82,21.53,16.45\O,
 18.15,21.53,23.91\H,17.91,22.44,23.74\H,19.08,21.48,23.67\O,19.63,17.4
 4,23.95\H,18.87,16.94,23.67\H,20.25,17.37,23.23\O,20.7,15.2,20.36\H,21
 .25,15.97,20.45\H,19.81,15.55,20.3\O,23.69,18.3,17.51\H,24.1,18.,16.7\
 H,22.77,18.05,17.43\O,21.14,24.83,20.49\H,21.41,23.97,20.79\H,20.99,24
 .73,19.55\O,19.72,24.32,17.95\H,18.97,23.85,18.3\H,20.32,23.64,17.65\O
 ,23.44,21.03,16.77\H,23.56,20.7,15.88\H,23.41,20.25,17.32\O,23.51,16.7
 ,19.71\H,23.53,17.39,19.04\H,24.43,16.49,19.87\O,17.42,23.91,22.06\H,1
 6.97,24.52,21.48\H,17.08,23.05,21.83\O,19.95,22.92,15.36\H,20.33,22.66
 ,16.2\H,19.24,22.29,15.21\O,22.82,18.64,24.68\H,22.02,19.11,24.89\H,22
 .74,18.41,23.75\O,17.29,16.12,23.06\H,17.58,16.04,22.15\H,16.4,15.77,2
 3.06\O,19.41,18.65,15.07\H,18.54,19.03,14.97\H,19.93,19.06,14.37\O,24.
 23,21.08,22.84\H,24.23,20.73,23.73\H,24.62,20.39,22.31\O,14.81,19.24,1
 8.88\H,14.92,18.75,19.7\H,13.94,18.99,18.56\O,25.87,19.22,18.82\H,25.0
 3,18.92,18.47\H,25.85,20.18,18.7\O,17.03,19.9,14.28\H,17.31,20.43,15.0
 3\H,16.15,20.23,14.07\O,16.53,15.73,16.09\H,16.8,16.43,16.69\H,15.83,1
 6.13,15.57\O,19.32,25.88,22.54\H,18.69,25.17,22.36\H,20.04,25.72,21.93
 \O,22.35,14.24,17.45\H,22.4,15.05,17.97\H,23.,14.35,16.76\O,14.96,20.8
 1,23.77\H,14.87,20.72,22.82\H,14.62,19.98,24.12\\Version=ES64L-G09RevE
 .01\HF=-2443.210786\RMSD=2.845e-09\RMSF=9.508e-03\Dipole=-3.4378346,-2
 .9555981,-5.0553381\Quadrupole=126.1972737,-22.6403951,-103.5568785,-1
 643.2198992,-1729.656759,-1717.5144641\PG=C01 [X(Br1H64O32)]\\@


 "TIGER, TIGER BURNING BRIGHT
 IN THE FOREST OF THE NIGHT.
 WHAT IMMORTAL HAND OR EYE
 CAN FRAME THY FEARFUL SYMMETRYE?"
                     - WILLIAM BLAKE
 Job cpu time:       0 days  9 hours  7 minutes 22.9 seconds.
 File lengths (MBytes):  RWF=    482 Int=      0 D2E=      0 Chk=    160 Scr=      1
 Normal termination of Gaussian 09 at Thu May  3 00:04:28 2018.
