 Entering Gaussian System, Link 0=/cm/shared/gaussian/g09.e01/intel64-sandybridge/g09/g09
 Initial command:
 /cm/shared/gaussian/g09.e01/intel64-sandybridge/g09/l1.exe "/local/scratch/m.peluso/32_wat/Gau-49774.inp" -scrdir="/local/scratch/m.peluso/32_wat/"
 Entering Link 1 = /cm/shared/gaussian/g09.e01/intel64-sandybridge/g09/l1.exe PID=     49775.
  
 Copyright (c) 1988,1990,1992,1993,1995,1998,2003,2009,2015,
            Gaussian, Inc.  All Rights Reserved.
  
 This is part of the Gaussian(R) 09 program.  It is based on
 the Gaussian(R) 03 system (copyright 2003, Gaussian, Inc.),
 the Gaussian(R) 98 system (copyright 1998, Gaussian, Inc.),
 the Gaussian(R) 94 system (copyright 1995, Gaussian, Inc.),
 the Gaussian 92(TM) system (copyright 1992, Gaussian, Inc.),
 the Gaussian 90(TM) system (copyright 1990, Gaussian, Inc.),
 the Gaussian 88(TM) system (copyright 1988, Gaussian, Inc.),
 the Gaussian 86(TM) system (copyright 1986, Carnegie Mellon
 University), and the Gaussian 82(TM) system (copyright 1983,
 Carnegie Mellon University). Gaussian is a federally registered
 trademark of Gaussian, Inc.
  
 This software contains proprietary and confidential information,
 including trade secrets, belonging to Gaussian, Inc.
  
 This software is provided under written license and may be
 used, copied, transmitted, or stored only in accord with that
 written license.
  
 The following legend is applicable only to US Government
 contracts under FAR:
  
                    RESTRICTED RIGHTS LEGEND
  
 Use, reproduction and disclosure by the US Government is
 subject to restrictions as set forth in subparagraphs (a)
 and (c) of the Commercial Computer Software - Restricted
 Rights clause in FAR 52.227-19.
  
 Gaussian, Inc.
 340 Quinnipiac St., Bldg. 40, Wallingford CT 06492
  
  
 ---------------------------------------------------------------
 Warning -- This program may not be used in any manner that
 competes with the business of Gaussian, Inc. or will provide
 assistance to any competitor of Gaussian, Inc.  The licensee
 of this program is prohibited from giving any competitor of
 Gaussian, Inc. access to this program.  By using this program,
 the user acknowledges that Gaussian, Inc. is engaged in the
 business of creating and licensing software in the field of
 computational chemistry and represents and warrants to the
 licensee that it is not a competitor of Gaussian, Inc. and that
 it will not use this program in any manner prohibited above.
 ---------------------------------------------------------------
  

 Cite this work as:
 Gaussian 09, Revision E.01,
 M. J. Frisch, G. W. Trucks, H. B. Schlegel, G. E. Scuseria, 
 M. A. Robb, J. R. Cheeseman, G. Scalmani, V. Barone, B. Mennucci, 
 G. A. Petersson, H. Nakatsuji, M. Caricato, X. Li, H. P. Hratchian, 
 A. F. Izmaylov, J. Bloino, G. Zheng, J. L. Sonnenberg, M. Hada, 
 M. Ehara, K. Toyota, R. Fukuda, J. Hasegawa, M. Ishida, T. Nakajima, 
 Y. Honda, O. Kitao, H. Nakai, T. Vreven, J. A. Montgomery, Jr., 
 J. E. Peralta, F. Ogliaro, M. Bearpark, J. J. Heyd, E. Brothers, 
 K. N. Kudin, V. N. Staroverov, T. Keith, R. Kobayashi, J. Normand, 
 K. Raghavachari, A. Rendell, J. C. Burant, S. S. Iyengar, J. Tomasi, 
 M. Cossi, N. Rega, J. M. Millam, M. Klene, J. E. Knox, J. B. Cross, 
 V. Bakken, C. Adamo, J. Jaramillo, R. Gomperts, R. E. Stratmann, 
 O. Yazyev, A. J. Austin, R. Cammi, C. Pomelli, J. W. Ochterski, 
 R. L. Martin, K. Morokuma, V. G. Zakrzewski, G. A. Voth, 
 P. Salvador, J. J. Dannenberg, S. Dapprich, A. D. Daniels, 
 O. Farkas, J. B. Foresman, J. V. Ortiz, J. Cioslowski, 
 and D. J. Fox, Gaussian, Inc., Wallingford CT, 2013.
 
 ******************************************
 Gaussian 09:  ES64L-G09RevE.01 30-Nov-2015
                 3-May-2018 
 ******************************************
 %Mem=110GB
 %NProcShared=64
 Will use up to   64 processors via shared memory.
 %chk=snap25.chk
 ----------------------------------------------
 #p PBE1PBE/cc-pvDZ force Counterpoise=2 noSymm
 ----------------------------------------------
 1/10=7,30=1,38=1,62=2/1,3;
 2/12=2,15=1,17=6,18=5,40=1/2;
 1/10=7,30=1,38=1,53=2,62=2,63=101/22;
 3/5=16,11=2,16=1,25=1,30=1,71=1,74=-13/1,2,3;
 4//1;
 5/5=2,38=5/2;
 6/7=2,8=2,9=2,10=2,28=1/1;
 7/7=1,29=1,30=1,33=-1/1,2,3,16;
 1/10=7,30=1,53=2,62=2,63=101/22;
 3/5=7,6=11,11=2,16=1,25=1,30=1,71=1,74=-13,82=7/1,2,3;
 4//1;
 5/5=2,38=5/2;
 6/7=2,8=2,9=2,10=2,28=1/1;
 7/7=1,29=1,30=1,33=-1/1,2,3,16;
 1/10=7,30=1,53=2,62=2,63=101/22(-5);
 7/9=1,29=1,44=-1/16;
 1/10=7,30=1,62=2/3;
 99//99;
 Leave Link    1 at Thu May  3 11:09:15 2018, MaxMem= 14763950080 cpu:        10.6
 (Enter /cm/shared/gaussian/g09.e01/intel64-sandybridge/g09/l101.exe)
 --------------------------------------
 forces on chloride comput - NWATER: 32
 --------------------------------------
 Symbolic Z-matrix:
 Charge = -1 Multiplicity = 1 in supermolecule
 Charge = -1 Multiplicity = 1 in fragment      1.
 Charge =  0 Multiplicity = 1 in fragment      2.
 Br(Fragment=1)        20.       20.       20. 
 O(Fragment=2)         20.61     16.96     20.91 
 H(Fragment=2)         20.78     16.99     21.86 
 H(Fragment=2)         20.3      17.84     20.7 
 O(Fragment=2)         17.5      21.2      18.26 
 H(Fragment=2)         18.23     20.86     18.78 
 H(Fragment=2)         16.73     21.06     18.81 
 O(Fragment=2)         23.15     19.28     19.68 
 H(Fragment=2)         23.18     19.7      20.54 
 H(Fragment=2)         22.23     19.34     19.42 
 O(Fragment=2)         17.41     18.91     21.85 
 H(Fragment=2)         16.87     18.54     21.15 
 H(Fragment=2)         18.09     19.41     21.38 
 O(Fragment=2)         20.16     18.36     17.06 
 H(Fragment=2)         19.96     19.07     17.67 
 H(Fragment=2)         21.09     18.45     16.88 
 O(Fragment=2)         22.       21.3      17.47 
 H(Fragment=2)         22.62     20.57     17.4 
 H(Fragment=2)         21.5      21.11     18.26 
 O(Fragment=2)         19.8      22.75     22.17 
 H(Fragment=2)         19.04     23.26     21.88 
 H(Fragment=2)         19.68     21.89     21.78 
 O(Fragment=2)         18.38     23.61     19.13 
 H(Fragment=2)         17.47     23.88     19.28 
 H(Fragment=2)         18.31     22.71     18.8 
 O(Fragment=2)         23.12     19.95     23.19 
 H(Fragment=2)         23.48     20.65     22.65 
 H(Fragment=2)         22.2      20.2      23.32 
 O(Fragment=2)         20.88     21.37     24.22 
 H(Fragment=2)         20.6      21.95     23.51 
 H(Fragment=2)         20.08     20.89     24.46 
 O(Fragment=2)         18.68     15.61     18.94 
 H(Fragment=2)         18.02     15.2      19.49 
 H(Fragment=2)         19.29     16.02     19.56 
 O(Fragment=2)         19.06     21.37     15.99 
 H(Fragment=2)         18.25     21.33     16.49 
 H(Fragment=2)         18.77     21.43     15.08 
 O(Fragment=2)         17.23     17.47     17.51 
 H(Fragment=2)         17.98     16.97     17.85 
 H(Fragment=2)         17.63     18.17     16.99 
 O(Fragment=2)         21.2      24.86     20.86 
 H(Fragment=2)         20.64     24.13     21.12 
 H(Fragment=2)         21.16     24.88     19.91 
 O(Fragment=2)         18.98     16.6      23.21 
 H(Fragment=2)         18.5      16.71     22.39 
 H(Fragment=2)         19.11     17.5      23.53 
 O(Fragment=2)         15.8      18.32     19.71 
 H(Fragment=2)         16.24     18.11     18.89 
 H(Fragment=2)         14.94     18.64     19.46 
 O(Fragment=2)         16.05     21.38     22.41 
 H(Fragment=2)         16.34     20.48     22.31 
 H(Fragment=2)         16.85     21.88     22.58 
 O(Fragment=2)         17.49     19.36     24.65 
 H(Fragment=2)         17.37     18.43     24.82 
 H(Fragment=2)         17.54     19.43     23.7 
 O(Fragment=2)         24.98     21.29     19.15 
 H(Fragment=2)         24.39     22.03     19.32 
 H(Fragment=2)         24.39     20.55     19.03 
 O(Fragment=2)         23.23     23.34     20.24 
 H(Fragment=2)         23.69     23.87     19.58 
 H(Fragment=2)         22.52     23.9      20.54 
 O(Fragment=2)         24.41     16.72     19.46 
 H(Fragment=2)         25.09     16.59     20.11 
 H(Fragment=2)         24.05     17.59     19.66 
 O(Fragment=2)         20.3      25.01     18.11 
 H(Fragment=2)         20.4      24.61     17.25 
 H(Fragment=2)         19.6      24.51     18.53 
 O(Fragment=2)         22.61     15.14     20.38 
 H(Fragment=2)         21.75     15.55     20.44 
 H(Fragment=2)         23.18     15.83     20.04 
 O(Fragment=2)         22.43     16.61     17.37 
 H(Fragment=2)         23.29     16.79     17.76 
 H(Fragment=2)         22.11     15.85     17.85 
 O(Fragment=2)         21.59     20.56     14.63 
 H(Fragment=2)         22.3      20.56     15.27 
 H(Fragment=2)         20.8      20.67     15.16 
 O(Fragment=2)         23.4      19.13     16.41 
 H(Fragment=2)         24.34     19.24     16.51 
 H(Fragment=2)         23.29     18.49     15.72 
 O(Fragment=2)         20.91     23.58     15.97 
 H(Fragment=2)         21.64     23.22     16.47 
 H(Fragment=2)         20.32     22.84     15.83 
 O(Fragment=2)         15.05     21.29     19.36 
 H(Fragment=2)         14.52     21.79     18.73 
 H(Fragment=2)         14.55     20.5      19.52 
 O(Fragment=2)         17.85     18.48     14.87 
 H(Fragment=2)         17.56     18.88     14.05 
 H(Fragment=2)         18.65     18.96     15.1 
 O(Fragment=2)         24.69     22.22     22.36 
 H(Fragment=2)         24.29     22.93     22.87 
 H(Fragment=2)         24.41     22.38     21.46 
 O(Fragment=2)         16.43     15.57     20.5 
 H(Fragment=2)         16.07     15.04     19.79 
 H(Fragment=2)         16.13     16.46     20.31 
 O(Fragment=2)         20.91     16.66     14.86 
 H(Fragment=2)         21.49     17.29     14.44 
 H(Fragment=2)         20.88     16.94     15.78 
 
 NAtoms=     97 NQM=       97 NQMF=       0 NMMI=      0 NMMIF=      0
                NMic=       0 NMicF=      0.
                    Isotopes and Nuclear Properties:
 (Nuclear quadrupole moments (NQMom) in fm**2, nuclear magnetic moments (NMagM)
  in nuclear magnetons)

  Atom         1           2           3           4           5           6           7           8           9          10
 IAtWgt=          79          16           1           1          16           1           1          16           1           1
 AtmWgt=  78.9183361  15.9949146   1.0078250   1.0078250  15.9949146   1.0078250   1.0078250  15.9949146   1.0078250   1.0078250
 NucSpn=           3           0           1           1           0           1           1           0           1           1
 AtZEff=   0.0000000   0.0000000   0.0000000   0.0000000   0.0000000   0.0000000   0.0000000   0.0000000   0.0000000   0.0000000
 NQMom=   31.3000000   0.0000000   0.0000000   0.0000000   0.0000000   0.0000000   0.0000000   0.0000000   0.0000000   0.0000000
 NMagM=    2.1063990   0.0000000   2.7928460   2.7928460   0.0000000   2.7928460   2.7928460   0.0000000   2.7928460   2.7928460
 AtZNuc=  35.0000000   8.0000000   1.0000000   1.0000000   8.0000000   1.0000000   1.0000000   8.0000000   1.0000000   1.0000000

  Atom        11          12          13          14          15          16          17          18          19          20
 IAtWgt=          16           1           1          16           1           1          16           1           1          16
 AtmWgt=  15.9949146   1.0078250   1.0078250  15.9949146   1.0078250   1.0078250  15.9949146   1.0078250   1.0078250  15.9949146
 NucSpn=           0           1           1           0           1           1           0           1           1           0
 AtZEff=   0.0000000   0.0000000   0.0000000   0.0000000   0.0000000   0.0000000   0.0000000   0.0000000   0.0000000   0.0000000
 NQMom=    0.0000000   0.0000000   0.0000000   0.0000000   0.0000000   0.0000000   0.0000000   0.0000000   0.0000000   0.0000000
 NMagM=    0.0000000   2.7928460   2.7928460   0.0000000   2.7928460   2.7928460   0.0000000   2.7928460   2.7928460   0.0000000
 AtZNuc=   8.0000000   1.0000000   1.0000000   8.0000000   1.0000000   1.0000000   8.0000000   1.0000000   1.0000000   8.0000000

  Atom        21          22          23          24          25          26          27          28          29          30
 IAtWgt=           1           1          16           1           1          16           1           1          16           1
 AtmWgt=   1.0078250   1.0078250  15.9949146   1.0078250   1.0078250  15.9949146   1.0078250   1.0078250  15.9949146   1.0078250
 NucSpn=           1           1           0           1           1           0           1           1           0           1
 AtZEff=   0.0000000   0.0000000   0.0000000   0.0000000   0.0000000   0.0000000   0.0000000   0.0000000   0.0000000   0.0000000
 NQMom=    0.0000000   0.0000000   0.0000000   0.0000000   0.0000000   0.0000000   0.0000000   0.0000000   0.0000000   0.0000000
 NMagM=    2.7928460   2.7928460   0.0000000   2.7928460   2.7928460   0.0000000   2.7928460   2.7928460   0.0000000   2.7928460
 AtZNuc=   1.0000000   1.0000000   8.0000000   1.0000000   1.0000000   8.0000000   1.0000000   1.0000000   8.0000000   1.0000000

  Atom        31          32          33          34          35          36          37          38          39          40
 IAtWgt=           1          16           1           1          16           1           1          16           1           1
 AtmWgt=   1.0078250  15.9949146   1.0078250   1.0078250  15.9949146   1.0078250   1.0078250  15.9949146   1.0078250   1.0078250
 NucSpn=           1           0           1           1           0           1           1           0           1           1
 AtZEff=   0.0000000   0.0000000   0.0000000   0.0000000   0.0000000   0.0000000   0.0000000   0.0000000   0.0000000   0.0000000
 NQMom=    0.0000000   0.0000000   0.0000000   0.0000000   0.0000000   0.0000000   0.0000000   0.0000000   0.0000000   0.0000000
 NMagM=    2.7928460   0.0000000   2.7928460   2.7928460   0.0000000   2.7928460   2.7928460   0.0000000   2.7928460   2.7928460
 AtZNuc=   1.0000000   8.0000000   1.0000000   1.0000000   8.0000000   1.0000000   1.0000000   8.0000000   1.0000000   1.0000000

  Atom        41          42          43          44          45          46          47          48          49          50
 IAtWgt=          16           1           1          16           1           1          16           1           1          16
 AtmWgt=  15.9949146   1.0078250   1.0078250  15.9949146   1.0078250   1.0078250  15.9949146   1.0078250   1.0078250  15.9949146
 NucSpn=           0           1           1           0           1           1           0           1           1           0
 AtZEff=   0.0000000   0.0000000   0.0000000   0.0000000   0.0000000   0.0000000   0.0000000   0.0000000   0.0000000   0.0000000
 NQMom=    0.0000000   0.0000000   0.0000000   0.0000000   0.0000000   0.0000000   0.0000000   0.0000000   0.0000000   0.0000000
 NMagM=    0.0000000   2.7928460   2.7928460   0.0000000   2.7928460   2.7928460   0.0000000   2.7928460   2.7928460   0.0000000
 AtZNuc=   8.0000000   1.0000000   1.0000000   8.0000000   1.0000000   1.0000000   8.0000000   1.0000000   1.0000000   8.0000000

  Atom        51          52          53          54          55          56          57          58          59          60
 IAtWgt=           1           1          16           1           1          16           1           1          16           1
 AtmWgt=   1.0078250   1.0078250  15.9949146   1.0078250   1.0078250  15.9949146   1.0078250   1.0078250  15.9949146   1.0078250
 NucSpn=           1           1           0           1           1           0           1           1           0           1
 AtZEff=   0.0000000   0.0000000   0.0000000   0.0000000   0.0000000   0.0000000   0.0000000   0.0000000   0.0000000   0.0000000
 NQMom=    0.0000000   0.0000000   0.0000000   0.0000000   0.0000000   0.0000000   0.0000000   0.0000000   0.0000000   0.0000000
 NMagM=    2.7928460   2.7928460   0.0000000   2.7928460   2.7928460   0.0000000   2.7928460   2.7928460   0.0000000   2.7928460
 AtZNuc=   1.0000000   1.0000000   8.0000000   1.0000000   1.0000000   8.0000000   1.0000000   1.0000000   8.0000000   1.0000000

  Atom        61          62          63          64          65          66          67          68          69          70
 IAtWgt=           1          16           1           1          16           1           1          16           1           1
 AtmWgt=   1.0078250  15.9949146   1.0078250   1.0078250  15.9949146   1.0078250   1.0078250  15.9949146   1.0078250   1.0078250
 NucSpn=           1           0           1           1           0           1           1           0           1           1
 AtZEff=   0.0000000   0.0000000   0.0000000   0.0000000   0.0000000   0.0000000   0.0000000   0.0000000   0.0000000   0.0000000
 NQMom=    0.0000000   0.0000000   0.0000000   0.0000000   0.0000000   0.0000000   0.0000000   0.0000000   0.0000000   0.0000000
 NMagM=    2.7928460   0.0000000   2.7928460   2.7928460   0.0000000   2.7928460   2.7928460   0.0000000   2.7928460   2.7928460
 AtZNuc=   1.0000000   8.0000000   1.0000000   1.0000000   8.0000000   1.0000000   1.0000000   8.0000000   1.0000000   1.0000000

  Atom        71          72          73          74          75          76          77          78          79          80
 IAtWgt=          16           1           1          16           1           1          16           1           1          16
 AtmWgt=  15.9949146   1.0078250   1.0078250  15.9949146   1.0078250   1.0078250  15.9949146   1.0078250   1.0078250  15.9949146
 NucSpn=           0           1           1           0           1           1           0           1           1           0
 AtZEff=   0.0000000   0.0000000   0.0000000   0.0000000   0.0000000   0.0000000   0.0000000   0.0000000   0.0000000   0.0000000
 NQMom=    0.0000000   0.0000000   0.0000000   0.0000000   0.0000000   0.0000000   0.0000000   0.0000000   0.0000000   0.0000000
 NMagM=    0.0000000   2.7928460   2.7928460   0.0000000   2.7928460   2.7928460   0.0000000   2.7928460   2.7928460   0.0000000
 AtZNuc=   8.0000000   1.0000000   1.0000000   8.0000000   1.0000000   1.0000000   8.0000000   1.0000000   1.0000000   8.0000000

  Atom        81          82          83          84          85          86          87          88          89          90
 IAtWgt=           1           1          16           1           1          16           1           1          16           1
 AtmWgt=   1.0078250   1.0078250  15.9949146   1.0078250   1.0078250  15.9949146   1.0078250   1.0078250  15.9949146   1.0078250
 NucSpn=           1           1           0           1           1           0           1           1           0           1
 AtZEff=   0.0000000   0.0000000   0.0000000   0.0000000   0.0000000   0.0000000   0.0000000   0.0000000   0.0000000   0.0000000
 NQMom=    0.0000000   0.0000000   0.0000000   0.0000000   0.0000000   0.0000000   0.0000000   0.0000000   0.0000000   0.0000000
 NMagM=    2.7928460   2.7928460   0.0000000   2.7928460   2.7928460   0.0000000   2.7928460   2.7928460   0.0000000   2.7928460
 AtZNuc=   1.0000000   1.0000000   8.0000000   1.0000000   1.0000000   8.0000000   1.0000000   1.0000000   8.0000000   1.0000000

  Atom        91          92          93          94          95          96          97
 IAtWgt=           1          16           1           1          16           1           1
 AtmWgt=   1.0078250  15.9949146   1.0078250   1.0078250  15.9949146   1.0078250   1.0078250
 NucSpn=           1           0           1           1           0           1           1
 AtZEff=   0.0000000   0.0000000   0.0000000   0.0000000   0.0000000   0.0000000   0.0000000
 NQMom=    0.0000000   0.0000000   0.0000000   0.0000000   0.0000000   0.0000000   0.0000000
 NMagM=    2.7928460   0.0000000   2.7928460   2.7928460   0.0000000   2.7928460   2.7928460
 AtZNuc=   1.0000000   8.0000000   1.0000000   1.0000000   8.0000000   1.0000000   1.0000000
 Leave Link  101 at Thu May  3 11:09:15 2018, MaxMem= 14763950080 cpu:        15.0
 (Enter /cm/shared/gaussian/g09.e01/intel64-sandybridge/g09/l103.exe)

 GradGradGradGradGradGradGradGradGradGradGradGradGradGradGradGradGradGrad
 Berny optimization.
 Initialization pass.
 Trust Radius=3.00D-01 FncErr=1.00D-07 GrdErr=1.00D-07
 Number of steps in this run=      2 maximum allowed number of steps=      2.
 GradGradGradGradGradGradGradGradGradGradGradGradGradGradGradGradGradGrad

 Leave Link  103 at Thu May  3 11:09:15 2018, MaxMem= 14763950080 cpu:         2.3
 (Enter /cm/shared/gaussian/g09.e01/intel64-sandybridge/g09/l202.exe)
 Symmetry turned off by external request.
 Stoichiometry    BrH64O32(1-)
 Framework group  C1[X(BrH64O32)]
 Deg. of freedom   285
 Full point group                 C1      NOp   1
                          Input orientation:                          
 ---------------------------------------------------------------------
 Center     Atomic      Atomic             Coordinates (Angstroms)
 Number     Number       Type             X           Y           Z
 ---------------------------------------------------------------------
      1         35           0       20.000000   20.000000   20.000000
      2          8           0       20.610000   16.960000   20.910000
      3          1           0       20.780000   16.990000   21.860000
      4          1           0       20.300000   17.840000   20.700000
      5          8           0       17.500000   21.200000   18.260000
      6          1           0       18.230000   20.860000   18.780000
      7          1           0       16.730000   21.060000   18.810000
      8          8           0       23.150000   19.280000   19.680000
      9          1           0       23.180000   19.700000   20.540000
     10          1           0       22.230000   19.340000   19.420000
     11          8           0       17.410000   18.910000   21.850000
     12          1           0       16.870000   18.540000   21.150000
     13          1           0       18.090000   19.410000   21.380000
     14          8           0       20.160000   18.360000   17.060000
     15          1           0       19.960000   19.070000   17.670000
     16          1           0       21.090000   18.450000   16.880000
     17          8           0       22.000000   21.300000   17.470000
     18          1           0       22.620000   20.570000   17.400000
     19          1           0       21.500000   21.110000   18.260000
     20          8           0       19.800000   22.750000   22.170000
     21          1           0       19.040000   23.260000   21.880000
     22          1           0       19.680000   21.890000   21.780000
     23          8           0       18.380000   23.610000   19.130000
     24          1           0       17.470000   23.880000   19.280000
     25          1           0       18.310000   22.710000   18.800000
     26          8           0       23.120000   19.950000   23.190000
     27          1           0       23.480000   20.650000   22.650000
     28          1           0       22.200000   20.200000   23.320000
     29          8           0       20.880000   21.370000   24.220000
     30          1           0       20.600000   21.950000   23.510000
     31          1           0       20.080000   20.890000   24.460000
     32          8           0       18.680000   15.610000   18.940000
     33          1           0       18.020000   15.200000   19.490000
     34          1           0       19.290000   16.020000   19.560000
     35          8           0       19.060000   21.370000   15.990000
     36          1           0       18.250000   21.330000   16.490000
     37          1           0       18.770000   21.430000   15.080000
     38          8           0       17.230000   17.470000   17.510000
     39          1           0       17.980000   16.970000   17.850000
     40          1           0       17.630000   18.170000   16.990000
     41          8           0       21.200000   24.860000   20.860000
     42          1           0       20.640000   24.130000   21.120000
     43          1           0       21.160000   24.880000   19.910000
     44          8           0       18.980000   16.600000   23.210000
     45          1           0       18.500000   16.710000   22.390000
     46          1           0       19.110000   17.500000   23.530000
     47          8           0       15.800000   18.320000   19.710000
     48          1           0       16.240000   18.110000   18.890000
     49          1           0       14.940000   18.640000   19.460000
     50          8           0       16.050000   21.380000   22.410000
     51          1           0       16.340000   20.480000   22.310000
     52          1           0       16.850000   21.880000   22.580000
     53          8           0       17.490000   19.360000   24.650000
     54          1           0       17.370000   18.430000   24.820000
     55          1           0       17.540000   19.430000   23.700000
     56          8           0       24.980000   21.290000   19.150000
     57          1           0       24.390000   22.030000   19.320000
     58          1           0       24.390000   20.550000   19.030000
     59          8           0       23.230000   23.340000   20.240000
     60          1           0       23.690000   23.870000   19.580000
     61          1           0       22.520000   23.900000   20.540000
     62          8           0       24.410000   16.720000   19.460000
     63          1           0       25.090000   16.590000   20.110000
     64          1           0       24.050000   17.590000   19.660000
     65          8           0       20.300000   25.010000   18.110000
     66          1           0       20.400000   24.610000   17.250000
     67          1           0       19.600000   24.510000   18.530000
     68          8           0       22.610000   15.140000   20.380000
     69          1           0       21.750000   15.550000   20.440000
     70          1           0       23.180000   15.830000   20.040000
     71          8           0       22.430000   16.610000   17.370000
     72          1           0       23.290000   16.790000   17.760000
     73          1           0       22.110000   15.850000   17.850000
     74          8           0       21.590000   20.560000   14.630000
     75          1           0       22.300000   20.560000   15.270000
     76          1           0       20.800000   20.670000   15.160000
     77          8           0       23.400000   19.130000   16.410000
     78          1           0       24.340000   19.240000   16.510000
     79          1           0       23.290000   18.490000   15.720000
     80          8           0       20.910000   23.580000   15.970000
     81          1           0       21.640000   23.220000   16.470000
     82          1           0       20.320000   22.840000   15.830000
     83          8           0       15.050000   21.290000   19.360000
     84          1           0       14.520000   21.790000   18.730000
     85          1           0       14.550000   20.500000   19.520000
     86          8           0       17.850000   18.480000   14.870000
     87          1           0       17.560000   18.880000   14.050000
     88          1           0       18.650000   18.960000   15.100000
     89          8           0       24.690000   22.220000   22.360000
     90          1           0       24.290000   22.930000   22.870000
     91          1           0       24.410000   22.380000   21.460000
     92          8           0       16.430000   15.570000   20.500000
     93          1           0       16.070000   15.040000   19.790000
     94          1           0       16.130000   16.460000   20.310000
     95          8           0       20.910000   16.660000   14.860000
     96          1           0       21.490000   17.290000   14.440000
     97          1           0       20.880000   16.940000   15.780000
 ---------------------------------------------------------------------
 Rotational constants (GHZ):      0.0620096      0.0599820      0.0550322
 Leave Link  202 at Thu May  3 11:09:15 2018, MaxMem= 14763950080 cpu:         0.6
 (Enter /cm/shared/gaussian/g09.e01/intel64-sandybridge/g09/l122.exe)
 Counterpoise: doing full dimer calculation.
 Leave Link  122 at Thu May  3 11:09:15 2018, MaxMem= 14763950080 cpu:         0.1
 (Enter /cm/shared/gaussian/g09.e01/intel64-sandybridge/g09/l301.exe)
 Standard basis: CC-pVDZ (5D, 7F)
 Ernie: Thresh=  0.10000D-02 Tol=  0.10000D-05 Strict=F.
 Ernie:  87 primitive shells out of 1114 were deleted.
   795 basis functions,  1651 primitive gaussians,   829 cartesian basis functions
   178 alpha electrons      178 beta electrons
       nuclear repulsion energy      6300.9880894426 Hartrees.
 IExCor= 1009 DFT=T Ex+Corr=PBE1PBE ExCW=0 ScaHFX=  0.250000
 ScaDFX=  0.750000  0.750000  1.000000  1.000000 ScalE2=  1.000000  1.000000
 IRadAn=      0 IRanWt=     -1 IRanGd=            0 ICorTp=0 IEmpDi=  4
 NAtoms=   97 NActive=   97 NUniq=   97 SFac= 1.00D+00 NAtFMM=   60 NAOKFM=T Big=T
 Integral buffers will be    131072 words long.
 Raffenetti 2 integral format.
 Two-electron integral symmetry is turned off.
 Leave Link  301 at Thu May  3 11:09:15 2018, MaxMem= 14763950080 cpu:         6.4
 (Enter /cm/shared/gaussian/g09.e01/intel64-sandybridge/g09/l302.exe)
 NPDir=0 NMtPBC=     1 NCelOv=     1 NCel=       1 NClECP=     1 NCelD=      1
         NCelK=      1 NCelE2=     1 NClLst=     1 CellRange=     0.0.
 One-electron integrals computed using PRISM.
 NBasis=   795 RedAO= T EigKep=  1.59D-02  NBF=   795
 NBsUse=   795 1.00D-06 EigRej= -1.00D+00 NBFU=   795
 Precomputing XC quadrature grid using
 IXCGrd= 4 IRadAn=           0 IRanWt=          -1 IRanGd=           0 AccXCQ= 0.00D+00.
 Generated NRdTot=       0 NPtTot=           0 NUsed=           0 NTot=          32
 NSgBfM=   776   776   776   780   786 MxSgAt=    97 MxSgA2=    97.
 Leave Link  302 at Thu May  3 11:09:19 2018, MaxMem= 14763950080 cpu:       275.7
 (Enter /cm/shared/gaussian/g09.e01/intel64-sandybridge/g09/l303.exe)
 DipDrv:  MaxL=1.
 Leave Link  303 at Thu May  3 11:09:20 2018, MaxMem= 14763950080 cpu:        31.4
 (Enter /cm/shared/gaussian/g09.e01/intel64-sandybridge/g09/l401.exe)
 ExpMin= 1.22D-01 ExpMax= 6.40D+05 ExpMxC= 6.18D+03 IAcc=2 IRadAn=         4 AccDes= 0.00D+00
 Harris functional with IExCor= 1009 and IRadAn=       4 diagonalized for initial guess.
 HarFok:  IExCor= 1009 AccDes= 0.00D+00 IRadAn=         4 IDoV= 1 UseB2=F ITyADJ=14
 ICtDFT=  3500011 ScaDFX=  1.000000  1.000000  1.000000  1.000000
 FoFCou: FMM=F IPFlag=           0 FMFlag=      100000 FMFlg1=        2001
         NFxFlg=           0 DoJE=T BraDBF=F KetDBF=T FulRan=T
         wScrn=  0.000000 ICntrl=     500 IOpCl=  0 I1Cent=   200000004 NGrid=           0
         NMat0=    1 NMatS0=      1 NMatT0=    0 NMatD0=    1 NMtDS0=    0 NMtDT0=    0
 Symmetry not used in FoFCou.
 Harris En= -5018.42669777549    
 JPrj=0 DoOrth=F DoCkMO=F.
 Leave Link  401 at Thu May  3 11:09:25 2018, MaxMem= 14763950080 cpu:       340.8
 (Enter /cm/shared/gaussian/g09.e01/intel64-sandybridge/g09/l502.exe)
 Closed shell SCF:
 Using DIIS extrapolation, IDIIS=  1040.
 Two-electron integral symmetry not used.
 IVT=     2138497 IEndB=     2138497 NGot= 14763950080 MDV= 14762516294
 LenX= 14762516294 LenY= 14761828224
 Requested convergence on RMS density matrix=1.00D-08 within 128 cycles.
 Requested convergence on MAX density matrix=1.00D-06.
 Requested convergence on             energy=1.00D-06.
 No special actions if energy rises.
 Fock matrices will be formed incrementally for  20 cycles.
 Integral accuracy reduced to 1.0D-05 until final iterations.

 Cycle   1  Pass 0  IDiag  1:
 FoFJK:  IHMeth= 1 ICntrl=       0 DoSepK=F KAlg= 0 I1Cent=   0 FoldK=F
 IRaf= 860000000 NMat=   1 IRICut=       1 DoRegI=T DoRafI=F ISym2E= 0.
 FoFCou: FMM=T IPFlag=           0 FMFlag=      100000 FMFlg1=        2001
         NFxFlg=           0 DoJE=F BraDBF=F KetDBF=F FulRan=T
         wScrn=  0.000000 ICntrl=       0 IOpCl=  0 I1Cent=           0 NGrid=           0
         NMat0=    1 NMatS0=      1 NMatT0=    0 NMatD0=    1 NMtDS0=    0 NMtDT0=    0
 Symmetry not used in FoFCou.
 FMM levels:  10  Number of levels for PrismC:   9
 E= -5015.42861482196    
 DIIS: error= 3.49D-02 at cycle   1 NSaved=   1.
 NSaved= 1 IEnMin= 1 EnMin= -5015.42861482196     IErMin= 1 ErrMin= 3.49D-02
 ErrMax= 3.49D-02  0.00D+00 EMaxC= 1.00D-01 BMatC= 2.64D+00 BMatP= 2.64D+00
 IDIUse=3 WtCom= 6.51D-01 WtEn= 3.49D-01
 Coeff-Com:  0.100D+01
 Coeff-En:   0.100D+01
 Coeff:      0.100D+01
 Gap=     0.332 Goal=   None    Shift=    0.000
 GapD=    0.332 DampG=1.000 DampE=0.500 DampFc=0.5000 IDamp=-1.
 Damping current iteration by 5.00D-01
 RMSDP=2.86D-03 MaxDP=1.68D-01              OVMax= 1.89D-01

 Cycle   2  Pass 0  IDiag  1:
 RMSU=  1.42D-03    CP:  9.86D-01
 E= -5016.19629875726     Delta-E=       -0.767683935308 Rises=F Damp=T
 DIIS: error= 8.34D-03 at cycle   2 NSaved=   2.
 NSaved= 2 IEnMin= 2 EnMin= -5016.19629875726     IErMin= 2 ErrMin= 8.34D-03
 ErrMax= 8.34D-03  0.00D+00 EMaxC= 1.00D-01 BMatC= 8.32D-02 BMatP= 2.64D+00
 IDIUse=3 WtCom= 9.17D-01 WtEn= 8.34D-02
 Coeff-Com:  0.117D+00 0.883D+00
 Coeff-En:   0.213D+00 0.787D+00
 Coeff:      0.125D+00 0.875D+00
 Gap=     0.205 Goal=   None    Shift=    0.000
 RMSDP=3.62D-04 MaxDP=2.51D-02 DE=-7.68D-01 OVMax= 1.19D-01

 Cycle   3  Pass 0  IDiag  1:
 RMSU=  2.86D-04    CP:  9.87D-01  8.44D-01
 E= -5017.30731352967     Delta-E=       -1.111014772407 Rises=F Damp=F
 DIIS: error= 1.71D-03 at cycle   3 NSaved=   3.
 NSaved= 3 IEnMin= 3 EnMin= -5017.30731352967     IErMin= 3 ErrMin= 1.71D-03
 ErrMax= 1.71D-03  0.00D+00 EMaxC= 1.00D-01 BMatC= 2.19D-03 BMatP= 8.32D-02
 IDIUse=3 WtCom= 9.83D-01 WtEn= 1.71D-02
 Coeff-Com:  0.986D-02 0.818D-01 0.908D+00
 Coeff-En:   0.000D+00 0.000D+00 0.100D+01
 Coeff:      0.969D-02 0.804D-01 0.910D+00
 Gap=     0.219 Goal=   None    Shift=    0.000
 RMSDP=9.96D-05 MaxDP=1.38D-02 DE=-1.11D+00 OVMax= 1.24D-02

 Cycle   4  Pass 0  IDiag  1:
 RMSU=  8.79D-05    CP:  9.88D-01  8.48D-01  8.37D-01
 E= -5017.30774674023     Delta-E=       -0.000433210558 Rises=F Damp=F
 DIIS: error= 1.63D-03 at cycle   4 NSaved=   4.
 NSaved= 4 IEnMin= 4 EnMin= -5017.30774674023     IErMin= 4 ErrMin= 1.63D-03
 ErrMax= 1.63D-03  0.00D+00 EMaxC= 1.00D-01 BMatC= 2.17D-03 BMatP= 2.19D-03
 IDIUse=3 WtCom= 9.84D-01 WtEn= 1.63D-02
 Coeff-Com:  0.139D-02 0.815D-02 0.497D+00 0.493D+00
 Coeff-En:   0.000D+00 0.000D+00 0.442D+00 0.558D+00
 Coeff:      0.137D-02 0.802D-02 0.496D+00 0.494D+00
 Gap=     0.219 Goal=   None    Shift=    0.000
 RMSDP=4.32D-05 MaxDP=5.15D-03 DE=-4.33D-04 OVMax= 5.15D-03

 Cycle   5  Pass 0  IDiag  1:
 RMSU=  1.76D-05    CP:  9.88D-01  8.46D-01  8.96D-01  5.96D-01
 E= -5017.30940622756     Delta-E=       -0.001659487332 Rises=F Damp=F
 DIIS: error= 9.48D-05 at cycle   5 NSaved=   5.
 NSaved= 5 IEnMin= 5 EnMin= -5017.30940622756     IErMin= 5 ErrMin= 9.48D-05
 ErrMax= 9.48D-05  0.00D+00 EMaxC= 1.00D-01 BMatC= 2.95D-05 BMatP= 2.17D-03
 IDIUse=1 WtCom= 1.00D+00 WtEn= 0.00D+00
 Coeff-Com:  0.466D-03-0.117D-02 0.137D+00 0.164D+00 0.700D+00
 Coeff:      0.466D-03-0.117D-02 0.137D+00 0.164D+00 0.700D+00
 Gap=     0.219 Goal=   None    Shift=    0.000
 RMSDP=8.21D-06 MaxDP=1.27D-03 DE=-1.66D-03 OVMax= 1.18D-03

 Cycle   6  Pass 0  IDiag  1:
 RMSU=  5.54D-06    CP:  9.88D-01  8.45D-01  9.07D-01  5.76D-01  7.30D-01
 E= -5017.30943028323     Delta-E=       -0.000024055667 Rises=F Damp=F
 DIIS: error= 7.92D-05 at cycle   6 NSaved=   6.
 NSaved= 6 IEnMin= 6 EnMin= -5017.30943028323     IErMin= 6 ErrMin= 7.92D-05
 ErrMax= 7.92D-05  0.00D+00 EMaxC= 1.00D-01 BMatC= 4.04D-06 BMatP= 2.95D-05
 IDIUse=1 WtCom= 1.00D+00 WtEn= 0.00D+00
 Coeff-Com:  0.725D-04-0.179D-02 0.323D-01 0.405D-01 0.300D+00 0.628D+00
 Coeff:      0.725D-04-0.179D-02 0.323D-01 0.405D-01 0.300D+00 0.628D+00
 Gap=     0.219 Goal=   None    Shift=    0.000
 RMSDP=2.39D-06 MaxDP=4.49D-04 DE=-2.41D-05 OVMax= 3.55D-04

 Initial convergence to 1.0D-05 achieved.  Increase integral accuracy.
 Cycle   7  Pass 1  IDiag  1:
 E= -5017.30993668807     Delta-E=       -0.000506404840 Rises=F Damp=F
 DIIS: error= 2.93D-05 at cycle   1 NSaved=   1.
 NSaved= 1 IEnMin= 1 EnMin= -5017.30993668807     IErMin= 1 ErrMin= 2.93D-05
 ErrMax= 2.93D-05  0.00D+00 EMaxC= 1.00D-01 BMatC= 1.79D-06 BMatP= 1.79D-06
 IDIUse=1 WtCom= 1.00D+00 WtEn= 0.00D+00
 Coeff-Com:  0.100D+01
 Coeff:      0.100D+01
 Gap=     0.219 Goal=   None    Shift=    0.000
 RMSDP=2.39D-06 MaxDP=4.49D-04 DE=-5.06D-04 OVMax= 1.72D-04

 Cycle   8  Pass 1  IDiag  1:
 RMSU=  4.97D-06    CP:  1.00D+00
 E= -5017.30993846100     Delta-E=       -0.000001772936 Rises=F Damp=F
 DIIS: error= 1.31D-05 at cycle   2 NSaved=   2.
 NSaved= 2 IEnMin= 2 EnMin= -5017.30993846100     IErMin= 2 ErrMin= 1.31D-05
 ErrMax= 1.31D-05  0.00D+00 EMaxC= 1.00D-01 BMatC= 3.15D-07 BMatP= 1.79D-06
 IDIUse=1 WtCom= 1.00D+00 WtEn= 0.00D+00
 Coeff-Com:  0.206D+00 0.794D+00
 Coeff:      0.206D+00 0.794D+00
 Gap=     0.219 Goal=   None    Shift=    0.000
 RMSDP=8.39D-07 MaxDP=8.27D-05 DE=-1.77D-06 OVMax= 8.05D-05

 Cycle   9  Pass 1  IDiag  1:
 RMSU=  8.39D-07    CP:  1.00D+00  9.96D-01
 E= -5017.30993851638     Delta-E=       -0.000000055372 Rises=F Damp=F
 DIIS: error= 1.24D-05 at cycle   3 NSaved=   3.
 NSaved= 3 IEnMin= 3 EnMin= -5017.30993851638     IErMin= 3 ErrMin= 1.24D-05
 ErrMax= 1.24D-05  0.00D+00 EMaxC= 1.00D-01 BMatC= 2.43D-07 BMatP= 3.15D-07
 IDIUse=1 WtCom= 1.00D+00 WtEn= 0.00D+00
 Coeff-Com: -0.862D-02 0.468D+00 0.540D+00
 Coeff:     -0.862D-02 0.468D+00 0.540D+00
 Gap=     0.219 Goal=   None    Shift=    0.000
 RMSDP=3.93D-07 MaxDP=4.37D-05 DE=-5.54D-08 OVMax= 3.67D-05

 Cycle  10  Pass 1  IDiag  1:
 RMSU=  9.56D-08    CP:  1.00D+00  1.02D+00  5.61D-01
 E= -5017.30993868830     Delta-E=       -0.000000171920 Rises=F Damp=F
 DIIS: error= 7.11D-07 at cycle   4 NSaved=   4.
 NSaved= 4 IEnMin= 4 EnMin= -5017.30993868830     IErMin= 4 ErrMin= 7.11D-07
 ErrMax= 7.11D-07  0.00D+00 EMaxC= 1.00D-01 BMatC= 9.78D-10 BMatP= 2.43D-07
 IDIUse=1 WtCom= 1.00D+00 WtEn= 0.00D+00
 Coeff-Com: -0.516D-02 0.200D+00 0.237D+00 0.568D+00
 Coeff:     -0.516D-02 0.200D+00 0.237D+00 0.568D+00
 Gap=     0.219 Goal=   None    Shift=    0.000
 RMSDP=3.57D-08 MaxDP=4.19D-06 DE=-1.72D-07 OVMax= 4.85D-06

 Cycle  11  Pass 1  IDiag  1:
 RMSU=  3.06D-08    CP:  1.00D+00  1.02D+00  5.64D-01  8.14D-01
 E= -5017.30993868896     Delta-E=       -0.000000000666 Rises=F Damp=F
 DIIS: error= 2.65D-07 at cycle   5 NSaved=   5.
 NSaved= 5 IEnMin= 5 EnMin= -5017.30993868896     IErMin= 5 ErrMin= 2.65D-07
 ErrMax= 2.65D-07  0.00D+00 EMaxC= 1.00D-01 BMatC= 7.97D-11 BMatP= 9.78D-10
 IDIUse=1 WtCom= 1.00D+00 WtEn= 0.00D+00
 Coeff-Com: -0.124D-02 0.354D-01 0.431D-01 0.240D+00 0.682D+00
 Coeff:     -0.124D-02 0.354D-01 0.431D-01 0.240D+00 0.682D+00
 Gap=     0.219 Goal=   None    Shift=    0.000
 RMSDP=9.67D-09 MaxDP=1.09D-06 DE=-6.66D-10 OVMax= 9.31D-07

 Cycle  12  Pass 1  IDiag  1:
 RMSU=  7.82D-09    CP:  1.00D+00  1.02D+00  5.64D-01  8.63D-01  9.14D-01
 E= -5017.30993868909     Delta-E=       -0.000000000129 Rises=F Damp=F
 DIIS: error= 6.22D-08 at cycle   6 NSaved=   6.
 NSaved= 6 IEnMin= 6 EnMin= -5017.30993868909     IErMin= 6 ErrMin= 6.22D-08
 ErrMax= 6.22D-08  0.00D+00 EMaxC= 1.00D-01 BMatC= 5.81D-12 BMatP= 7.97D-11
 IDIUse=1 WtCom= 1.00D+00 WtEn= 0.00D+00
 Coeff-Com:  0.118D-03-0.891D-02-0.101D-01 0.275D-01 0.255D+00 0.736D+00
 Coeff:      0.118D-03-0.891D-02-0.101D-01 0.275D-01 0.255D+00 0.736D+00
 Gap=     0.219 Goal=   None    Shift=    0.000
 RMSDP=3.25D-09 MaxDP=4.67D-07 DE=-1.29D-10 OVMax= 4.38D-07

 SCF Done:  E(RPBE1PBE) =  -5017.30993869     A.U. after   12 cycles
            NFock= 12  Conv=0.33D-08     -V/T= 2.0028
 KE= 5.003479614079D+03 PE=-2.456744479396D+04 EE= 8.245667151750D+03
 Leave Link  502 at Thu May  3 11:12:15 2018, MaxMem= 14763950080 cpu:     10713.9
 (Enter /cm/shared/gaussian/g09.e01/intel64-sandybridge/g09/l601.exe)
 Copying SCF densities to generalized density rwf, IOpCl= 0 IROHF=0.

 **********************************************************************

            Population analysis using the SCF density.

 **********************************************************************

 Alpha  occ. eigenvalues -- -483.16923 -62.57201 -56.34455 -56.34435 -56.34420
 Alpha  occ. eigenvalues --  -19.20015 -19.18437 -19.17997 -19.17374 -19.16763
 Alpha  occ. eigenvalues --  -19.15815 -19.15813 -19.15234 -19.15192 -19.14668
 Alpha  occ. eigenvalues --  -19.14386 -19.12883 -19.12566 -19.12307 -19.12265
 Alpha  occ. eigenvalues --  -19.12156 -19.12095 -19.11983 -19.11760 -19.11521
 Alpha  occ. eigenvalues --  -19.11503 -19.11013 -19.10876 -19.10645 -19.10385
 Alpha  occ. eigenvalues --  -19.10103 -19.10028 -19.08954 -19.08525 -19.06612
 Alpha  occ. eigenvalues --  -19.06274 -19.04597  -8.67495  -6.47876  -6.47804
 Alpha  occ. eigenvalues --   -6.47727  -2.56153  -2.56141  -2.56079  -2.56021
 Alpha  occ. eigenvalues --   -2.56008  -1.02734  -1.01405  -1.00757  -1.00205
 Alpha  occ. eigenvalues --   -0.99807  -0.98969  -0.98342  -0.98061  -0.97435
 Alpha  occ. eigenvalues --   -0.97405  -0.97211  -0.96398  -0.95336  -0.95312
 Alpha  occ. eigenvalues --   -0.94853  -0.94809  -0.94656  -0.94316  -0.94221
 Alpha  occ. eigenvalues --   -0.94151  -0.94013  -0.93775  -0.93567  -0.92974
 Alpha  occ. eigenvalues --   -0.92606  -0.92503  -0.92473  -0.91580  -0.90968
 Alpha  occ. eigenvalues --   -0.89468  -0.89149  -0.87816  -0.66872  -0.53584
 Alpha  occ. eigenvalues --   -0.51487  -0.51435  -0.51170  -0.50813  -0.49444
 Alpha  occ. eigenvalues --   -0.49410  -0.48071  -0.47933  -0.47860  -0.47732
 Alpha  occ. eigenvalues --   -0.46804  -0.46378  -0.46286  -0.46002  -0.45733
 Alpha  occ. eigenvalues --   -0.45636  -0.45445  -0.45313  -0.44911  -0.44827
 Alpha  occ. eigenvalues --   -0.44655  -0.43749  -0.43579  -0.43505  -0.43469
 Alpha  occ. eigenvalues --   -0.43093  -0.42826  -0.41995  -0.41174  -0.40741
 Alpha  occ. eigenvalues --   -0.40279  -0.39424  -0.38935  -0.36849  -0.36762
 Alpha  occ. eigenvalues --   -0.36606  -0.35836  -0.35604  -0.35487  -0.34345
 Alpha  occ. eigenvalues --   -0.33949  -0.33784  -0.33440  -0.32670  -0.32179
 Alpha  occ. eigenvalues --   -0.32115  -0.32098  -0.31829  -0.31178  -0.30693
 Alpha  occ. eigenvalues --   -0.30617  -0.30426  -0.30212  -0.30094  -0.29971
 Alpha  occ. eigenvalues --   -0.29620  -0.29261  -0.29071  -0.29012  -0.28879
 Alpha  occ. eigenvalues --   -0.28389  -0.28246  -0.27570  -0.27465  -0.27076
 Alpha  occ. eigenvalues --   -0.26830  -0.26712  -0.26595  -0.26359  -0.26126
 Alpha  occ. eigenvalues --   -0.25319  -0.25150  -0.24746  -0.24578  -0.23541
 Alpha  occ. eigenvalues --   -0.23481  -0.23446  -0.23202  -0.23020  -0.22716
 Alpha  occ. eigenvalues --   -0.22656  -0.22581  -0.22465  -0.22199  -0.21832
 Alpha  occ. eigenvalues --   -0.21771  -0.21433  -0.21345  -0.21221  -0.21137
 Alpha  occ. eigenvalues --   -0.20963  -0.20925  -0.20616  -0.20173  -0.18858
 Alpha  occ. eigenvalues --   -0.18528  -0.17810  -0.16653
 Alpha virt. eigenvalues --    0.05232   0.07734   0.09130   0.10353   0.10921
 Alpha virt. eigenvalues --    0.12770   0.13099   0.13365   0.14600   0.15173
 Alpha virt. eigenvalues --    0.15617   0.16050   0.16922   0.17167   0.17575
 Alpha virt. eigenvalues --    0.18245   0.18830   0.19505   0.19953   0.20096
 Alpha virt. eigenvalues --    0.21084   0.21284   0.21637   0.22739   0.23292
 Alpha virt. eigenvalues --    0.23569   0.23879   0.24695   0.25008   0.25085
 Alpha virt. eigenvalues --    0.25148   0.25948   0.26494   0.26787   0.27521
 Alpha virt. eigenvalues --    0.27775   0.28231   0.28668   0.28995   0.29178
 Alpha virt. eigenvalues --    0.29290   0.30296   0.30472   0.30823   0.31384
 Alpha virt. eigenvalues --    0.31969   0.32200   0.32691   0.33397   0.33984
 Alpha virt. eigenvalues --    0.34261   0.34622   0.34821   0.35060   0.35362
 Alpha virt. eigenvalues --    0.35658   0.36753   0.36997   0.37580   0.38821
 Alpha virt. eigenvalues --    0.39043   0.39941   0.41893   0.42426   0.56277
 Alpha virt. eigenvalues --    0.56913   0.57882   0.58581   0.59290   0.60731
 Alpha virt. eigenvalues --    0.61385   0.61705   0.61770   0.62418   0.62621
 Alpha virt. eigenvalues --    0.63055   0.63545   0.63783   0.64054   0.64564
 Alpha virt. eigenvalues --    0.64806   0.65433   0.65693   0.65960   0.66051
 Alpha virt. eigenvalues --    0.66414   0.66618   0.66877   0.67121   0.67460
 Alpha virt. eigenvalues --    0.67923   0.68156   0.68680   0.68820   0.69336
 Alpha virt. eigenvalues --    0.69895   0.70078   0.70314   0.70481   0.70837
 Alpha virt. eigenvalues --    0.71275   0.71542   0.71854   0.72418   0.72523
 Alpha virt. eigenvalues --    0.72731   0.73127   0.73297   0.73633   0.74181
 Alpha virt. eigenvalues --    0.74693   0.74942   0.75223   0.75469   0.75898
 Alpha virt. eigenvalues --    0.76227   0.76799   0.77034   0.77254   0.77458
 Alpha virt. eigenvalues --    0.77634   0.78314   0.78785   0.79374   0.80268
 Alpha virt. eigenvalues --    0.80881   0.81233   0.81466   0.82926   0.83103
 Alpha virt. eigenvalues --    0.84005   0.84691   0.85531   0.87135   0.88048
 Alpha virt. eigenvalues --    0.90333   0.90911   0.91999   0.93447   0.94018
 Alpha virt. eigenvalues --    0.94720   0.94851   0.95651   0.95944   0.96370
 Alpha virt. eigenvalues --    0.97276   0.97441   0.97870   0.98196   0.98522
 Alpha virt. eigenvalues --    0.98849   0.98998   0.99524   1.00123   1.00454
 Alpha virt. eigenvalues --    1.00687   1.01160   1.01367   1.02129   1.02934
 Alpha virt. eigenvalues --    1.02991   1.03708   1.04009   1.04033   1.04497
 Alpha virt. eigenvalues --    1.04956   1.05292   1.05630   1.05797   1.06026
 Alpha virt. eigenvalues --    1.06306   1.06588   1.06822   1.07613   1.07875
 Alpha virt. eigenvalues --    1.08199   1.08372   1.08903   1.09363   1.09628
 Alpha virt. eigenvalues --    1.09974   1.10237   1.10686   1.10982   1.11368
 Alpha virt. eigenvalues --    1.11496   1.11666   1.12057   1.12627   1.12866
 Alpha virt. eigenvalues --    1.13039   1.13333   1.13588   1.14134   1.14363
 Alpha virt. eigenvalues --    1.14708   1.14815   1.15051   1.15571   1.16079
 Alpha virt. eigenvalues --    1.16229   1.16865   1.16941   1.17163   1.17732
 Alpha virt. eigenvalues --    1.18176   1.18283   1.18794   1.18908   1.19123
 Alpha virt. eigenvalues --    1.19561   1.19754   1.20009   1.20392   1.20881
 Alpha virt. eigenvalues --    1.21248   1.21646   1.22130   1.22398   1.22478
 Alpha virt. eigenvalues --    1.22691   1.23239   1.23453   1.24200   1.24738
 Alpha virt. eigenvalues --    1.24849   1.25368   1.25635   1.25813   1.26262
 Alpha virt. eigenvalues --    1.27000   1.27473   1.27756   1.28123   1.28369
 Alpha virt. eigenvalues --    1.28789   1.28906   1.29546   1.30001   1.30067
 Alpha virt. eigenvalues --    1.30579   1.30881   1.31103   1.31290   1.31459
 Alpha virt. eigenvalues --    1.31872   1.32272   1.32537   1.32568   1.33025
 Alpha virt. eigenvalues --    1.33433   1.33533   1.34151   1.34205   1.34502
 Alpha virt. eigenvalues --    1.34666   1.35110   1.35445   1.35951   1.36267
 Alpha virt. eigenvalues --    1.36419   1.36854   1.37417   1.37769   1.38093
 Alpha virt. eigenvalues --    1.38334   1.38574   1.38720   1.39374   1.39482
 Alpha virt. eigenvalues --    1.39938   1.40173   1.40396   1.40815   1.41172
 Alpha virt. eigenvalues --    1.41572   1.41966   1.42207   1.42362   1.43626
 Alpha virt. eigenvalues --    1.43808   1.44316   1.45199   1.45395   1.45648
 Alpha virt. eigenvalues --    1.45928   1.46522   1.46924   1.47722   1.47874
 Alpha virt. eigenvalues --    1.48186   1.48245   1.49006   1.49636   1.50026
 Alpha virt. eigenvalues --    1.50707   1.50889   1.52222   1.52593   1.53049
 Alpha virt. eigenvalues --    1.53304   1.53989   1.54147   1.54611   1.54949
 Alpha virt. eigenvalues --    1.55265   1.55690   1.56394   1.57215   1.57566
 Alpha virt. eigenvalues --    1.57643   1.58257   1.58557   1.59684   1.59967
 Alpha virt. eigenvalues --    1.60753   1.60816   1.61784   1.62133   1.62324
 Alpha virt. eigenvalues --    1.62866   1.63511   1.64258   1.64917   1.65416
 Alpha virt. eigenvalues --    1.65543   1.66396   1.66769   1.67307   1.68234
 Alpha virt. eigenvalues --    1.69786   1.69835   1.70032   1.70659   1.71776
 Alpha virt. eigenvalues --    1.71883   1.73104   1.73954   1.74335   1.75341
 Alpha virt. eigenvalues --    1.75400   1.76089   1.76680   1.77165   1.77394
 Alpha virt. eigenvalues --    1.78017   1.78506   1.79080   1.79268   1.79327
 Alpha virt. eigenvalues --    1.79985   1.80440   1.80660   1.81407   1.81613
 Alpha virt. eigenvalues --    1.81644   1.81850   1.82813   1.82961   1.83207
 Alpha virt. eigenvalues --    1.83768   1.83905   1.84325   1.85258   1.85486
 Alpha virt. eigenvalues --    1.85985   1.86864   1.87235   1.87549   1.87913
 Alpha virt. eigenvalues --    1.88327   1.88911   1.89293   1.89752   1.90445
 Alpha virt. eigenvalues --    1.90644   1.90832   1.92067   1.92988   1.93199
 Alpha virt. eigenvalues --    1.94110   1.94828   1.94924   1.96035   1.96825
 Alpha virt. eigenvalues --    1.97791   1.98406   1.98853   2.00893   2.01545
 Alpha virt. eigenvalues --    2.03341   2.04545   2.07816   2.14970   2.16320
 Alpha virt. eigenvalues --    2.19666   2.20493   2.20868   2.21612   2.21659
 Alpha virt. eigenvalues --    2.21829   2.22232   2.22508   2.22638   2.23388
 Alpha virt. eigenvalues --    2.23487   2.23761   2.23898   2.24092   2.24428
 Alpha virt. eigenvalues --    2.24829   2.25226   2.25399   2.26011   2.26147
 Alpha virt. eigenvalues --    2.26548   2.27504   2.27546   2.27916   2.28478
 Alpha virt. eigenvalues --    2.29156   2.30139   2.30705   2.30954   2.32432
 Alpha virt. eigenvalues --    2.33070   2.33986   2.34324   2.34702   2.35335
 Alpha virt. eigenvalues --    2.35680   2.35833   2.36880   2.40072   2.40193
 Alpha virt. eigenvalues --    2.40492   2.41090   2.41284   2.44720   2.45602
 Alpha virt. eigenvalues --    2.46266   2.46730   2.47007   2.47781   2.48324
 Alpha virt. eigenvalues --    2.51330   2.52664   2.53889   2.54909   2.55240
 Alpha virt. eigenvalues --    2.56542   2.58372   2.58543   2.59304   2.66507
 Alpha virt. eigenvalues --    2.75601   2.81130   2.92998   2.96064   2.96662
 Alpha virt. eigenvalues --    2.96847   2.97244   2.97400   2.97468   2.98505
 Alpha virt. eigenvalues --    2.98897   2.99232   2.99404   2.99572   2.99987
 Alpha virt. eigenvalues --    3.00523   3.00586   3.00968   3.01288   3.01549
 Alpha virt. eigenvalues --    3.01600   3.01945   3.02027   3.02379   3.02551
 Alpha virt. eigenvalues --    3.02566   3.02865   3.03000   3.03130   3.03364
 Alpha virt. eigenvalues --    3.03473   3.03531   3.03611   3.03753   3.04213
 Alpha virt. eigenvalues --    3.04515   3.04651   3.04877   3.05069   3.05428
 Alpha virt. eigenvalues --    3.05561   3.05904   3.06000   3.06299   3.06463
 Alpha virt. eigenvalues --    3.07055   3.07272   3.07793   3.08013   3.08129
 Alpha virt. eigenvalues --    3.08398   3.08471   3.08815   3.09238   3.09313
 Alpha virt. eigenvalues --    3.09942   3.10381   3.11019   3.11496   3.11954
 Alpha virt. eigenvalues --    3.12542   3.13019   3.14044   3.14131   3.15941
 Alpha virt. eigenvalues --    3.16046   3.17784   3.18401   3.18845   3.19890
 Alpha virt. eigenvalues --    3.20944   3.21917   3.22036   3.22664   3.22738
 Alpha virt. eigenvalues --    3.23332   3.23743   3.23936   3.24145   3.24353
 Alpha virt. eigenvalues --    3.24517   3.24945   3.25103   3.25133   3.25724
 Alpha virt. eigenvalues --    3.25833   3.26326   3.26393   3.26578   3.27183
 Alpha virt. eigenvalues --    3.28017   3.28093   3.29302   3.29554   3.30505
 Alpha virt. eigenvalues --    3.31385   3.31742   3.34350   3.53006   3.54854
 Alpha virt. eigenvalues --    3.56046   3.56441   3.56836   3.57629   3.57878
 Alpha virt. eigenvalues --    3.58618   3.58808   3.59274   3.59898   3.59983
 Alpha virt. eigenvalues --    3.60202   3.60887   3.61006   3.61435   3.61988
 Alpha virt. eigenvalues --    3.62704   3.63199   3.63625   3.64266   3.65038
 Alpha virt. eigenvalues --    3.65359   3.65842   3.66299   3.66750   3.67385
 Alpha virt. eigenvalues --    3.67967   3.68224   3.70762   3.71440   3.73052
 Alpha virt. eigenvalues --    3.79618   3.82634   3.84730   3.85179   3.86122
 Alpha virt. eigenvalues --    3.86256   3.87414   3.87728   3.88222   3.88375
 Alpha virt. eigenvalues --    3.88871   3.89437   3.89880   3.90248   3.90737
 Alpha virt. eigenvalues --    3.91620   3.92169   3.92521   3.93111   3.93322
 Alpha virt. eigenvalues --    3.93812   3.94442   3.94569   3.95225   3.96306
 Alpha virt. eigenvalues --    3.96469   3.97258   4.01301   4.01513   4.01853
 Alpha virt. eigenvalues --    4.02932   4.03514
          Condensed to atoms (all electrons):
 Mulliken charges:
               1
     1  Br  -0.699914
     2  O   -0.259786
     3  H    0.141840
     4  H    0.141407
     5  O   -0.283123
     6  H    0.163734
     7  H    0.125495
     8  O   -0.256714
     9  H    0.133813
    10  H    0.157784
    11  O   -0.285546
    12  H    0.155660
    13  H    0.141709
    14  O   -0.262477
    15  H    0.131387
    16  H    0.114479
    17  O   -0.285162
    18  H    0.132647
    19  H    0.131387
    20  O   -0.227972
    21  H    0.148571
    22  H    0.139225
    23  O   -0.261151
    24  H    0.137478
    25  H    0.126566
    26  O   -0.312275
    27  H    0.111969
    28  H    0.107677
    29  O   -0.274150
    30  H    0.141475
    31  H    0.127604
    32  O   -0.280428
    33  H    0.115002
    34  H    0.141469
    35  O   -0.225490
    36  H    0.132298
    37  H    0.137940
    38  O   -0.307455
    39  H    0.149088
    40  H    0.143979
    41  O   -0.268416
    42  H    0.126357
    43  H    0.117539
    44  O   -0.272787
    45  H    0.133698
    46  H    0.121134
    47  O   -0.248544
    48  H    0.132222
    49  H    0.130078
    50  O   -0.284447
    51  H    0.115344
    52  H    0.114104
    53  O   -0.284057
    54  H    0.134084
    55  H    0.121433
    56  O   -0.311858
    57  H    0.118994
    58  H    0.124909
    59  O   -0.282929
    60  H    0.141405
    61  H    0.118885
    62  O   -0.237900
    63  H    0.147735
    64  H    0.146294
    65  O   -0.341737
    66  H    0.121334
    67  H    0.133815
    68  O   -0.347952
    69  H    0.130150
    70  H    0.107541
    71  O   -0.279778
    72  H    0.123233
    73  H    0.132962
    74  O   -0.313926
    75  H    0.127046
    76  H    0.122578
    77  O   -0.212795
    78  H    0.152146
    79  H    0.140138
    80  O   -0.277681
    81  H    0.143917
    82  H    0.125260
    83  O   -0.208401
    84  H    0.150727
    85  H    0.125600
    86  O   -0.247591
    87  H    0.118568
    88  H    0.126391
    89  O   -0.266375
    90  H    0.135486
    91  H    0.131582
    92  O   -0.259628
    93  H    0.141656
    94  H    0.127293
    95  O   -0.285262
    96  H    0.107200
    97  H    0.153189
 Sum of Mulliken charges =  -1.00000
 Mulliken charges with hydrogens summed into heavy atoms:
               1
     1  Br  -0.699914
     2  O    0.023462
     5  O    0.006105
     8  O    0.034884
    11  O    0.011822
    14  O   -0.016611
    17  O   -0.021128
    20  O    0.059824
    23  O    0.002892
    26  O   -0.092629
    29  O   -0.005071
    32  O   -0.023958
    35  O    0.044747
    38  O   -0.014388
    41  O   -0.024520
    44  O   -0.017955
    47  O    0.013757
    50  O   -0.055000
    53  O   -0.028540
    56  O   -0.067955
    59  O   -0.022640
    62  O    0.056129
    65  O   -0.086589
    68  O   -0.110262
    71  O   -0.023583
    74  O   -0.064302
    77  O    0.079489
    80  O   -0.008504
    83  O    0.067927
    86  O   -0.002632
    89  O    0.000694
    92  O    0.009321
    95  O   -0.024873
         Mulliken charges condensed to fragments:
      1     -0.699914
      2     -0.300086
 Electronic spatial extent (au):  <R**2>=        1525214.1440
 Charge=             -1.0000 electrons
 Dipole moment (field-independent basis, Debye):
    X=           -108.8094    Y=            -91.7541    Z=            -99.3550  Tot=            173.5791
 Quadrupole moment (field-independent basis, Debye-Ang):
   XX=          -2655.7340   YY=          -2077.7242   ZZ=          -2355.5728
   XY=          -2101.9181   XZ=          -2235.4719   YZ=          -1909.1948
 Traceless Quadrupole moment (field-independent basis, Debye-Ang):
   XX=           -292.7236   YY=            285.2861   ZZ=              7.4375
   XY=          -2101.9181   XZ=          -2235.4719   YZ=          -1909.1948
 Octapole moment (field-independent basis, Debye-Ang**2):
  XXX=         -67641.5820  YYY=         -52808.2612  ZZZ=         -60207.7937  XYY=         -47288.5246
  XXY=         -51875.4074  XXZ=         -54301.0775  XZZ=         -52048.1252  YZZ=         -45621.7028
  YYZ=         -42946.1913  XYZ=         -43330.8381
 Hexadecapole moment (field-independent basis, Debye-Ang**3):
 XXXX=       -1759849.3720 YYYY=       -1418110.2073 ZZZZ=       -1585146.0920 XXXY=       -1333910.1736
 XXXZ=       -1378663.3952 YYYX=       -1181984.5534 YYYZ=       -1077075.5523 ZZZX=       -1303540.6336
 ZZZY=       -1174430.4030 XXYY=       -1153603.7592 XXZZ=       -1238170.1227 YYZZ=       -1008154.9754
 XXYZ=       -1062415.8036 YYXZ=        -968394.1867 ZZXY=       -1014014.1697
 N-N= 6.300988089443D+03 E-N=-2.456744483582D+04  KE= 5.003479614079D+03
 No NMR shielding tensors so no spin-rotation constants.
 Leave Link  601 at Thu May  3 11:12:16 2018, MaxMem= 14763950080 cpu:        72.0
 (Enter /cm/shared/gaussian/g09.e01/intel64-sandybridge/g09/l701.exe)
 Compute integral first derivatives.
 ... and contract with generalized density number  0.
 Leave Link  701 at Thu May  3 11:12:19 2018, MaxMem= 14763950080 cpu:       157.6
 (Enter /cm/shared/gaussian/g09.e01/intel64-sandybridge/g09/l702.exe)
 L702 exits ... SP integral derivatives will be done elsewhere.
 Leave Link  702 at Thu May  3 11:12:19 2018, MaxMem= 14763950080 cpu:         2.6
 (Enter /cm/shared/gaussian/g09.e01/intel64-sandybridge/g09/l703.exe)
 Compute integral first derivatives, UseDBF=F ICtDFT=           0.
 Integral derivatives from FoFJK, PRISM(SPDF).
 Calling FoFJK, ICntrl=      2127 FMM=T ISym2X=0 I1Cent= 0 IOpClX= 0 NMat=1 NMatS=1 NMatT=0.
 FoFJK:  IHMeth= 1 ICntrl=    2127 DoSepK=F KAlg= 0 I1Cent=   0 FoldK=F
 IRaf=         0 NMat=   1 IRICut=       1 DoRegI=T DoRafI=F ISym2E= 0.
 FoFCou: FMM=T IPFlag=           0 FMFlag=      100000 FMFlg1=        2001
         NFxFlg=           0 DoJE=F BraDBF=F KetDBF=F FulRan=T
         wScrn=  0.000000 ICntrl=    2127 IOpCl=  0 I1Cent=           0 NGrid=           0
         NMat0=    1 NMatS0=      1 NMatT0=    0 NMatD0=    1 NMtDS0=    0 NMtDT0=    0
 Symmetry not used in FoFCou.
 FMM levels:  10  Number of levels for PrismC:   9
 Leave Link  703 at Thu May  3 11:12:40 2018, MaxMem= 14763950080 cpu:      1314.0
 (Enter /cm/shared/gaussian/g09.e01/intel64-sandybridge/g09/l716.exe)
 Dipole        =-4.28089023D+01-3.60988471D+01-3.90892664D+01
 Cartesian Forces:  Max     0.037085942 RMS     0.010985773
 Leave Link  716 at Thu May  3 11:12:40 2018, MaxMem= 14763950080 cpu:         4.6
 (Enter /cm/shared/gaussian/g09.e01/intel64-sandybridge/g09/l122.exe)
 CPIOFr:  IOpCl= 0 IRwI=-1 IRwCP=  731 ICalc= -1 LCPTot=     1005244 Len1MO=     2550559 IndFrg=     1005244
 CPIOFr:  IOpCl= 0 IRwI=-1 IRwCP=  731 ICalc=  0 LCPTot=     1005244 Len1MO=     2550559 IndFrg=     3555803
 Counterpoise: doing DCBS calculation for fragment   1 NewBq=T
 Leave Link  122 at Thu May  3 11:12:40 2018, MaxMem= 14763950080 cpu:         9.3
 (Enter /cm/shared/gaussian/g09.e01/intel64-sandybridge/g09/l301.exe)
 Basis read from rwf:  (5D, 7F)
 No pseudopotential information found on rwf file.
   795 basis functions,  1651 primitive gaussians,   829 cartesian basis functions
    18 alpha electrons       18 beta electrons
       nuclear repulsion energy         0.0000000000 Hartrees.
 IExCor= 1009 DFT=T Ex+Corr=PBE1PBE ExCW=0 ScaHFX=  0.250000
 ScaDFX=  0.750000  0.750000  1.000000  1.000000 ScalE2=  1.000000  1.000000
 IRadAn=      0 IRanWt=     -1 IRanGd=            0 ICorTp=0 IEmpDi=  4
 NAtoms=   97 NActive=   97 NUniq=   97 SFac= 1.00D+00 NAtFMM=   60 NAOKFM=T Big=T
 Integral buffers will be    131072 words long.
 Raffenetti 2 integral format.
 Two-electron integral symmetry is turned off.
 No density basis found on file   718.
 Leave Link  301 at Thu May  3 11:12:40 2018, MaxMem= 14763950080 cpu:         7.0
 (Enter /cm/shared/gaussian/g09.e01/intel64-sandybridge/g09/l302.exe)
 NPDir=0 NMtPBC=     1 NCelOv=     1 NCel=       1 NClECP=     1 NCelD=      1
         NCelK=      1 NCelE2=     1 NClLst=     1 CellRange=     0.0.
 One-electron integrals computed using PRISM.
 NBasis=   795 RedAO= T EigKep=  1.59D-02  NBF=   795
 NBsUse=   795 1.00D-06 EigRej= -1.00D+00 NBFU=   795
 Precomputing XC quadrature grid using
 IXCGrd= 4 IRadAn=           0 IRanWt=          -1 IRanGd=           0 AccXCQ= 0.00D+00.
 Generated NRdTot=       0 NPtTot=           0 NUsed=           0 NTot=          32
 NSgBfM=   776   776   776   780   786 MxSgAt=    97 MxSgA2=    97.
 Leave Link  302 at Thu May  3 11:12:45 2018, MaxMem= 14763950080 cpu:       274.5
 (Enter /cm/shared/gaussian/g09.e01/intel64-sandybridge/g09/l303.exe)
 DipDrv:  MaxL=1.
 Leave Link  303 at Thu May  3 11:12:46 2018, MaxMem= 14763950080 cpu:       114.1
 (Enter /cm/shared/gaussian/g09.e01/intel64-sandybridge/g09/l401.exe)
 ExpMin= 1.22D-01 ExpMax= 6.40D+05 ExpMxC= 6.18D+03 IAcc=2 IRadAn=         4 AccDes= 0.00D+00
 Harris functional with IExCor= 1009 and IRadAn=       4 diagonalized for initial guess.
 HarFok:  IExCor= 1009 AccDes= 0.00D+00 IRadAn=         4 IDoV= 1 UseB2=F ITyADJ=14
 ICtDFT=  3500011 ScaDFX=  1.000000  1.000000  1.000000  1.000000
 FoFCou: FMM=F IPFlag=           0 FMFlag=      100000 FMFlg1=        2001
         NFxFlg=           0 DoJE=T BraDBF=F KetDBF=T FulRan=T
         wScrn=  0.000000 ICntrl=     500 IOpCl=  0 I1Cent=   200000004 NGrid=           0
         NMat0=    1 NMatS0=      1 NMatT0=    0 NMatD0=    1 NMtDS0=    0 NMtDT0=    0
 Symmetry not used in FoFCou.
 Harris En= -2574.01979891182    
 JPrj=0 DoOrth=F DoCkMO=F.
 Leave Link  401 at Thu May  3 11:12:51 2018, MaxMem= 14763950080 cpu:       295.8
 (Enter /cm/shared/gaussian/g09.e01/intel64-sandybridge/g09/l502.exe)
 Closed shell SCF:
 Using DIIS extrapolation, IDIIS=  1040.
 Two-electron integral symmetry not used.
 IVT=     2138497 IEndB=     2138497 NGot= 14763950080 MDV= 14762516294
 LenX= 14762516294 LenY= 14761828224
 Requested convergence on RMS density matrix=1.00D-08 within 128 cycles.
 Requested convergence on MAX density matrix=1.00D-06.
 Requested convergence on             energy=1.00D-06.
 No special actions if energy rises.
 Fock matrices will be formed incrementally for  20 cycles.
 Integral accuracy reduced to 1.0D-05 until final iterations.

 Cycle   1  Pass 0  IDiag  1:
 FoFJK:  IHMeth= 1 ICntrl=       0 DoSepK=F KAlg= 0 I1Cent=   0 FoldK=F
 IRaf= 860000000 NMat=   1 IRICut=       1 DoRegI=T DoRafI=F ISym2E= 0.
 FoFCou: FMM=T IPFlag=           0 FMFlag=      100000 FMFlg1=        2001
         NFxFlg=           0 DoJE=F BraDBF=F KetDBF=F FulRan=T
         wScrn=  0.000000 ICntrl=       0 IOpCl=  0 I1Cent=           0 NGrid=           0
         NMat0=    1 NMatS0=      1 NMatT0=    0 NMatD0=    1 NMtDS0=    0 NMtDT0=    0
 Symmetry not used in FoFCou.
 FMM levels:  10  Number of levels for PrismC:   9
 E= -2573.87871383586    
 DIIS: error= 9.65D-03 at cycle   1 NSaved=   1.
 NSaved= 1 IEnMin= 1 EnMin= -2573.87871383586     IErMin= 1 ErrMin= 9.65D-03
 ErrMax= 9.65D-03  0.00D+00 EMaxC= 1.00D-01 BMatC= 3.83D-02 BMatP= 3.83D-02
 IDIUse=3 WtCom= 9.03D-01 WtEn= 9.65D-02
 Coeff-Com:  0.100D+01
 Coeff-En:   0.100D+01
 Coeff:      0.100D+01
 Gap=     0.178 Goal=   None    Shift=    0.000
 GapD=    0.178 DampG=1.000 DampE=1.000 DampFc=1.0000 IDamp=-1.
 RMSDP=4.83D-04 MaxDP=6.53D-02              OVMax= 1.51D-01

 Cycle   2  Pass 0  IDiag  1:
 RMSU=  4.79D-04    CP:  9.90D-01
 E= -2573.90027876233     Delta-E=       -0.021564926470 Rises=F Damp=F
 DIIS: error= 2.32D-03 at cycle   2 NSaved=   2.
 NSaved= 2 IEnMin= 2 EnMin= -2573.90027876233     IErMin= 2 ErrMin= 2.32D-03
 ErrMax= 2.32D-03  0.00D+00 EMaxC= 1.00D-01 BMatC= 7.53D-03 BMatP= 3.83D-02
 IDIUse=3 WtCom= 9.77D-01 WtEn= 2.32D-02
 Coeff-Com:  0.227D+00 0.773D+00
 Coeff-En:   0.426D-01 0.957D+00
 Coeff:      0.222D+00 0.778D+00
 Gap=     0.194 Goal=   None    Shift=    0.000
 RMSDP=2.22D-04 MaxDP=5.27D-02 DE=-2.16D-02 OVMax= 7.00D-02

 Cycle   3  Pass 0  IDiag  1:
 RMSU=  1.49D-04    CP:  9.94D-01  6.62D-01
 E= -2573.90851123178     Delta-E=       -0.008232469451 Rises=F Damp=F
 DIIS: error= 2.80D-03 at cycle   3 NSaved=   3.
 NSaved= 3 IEnMin= 3 EnMin= -2573.90851123178     IErMin= 2 ErrMin= 2.32D-03
 ErrMax= 2.80D-03  0.00D+00 EMaxC= 1.00D-01 BMatC= 2.74D-03 BMatP= 7.53D-03
 IDIUse=3 WtCom= 9.72D-01 WtEn= 2.80D-02
 Coeff-Com:  0.606D-01 0.363D+00 0.576D+00
 Coeff-En:   0.000D+00 0.175D+00 0.825D+00
 Coeff:      0.589D-01 0.358D+00 0.583D+00
 Gap=     0.172 Goal=   None    Shift=    0.000
 RMSDP=7.63D-05 MaxDP=1.83D-02 DE=-8.23D-03 OVMax= 2.26D-02

 Cycle   4  Pass 0  IDiag  1:
 RMSU=  8.59D-06    CP:  9.93D-01  7.64D-01  6.16D-01
 E= -2573.91159363407     Delta-E=       -0.003082402282 Rises=F Damp=F
 DIIS: error= 7.73D-05 at cycle   4 NSaved=   4.
 NSaved= 4 IEnMin= 4 EnMin= -2573.91159363407     IErMin= 4 ErrMin= 7.73D-05
 ErrMax= 7.73D-05  0.00D+00 EMaxC= 1.00D-01 BMatC= 1.33D-06 BMatP= 2.74D-03
 IDIUse=1 WtCom= 1.00D+00 WtEn= 0.00D+00
 Coeff-Com: -0.921D-03 0.118D-01 0.337D-01 0.955D+00
 Coeff:     -0.921D-03 0.118D-01 0.337D-01 0.955D+00
 Gap=     0.173 Goal=   None    Shift=    0.000
 RMSDP=2.40D-06 MaxDP=5.16D-04 DE=-3.08D-03 OVMax= 5.96D-04

 Initial convergence to 1.0D-05 achieved.  Increase integral accuracy.
 Cycle   5  Pass 1  IDiag  1:
 E= -2573.91231413990     Delta-E=       -0.000720505831 Rises=F Damp=F
 DIIS: error= 8.92D-06 at cycle   1 NSaved=   1.
 NSaved= 1 IEnMin= 1 EnMin= -2573.91231413990     IErMin= 1 ErrMin= 8.92D-06
 ErrMax= 8.92D-06  0.00D+00 EMaxC= 1.00D-01 BMatC= 1.08D-07 BMatP= 1.08D-07
 IDIUse=1 WtCom= 1.00D+00 WtEn= 0.00D+00
 Coeff-Com:  0.100D+01
 Coeff:      0.100D+01
 Gap=     0.173 Goal=   None    Shift=    0.000
 RMSDP=2.40D-06 MaxDP=5.16D-04 DE=-7.21D-04 OVMax= 3.74D-04

 Cycle   6  Pass 1  IDiag  1:
 RMSU=  1.54D-06    CP:  1.00D+00
 E= -2573.91231430463     Delta-E=       -0.000000164736 Rises=F Damp=F
 DIIS: error= 1.08D-05 at cycle   2 NSaved=   2.
 NSaved= 2 IEnMin= 2 EnMin= -2573.91231430463     IErMin= 1 ErrMin= 8.92D-06
 ErrMax= 1.08D-05  0.00D+00 EMaxC= 1.00D-01 BMatC= 5.02D-08 BMatP= 1.08D-07
 IDIUse=1 WtCom= 1.00D+00 WtEn= 0.00D+00
 Coeff-Com:  0.381D+00 0.619D+00
 Coeff:      0.381D+00 0.619D+00
 Gap=     0.173 Goal=   None    Shift=    0.000
 RMSDP=4.09D-07 MaxDP=1.04D-04 DE=-1.65D-07 OVMax= 1.30D-04

 Cycle   7  Pass 1  IDiag  1:
 RMSU=  3.77D-07    CP:  1.00D+00  9.00D-01
 E= -2573.91231436465     Delta-E=       -0.000000060012 Rises=F Damp=F
 DIIS: error= 2.73D-06 at cycle   3 NSaved=   3.
 NSaved= 3 IEnMin= 3 EnMin= -2573.91231436465     IErMin= 3 ErrMin= 2.73D-06
 ErrMax= 2.73D-06  0.00D+00 EMaxC= 1.00D-01 BMatC= 2.66D-09 BMatP= 5.02D-08
 IDIUse=1 WtCom= 1.00D+00 WtEn= 0.00D+00
 Coeff-Com: -0.277D-01 0.167D+00 0.861D+00
 Coeff:     -0.277D-01 0.167D+00 0.861D+00
 Gap=     0.173 Goal=   None    Shift=    0.000
 RMSDP=9.08D-08 MaxDP=2.24D-05 DE=-6.00D-08 OVMax= 2.97D-05

 Cycle   8  Pass 1  IDiag  1:
 RMSU=  3.03D-08    CP:  1.00D+00  9.52D-01  9.17D-01
 E= -2573.91231436784     Delta-E=       -0.000000003192 Rises=F Damp=F
 DIIS: error= 2.37D-07 at cycle   4 NSaved=   4.
 NSaved= 4 IEnMin= 4 EnMin= -2573.91231436784     IErMin= 4 ErrMin= 2.37D-07
 ErrMax= 2.37D-07  0.00D+00 EMaxC= 1.00D-01 BMatC= 2.08D-11 BMatP= 2.66D-09
 IDIUse=1 WtCom= 1.00D+00 WtEn= 0.00D+00
 Coeff-Com: -0.867D-02 0.292D-01 0.122D+00 0.858D+00
 Coeff:     -0.867D-02 0.292D-01 0.122D+00 0.858D+00
 Gap=     0.173 Goal=   None    Shift=    0.000
 RMSDP=9.89D-09 MaxDP=1.69D-06 DE=-3.19D-09 OVMax= 3.87D-06

 Cycle   9  Pass 1  IDiag  1:
 RMSU=  7.48D-09    CP:  1.00D+00  9.56D-01  9.13D-01  1.03D+00
 E= -2573.91231436783     Delta-E=        0.000000000005 Rises=F Damp=F
 DIIS: error= 8.67D-08 at cycle   5 NSaved=   5.
 NSaved= 5 IEnMin= 4 EnMin= -2573.91231436784     IErMin= 5 ErrMin= 8.67D-08
 ErrMax= 8.67D-08  0.00D+00 EMaxC= 1.00D-01 BMatC= 2.22D-12 BMatP= 2.08D-11
 IDIUse=1 WtCom= 1.00D+00 WtEn= 0.00D+00
 Coeff-Com: -0.862D-03-0.362D-03-0.153D-01 0.269D+00 0.748D+00
 Coeff:     -0.862D-03-0.362D-03-0.153D-01 0.269D+00 0.748D+00
 Gap=     0.173 Goal=   None    Shift=    0.000
 RMSDP=2.76D-09 MaxDP=3.48D-07 DE= 5.46D-12 OVMax= 1.05D-06

 SCF Done:  E(RPBE1PBE) =  -2573.91231437     A.U. after    9 cycles
            NFock=  9  Conv=0.28D-08     -V/T= 2.0013
 KE= 2.570511607557D+03 PE=-6.162912077829D+03 EE= 1.018488155904D+03
 Leave Link  502 at Thu May  3 11:14:44 2018, MaxMem= 14763950080 cpu:      7124.1
 (Enter /cm/shared/gaussian/g09.e01/intel64-sandybridge/g09/l601.exe)
 Copying SCF densities to generalized density rwf, IOpCl= 0 IROHF=0.

 **********************************************************************

            Population analysis using the SCF density.

 **********************************************************************

 Alpha  occ. eigenvalues -- -482.98972 -62.39119 -56.16374 -56.16370 -56.16369
 Alpha  occ. eigenvalues --   -8.49254  -6.29566  -6.29555  -6.29547  -2.37833
 Alpha  occ. eigenvalues --   -2.37831  -2.37824  -2.37814  -2.37814  -0.47296
 Alpha  occ. eigenvalues --   -0.03159  -0.03144  -0.03136
 Alpha virt. eigenvalues --    0.14131   0.16084   0.16376   0.16860   0.18615
 Alpha virt. eigenvalues --    0.18885   0.19174   0.19499   0.20226   0.21965
 Alpha virt. eigenvalues --    0.22391   0.23049   0.23666   0.24036   0.24303
 Alpha virt. eigenvalues --    0.25258   0.25486   0.25963   0.26579   0.27316
 Alpha virt. eigenvalues --    0.27895   0.28326   0.28466   0.29448   0.29953
 Alpha virt. eigenvalues --    0.29991   0.31494   0.31981   0.32320   0.32857
 Alpha virt. eigenvalues --    0.33282   0.33891   0.34460   0.35350   0.35726
 Alpha virt. eigenvalues --    0.35952   0.36343   0.36978   0.37327   0.38223
 Alpha virt. eigenvalues --    0.38409   0.38897   0.39382   0.39885   0.40251
 Alpha virt. eigenvalues --    0.40826   0.41346   0.41827   0.42008   0.42341
 Alpha virt. eigenvalues --    0.43479   0.43905   0.44461   0.44719   0.45474
 Alpha virt. eigenvalues --    0.45876   0.46020   0.46753   0.48118   0.48127
 Alpha virt. eigenvalues --    0.48734   0.49747   0.50778   0.52500   0.61121
 Alpha virt. eigenvalues --    0.62222   0.62935   0.63335   0.63524   0.63747
 Alpha virt. eigenvalues --    0.65286   0.65421   0.66134   0.66691   0.66826
 Alpha virt. eigenvalues --    0.67165   0.67570   0.68377   0.68475   0.69143
 Alpha virt. eigenvalues --    0.69903   0.70212   0.70510   0.71398   0.72064
 Alpha virt. eigenvalues --    0.72282   0.72992   0.73458   0.73611   0.73710
 Alpha virt. eigenvalues --    0.74724   0.74888   0.75151   0.75474   0.75895
 Alpha virt. eigenvalues --    0.76453   0.76868   0.77276   0.77735   0.78016
 Alpha virt. eigenvalues --    0.78118   0.78429   0.78981   0.79096   0.79538
 Alpha virt. eigenvalues --    0.80410   0.80637   0.81011   0.81241   0.81610
 Alpha virt. eigenvalues --    0.81828   0.82466   0.82782   0.83137   0.83440
 Alpha virt. eigenvalues --    0.83583   0.84336   0.84518   0.84811   0.85368
 Alpha virt. eigenvalues --    0.85677   0.85964   0.86493   0.86838   0.87379
 Alpha virt. eigenvalues --    0.87483   0.87998   0.88214   0.88640   0.88889
 Alpha virt. eigenvalues --    0.89080   0.89823   0.90096   0.90484   0.90856
 Alpha virt. eigenvalues --    0.91170   0.91498   0.91781   0.92350   0.92606
 Alpha virt. eigenvalues --    0.93142   0.93264   0.93686   0.94133   0.94450
 Alpha virt. eigenvalues --    0.94945   0.95206   0.96054   0.96398   0.97119
 Alpha virt. eigenvalues --    0.97226   0.97411   0.98194   0.98752   0.98815
 Alpha virt. eigenvalues --    0.99290   0.99503   0.99742   1.00645   1.01243
 Alpha virt. eigenvalues --    1.01722   1.02227   1.02604   1.03197   1.03351
 Alpha virt. eigenvalues --    1.03652   1.04628   1.04711   1.05185   1.05751
 Alpha virt. eigenvalues --    1.06084   1.06793   1.07276   1.08235   1.08606
 Alpha virt. eigenvalues --    1.08773   1.09289   1.09897   1.10507   1.11261
 Alpha virt. eigenvalues --    1.11420   1.11763   1.12513   1.12913   1.13063
 Alpha virt. eigenvalues --    1.14501   1.16131   1.16325   1.16692   1.17382
 Alpha virt. eigenvalues --    1.18086   1.18760   1.19791   1.20288   1.21231
 Alpha virt. eigenvalues --    1.21497   1.22632   1.24850   1.26011   1.27134
 Alpha virt. eigenvalues --    1.31704   1.65863   1.66507   1.66784   1.67048
 Alpha virt. eigenvalues --    1.67338   1.68165   1.68447   1.68674   1.69732
 Alpha virt. eigenvalues --    1.70132   1.70596   1.71105   1.71740   1.71875
 Alpha virt. eigenvalues --    1.72418   1.72747   1.73498   1.73617   1.73722
 Alpha virt. eigenvalues --    1.73992   1.74428   1.74755   1.75556   1.76062
 Alpha virt. eigenvalues --    1.76593   1.76933   1.77155   1.77697   1.77731
 Alpha virt. eigenvalues --    1.78268   1.78566   1.79058   1.79175   1.79565
 Alpha virt. eigenvalues --    1.79784   1.80153   1.80419   1.80734   1.81009
 Alpha virt. eigenvalues --    1.81372   1.81516   1.81902   1.82048   1.83207
 Alpha virt. eigenvalues --    1.83320   1.83854   1.84017   1.84090   1.84634
 Alpha virt. eigenvalues --    1.84843   1.85670   1.85999   1.86199   1.87467
 Alpha virt. eigenvalues --    1.87922   1.88513   1.89364   1.89736   1.90482
 Alpha virt. eigenvalues --    1.91313   1.92208   1.92939   1.94348   1.96259
 Alpha virt. eigenvalues --    1.97173   1.97448   1.97881   1.98270   1.98568
 Alpha virt. eigenvalues --    1.99269   1.99563   1.99947   2.00080   2.00838
 Alpha virt. eigenvalues --    2.00914   2.01184   2.01690   2.01927   2.02374
 Alpha virt. eigenvalues --    2.02559   2.02760   2.03049   2.03256   2.03690
 Alpha virt. eigenvalues --    2.03885   2.04305   2.04667   2.04694   2.05003
 Alpha virt. eigenvalues --    2.05342   2.05676   2.05938   2.06210   2.06519
 Alpha virt. eigenvalues --    2.06650   2.06870   2.07255   2.07657   2.08370
 Alpha virt. eigenvalues --    2.08910   2.09230   2.10058   2.10243   2.10450
 Alpha virt. eigenvalues --    2.11063   2.11361   2.11727   2.12565   2.13033
 Alpha virt. eigenvalues --    2.13363   2.13520   2.13943   2.14020   2.14669
 Alpha virt. eigenvalues --    2.15602   2.16375   2.16537   2.16680   2.16856
 Alpha virt. eigenvalues --    2.17636   2.18298   2.18869   2.18962   2.19724
 Alpha virt. eigenvalues --    2.20111   2.20472   2.20639   2.20912   2.21727
 Alpha virt. eigenvalues --    2.22058   2.22868   2.23028   2.23671   2.24213
 Alpha virt. eigenvalues --    2.24493   2.24631   2.25523   2.26304   2.26523
 Alpha virt. eigenvalues --    2.27195   2.27900   2.28476   2.28877   2.29111
 Alpha virt. eigenvalues --    2.30091   2.30778   2.30978   2.31559   2.32390
 Alpha virt. eigenvalues --    2.32618   2.33712   2.34381   2.35149   2.35914
 Alpha virt. eigenvalues --    2.36423   2.37341   2.37841   2.38621   2.39328
 Alpha virt. eigenvalues --    2.41479   2.41701   2.42667   2.42746   2.42938
 Alpha virt. eigenvalues --    2.43090   2.43676   2.44186   2.44313   2.44875
 Alpha virt. eigenvalues --    2.45105   2.45434   2.45952   2.46459   2.46596
 Alpha virt. eigenvalues --    2.46959   2.47706   2.48312   2.49017   2.49394
 Alpha virt. eigenvalues --    2.50654   2.50745   2.51685   2.51869   2.52406
 Alpha virt. eigenvalues --    2.53505   2.53720   2.53971   2.54609   2.55307
 Alpha virt. eigenvalues --    2.55714   2.57805   2.61974   2.66641   2.68347
 Alpha virt. eigenvalues --    2.69186   2.69283   2.69545   2.70197   2.70893
 Alpha virt. eigenvalues --    2.71305   2.72015   2.72475   2.72834   2.73298
 Alpha virt. eigenvalues --    2.73452   2.73660   2.74015   2.75133   2.75654
 Alpha virt. eigenvalues --    2.75874   2.76507   2.77884   2.78688   2.80315
 Alpha virt. eigenvalues --    2.81307   2.81958   2.83024   2.84041   2.84251
 Alpha virt. eigenvalues --    2.84911   2.85246   2.86287   2.86700   2.86922
 Alpha virt. eigenvalues --    2.87543   2.88197   2.88603   2.88994   2.89591
 Alpha virt. eigenvalues --    2.89949   2.90753   2.90956   2.92955   2.93711
 Alpha virt. eigenvalues --    2.94247   2.94674   2.94727   2.95337   2.95847
 Alpha virt. eigenvalues --    2.96947   2.97316   2.98679   2.99626   3.00791
 Alpha virt. eigenvalues --    3.00851   3.02632   3.03934   3.04197   3.04734
 Alpha virt. eigenvalues --    3.05752   3.07344   3.08602   3.11068   3.14761
 Alpha virt. eigenvalues --    3.16005   3.16484   3.16862   3.17891   3.18420
 Alpha virt. eigenvalues --    3.20689   3.21130   3.21854   3.23455   3.24659
 Alpha virt. eigenvalues --    3.26469   3.28007   3.29556   3.29712   3.32084
 Alpha virt. eigenvalues --    3.33175   3.33774   3.35845   3.37240   3.37887
 Alpha virt. eigenvalues --    3.39619   3.41402   3.42352   3.44008   3.47320
 Alpha virt. eigenvalues --    3.49156   3.49750   3.51290   3.53812   3.55026
 Alpha virt. eigenvalues --    3.61208   3.62454   3.62961   3.71851   4.50097
 Alpha virt. eigenvalues --    4.52303   4.52414   4.52438   4.52870   4.52984
 Alpha virt. eigenvalues --    4.53071   4.53248   4.53281   4.53347   4.53459
 Alpha virt. eigenvalues --    4.53556   4.53685   4.53902   4.53965   4.54045
 Alpha virt. eigenvalues --    4.54255   4.54355   4.54639   4.55430   4.55501
 Alpha virt. eigenvalues --    4.55847   4.56046   4.56254   4.56363   4.56596
 Alpha virt. eigenvalues --    4.56668   4.57525   4.57626   4.57913   4.58000
 Alpha virt. eigenvalues --    4.59036   4.60080   4.60297   4.60456   4.60654
 Alpha virt. eigenvalues --    4.60805   4.60985   4.61012   4.61029   4.61055
 Alpha virt. eigenvalues --    4.61201   4.61284   4.61639   4.61893   4.62504
 Alpha virt. eigenvalues --    4.62553   4.62746   4.62820   4.63237   4.63304
 Alpha virt. eigenvalues --    4.63488   4.63512   4.63545   4.63956   4.64496
 Alpha virt. eigenvalues --    4.64560   4.64676   4.65198   4.65539   4.65840
 Alpha virt. eigenvalues --    4.66082   4.66445   4.66690   4.75443   4.76153
 Alpha virt. eigenvalues --    4.76212   4.76360   4.76540   4.77327   4.77668
 Alpha virt. eigenvalues --    4.77700   4.77844   4.78066   4.78388   4.78684
 Alpha virt. eigenvalues --    4.78826   4.79821   4.80233   4.80892   4.81051
 Alpha virt. eigenvalues --    4.81359   4.81893   4.82064   4.82350   4.82591
 Alpha virt. eigenvalues --    4.83188   4.83477   4.83707   4.84457   4.84767
 Alpha virt. eigenvalues --    4.84979   4.85201   4.85511   4.85656   4.85861
 Alpha virt. eigenvalues --    4.87439   4.87577   4.87803   4.88588   4.88832
 Alpha virt. eigenvalues --    4.89029   4.89323   4.89512   4.89931   4.90173
 Alpha virt. eigenvalues --    4.90378   4.90778   4.91076   4.91120   4.91614
 Alpha virt. eigenvalues --    4.91961   4.91970   4.93109   4.94442   4.95081
 Alpha virt. eigenvalues --    4.95627   4.96368   4.96419   4.97792   4.98394
 Alpha virt. eigenvalues --    4.98721   4.99445   4.99820   5.00406   5.01990
 Alpha virt. eigenvalues --    5.02323   5.04560   5.05843   5.06125   5.07810
 Alpha virt. eigenvalues --    5.08185   5.09224   5.09350   5.09679   5.10418
[...]
   Z21       41.34721  -0.00255   0.00000  -0.00974  -0.00760  41.33961
   X22       37.18981  -0.00008   0.00000   0.00710   0.01144  37.20125
   Y22       41.36611  -0.01895   0.00000  -0.00936  -0.00984  41.35627
   Z22       41.15824  -0.01842   0.00000  -0.04786  -0.04706  41.11118
   X23       34.73317   0.00058   0.00000  -0.01081  -0.00762  34.72555
   Y23       44.61643   0.00998   0.00000  -0.01126  -0.00950  44.60694
   Z23       36.15046   0.01899   0.00000   0.05935   0.06221  36.21268
   X24       33.01352  -0.00269   0.00000  -0.01565  -0.01220  33.00131
   Y24       45.12666  -0.00004   0.00000   0.00436   0.00656  45.13322
   Z24       36.43392  -0.00161   0.00000  -0.00713  -0.00336  36.43056
   X25       34.60089  -0.00911   0.00000  -0.03262  -0.03022  34.57066
   Y25       42.91568  -0.01123   0.00000  -0.00346  -0.00144  42.91424
   Z25       35.52685  -0.00757   0.00000  -0.01773  -0.01532  35.51153
   X26       43.69047  -0.00163   0.00000  -0.01981  -0.01542  43.67505
   Y26       37.70004  -0.02402   0.00000  -0.04375  -0.04696  37.65308
   Z26       43.82275  -0.00552   0.00000  -0.05096  -0.05408  43.76867
   X27       44.37077   0.01176   0.00000   0.02739   0.03180  44.40257
   Y27       39.02284   0.01810   0.00000   0.03508   0.03195  39.05479
   Z27       42.80230   0.00041   0.00000   0.03870   0.03570  42.83800
   X28       41.95192  -0.00555   0.00000  -0.00172   0.00297  41.95489
   Y28       38.17247   0.00752   0.00000   0.02595   0.02315  38.19562
   Z28       44.06841   0.00629   0.00000   0.02659   0.02437  44.09279
   X29       39.45748   0.00743   0.00000   0.00012   0.00616  39.46365
   Y29       40.38345  -0.01281   0.00000  -0.02478  -0.02737  40.35608
   Z29       45.76917   0.00828   0.00000   0.00234   0.00186  45.77103
   X30       38.92836  -0.00573   0.00000  -0.01274  -0.00692  38.92143
   Y30       41.47949   0.01146   0.00000   0.02447   0.02245  41.50193
   Z30       44.42746  -0.00284   0.00000   0.02190   0.02201  44.44947
   X31       37.94570  -0.00387   0.00000  -0.01562  -0.00963  37.93607
   Y31       39.47638  -0.00066   0.00000  -0.00029  -0.00257  39.47381
   Z31       46.22270   0.00132   0.00000   0.00667   0.00657  46.22927
   X32       35.30008   0.01362   0.00000   0.03159   0.03017  35.33025
   Y32       29.49862   0.00388   0.00000  -0.00270  -0.00098  29.49765
   Z32       35.79141  -0.02271   0.00000  -0.01873  -0.02080  35.77061
   X33       34.05286  -0.00976   0.00000   0.00046  -0.00072  34.05214
   Y33       28.72384   0.00037   0.00000   0.02682   0.02858  28.75242
   Z33       36.83076   0.01411   0.00000   0.01372   0.01197  36.84273
   X34       36.45282   0.00674   0.00000   0.01722   0.01653  36.46935
   Y34       30.27341   0.00204   0.00000  -0.00032   0.00069  30.27410
   Z34       36.96304   0.00888   0.00000   0.01282   0.01050  36.97354
   X35       36.01818   0.01869   0.00000   0.00858   0.00796  36.02614
   Y35       40.38345   0.00043   0.00000  -0.00618  -0.00294  40.38051
   Z35       30.21672  -0.01397   0.00000  -0.02780  -0.02680  30.18992
   X36       34.48750  -0.01601   0.00000   0.00351   0.00329  34.49079
   Y36       40.30786  -0.00256   0.00000  -0.00912  -0.00574  40.30212
   Z36       31.16158   0.01911   0.00000   0.03194   0.03357  31.19516
   X37       35.47016  -0.00458   0.00000  -0.01911  -0.02043  35.44973
   Y37       40.49683   0.00055   0.00000  -0.00091   0.00303  40.49986
   Z37       28.49707  -0.00923   0.00000  -0.02519  -0.02390  28.47317
   X38       32.55998  -0.02022   0.00000  -0.02069  -0.02220  32.53778
   Y38       33.01352   0.01176   0.00000   0.03280   0.03615  33.04967
   Z38       33.08910   0.00898   0.00000   0.04693   0.04716  33.13626
   X39       33.97728   0.00991   0.00000  -0.00882  -0.01037  33.96690
   Y39       32.06865  -0.01452   0.00000  -0.02989  -0.02714  32.04151
   Z39       33.73161   0.00738   0.00000   0.00890   0.00820  33.73981
   X40       33.31587   0.00156   0.00000  -0.00494  -0.00654  33.30934
   Y40       34.33632   0.00151   0.00000  -0.01714  -0.01368  34.32264
   Z40       32.10645  -0.01073   0.00000  -0.03089  -0.03060  32.07585
   X41       40.06219   0.01379   0.00000   0.01084   0.01611  40.07831
   Y41       46.97859   0.01178   0.00000   0.00971   0.00891  46.98750
   Z41       39.41969   0.02054   0.00000  -0.00242  -0.00111  39.41858
   X42       39.00395  -0.00570   0.00000   0.00396   0.00903  39.01298
   Y42       45.59909  -0.01213   0.00000  -0.01095  -0.01159  45.58750
   Z42       39.91102   0.00314   0.00000   0.00391   0.00524  39.91626
   X43       39.98660  -0.01269   0.00000  -0.05091  -0.04641  39.94020
   Y43       47.01639   0.00491   0.00000   0.02411   0.02392  47.04030
   Z43       37.62445  -0.03147   0.00000  -0.03915  -0.03777  37.58668
   X44       35.86700   0.00707   0.00000   0.00014   0.00274  35.86974
   Y44       31.36945  -0.00400   0.00000  -0.00019  -0.00114  31.36831
   Z44       43.86054   0.01454   0.00000   0.02387   0.02215  43.88270
   X45       34.95993  -0.00441   0.00000   0.00129   0.00328  34.96322
   Y45       31.57732   0.00448   0.00000   0.00717   0.00697  31.58429
   Z45       42.31097  -0.00784   0.00000   0.00333   0.00207  42.31303
   X46       36.11267  -0.00390   0.00000  -0.01554  -0.01219  36.10048
   Y46       33.07021   0.00279   0.00000   0.01088   0.00968  33.07989
   Z46       44.46526  -0.00198   0.00000  -0.00146  -0.00275  44.46250
   X47       29.85767  -0.00625   0.00000   0.00248   0.00319  29.86086
   Y47       34.61978   0.00117   0.00000  -0.01806  -0.01519  34.60459
   Z47       37.24650   0.03293   0.00000   0.00714   0.00899  37.25550
   X48       30.68915   0.02454   0.00000   0.04115   0.04106  30.73021
   Y48       34.22294  -0.01070   0.00000  -0.01695  -0.01384  34.20910
   Z48       35.69693  -0.03715   0.00000  -0.03971  -0.03835  35.65858
   X49       28.23251  -0.01074   0.00000  -0.01300  -0.01232  28.22019
   Y49       35.22450  -0.00190   0.00000  -0.02318  -0.01968  35.20481
   Z49       36.77407  -0.00293   0.00000  -0.00418  -0.00143  36.77264
   X50       30.33010  -0.01471   0.00000  -0.01942  -0.01482  30.31528
   Y50       40.40234   0.02002   0.00000   0.01556   0.01672  40.41906
   Z50       42.34876  -0.00019   0.00000  -0.01084  -0.00738  42.34139
   X51       30.87813   0.00973   0.00000   0.00665   0.01066  30.88879
   Y51       38.70159  -0.01853   0.00000  -0.00966  -0.00861  38.69298
   Z51       42.15979  -0.00266   0.00000  -0.00644  -0.00376  42.15603
   X52       31.84189   0.00519   0.00000  -0.00071   0.00430  31.84619
   Y52       41.34721  -0.00108   0.00000  -0.00608  -0.00548  41.34173
   Z52       42.67002   0.00242   0.00000   0.00619   0.00928  42.67930
   X53       33.05131   0.00911   0.00000   0.02565   0.03095  33.08226
   Y53       36.58510   0.01598   0.00000   0.01408   0.01311  36.59821
   Z53       46.58175   0.01704   0.00000   0.01426   0.01536  46.59711
   X54       32.82454  -0.00169   0.00000  -0.00497  -0.00006  32.82448
   Y54       34.82765  -0.01244   0.00000  -0.00517  -0.00616  34.82150
   Z54       46.90300  -0.00266   0.00000  -0.00688  -0.00622  46.89678
   X55       33.14580  -0.00507   0.00000  -0.02638  -0.02184  33.12396
   Y55       36.71738  -0.00646   0.00000  -0.01809  -0.01851  36.69887
   Z55       44.78651  -0.01486   0.00000  -0.01211  -0.01100  44.77551
   X56       47.20536   0.01988   0.00000   0.01649   0.01839  47.22375
   Y56       40.23227   0.01073   0.00000   0.01442   0.01253  40.24480
   Z56       36.18826  -0.00414   0.00000  -0.01545  -0.01929  36.16897
   X57       46.09042  -0.00869   0.00000  -0.02086  -0.01842  46.07201
   Y57       41.63067  -0.00170   0.00000  -0.01072  -0.01238  41.61828
   Z57       36.50951   0.00002   0.00000   0.00032  -0.00260  36.50691
   X58       46.09042  -0.01241   0.00000  -0.00749  -0.00609  46.08433
   Y58       38.83387  -0.01073   0.00000  -0.00496  -0.00646  38.82741
   Z58       35.96149   0.00342   0.00000   0.02342   0.01962  35.98111
   X59       43.89834   0.03393   0.00000   0.03169   0.03560  43.93394
   Y59       44.10621  -0.02525   0.00000  -0.02054  -0.02210  44.08410
   Z59       38.24806  -0.01559   0.00000  -0.01973  -0.02098  38.22708
   X60       44.76761  -0.00114   0.00000  -0.00008   0.00360  44.77121
   Y60       45.10776   0.00432   0.00000   0.01963   0.01820  45.12597
   Z60       37.00084  -0.00002   0.00000  -0.00514  -0.00642  36.99442
   X61       42.55663  -0.02456   0.00000  -0.00824  -0.00376  42.55288
   Y61       45.16445   0.01958   0.00000   0.00041  -0.00094  45.16352
   Z61       38.81497   0.01461   0.00000   0.02409   0.02377  38.83874
   X62       46.12821   0.00432   0.00000   0.03648   0.03610  46.16431
   Y62       31.59622   0.00246   0.00000   0.04607   0.04431  31.64054
   Z62       36.77407  -0.01874   0.00000  -0.03080  -0.03685  36.73722
   X63       47.41323   0.01178   0.00000   0.01296   0.01304  47.42627
   Y63       31.35056  -0.00296   0.00000   0.00024  -0.00228  31.34827
   Z63       38.00239   0.01016   0.00000   0.01484   0.00816  38.01055
   X64       45.44791  -0.00823   0.00000  -0.01533  -0.01505  45.43286
   Y64       33.24028   0.01812   0.00000   0.03751   0.03584  33.27612
   Z64       37.15202   0.00289   0.00000   0.00957   0.00434  37.15635
   X65       38.36144   0.01728   0.00000   0.02794   0.03108  38.39252
   Y65       47.26205   0.02723   0.00000   0.03088   0.03217  47.29422
   Z65       34.22294   0.02325   0.00000   0.02714   0.02926  34.25220
   X66       38.55041   0.00524   0.00000   0.02073   0.02293  38.57334
   Y66       46.50616  -0.01121   0.00000  -0.00041   0.00134  46.50750
   Z66       32.59778  -0.01989   0.00000  -0.00275  -0.00095  32.59683
   X67       37.03863  -0.01254   0.00000  -0.01446  -0.01127  37.02736
   Y67       46.31719  -0.00475   0.00000   0.01558   0.01704  46.33423
   Z67       35.01663   0.00151   0.00000  -0.00903  -0.00662  35.01001
   X68       42.72671  -0.00587   0.00000  -0.02395  -0.02448  42.70223
   Y68       28.61045  -0.02773   0.00000  -0.04502  -0.04632  28.56414
   Z68       38.51262   0.00327   0.00000   0.00102  -0.00450  38.50812
   X69       41.10154  -0.00888   0.00000  -0.01150  -0.01173  41.08982
   Y69       29.38524   0.00796   0.00000   0.01229   0.01143  29.39667
   Z69       38.62600   0.00131   0.00000   0.00996   0.00539  38.63139
   X70       43.80385   0.00632   0.00000  -0.00099  -0.00140  43.80245
   Y70       29.91436   0.00583   0.00000  -0.02368  -0.02510  29.88927
   Z70       37.87011  -0.00294   0.00000   0.01266   0.00708  37.87719
   X71       42.38656   0.00084   0.00000   0.00611   0.00398  42.39053
   Y71       31.38835   0.01226   0.00000   0.00836   0.00892  31.39727
   Z71       32.82454  -0.01211   0.00000  -0.00485  -0.00936  32.81518
   X72       44.01172   0.00413   0.00000   0.00789   0.00618  44.01790
   Y72       31.72850  -0.00298   0.00000  -0.00999  -0.01014  31.71836
   Z72       33.56154   0.00449   0.00000   0.01328   0.00817  33.56971
   X73       41.78184  -0.00285   0.00000   0.00065  -0.00151  41.78034
   Y73       29.95216  -0.01026   0.00000  -0.00291  -0.00246  29.94970
   Z73       33.73161   0.00987   0.00000   0.01591   0.01121  33.74283
   X74       40.79919  -0.00180   0.00000  -0.00448  -0.00666  40.79253
   Y74       38.85277  -0.00445   0.00000  -0.01752  -0.01488  38.83789
   Z74       27.64669  -0.02113   0.00000  -0.02116  -0.02268  27.62402
   X75       42.14089   0.00298   0.00000  -0.00594  -0.00758  42.13331
   Y75       38.85277   0.00073   0.00000   0.00050   0.00236  38.85513
   Z75       28.85612   0.00929   0.00000   0.00459   0.00250  28.85862
   X76       39.30630  -0.00231   0.00000   0.01063   0.00897  39.31527
   Y76       39.06064  -0.00013   0.00000  -0.00643  -0.00369  39.05695
   Z76       28.64825   0.01243   0.00000   0.02412   0.02330  28.67155
   X77       44.21959  -0.00716   0.00000   0.00552   0.00401  44.22361
   Y77       36.15046   0.01521   0.00000   0.02029   0.02087  36.17133
   Z77       31.01041   0.01161   0.00000   0.00754   0.00372  31.01413
   X78       45.99593   0.01491   0.00000   0.02493   0.02356  46.01949
   Y78       36.35833   0.00001   0.00000  -0.00321  -0.00321  36.35512
   Z78       31.19938   0.00169   0.00000   0.00742   0.00289  31.20227
   X79       44.01172  -0.00334   0.00000  -0.00684  -0.00928  44.00245
   Y79       34.94104  -0.01488   0.00000  -0.01639  -0.01535  34.92569
   Z79       29.70649  -0.01173   0.00000   0.00439   0.00029  29.70678
   X80       39.51417   0.00004   0.00000   0.01174   0.01232  39.52650
   Y80       44.55974   0.02160   0.00000   0.01191   0.01413  44.57388
   Z80       30.17893  -0.01326   0.00000  -0.03164  -0.03085  30.14808
   X81       40.89367   0.00668   0.00000  -0.00415  -0.00336  40.89031
   Y81       43.87944  -0.01346   0.00000  -0.02640  -0.02488  43.85456
   Z81       31.12379   0.00699   0.00000   0.00386   0.00385  31.12764
   X82       38.39924  -0.00507   0.00000  -0.00266  -0.00258  38.39665
   Y82       43.16134  -0.01277   0.00000  -0.01138  -0.00876  43.15259
   Z82       29.91436   0.00479   0.00000   0.01980   0.02065  29.93501
   X83       28.44038   0.00794   0.00000   0.00246   0.00453  28.44491
   Y83       40.23227   0.01362   0.00000   0.01015   0.01364  40.24591
   Z83       36.58510  -0.00280   0.00000  -0.01078  -0.00657  36.57853
   X84       27.43882  -0.00145   0.00000  -0.00739  -0.00556  27.43327
   Y84       41.17713   0.00030   0.00000  -0.00075   0.00340  41.18053
   Z84       35.39457  -0.00185   0.00000  -0.01111  -0.00617  35.38840
   X85       27.49552  -0.00836   0.00000  -0.00986  -0.00808  27.48743
   Y85       38.73939  -0.00978   0.00000  -0.00122   0.00245  38.74184
   Z85       36.88745   0.00649   0.00000   0.01732   0.02147  36.90893
   X86       33.73161  -0.00622   0.00000  -0.00910  -0.01221  33.71940
   Y86       34.92214   0.00050   0.00000   0.01405   0.01861  34.94075
   Z86       28.10023   0.00612   0.00000   0.01563   0.01594  28.11616
   X87       33.18359  -0.00058   0.00000   0.00726   0.00370  33.18729
   Y87       35.67803   0.00269   0.00000   0.00093   0.00613  35.68416
   Z87       26.55065  -0.00559   0.00000  -0.00665  -0.00589  26.54476
   X88       35.24339   0.01083   0.00000   0.02808   0.02541  35.26880
   Y88       35.82921  -0.00161   0.00000  -0.02081  -0.01683  35.81237
   Z88       28.53486   0.00208   0.00000   0.00193   0.00184  28.53671
   X89       46.65734   0.00877   0.00000  -0.00191   0.00311  46.66045
   Y89       41.98971  -0.01148   0.00000  -0.01338  -0.01699  41.97272
   Z89       42.25428   0.01375   0.00000   0.01179   0.00872  42.26300
   X90       45.90145  -0.00368   0.00000  -0.01110  -0.00527  45.89617
   Y90       43.33142   0.00182   0.00000  -0.00117  -0.00486  43.32656
   Z90       43.21804  -0.00215   0.00000  -0.00432  -0.00664  43.21140
   X91       46.12821  -0.00610   0.00000  -0.00731  -0.00293  46.12528
   Y91       42.29207   0.00956   0.00000   0.02548   0.02256  42.31463
   Z91       40.55352  -0.01291   0.00000  -0.00423  -0.00696  40.54656
   X92       31.04820   0.00478   0.00000  -0.01454  -0.01471  31.03349
   Y92       29.42304  -0.01212   0.00000  -0.01757  -0.01552  29.40752
   Z92       38.73939   0.01459   0.00000   0.02230   0.02205  38.76143
   X93       30.36790  -0.00691   0.00000  -0.01540  -0.01645  30.35145
   Y93       28.42148  -0.00252   0.00000  -0.00234   0.00033  28.42181
   Z93       37.39768  -0.00688   0.00000  -0.00483  -0.00509  37.39259
   X94       30.48128  -0.00480   0.00000  -0.00040  -0.00023  30.48105
   Y94       31.10489   0.01244   0.00000   0.00457   0.00691  31.11180
   Z94       38.38034  -0.00618   0.00000  -0.01006  -0.00955  38.37079
   X95       39.51417  -0.00568   0.00000   0.00387  -0.00028  39.51389
   Y95       31.48284  -0.00975   0.00000  -0.01596  -0.01309  31.46975
   Z95       28.08133  -0.00542   0.00000  -0.01243  -0.01568  28.06565
   X96       40.61021   0.00418   0.00000   0.00054  -0.00358  40.60663
   Y96       32.67336   0.00936   0.00000   0.01625   0.01905  32.69241
   Z96       27.28765  -0.00259   0.00000   0.00175  -0.00159  27.28605
   X97       39.45748  -0.00068   0.00000  -0.00291  -0.00616  39.45133
   Y97       32.01196  -0.00256   0.00000  -0.02053  -0.01818  31.99378
   Z97       29.81988   0.00245   0.00000  -0.00353  -0.00659  29.81329
         Item               Value     Threshold  Converged?
 Maximum Force            0.037149     0.000450     NO 
 RMS     Force            0.011007     0.000300     NO 
 Maximum Displacement     0.062214     0.001800     NO 
 RMS     Displacement     0.017390     0.001200     NO 
 Predicted change in Energy=-3.056070D-02
 GradGradGradGradGradGradGradGradGradGradGradGradGradGradGradGradGradGrad

 Leave Link  103 at Thu May  3 11:21:01 2018, MaxMem= 14763950080 cpu:        66.6
 (Enter /cm/shared/gaussian/g09.e01/intel64-sandybridge/g09/l9999.exe)
 1\1\GINC-POPLE03\Force\RPBE1PBE\CC-pVDZ\Br1H64O32(1-)\M.PELUSO\03-May-
 2018\0\\#p PBE1PBE/cc-pvDZ force Counterpoise=2 noSymm\\forces on chlo
 ride comput - NWATER: 32\\-1,1\Br,20.,20.,20.\O,20.61,16.96,20.91\H,20
 .78,16.99,21.86\H,20.3,17.84,20.7\O,17.5,21.2,18.26\H,18.23,20.86,18.7
 8\H,16.73,21.06,18.81\O,23.15,19.28,19.68\H,23.18,19.7,20.54\H,22.23,1
 9.34,19.42\O,17.41,18.91,21.85\H,16.87,18.54,21.15\H,18.09,19.41,21.38
 \O,20.16,18.36,17.06\H,19.96,19.07,17.67\H,21.09,18.45,16.88\O,22.,21.
 3,17.47\H,22.62,20.57,17.4\H,21.5,21.11,18.26\O,19.8,22.75,22.17\H,19.
 04,23.26,21.88\H,19.68,21.89,21.78\O,18.38,23.61,19.13\H,17.47,23.88,1
 9.28\H,18.31,22.71,18.8\O,23.12,19.95,23.19\H,23.48,20.65,22.65\H,22.2
 ,20.2,23.32\O,20.88,21.37,24.22\H,20.6,21.95,23.51\H,20.08,20.89,24.46
 \O,18.68,15.61,18.94\H,18.02,15.2,19.49\H,19.29,16.02,19.56\O,19.06,21
 .37,15.99\H,18.25,21.33,16.49\H,18.77,21.43,15.08\O,17.23,17.47,17.51\
 H,17.98,16.97,17.85\H,17.63,18.17,16.99\O,21.2,24.86,20.86\H,20.64,24.
 13,21.12\H,21.16,24.88,19.91\O,18.98,16.6,23.21\H,18.5,16.71,22.39\H,1
 9.11,17.5,23.53\O,15.8,18.32,19.71\H,16.24,18.11,18.89\H,14.94,18.64,1
 9.46\O,16.05,21.38,22.41\H,16.34,20.48,22.31\H,16.85,21.88,22.58\O,17.
 49,19.36,24.65\H,17.37,18.43,24.82\H,17.54,19.43,23.7\O,24.98,21.29,19
 .15\H,24.39,22.03,19.32\H,24.39,20.55,19.03\O,23.23,23.34,20.24\H,23.6
 9,23.87,19.58\H,22.52,23.9,20.54\O,24.41,16.72,19.46\H,25.09,16.59,20.
 11\H,24.05,17.59,19.66\O,20.3,25.01,18.11\H,20.4,24.61,17.25\H,19.6,24
 .51,18.53\O,22.61,15.14,20.38\H,21.75,15.55,20.44\H,23.18,15.83,20.04\
 O,22.43,16.61,17.37\H,23.29,16.79,17.76\H,22.11,15.85,17.85\O,21.59,20
 .56,14.63\H,22.3,20.56,15.27\H,20.8,20.67,15.16\O,23.4,19.13,16.41\H,2
 4.34,19.24,16.51\H,23.29,18.49,15.72\O,20.91,23.58,15.97\H,21.64,23.22
 ,16.47\H,20.32,22.84,15.83\O,15.05,21.29,19.36\H,14.52,21.79,18.73\H,1
 4.55,20.5,19.52\O,17.85,18.48,14.87\H,17.56,18.88,14.05\H,18.65,18.96,
 15.1\O,24.69,22.22,22.36\H,24.29,22.93,22.87\H,24.41,22.38,21.46\O,16.
 43,15.57,20.5\H,16.07,15.04,19.79\H,16.13,16.46,20.31\O,20.91,16.66,14
 .86\H,21.49,17.29,14.44\H,20.88,16.94,15.78\\Version=ES64L-G09RevE.01\
 HF=-2443.2434026\RMSD=3.610e-09\RMSF=1.101e-02\Dipole=-4.7418351,1.383
 7219,-2.3736278\Quadrupole=-217.3083104,212.980841,4.3274694,-1564.829
 5684,-1665.2392985,-1422.2574855\PG=C01 [X(Br1H64O32)]\\@


      THE ONE-EYED VIEW OF OUR UNIVERSE SAYS YOU MUST NOT LOOK
      FAR AFIELD FOR PROBLEMS.  SUCH PROBLEMS MAY NEVER ARRIVE. 
      INSTEAD, TEND TO THE WOLF WITHIN YOUR FENCES.
      THE PACKS RANGING OUTSIDE MAY NOT EVEN EXIST.

                              -- THE AZHAR BOOK SHAMRA I:4
                                 CHILDREN OF DUNE, BY FRANK HERBERT
 Job cpu time:       0 days 12 hours 20 minutes 41.1 seconds.
 File lengths (MBytes):  RWF=    482 Int=      0 D2E=      0 Chk=    160 Scr=      1
 Normal termination of Gaussian 09 at Thu May  3 11:21:01 2018.
