 Entering Gaussian System, Link 0=/cm/shared/gaussian/g09.e01/intel64-sandybridge/g09/g09
 Initial command:
 /cm/shared/gaussian/g09.e01/intel64-sandybridge/g09/l1.exe "/local/scratch/m.peluso/32_wat/Gau-43077.inp" -scrdir="/local/scratch/m.peluso/32_wat/"
 Entering Link 1 = /cm/shared/gaussian/g09.e01/intel64-sandybridge/g09/l1.exe PID=     43078.
  
 Copyright (c) 1988,1990,1992,1993,1995,1998,2003,2009,2015,
            Gaussian, Inc.  All Rights Reserved.
  
 This is part of the Gaussian(R) 09 program.  It is based on
 the Gaussian(R) 03 system (copyright 2003, Gaussian, Inc.),
 the Gaussian(R) 98 system (copyright 1998, Gaussian, Inc.),
 the Gaussian(R) 94 system (copyright 1995, Gaussian, Inc.),
 the Gaussian 92(TM) system (copyright 1992, Gaussian, Inc.),
 the Gaussian 90(TM) system (copyright 1990, Gaussian, Inc.),
 the Gaussian 88(TM) system (copyright 1988, Gaussian, Inc.),
 the Gaussian 86(TM) system (copyright 1986, Carnegie Mellon
 University), and the Gaussian 82(TM) system (copyright 1983,
 Carnegie Mellon University). Gaussian is a federally registered
 trademark of Gaussian, Inc.
  
 This software contains proprietary and confidential information,
 including trade secrets, belonging to Gaussian, Inc.
  
 This software is provided under written license and may be
 used, copied, transmitted, or stored only in accord with that
 written license.
  
 The following legend is applicable only to US Government
 contracts under FAR:
  
                    RESTRICTED RIGHTS LEGEND
  
 Use, reproduction and disclosure by the US Government is
 subject to restrictions as set forth in subparagraphs (a)
 and (c) of the Commercial Computer Software - Restricted
 Rights clause in FAR 52.227-19.
  
 Gaussian, Inc.
 340 Quinnipiac St., Bldg. 40, Wallingford CT 06492
  
  
 ---------------------------------------------------------------
 Warning -- This program may not be used in any manner that
 competes with the business of Gaussian, Inc. or will provide
 assistance to any competitor of Gaussian, Inc.  The licensee
 of this program is prohibited from giving any competitor of
 Gaussian, Inc. access to this program.  By using this program,
 the user acknowledges that Gaussian, Inc. is engaged in the
 business of creating and licensing software in the field of
 computational chemistry and represents and warrants to the
 licensee that it is not a competitor of Gaussian, Inc. and that
 it will not use this program in any manner prohibited above.
 ---------------------------------------------------------------
  

 Cite this work as:
 Gaussian 09, Revision E.01,
 M. J. Frisch, G. W. Trucks, H. B. Schlegel, G. E. Scuseria, 
 M. A. Robb, J. R. Cheeseman, G. Scalmani, V. Barone, B. Mennucci, 
 G. A. Petersson, H. Nakatsuji, M. Caricato, X. Li, H. P. Hratchian, 
 A. F. Izmaylov, J. Bloino, G. Zheng, J. L. Sonnenberg, M. Hada, 
 M. Ehara, K. Toyota, R. Fukuda, J. Hasegawa, M. Ishida, T. Nakajima, 
 Y. Honda, O. Kitao, H. Nakai, T. Vreven, J. A. Montgomery, Jr., 
 J. E. Peralta, F. Ogliaro, M. Bearpark, J. J. Heyd, E. Brothers, 
 K. N. Kudin, V. N. Staroverov, T. Keith, R. Kobayashi, J. Normand, 
 K. Raghavachari, A. Rendell, J. C. Burant, S. S. Iyengar, J. Tomasi, 
 M. Cossi, N. Rega, J. M. Millam, M. Klene, J. E. Knox, J. B. Cross, 
 V. Bakken, C. Adamo, J. Jaramillo, R. Gomperts, R. E. Stratmann, 
 O. Yazyev, A. J. Austin, R. Cammi, C. Pomelli, J. W. Ochterski, 
 R. L. Martin, K. Morokuma, V. G. Zakrzewski, G. A. Voth, 
 P. Salvador, J. J. Dannenberg, S. Dapprich, A. D. Daniels, 
 O. Farkas, J. B. Foresman, J. V. Ortiz, J. Cioslowski, 
 and D. J. Fox, Gaussian, Inc., Wallingford CT, 2013.
 
 ******************************************
 Gaussian 09:  ES64L-G09RevE.01 30-Nov-2015
                 3-May-2018 
 ******************************************
 %Mem=110GB
 %NProcShared=64
 Will use up to   64 processors via shared memory.
 %chk=snap117.chk
 ----------------------------------------------
 #p PBE1PBE/cc-pvDZ force Counterpoise=2 noSymm
 ----------------------------------------------
 1/10=7,30=1,38=1,62=2/1,3;
 2/12=2,15=1,17=6,18=5,40=1/2;
 1/10=7,30=1,38=1,53=2,62=2,63=101/22;
 3/5=16,11=2,16=1,25=1,30=1,71=1,74=-13/1,2,3;
 4//1;
 5/5=2,38=5/2;
 6/7=2,8=2,9=2,10=2,28=1/1;
 7/7=1,29=1,30=1,33=-1/1,2,3,16;
 1/10=7,30=1,53=2,62=2,63=101/22;
 3/5=7,6=11,11=2,16=1,25=1,30=1,71=1,74=-13,82=7/1,2,3;
 4//1;
 5/5=2,38=5/2;
 6/7=2,8=2,9=2,10=2,28=1/1;
 7/7=1,29=1,30=1,33=-1/1,2,3,16;
 1/10=7,30=1,53=2,62=2,63=101/22(-5);
 7/9=1,29=1,44=-1/16;
 1/10=7,30=1,62=2/3;
 99//99;
 Leave Link    1 at Thu May  3 01:06:48 2018, MaxMem= 14763950080 cpu:         7.7
 (Enter /cm/shared/gaussian/g09.e01/intel64-sandybridge/g09/l101.exe)
 --------------------------------------
 forces on chloride comput - NWATER: 32
 --------------------------------------
 Symbolic Z-matrix:
 Charge = -1 Multiplicity = 1 in supermolecule
 Charge = -1 Multiplicity = 1 in fragment      1.
 Charge =  0 Multiplicity = 1 in fragment      2.
 Br(Fragment=1)        20.       20.       20. 
 O(Fragment=2)         22.09     19.98     17.66 
 H(Fragment=2)         21.44     19.74     18.32 
 H(Fragment=2)         21.66     19.8      16.82 
 O(Fragment=2)         18.43     21.73     17.75 
 H(Fragment=2)         18.96     21.11     18.24 
 H(Fragment=2)         17.52     21.44     17.88 
 O(Fragment=2)         16.9      20.34     21.01 
 H(Fragment=2)         16.9      19.77     21.78 
 H(Fragment=2)         17.78     20.26     20.65 
 O(Fragment=2)         18.24     17.32     21.06 
 H(Fragment=2)         18.13     16.56     20.49 
 H(Fragment=2)         18.69     17.96     20.52 
 O(Fragment=2)         19.86     20.21     23.35 
 H(Fragment=2)         20.01     19.86     22.48 
 H(Fragment=2)         20.65     20.71     23.55 
 O(Fragment=2)         18.92     23.13     20.74 
 H(Fragment=2)         19.52     22.38     20.69 
 H(Fragment=2)         18.06     22.76     20.57 
 O(Fragment=2)         22.5      22.53     19.49 
 H(Fragment=2)         21.89     22.94     18.88 
 H(Fragment=2)         22.06     21.71     19.74 
 O(Fragment=2)         23.49     19.56     19.97 
 H(Fragment=2)         23.33     19.77     19.05 
 H(Fragment=2)         22.61     19.43     20.34 
 O(Fragment=2)         18.44     17.34     18.02 
 H(Fragment=2)         17.85     17.6      17.3 
 H(Fragment=2)         18.73     18.18     18.39 
 O(Fragment=2)         15.99     20.79     18.46 
 H(Fragment=2)         16.05     20.51     19.37 
 H(Fragment=2)         15.11     20.54     18.19 
 O(Fragment=2)         20.36     15.64     18.18 
 H(Fragment=2)         19.72     16.35     18.18 
 H(Fragment=2)         19.85     14.85     18.01 
 O(Fragment=2)         16.59     19.35     23.5 
 H(Fragment=2)         17.53     19.18     23.39 
 H(Fragment=2)         16.28     18.63     24.05 
 O(Fragment=2)         24.04     22.1      22.34 
 H(Fragment=2)         23.53     22.19     21.53 
 H(Fragment=2)         24.18     21.15     22.43 
 O(Fragment=2)         16.89     24.       18.5 
 H(Fragment=2)         17.56     23.32     18.38 
 H(Fragment=2)         17.37     24.74     18.88 
 O(Fragment=2)         18.26     21.95     24.6 
 H(Fragment=2)         18.81     21.37     24.07 
 H(Fragment=2)         17.51     21.41     24.86 
 O(Fragment=2)         21.25     24.83     21.31 
 H(Fragment=2)         21.68     24.47     22.08 
 H(Fragment=2)         20.41     24.36     21.26 
 O(Fragment=2)         22.31     15.09     20.01 
 H(Fragment=2)         21.61     15.54     19.54 
 H(Fragment=2)         23.1      15.32     19.53 
 O(Fragment=2)         19.14     24.31     23.39 
 H(Fragment=2)         18.74     23.6      23.89 
 H(Fragment=2)         19.11     24.       22.48 
 O(Fragment=2)         15.24     17.08     19.47 
 H(Fragment=2)         15.71     16.32     19.12 
 H(Fragment=2)         15.89     17.54     19.99 
 O(Fragment=2)         17.66     16.21     23.64 
 H(Fragment=2)         17.93     16.62     22.82 
 H(Fragment=2)         18.45     15.8      23.98 
 O(Fragment=2)         24.98     20.31     16.96 
 H(Fragment=2)         25.02     21.21     17.28 
 H(Fragment=2)         24.17     19.96     17.33 
 O(Fragment=2)         20.44     20.17     14.98 
 H(Fragment=2)         19.49     20.27     15.05 
 H(Fragment=2)         20.77     21.06     14.83 
 O(Fragment=2)         22.38     16.62     16.05 
 H(Fragment=2)         21.77     16.5      16.79 
 H(Fragment=2)         21.9      16.3      15.29 
 O(Fragment=2)         22.93     17.26     23.95 
 H(Fragment=2)         23.74     16.91     24.32 
 H(Fragment=2)         23.21     17.99     23.4 
 O(Fragment=2)         25.94     21.17     19.93 
 H(Fragment=2)         25.94     21.83     19.24 
 H(Fragment=2)         25.02     20.93     20.04 
 O(Fragment=2)         21.16     15.43     22.76 
 H(Fragment=2)         21.57     15.49     21.9 
 H(Fragment=2)         21.46     16.2      23.24 
 O(Fragment=2)         16.76     18.13     15.97 
 H(Fragment=2)         17.01     19.06     15.92 
 H(Fragment=2)         15.83     18.15     16.21 
 O(Fragment=2)         23.05     23.68     16.78 
 H(Fragment=2)         22.62     24.45     17.16 
 H(Fragment=2)         23.37     23.18     17.53 
 O(Fragment=2)         14.32     21.89     21.13 
 H(Fragment=2)         15.17     21.55     21.39 
 H(Fragment=2)         14.26     22.75     21.55 
 O(Fragment=2)         17.65     20.47     15.03 
 H(Fragment=2)         17.08     20.38     14.27 
 H(Fragment=2)         17.45     21.34     15.38 
 O(Fragment=2)         21.3      25.68     18.57 
 H(Fragment=2)         21.49     26.61     18.73 
 H(Fragment=2)         21.45     25.26     19.42 
 O(Fragment=2)         24.5      24.62     19.52 
 H(Fragment=2)         23.82     24.01     19.81 
 H(Fragment=2)         24.26     25.45     19.92 
 
 NAtoms=     97 NQM=       97 NQMF=       0 NMMI=      0 NMMIF=      0
                NMic=       0 NMicF=      0.
                    Isotopes and Nuclear Properties:
 (Nuclear quadrupole moments (NQMom) in fm**2, nuclear magnetic moments (NMagM)
  in nuclear magnetons)

  Atom         1           2           3           4           5           6           7           8           9          10
 IAtWgt=          79          16           1           1          16           1           1          16           1           1
 AtmWgt=  78.9183361  15.9949146   1.0078250   1.0078250  15.9949146   1.0078250   1.0078250  15.9949146   1.0078250   1.0078250
 NucSpn=           3           0           1           1           0           1           1           0           1           1
 AtZEff=   0.0000000   0.0000000   0.0000000   0.0000000   0.0000000   0.0000000   0.0000000   0.0000000   0.0000000   0.0000000
 NQMom=   31.3000000   0.0000000   0.0000000   0.0000000   0.0000000   0.0000000   0.0000000   0.0000000   0.0000000   0.0000000
 NMagM=    2.1063990   0.0000000   2.7928460   2.7928460   0.0000000   2.7928460   2.7928460   0.0000000   2.7928460   2.7928460
 AtZNuc=  35.0000000   8.0000000   1.0000000   1.0000000   8.0000000   1.0000000   1.0000000   8.0000000   1.0000000   1.0000000

  Atom        11          12          13          14          15          16          17          18          19          20
 IAtWgt=          16           1           1          16           1           1          16           1           1          16
 AtmWgt=  15.9949146   1.0078250   1.0078250  15.9949146   1.0078250   1.0078250  15.9949146   1.0078250   1.0078250  15.9949146
 NucSpn=           0           1           1           0           1           1           0           1           1           0
 AtZEff=   0.0000000   0.0000000   0.0000000   0.0000000   0.0000000   0.0000000   0.0000000   0.0000000   0.0000000   0.0000000
 NQMom=    0.0000000   0.0000000   0.0000000   0.0000000   0.0000000   0.0000000   0.0000000   0.0000000   0.0000000   0.0000000
 NMagM=    0.0000000   2.7928460   2.7928460   0.0000000   2.7928460   2.7928460   0.0000000   2.7928460   2.7928460   0.0000000
 AtZNuc=   8.0000000   1.0000000   1.0000000   8.0000000   1.0000000   1.0000000   8.0000000   1.0000000   1.0000000   8.0000000

  Atom        21          22          23          24          25          26          27          28          29          30
 IAtWgt=           1           1          16           1           1          16           1           1          16           1
 AtmWgt=   1.0078250   1.0078250  15.9949146   1.0078250   1.0078250  15.9949146   1.0078250   1.0078250  15.9949146   1.0078250
 NucSpn=           1           1           0           1           1           0           1           1           0           1
 AtZEff=   0.0000000   0.0000000   0.0000000   0.0000000   0.0000000   0.0000000   0.0000000   0.0000000   0.0000000   0.0000000
 NQMom=    0.0000000   0.0000000   0.0000000   0.0000000   0.0000000   0.0000000   0.0000000   0.0000000   0.0000000   0.0000000
 NMagM=    2.7928460   2.7928460   0.0000000   2.7928460   2.7928460   0.0000000   2.7928460   2.7928460   0.0000000   2.7928460
 AtZNuc=   1.0000000   1.0000000   8.0000000   1.0000000   1.0000000   8.0000000   1.0000000   1.0000000   8.0000000   1.0000000

  Atom        31          32          33          34          35          36          37          38          39          40
 IAtWgt=           1          16           1           1          16           1           1          16           1           1
 AtmWgt=   1.0078250  15.9949146   1.0078250   1.0078250  15.9949146   1.0078250   1.0078250  15.9949146   1.0078250   1.0078250
 NucSpn=           1           0           1           1           0           1           1           0           1           1
 AtZEff=   0.0000000   0.0000000   0.0000000   0.0000000   0.0000000   0.0000000   0.0000000   0.0000000   0.0000000   0.0000000
 NQMom=    0.0000000   0.0000000   0.0000000   0.0000000   0.0000000   0.0000000   0.0000000   0.0000000   0.0000000   0.0000000
 NMagM=    2.7928460   0.0000000   2.7928460   2.7928460   0.0000000   2.7928460   2.7928460   0.0000000   2.7928460   2.7928460
 AtZNuc=   1.0000000   8.0000000   1.0000000   1.0000000   8.0000000   1.0000000   1.0000000   8.0000000   1.0000000   1.0000000

  Atom        41          42          43          44          45          46          47          48          49          50
 IAtWgt=          16           1           1          16           1           1          16           1           1          16
 AtmWgt=  15.9949146   1.0078250   1.0078250  15.9949146   1.0078250   1.0078250  15.9949146   1.0078250   1.0078250  15.9949146
 NucSpn=           0           1           1           0           1           1           0           1           1           0
 AtZEff=   0.0000000   0.0000000   0.0000000   0.0000000   0.0000000   0.0000000   0.0000000   0.0000000   0.0000000   0.0000000
 NQMom=    0.0000000   0.0000000   0.0000000   0.0000000   0.0000000   0.0000000   0.0000000   0.0000000   0.0000000   0.0000000
 NMagM=    0.0000000   2.7928460   2.7928460   0.0000000   2.7928460   2.7928460   0.0000000   2.7928460   2.7928460   0.0000000
 AtZNuc=   8.0000000   1.0000000   1.0000000   8.0000000   1.0000000   1.0000000   8.0000000   1.0000000   1.0000000   8.0000000

  Atom        51          52          53          54          55          56          57          58          59          60
 IAtWgt=           1           1          16           1           1          16           1           1          16           1
 AtmWgt=   1.0078250   1.0078250  15.9949146   1.0078250   1.0078250  15.9949146   1.0078250   1.0078250  15.9949146   1.0078250
 NucSpn=           1           1           0           1           1           0           1           1           0           1
 AtZEff=   0.0000000   0.0000000   0.0000000   0.0000000   0.0000000   0.0000000   0.0000000   0.0000000   0.0000000   0.0000000
 NQMom=    0.0000000   0.0000000   0.0000000   0.0000000   0.0000000   0.0000000   0.0000000   0.0000000   0.0000000   0.0000000
 NMagM=    2.7928460   2.7928460   0.0000000   2.7928460   2.7928460   0.0000000   2.7928460   2.7928460   0.0000000   2.7928460
 AtZNuc=   1.0000000   1.0000000   8.0000000   1.0000000   1.0000000   8.0000000   1.0000000   1.0000000   8.0000000   1.0000000

  Atom        61          62          63          64          65          66          67          68          69          70
 IAtWgt=           1          16           1           1          16           1           1          16           1           1
 AtmWgt=   1.0078250  15.9949146   1.0078250   1.0078250  15.9949146   1.0078250   1.0078250  15.9949146   1.0078250   1.0078250
 NucSpn=           1           0           1           1           0           1           1           0           1           1
 AtZEff=   0.0000000   0.0000000   0.0000000   0.0000000   0.0000000   0.0000000   0.0000000   0.0000000   0.0000000   0.0000000
 NQMom=    0.0000000   0.0000000   0.0000000   0.0000000   0.0000000   0.0000000   0.0000000   0.0000000   0.0000000   0.0000000
 NMagM=    2.7928460   0.0000000   2.7928460   2.7928460   0.0000000   2.7928460   2.7928460   0.0000000   2.7928460   2.7928460
 AtZNuc=   1.0000000   8.0000000   1.0000000   1.0000000   8.0000000   1.0000000   1.0000000   8.0000000   1.0000000   1.0000000

  Atom        71          72          73          74          75          76          77          78          79          80
 IAtWgt=          16           1           1          16           1           1          16           1           1          16
 AtmWgt=  15.9949146   1.0078250   1.0078250  15.9949146   1.0078250   1.0078250  15.9949146   1.0078250   1.0078250  15.9949146
 NucSpn=           0           1           1           0           1           1           0           1           1           0
 AtZEff=   0.0000000   0.0000000   0.0000000   0.0000000   0.0000000   0.0000000   0.0000000   0.0000000   0.0000000   0.0000000
 NQMom=    0.0000000   0.0000000   0.0000000   0.0000000   0.0000000   0.0000000   0.0000000   0.0000000   0.0000000   0.0000000
 NMagM=    0.0000000   2.7928460   2.7928460   0.0000000   2.7928460   2.7928460   0.0000000   2.7928460   2.7928460   0.0000000
 AtZNuc=   8.0000000   1.0000000   1.0000000   8.0000000   1.0000000   1.0000000   8.0000000   1.0000000   1.0000000   8.0000000

  Atom        81          82          83          84          85          86          87          88          89          90
 IAtWgt=           1           1          16           1           1          16           1           1          16           1
 AtmWgt=   1.0078250   1.0078250  15.9949146   1.0078250   1.0078250  15.9949146   1.0078250   1.0078250  15.9949146   1.0078250
 NucSpn=           1           1           0           1           1           0           1           1           0           1
 AtZEff=   0.0000000   0.0000000   0.0000000   0.0000000   0.0000000   0.0000000   0.0000000   0.0000000   0.0000000   0.0000000
 NQMom=    0.0000000   0.0000000   0.0000000   0.0000000   0.0000000   0.0000000   0.0000000   0.0000000   0.0000000   0.0000000
 NMagM=    2.7928460   2.7928460   0.0000000   2.7928460   2.7928460   0.0000000   2.7928460   2.7928460   0.0000000   2.7928460
 AtZNuc=   1.0000000   1.0000000   8.0000000   1.0000000   1.0000000   8.0000000   1.0000000   1.0000000   8.0000000   1.0000000

  Atom        91          92          93          94          95          96          97
 IAtWgt=           1          16           1           1          16           1           1
 AtmWgt=   1.0078250  15.9949146   1.0078250   1.0078250  15.9949146   1.0078250   1.0078250
 NucSpn=           1           0           1           1           0           1           1
 AtZEff=   0.0000000   0.0000000   0.0000000   0.0000000   0.0000000   0.0000000   0.0000000
 NQMom=    0.0000000   0.0000000   0.0000000   0.0000000   0.0000000   0.0000000   0.0000000
 NMagM=    2.7928460   0.0000000   2.7928460   2.7928460   0.0000000   2.7928460   2.7928460
 AtZNuc=   1.0000000   8.0000000   1.0000000   1.0000000   8.0000000   1.0000000   1.0000000
 Leave Link  101 at Thu May  3 01:06:49 2018, MaxMem= 14763950080 cpu:        12.6
 (Enter /cm/shared/gaussian/g09.e01/intel64-sandybridge/g09/l103.exe)

 GradGradGradGradGradGradGradGradGradGradGradGradGradGradGradGradGradGrad
 Berny optimization.
 Initialization pass.
 Trust Radius=3.00D-01 FncErr=1.00D-07 GrdErr=1.00D-07
 Number of steps in this run=      2 maximum allowed number of steps=      2.
 GradGradGradGradGradGradGradGradGradGradGradGradGradGradGradGradGradGrad

 Leave Link  103 at Thu May  3 01:06:49 2018, MaxMem= 14763950080 cpu:         1.7
 (Enter /cm/shared/gaussian/g09.e01/intel64-sandybridge/g09/l202.exe)
 Symmetry turned off by external request.
 Stoichiometry    BrH64O32(1-)
 Framework group  C1[X(BrH64O32)]
 Deg. of freedom   285
 Full point group                 C1      NOp   1
                          Input orientation:                          
 ---------------------------------------------------------------------
 Center     Atomic      Atomic             Coordinates (Angstroms)
 Number     Number       Type             X           Y           Z
 ---------------------------------------------------------------------
      1         35           0       20.000000   20.000000   20.000000
      2          8           0       22.090000   19.980000   17.660000
      3          1           0       21.440000   19.740000   18.320000
      4          1           0       21.660000   19.800000   16.820000
      5          8           0       18.430000   21.730000   17.750000
      6          1           0       18.960000   21.110000   18.240000
      7          1           0       17.520000   21.440000   17.880000
      8          8           0       16.900000   20.340000   21.010000
      9          1           0       16.900000   19.770000   21.780000
     10          1           0       17.780000   20.260000   20.650000
     11          8           0       18.240000   17.320000   21.060000
     12          1           0       18.130000   16.560000   20.490000
     13          1           0       18.690000   17.960000   20.520000
     14          8           0       19.860000   20.210000   23.350000
     15          1           0       20.010000   19.860000   22.480000
     16          1           0       20.650000   20.710000   23.550000
     17          8           0       18.920000   23.130000   20.740000
     18          1           0       19.520000   22.380000   20.690000
     19          1           0       18.060000   22.760000   20.570000
     20          8           0       22.500000   22.530000   19.490000
     21          1           0       21.890000   22.940000   18.880000
     22          1           0       22.060000   21.710000   19.740000
     23          8           0       23.490000   19.560000   19.970000
     24          1           0       23.330000   19.770000   19.050000
     25          1           0       22.610000   19.430000   20.340000
     26          8           0       18.440000   17.340000   18.020000
     27          1           0       17.850000   17.600000   17.300000
     28          1           0       18.730000   18.180000   18.390000
     29          8           0       15.990000   20.790000   18.460000
     30          1           0       16.050000   20.510000   19.370000
     31          1           0       15.110000   20.540000   18.190000
     32          8           0       20.360000   15.640000   18.180000
     33          1           0       19.720000   16.350000   18.180000
     34          1           0       19.850000   14.850000   18.010000
     35          8           0       16.590000   19.350000   23.500000
     36          1           0       17.530000   19.180000   23.390000
     37          1           0       16.280000   18.630000   24.050000
     38          8           0       24.040000   22.100000   22.340000
     39          1           0       23.530000   22.190000   21.530000
     40          1           0       24.180000   21.150000   22.430000
     41          8           0       16.890000   24.000000   18.500000
     42          1           0       17.560000   23.320000   18.380000
     43          1           0       17.370000   24.740000   18.880000
     44          8           0       18.260000   21.950000   24.600000
     45          1           0       18.810000   21.370000   24.070000
     46          1           0       17.510000   21.410000   24.860000
     47          8           0       21.250000   24.830000   21.310000
     48          1           0       21.680000   24.470000   22.080000
     49          1           0       20.410000   24.360000   21.260000
     50          8           0       22.310000   15.090000   20.010000
     51          1           0       21.610000   15.540000   19.540000
     52          1           0       23.100000   15.320000   19.530000
     53          8           0       19.140000   24.310000   23.390000
     54          1           0       18.740000   23.600000   23.890000
     55          1           0       19.110000   24.000000   22.480000
     56          8           0       15.240000   17.080000   19.470000
     57          1           0       15.710000   16.320000   19.120000
     58          1           0       15.890000   17.540000   19.990000
     59          8           0       17.660000   16.210000   23.640000
     60          1           0       17.930000   16.620000   22.820000
     61          1           0       18.450000   15.800000   23.980000
     62          8           0       24.980000   20.310000   16.960000
     63          1           0       25.020000   21.210000   17.280000
     64          1           0       24.170000   19.960000   17.330000
     65          8           0       20.440000   20.170000   14.980000
     66          1           0       19.490000   20.270000   15.050000
     67          1           0       20.770000   21.060000   14.830000
     68          8           0       22.380000   16.620000   16.050000
     69          1           0       21.770000   16.500000   16.790000
     70          1           0       21.900000   16.300000   15.290000
     71          8           0       22.930000   17.260000   23.950000
     72          1           0       23.740000   16.910000   24.320000
     73          1           0       23.210000   17.990000   23.400000
     74          8           0       25.940000   21.170000   19.930000
     75          1           0       25.940000   21.830000   19.240000
     76          1           0       25.020000   20.930000   20.040000
     77          8           0       21.160000   15.430000   22.760000
     78          1           0       21.570000   15.490000   21.900000
     79          1           0       21.460000   16.200000   23.240000
     80          8           0       16.760000   18.130000   15.970000
     81          1           0       17.010000   19.060000   15.920000
     82          1           0       15.830000   18.150000   16.210000
     83          8           0       23.050000   23.680000   16.780000
     84          1           0       22.620000   24.450000   17.160000
     85          1           0       23.370000   23.180000   17.530000
     86          8           0       14.320000   21.890000   21.130000
     87          1           0       15.170000   21.550000   21.390000
     88          1           0       14.260000   22.750000   21.550000
     89          8           0       17.650000   20.470000   15.030000
     90          1           0       17.080000   20.380000   14.270000
     91          1           0       17.450000   21.340000   15.380000
     92          8           0       21.300000   25.680000   18.570000
     93          1           0       21.490000   26.610000   18.730000
     94          1           0       21.450000   25.260000   19.420000
     95          8           0       24.500000   24.620000   19.520000
     96          1           0       23.820000   24.010000   19.810000
     97          1           0       24.260000   25.450000   19.920000
 ---------------------------------------------------------------------
 Rotational constants (GHZ):      0.0587584      0.0520250      0.0489947
 Leave Link  202 at Thu May  3 01:06:49 2018, MaxMem= 14763950080 cpu:         0.5
 (Enter /cm/shared/gaussian/g09.e01/intel64-sandybridge/g09/l122.exe)
 Counterpoise: doing full dimer calculation.
 Leave Link  122 at Thu May  3 01:06:49 2018, MaxMem= 14763950080 cpu:         0.1
 (Enter /cm/shared/gaussian/g09.e01/intel64-sandybridge/g09/l301.exe)
 Standard basis: CC-pVDZ (5D, 7F)
 Ernie: Thresh=  0.10000D-02 Tol=  0.10000D-05 Strict=F.
 Ernie:  87 primitive shells out of 1114 were deleted.
   795 basis functions,  1651 primitive gaussians,   829 cartesian basis functions
   178 alpha electrons      178 beta electrons
       nuclear repulsion energy      6044.2078562241 Hartrees.
 IExCor= 1009 DFT=T Ex+Corr=PBE1PBE ExCW=0 ScaHFX=  0.250000
 ScaDFX=  0.750000  0.750000  1.000000  1.000000 ScalE2=  1.000000  1.000000
 IRadAn=      0 IRanWt=     -1 IRanGd=            0 ICorTp=0 IEmpDi=  4
 NAtoms=   97 NActive=   97 NUniq=   97 SFac= 1.00D+00 NAtFMM=   60 NAOKFM=T Big=T
 Integral buffers will be    131072 words long.
 Raffenetti 2 integral format.
 Two-electron integral symmetry is turned off.
 Leave Link  301 at Thu May  3 01:06:49 2018, MaxMem= 14763950080 cpu:         4.3
 (Enter /cm/shared/gaussian/g09.e01/intel64-sandybridge/g09/l302.exe)
 NPDir=0 NMtPBC=     1 NCelOv=     1 NCel=       1 NClECP=     1 NCelD=      1
         NCelK=      1 NCelE2=     1 NClLst=     1 CellRange=     0.0.
 One-electron integrals computed using PRISM.
 NBasis=   795 RedAO= T EigKep=  1.57D-02  NBF=   795
 NBsUse=   795 1.00D-06 EigRej= -1.00D+00 NBFU=   795
 Precomputing XC quadrature grid using
 IXCGrd= 4 IRadAn=           0 IRanWt=          -1 IRanGd=           0 AccXCQ= 0.00D+00.
 Generated NRdTot=       0 NPtTot=           0 NUsed=           0 NTot=          32
 NSgBfM=   751   754   754   754   754 MxSgAt=    97 MxSgA2=    97.
 Leave Link  302 at Thu May  3 01:06:55 2018, MaxMem= 14763950080 cpu:       413.0
 (Enter /cm/shared/gaussian/g09.e01/intel64-sandybridge/g09/l303.exe)
 DipDrv:  MaxL=1.
 Leave Link  303 at Thu May  3 01:06:56 2018, MaxMem= 14763950080 cpu:        29.0
 (Enter /cm/shared/gaussian/g09.e01/intel64-sandybridge/g09/l401.exe)
 ExpMin= 1.22D-01 ExpMax= 6.40D+05 ExpMxC= 6.18D+03 IAcc=2 IRadAn=         4 AccDes= 0.00D+00
 Harris functional with IExCor= 1009 and IRadAn=       4 diagonalized for initial guess.
 HarFok:  IExCor= 1009 AccDes= 0.00D+00 IRadAn=         4 IDoV= 1 UseB2=F ITyADJ=14
 ICtDFT=  3500011 ScaDFX=  1.000000  1.000000  1.000000  1.000000
 FoFCou: FMM=F IPFlag=           0 FMFlag=      100000 FMFlg1=        2001
         NFxFlg=           0 DoJE=T BraDBF=F KetDBF=T FulRan=T
         wScrn=  0.000000 ICntrl=     500 IOpCl=  0 I1Cent=   200000004 NGrid=           0
         NMat0=    1 NMatS0=      1 NMatT0=    0 NMatD0=    1 NMtDS0=    0 NMtDT0=    0
 Symmetry not used in FoFCou.
 Harris En= -5018.42110897034    
 JPrj=0 DoOrth=F DoCkMO=F.
 Leave Link  401 at Thu May  3 01:07:01 2018, MaxMem= 14763950080 cpu:       321.4
 (Enter /cm/shared/gaussian/g09.e01/intel64-sandybridge/g09/l502.exe)
 Closed shell SCF:
 Using DIIS extrapolation, IDIIS=  1040.
 Two-electron integral symmetry not used.
 IVT=     2138497 IEndB=     2138497 NGot= 14763950080 MDV= 14762516294
 LenX= 14762516294 LenY= 14761828224
 Requested convergence on RMS density matrix=1.00D-08 within 128 cycles.
 Requested convergence on MAX density matrix=1.00D-06.
 Requested convergence on             energy=1.00D-06.
 No special actions if energy rises.
 Fock matrices will be formed incrementally for  20 cycles.
 Integral accuracy reduced to 1.0D-05 until final iterations.

 Cycle   1  Pass 0  IDiag  1:
 FoFJK:  IHMeth= 1 ICntrl=       0 DoSepK=F KAlg= 0 I1Cent=   0 FoldK=F
 IRaf= 820000000 NMat=   1 IRICut=       1 DoRegI=T DoRafI=F ISym2E= 0.
 FoFCou: FMM=T IPFlag=           0 FMFlag=      100000 FMFlg1=        2001
         NFxFlg=           0 DoJE=F BraDBF=F KetDBF=F FulRan=T
         wScrn=  0.000000 ICntrl=       0 IOpCl=  0 I1Cent=           0 NGrid=           0
         NMat0=    1 NMatS0=      1 NMatT0=    0 NMatD0=    1 NMtDS0=    0 NMtDT0=    0
 Symmetry not used in FoFCou.
 FMM levels:  10  Number of levels for PrismC:   9
 E= -5015.30164671120    
 DIIS: error= 3.21D-02 at cycle   1 NSaved=   1.
 NSaved= 1 IEnMin= 1 EnMin= -5015.30164671120     IErMin= 1 ErrMin= 3.21D-02
 ErrMax= 3.21D-02  0.00D+00 EMaxC= 1.00D-01 BMatC= 2.74D+00 BMatP= 2.74D+00
 IDIUse=3 WtCom= 6.79D-01 WtEn= 3.21D-01
 Coeff-Com:  0.100D+01
 Coeff-En:   0.100D+01
 Coeff:      0.100D+01
 Gap=     0.358 Goal=   None    Shift=    0.000
 GapD=    0.358 DampG=1.000 DampE=0.500 DampFc=0.5000 IDamp=-1.
 Damping current iteration by 5.00D-01
 RMSDP=2.85D-03 MaxDP=1.57D-01              OVMax= 1.77D-01

 Cycle   2  Pass 0  IDiag  1:
 RMSU=  1.41D-03    CP:  9.85D-01
 E= -5016.09222715852     Delta-E=       -0.790580447314 Rises=F Damp=T
 DIIS: error= 8.03D-03 at cycle   2 NSaved=   2.
 NSaved= 2 IEnMin= 2 EnMin= -5016.09222715852     IErMin= 2 ErrMin= 8.03D-03
 ErrMax= 8.03D-03  0.00D+00 EMaxC= 1.00D-01 BMatC= 8.90D-02 BMatP= 2.74D+00
 IDIUse=3 WtCom= 9.20D-01 WtEn= 8.03D-02
 Coeff-Com:  0.121D+00 0.879D+00
 Coeff-En:   0.219D+00 0.781D+00
 Coeff:      0.129D+00 0.871D+00
 Gap=     0.242 Goal=   None    Shift=    0.000
 RMSDP=3.62D-04 MaxDP=1.89D-02 DE=-7.91D-01 OVMax= 9.72D-02

 Cycle   3  Pass 0  IDiag  1:
 RMSU=  2.79D-04    CP:  9.87D-01  8.38D-01
 E= -5017.25413352379     Delta-E=       -1.161906365278 Rises=F Damp=F
 DIIS: error= 1.48D-03 at cycle   3 NSaved=   3.
 NSaved= 3 IEnMin= 3 EnMin= -5017.25413352379     IErMin= 3 ErrMin= 1.48D-03
 ErrMax= 1.48D-03  0.00D+00 EMaxC= 1.00D-01 BMatC= 1.69D-03 BMatP= 8.90D-02
 IDIUse=3 WtCom= 9.85D-01 WtEn= 1.48D-02
 Coeff-Com:  0.884D-02 0.640D-01 0.927D+00
 Coeff-En:   0.000D+00 0.000D+00 0.100D+01
 Coeff:      0.871D-02 0.630D-01 0.928D+00
 Gap=     0.247 Goal=   None    Shift=    0.000
 RMSDP=9.78D-05 MaxDP=1.48D-02 DE=-1.16D+00 OVMax= 1.55D-02

 Cycle   4  Pass 0  IDiag  1:
 RMSU=  8.44D-05    CP:  9.87D-01  8.43D-01  8.26D-01
 E= -5017.25466858742     Delta-E=       -0.000535063626 Rises=F Damp=F
 DIIS: error= 1.05D-03 at cycle   4 NSaved=   4.
 NSaved= 4 IEnMin= 4 EnMin= -5017.25466858742     IErMin= 4 ErrMin= 1.05D-03
 ErrMax= 1.05D-03  0.00D+00 EMaxC= 1.00D-01 BMatC= 1.56D-03 BMatP= 1.69D-03
 IDIUse=3 WtCom= 9.89D-01 WtEn= 1.05D-02
 Coeff-Com:  0.209D-02 0.719D-02 0.487D+00 0.504D+00
 Coeff-En:   0.000D+00 0.000D+00 0.409D+00 0.591D+00
 Coeff:      0.207D-02 0.711D-02 0.486D+00 0.505D+00
 Gap=     0.242 Goal=   None    Shift=    0.000
 RMSDP=4.15D-05 MaxDP=6.24D-03 DE=-5.35D-04 OVMax= 5.59D-03

 Cycle   5  Pass 0  IDiag  1:
 RMSU=  1.69D-05    CP:  9.87D-01  8.40D-01  8.90D-01  6.08D-01
 E= -5017.25595404357     Delta-E=       -0.001285456146 Rises=F Damp=F
 DIIS: error= 1.21D-04 at cycle   5 NSaved=   5.
 NSaved= 5 IEnMin= 5 EnMin= -5017.25595404357     IErMin= 5 ErrMin= 1.21D-04
 ErrMax= 1.21D-04  0.00D+00 EMaxC= 1.00D-01 BMatC= 3.66D-05 BMatP= 1.56D-03
 IDIUse=3 WtCom= 9.99D-01 WtEn= 1.21D-03
 Coeff-Com:  0.701D-03-0.169D-02 0.144D+00 0.187D+00 0.670D+00
 Coeff-En:   0.000D+00 0.000D+00 0.000D+00 0.000D+00 0.100D+01
 Coeff:      0.700D-03-0.169D-02 0.144D+00 0.187D+00 0.671D+00
 Gap=     0.242 Goal=   None    Shift=    0.000
 RMSDP=7.95D-06 MaxDP=1.00D-03 DE=-1.29D-03 OVMax= 1.03D-03

 Cycle   6  Pass 0  IDiag  1:
 RMSU=  5.57D-06    CP:  9.87D-01  8.39D-01  9.00D-01  5.89D-01  7.32D-01
 E= -5017.25598118516     Delta-E=       -0.000027141597 Rises=F Damp=F
 DIIS: error= 7.43D-05 at cycle   6 NSaved=   6.
 NSaved= 6 IEnMin= 6 EnMin= -5017.25598118516     IErMin= 6 ErrMin= 7.43D-05
 ErrMax= 7.43D-05  0.00D+00 EMaxC= 1.00D-01 BMatC= 4.41D-06 BMatP= 3.66D-05
 IDIUse=1 WtCom= 1.00D+00 WtEn= 0.00D+00
 Coeff-Com:  0.157D-03-0.199D-02 0.346D-01 0.471D-01 0.294D+00 0.626D+00
 Coeff:      0.157D-03-0.199D-02 0.346D-01 0.471D-01 0.294D+00 0.626D+00
 Gap=     0.242 Goal=   None    Shift=    0.000
 RMSDP=2.33D-06 MaxDP=4.17D-04 DE=-2.71D-05 OVMax= 3.18D-04

 Initial convergence to 1.0D-05 achieved.  Increase integral accuracy.
 Cycle   7  Pass 1  IDiag  1:
 E= -5017.25651148296     Delta-E=       -0.000530297801 Rises=F Damp=F
 DIIS: error= 2.26D-05 at cycle   1 NSaved=   1.
 NSaved= 1 IEnMin= 1 EnMin= -5017.25651148296     IErMin= 1 ErrMin= 2.26D-05
 ErrMax= 2.26D-05  0.00D+00 EMaxC= 1.00D-01 BMatC= 1.25D-06 BMatP= 1.25D-06
 IDIUse=1 WtCom= 1.00D+00 WtEn= 0.00D+00
 Coeff-Com:  0.100D+01
 Coeff:      0.100D+01
 Gap=     0.242 Goal=   None    Shift=    0.000
 RMSDP=2.33D-06 MaxDP=4.17D-04 DE=-5.30D-04 OVMax= 1.63D-04

 Cycle   8  Pass 1  IDiag  1:
 RMSU=  4.02D-06    CP:  1.00D+00
 E= -5017.25651265769     Delta-E=       -0.000001174723 Rises=F Damp=F
 DIIS: error= 9.40D-06 at cycle   2 NSaved=   2.
 NSaved= 2 IEnMin= 2 EnMin= -5017.25651265769     IErMin= 2 ErrMin= 9.40D-06
 ErrMax= 9.40D-06  0.00D+00 EMaxC= 1.00D-01 BMatC= 2.46D-07 BMatP= 1.25D-06
 IDIUse=1 WtCom= 1.00D+00 WtEn= 0.00D+00
 Coeff-Com:  0.226D+00 0.774D+00
 Coeff:      0.226D+00 0.774D+00
 Gap=     0.242 Goal=   None    Shift=    0.000
 RMSDP=7.08D-07 MaxDP=6.49D-05 DE=-1.17D-06 OVMax= 6.44D-05

 Cycle   9  Pass 1  IDiag  1:
 RMSU=  7.06D-07    CP:  1.00D+00  9.86D-01
 E= -5017.25651272193     Delta-E=       -0.000000064243 Rises=F Damp=F
 DIIS: error= 7.61D-06 at cycle   3 NSaved=   3.
 NSaved= 3 IEnMin= 3 EnMin= -5017.25651272193     IErMin= 3 ErrMin= 7.61D-06
 ErrMax= 7.61D-06  0.00D+00 EMaxC= 1.00D-01 BMatC= 1.61D-07 BMatP= 2.46D-07
 IDIUse=1 WtCom= 1.00D+00 WtEn= 0.00D+00
 Coeff-Com: -0.707D-02 0.448D+00 0.560D+00
 Coeff:     -0.707D-02 0.448D+00 0.560D+00
 Gap=     0.242 Goal=   None    Shift=    0.000
 RMSDP=3.19D-07 MaxDP=3.05D-05 DE=-6.42D-08 OVMax= 2.98D-05

 Cycle  10  Pass 1  IDiag  1:
 RMSU=  8.73D-08    CP:  1.00D+00  1.01D+00  5.83D-01
 E= -5017.25651283638     Delta-E=       -0.000000114445 Rises=F Damp=F
 DIIS: error= 8.52D-07 at cycle   4 NSaved=   4.
 NSaved= 4 IEnMin= 4 EnMin= -5017.25651283638     IErMin= 4 ErrMin= 8.52D-07
 ErrMax= 8.52D-07  0.00D+00 EMaxC= 1.00D-01 BMatC= 8.78D-10 BMatP= 1.61D-07
 IDIUse=1 WtCom= 1.00D+00 WtEn= 0.00D+00
 Coeff-Com: -0.487D-02 0.194D+00 0.251D+00 0.560D+00
 Coeff:     -0.487D-02 0.194D+00 0.251D+00 0.560D+00
 Gap=     0.242 Goal=   None    Shift=    0.000
 RMSDP=3.63D-08 MaxDP=5.76D-06 DE=-1.14D-07 OVMax= 5.19D-06

 Cycle  11  Pass 1  IDiag  1:
 RMSU=  2.61D-08    CP:  1.00D+00  1.01D+00  5.83D-01  7.14D-01
 E= -5017.25651283715     Delta-E=       -0.000000000777 Rises=F Damp=F
 DIIS: error= 1.46D-07 at cycle   5 NSaved=   5.
 NSaved= 5 IEnMin= 5 EnMin= -5017.25651283715     IErMin= 5 ErrMin= 1.46D-07
 ErrMax= 1.46D-07  0.00D+00 EMaxC= 1.00D-01 BMatC= 5.25D-11 BMatP= 8.78D-10
 IDIUse=1 WtCom= 1.00D+00 WtEn= 0.00D+00
 Coeff-Com: -0.159D-02 0.511D-01 0.670D-01 0.238D+00 0.646D+00
 Coeff:     -0.159D-02 0.511D-01 0.670D-01 0.238D+00 0.646D+00
 Gap=     0.242 Goal=   None    Shift=    0.000
 RMSDP=7.48D-09 MaxDP=9.01D-07 DE=-7.77D-10 OVMax= 7.21D-07

 SCF Done:  E(RPBE1PBE) =  -5017.25651284     A.U. after   11 cycles
            NFock= 11  Conv=0.75D-08     -V/T= 2.0028
 KE= 5.003142115260D+03 PE=-2.405184577106D+04 EE= 7.987239286734D+03
 Leave Link  502 at Thu May  3 01:08:58 2018, MaxMem= 14763950080 cpu:      7383.6
 (Enter /cm/shared/gaussian/g09.e01/intel64-sandybridge/g09/l601.exe)
 Copying SCF densities to generalized density rwf, IOpCl= 0 IROHF=0.

 **********************************************************************

            Population analysis using the SCF density.

 **********************************************************************

 Alpha  occ. eigenvalues -- -483.19311 -62.59597 -56.36843 -56.36830 -56.36820
 Alpha  occ. eigenvalues --  -19.21103 -19.17049 -19.16725 -19.16523 -19.16391
 Alpha  occ. eigenvalues --  -19.16243 -19.16124 -19.15532 -19.15469 -19.14968
 Alpha  occ. eigenvalues --  -19.14478 -19.14394 -19.13663 -19.13225 -19.13076
 Alpha  occ. eigenvalues --  -19.12757 -19.12434 -19.12375 -19.12135 -19.12037
 Alpha  occ. eigenvalues --  -19.11457 -19.10920 -19.10795 -19.10683 -19.10646
 Alpha  occ. eigenvalues --  -19.10145 -19.09638 -19.09104 -19.08952 -19.08322
 Alpha  occ. eigenvalues --  -19.07579 -19.07150  -8.69901  -6.50249  -6.50216
 Alpha  occ. eigenvalues --   -6.50161  -2.58530  -2.58528  -2.58483  -2.58455
 Alpha  occ. eigenvalues --   -2.58446  -1.03646  -1.00014  -0.99894  -0.99243
 Alpha  occ. eigenvalues --   -0.98881  -0.98614  -0.98571  -0.98077  -0.97864
 Alpha  occ. eigenvalues --   -0.97808  -0.96962  -0.96854  -0.96260  -0.96179
 Alpha  occ. eigenvalues --   -0.95690  -0.95131  -0.94811  -0.94449  -0.94412
 Alpha  occ. eigenvalues --   -0.94160  -0.94115  -0.93708  -0.93452  -0.93350
 Alpha  occ. eigenvalues --   -0.93254  -0.92554  -0.91953  -0.91556  -0.91477
 Alpha  occ. eigenvalues --   -0.90859  -0.90360  -0.89942  -0.69419  -0.53520
 Alpha  occ. eigenvalues --   -0.51051  -0.50568  -0.50415  -0.49810  -0.49447
 Alpha  occ. eigenvalues --   -0.49093  -0.48807  -0.48613  -0.48370  -0.47964
 Alpha  occ. eigenvalues --   -0.47234  -0.47229  -0.46790  -0.46643  -0.46468
 Alpha  occ. eigenvalues --   -0.46089  -0.45613  -0.45499  -0.45092  -0.44933
 Alpha  occ. eigenvalues --   -0.44883  -0.44531  -0.44182  -0.43868  -0.43389
 Alpha  occ. eigenvalues --   -0.42423  -0.42396  -0.42004  -0.41984  -0.41816
 Alpha  occ. eigenvalues --   -0.41604  -0.39474  -0.38495  -0.36974  -0.36516
 Alpha  occ. eigenvalues --   -0.36215  -0.35606  -0.35232  -0.35055  -0.34873
 Alpha  occ. eigenvalues --   -0.34818  -0.34174  -0.33853  -0.33199  -0.33002
 Alpha  occ. eigenvalues --   -0.32347  -0.32204  -0.31206  -0.30964  -0.30436
 Alpha  occ. eigenvalues --   -0.30278  -0.30030  -0.29778  -0.29583  -0.29481
 Alpha  occ. eigenvalues --   -0.29412  -0.29280  -0.28934  -0.28830  -0.28164
 Alpha  occ. eigenvalues --   -0.28080  -0.28000  -0.27670  -0.27574  -0.27382
 Alpha  occ. eigenvalues --   -0.27231  -0.26932  -0.26896  -0.26665  -0.26406
 Alpha  occ. eigenvalues --   -0.26250  -0.25453  -0.25373  -0.25320  -0.25074
 Alpha  occ. eigenvalues --   -0.24694  -0.24316  -0.24053  -0.23912  -0.23696
 Alpha  occ. eigenvalues --   -0.23436  -0.23278  -0.23137  -0.22925  -0.22772
 Alpha  occ. eigenvalues --   -0.22690  -0.22404  -0.21982  -0.21891  -0.21578
 Alpha  occ. eigenvalues --   -0.21452  -0.20848  -0.20627  -0.20053  -0.19829
 Alpha  occ. eigenvalues --   -0.18921  -0.18687  -0.18443
 Alpha virt. eigenvalues --    0.05756   0.07583   0.09317   0.10222   0.10808
 Alpha virt. eigenvalues --    0.11946   0.12819   0.13350   0.13430   0.14124
 Alpha virt. eigenvalues --    0.14811   0.15649   0.15838   0.16505   0.16673
 Alpha virt. eigenvalues --    0.16776   0.17356   0.17717   0.17848   0.18222
 Alpha virt. eigenvalues --    0.18577   0.19047   0.19551   0.19656   0.20040
 Alpha virt. eigenvalues --    0.20320   0.20664   0.21197   0.21543   0.22065
 Alpha virt. eigenvalues --    0.22409   0.22831   0.23997   0.24834   0.25033
 Alpha virt. eigenvalues --    0.25590   0.25708   0.26302   0.26716   0.26868
 Alpha virt. eigenvalues --    0.27651   0.28544   0.28749   0.28757   0.29702
 Alpha virt. eigenvalues --    0.30246   0.30750   0.30929   0.30986   0.31701
 Alpha virt. eigenvalues --    0.31881   0.32564   0.33059   0.33435   0.33761
 Alpha virt. eigenvalues --    0.34504   0.34809   0.36109   0.36322   0.37352
 Alpha virt. eigenvalues --    0.37464   0.38296   0.39191   0.39469   0.55992
 Alpha virt. eigenvalues --    0.57075   0.59017   0.59477   0.60140   0.60321
 Alpha virt. eigenvalues --    0.60789   0.61119   0.62125   0.62387   0.63016
 Alpha virt. eigenvalues --    0.63188   0.63581   0.64341   0.64630   0.64694
 Alpha virt. eigenvalues --    0.64833   0.65167   0.65702   0.65747   0.66121
 Alpha virt. eigenvalues --    0.66459   0.66578   0.66962   0.67086   0.67389
 Alpha virt. eigenvalues --    0.67798   0.68016   0.68250   0.68437   0.68665
 Alpha virt. eigenvalues --    0.68992   0.69431   0.69708   0.69999   0.70401
 Alpha virt. eigenvalues --    0.70506   0.70858   0.71012   0.71214   0.71373
 Alpha virt. eigenvalues --    0.71545   0.72224   0.72343   0.72825   0.73105
 Alpha virt. eigenvalues --    0.73515   0.73728   0.73893   0.74507   0.74853
 Alpha virt. eigenvalues --    0.75301   0.75686   0.75846   0.76699   0.76781
 Alpha virt. eigenvalues --    0.77012   0.77538   0.77994   0.78611   0.79234
 Alpha virt. eigenvalues --    0.79780   0.79947   0.80440   0.81014   0.81491
 Alpha virt. eigenvalues --    0.82017   0.82238   0.83283   0.84296   0.84928
 Alpha virt. eigenvalues --    0.89569   0.91623   0.93086   0.93981   0.94754
 Alpha virt. eigenvalues --    0.95055   0.95514   0.95815   0.96071   0.96751
 Alpha virt. eigenvalues --    0.97295   0.98011   0.98766   0.98959   0.99368
 Alpha virt. eigenvalues --    0.99470   0.99796   0.99949   1.00222   1.00703
 Alpha virt. eigenvalues --    1.00976   1.01177   1.01245   1.01536   1.01782
 Alpha virt. eigenvalues --    1.02022   1.02321   1.02496   1.02772   1.02901
 Alpha virt. eigenvalues --    1.03134   1.03413   1.03589   1.03952   1.04072
 Alpha virt. eigenvalues --    1.04570   1.04717   1.05042   1.05154   1.05366
 Alpha virt. eigenvalues --    1.06011   1.06434   1.06884   1.07277   1.07603
 Alpha virt. eigenvalues --    1.07976   1.08280   1.08804   1.08842   1.09470
 Alpha virt. eigenvalues --    1.09755   1.09812   1.10229   1.10365   1.10501
 Alpha virt. eigenvalues --    1.10719   1.11087   1.11099   1.11404   1.11641
 Alpha virt. eigenvalues --    1.11994   1.12305   1.12568   1.12902   1.13240
 Alpha virt. eigenvalues --    1.13768   1.14001   1.14615   1.15220   1.15413
 Alpha virt. eigenvalues --    1.15875   1.16037   1.16057   1.16395   1.16578
 Alpha virt. eigenvalues --    1.16700   1.17464   1.17622   1.18172   1.18587
 Alpha virt. eigenvalues --    1.18948   1.19099   1.19727   1.20106   1.20632
 Alpha virt. eigenvalues --    1.20735   1.21709   1.22007   1.22208   1.22583
 Alpha virt. eigenvalues --    1.22897   1.23836   1.24769   1.24995   1.25315
 Alpha virt. eigenvalues --    1.25528   1.26289   1.26577   1.27278   1.27424
 Alpha virt. eigenvalues --    1.27791   1.27902   1.28054   1.28677   1.29352
 Alpha virt. eigenvalues --    1.29448   1.29874   1.30101   1.30405   1.30923
 Alpha virt. eigenvalues --    1.31086   1.31405   1.31597   1.31654   1.32006
 Alpha virt. eigenvalues --    1.32206   1.32313   1.32518   1.32723   1.32890
 Alpha virt. eigenvalues --    1.32931   1.33197   1.33321   1.33671   1.34300
 Alpha virt. eigenvalues --    1.34751   1.35137   1.35521   1.35597   1.35652
 Alpha virt. eigenvalues --    1.36003   1.36038   1.36656   1.37117   1.37404
 Alpha virt. eigenvalues --    1.37560   1.38030   1.38411   1.38641   1.39361
 Alpha virt. eigenvalues --    1.39476   1.39751   1.39807   1.40125   1.40541
 Alpha virt. eigenvalues --    1.40923   1.41359   1.41620   1.42017   1.42237
 Alpha virt. eigenvalues --    1.42793   1.43760   1.44223   1.44526   1.45450
 Alpha virt. eigenvalues --    1.46031   1.46784   1.46849   1.46939   1.47737
 Alpha virt. eigenvalues --    1.49001   1.49537   1.49735   1.50219   1.50493
 Alpha virt. eigenvalues --    1.50724   1.51287   1.51488   1.51884   1.52263
 Alpha virt. eigenvalues --    1.53032   1.53463   1.54074   1.54360   1.54895
 Alpha virt. eigenvalues --    1.54924   1.55345   1.55507   1.55639   1.56011
 Alpha virt. eigenvalues --    1.56695   1.57290   1.57773   1.58050   1.58384
 Alpha virt. eigenvalues --    1.58710   1.58852   1.59143   1.60491   1.61022
 Alpha virt. eigenvalues --    1.61851   1.62404   1.62514   1.63018   1.64687
 Alpha virt. eigenvalues --    1.67759   1.68567   1.71103   1.71474   1.71868
 Alpha virt. eigenvalues --    1.72674   1.73130   1.73949   1.74518   1.74713
 Alpha virt. eigenvalues --    1.74822   1.75489   1.75531   1.76372   1.76709
 Alpha virt. eigenvalues --    1.76965   1.77093   1.77881   1.78016   1.78173
 Alpha virt. eigenvalues --    1.78598   1.78745   1.79444   1.79617   1.79902
 Alpha virt. eigenvalues --    1.80073   1.80424   1.80847   1.80876   1.81139
 Alpha virt. eigenvalues --    1.81620   1.82091   1.82454   1.82914   1.83488
 Alpha virt. eigenvalues --    1.83629   1.83808   1.84546   1.85128   1.85375
 Alpha virt. eigenvalues --    1.85771   1.86446   1.87477   1.88191   1.88559
 Alpha virt. eigenvalues --    1.88730   1.89251   1.89877   1.91032   1.91426
 Alpha virt. eigenvalues --    1.91683   1.92994   1.93258   1.94720   1.95139
 Alpha virt. eigenvalues --    1.95482   1.96144   1.96355   1.98159   1.98380
 Alpha virt. eigenvalues --    1.99907   2.02645   2.06115   2.16393   2.17092
 Alpha virt. eigenvalues --    2.18711   2.19149   2.20384   2.20979   2.21337
 Alpha virt. eigenvalues --    2.21545   2.21854   2.21898   2.22300   2.22533
 Alpha virt. eigenvalues --    2.22651   2.22998   2.23487   2.23806   2.23924
 Alpha virt. eigenvalues --    2.24031   2.24259   2.24473   2.24846   2.24949
 Alpha virt. eigenvalues --    2.25605   2.25702   2.25932   2.26218   2.26334
 Alpha virt. eigenvalues --    2.26566   2.26872   2.27195   2.27549   2.27918
 Alpha virt. eigenvalues --    2.28089   2.28317   2.28942   2.29504   2.30385
 Alpha virt. eigenvalues --    2.30761   2.32494   2.33534   2.35976   2.36273
 Alpha virt. eigenvalues --    2.37060   2.37092   2.37636   2.38514   2.41162
 Alpha virt. eigenvalues --    2.42252   2.42734   2.43519   2.43880   2.45037
 Alpha virt. eigenvalues --    2.45439   2.45645   2.45860   2.46563   2.48904
 Alpha virt. eigenvalues --    2.50290   2.50709   2.52211   2.54074   2.55164
 Alpha virt. eigenvalues --    2.56743   2.59484   2.92536   2.95519   2.96293
 Alpha virt. eigenvalues --    2.97187   2.97214   2.97732   2.97794   2.97809
 Alpha virt. eigenvalues --    2.98097   2.98153   2.98344   2.99143   2.99763
 Alpha virt. eigenvalues --    2.99842   2.99891   3.00022   3.00673   3.00841
 Alpha virt. eigenvalues --    3.01078   3.01331   3.01536   3.01869   3.01981
 Alpha virt. eigenvalues --    3.02069   3.02163   3.02414   3.02573   3.02698
 Alpha virt. eigenvalues --    3.03012   3.03092   3.03268   3.03566   3.03595
 Alpha virt. eigenvalues --    3.03695   3.04023   3.04331   3.04468   3.04563
 Alpha virt. eigenvalues --    3.04612   3.04829   3.04960   3.05464   3.05874
 Alpha virt. eigenvalues --    3.05985   3.06421   3.06733   3.07070   3.07236
 Alpha virt. eigenvalues --    3.07531   3.07537   3.07707   3.07921   3.08229
 Alpha virt. eigenvalues --    3.08301   3.08667   3.09442   3.09597   3.11176
 Alpha virt. eigenvalues --    3.11298   3.11696   3.11752   3.12064   3.12484
 Alpha virt. eigenvalues --    3.12845   3.15023   3.17429   3.18004   3.19904
 Alpha virt. eigenvalues --    3.20259   3.21271   3.21497   3.21736   3.22073
 Alpha virt. eigenvalues --    3.22202   3.22544   3.23141   3.23251   3.23526
 Alpha virt. eigenvalues --    3.23740   3.24149   3.24320   3.24522   3.24695
 Alpha virt. eigenvalues --    3.24778   3.24894   3.25105   3.25312   3.25885
 Alpha virt. eigenvalues --    3.26319   3.26484   3.26958   3.27140   3.28926
 Alpha virt. eigenvalues --    3.29400   3.29827   3.30920   3.52883   3.54428
 Alpha virt. eigenvalues --    3.54927   3.55599   3.56551   3.57055   3.57601
 Alpha virt. eigenvalues --    3.58027   3.58909   3.58978   3.59101   3.59278
 Alpha virt. eigenvalues --    3.59718   3.59927   3.60353   3.60680   3.61390
 Alpha virt. eigenvalues --    3.61569   3.62300   3.62566   3.63003   3.63286
 Alpha virt. eigenvalues --    3.63793   3.64041   3.64887   3.65528   3.66509
 Alpha virt. eigenvalues --    3.66627   3.66971   3.67727   3.68542   3.70133
 Alpha virt. eigenvalues --    3.80974   3.81407   3.82933   3.84015   3.84274
 Alpha virt. eigenvalues --    3.84728   3.84981   3.85485   3.85797   3.86331
 Alpha virt. eigenvalues --    3.86921   3.87219   3.87649   3.88040   3.88144
 Alpha virt. eigenvalues --    3.88704   3.89209   3.89711   3.90453   3.91258
 Alpha virt. eigenvalues --    3.92188   3.92558   3.92968   3.93531   3.93614
 Alpha virt. eigenvalues --    3.94555   3.95007   3.95231   3.95725   3.97686
 Alpha virt. eigenvalues --    3.98171   4.01049
          Condensed to atoms (all electrons):
 Mulliken charges:
               1
     1  Br  -0.709310
     2  O   -0.282844
     3  H    0.140813
     4  H    0.137434
     5  O   -0.302408
     6  H    0.136764
     7  H    0.150009
     8  O   -0.275252
     9  H    0.137065
    10  H    0.137744
    11  O   -0.243772
    12  H    0.140359
    13  H    0.129598
    14  O   -0.237113
    15  H    0.142622
    16  H    0.150261
    17  O   -0.251034
    18  H    0.138252
    19  H    0.130153
    20  O   -0.258161
    21  H    0.139708
    22  H    0.125307
    23  O   -0.278627
    24  H    0.136116
    25  H    0.126863
    26  O   -0.289536
    27  H    0.146069
    28  H    0.137672
    29  O   -0.259926
    30  H    0.139382
    31  H    0.135352
    32  O   -0.268844
    33  H    0.146578
    34  H    0.138149
    35  O   -0.247922
    36  H    0.141437
    37  H    0.158317
    38  O   -0.280624
    39  H    0.129495
    40  H    0.134128
    41  O   -0.307262
    42  H    0.120784
    43  H    0.134366
    44  O   -0.292432
    45  H    0.126190
    46  H    0.129898
    47  O   -0.275685
    48  H    0.136506
    49  H    0.156650
    50  O   -0.279285
    51  H    0.131074
    52  H    0.134788
    53  O   -0.337101
    54  H    0.132368
    55  H    0.101516
    56  O   -0.281095
    57  H    0.131483
    58  H    0.123396
    59  O   -0.312447
    60  H    0.129183
    61  H    0.136718
    62  O   -0.275162
    63  H    0.116075
    64  H    0.145692
    65  O   -0.283933
    66  H    0.133069
    67  H    0.145710
    68  O   -0.288049
    69  H    0.123486
    70  H    0.122433
    71  O   -0.237365
    72  H    0.143783
    73  H    0.139262
    74  O   -0.282759
    75  H    0.124788
    76  H    0.108395
    77  O   -0.327419
    78  H    0.114274
    79  H    0.123771
    80  O   -0.279537
    81  H    0.141829
    82  H    0.143167
    83  O   -0.300539
    84  H    0.123520
    85  H    0.124768
    86  O   -0.290251
    87  H    0.131697
    88  H    0.131967
    89  O   -0.211370
    90  H    0.152388
    91  H    0.166321
    92  O   -0.287458
    93  H    0.137488
    94  H    0.135163
    95  O   -0.280327
    96  H    0.132167
    97  H    0.123065
 Sum of Mulliken charges =  -1.00000
 Mulliken charges with hydrogens summed into heavy atoms:
               1
     1  Br  -0.709310
     2  O   -0.004597
     5  O   -0.015634
     8  O   -0.000443
    11  O    0.026185
    14  O    0.055770
    17  O    0.017371
    20  O    0.006853
    23  O   -0.015648
    26  O   -0.005795
    29  O    0.014808
    32  O    0.015883
    35  O    0.051832
    38  O   -0.017001
    41  O   -0.052111
    44  O   -0.036343
    47  O    0.017471
    50  O   -0.013423
    53  O   -0.103217
    56  O   -0.026215
    59  O   -0.046546
    62  O   -0.013395
    65  O   -0.005154
    68  O   -0.042130
    71  O    0.045680
    74  O   -0.049575
    77  O   -0.089374
    80  O    0.005458
    83  O   -0.052251
    86  O   -0.026587
    89  O    0.107339
    92  O   -0.014807
    95  O   -0.025094
         Mulliken charges condensed to fragments:
      1     -0.709310
      2     -0.290690
 Electronic spatial extent (au):  <R**2>=        1561371.0891
 Charge=             -1.0000 electrons
 Dipole moment (field-independent basis, Debye):
    X=           -105.8520    Y=            -99.9961    Z=            -98.3384  Tot=            175.7109
 Quadrupole moment (field-independent basis, Debye-Ang):
   XX=          -2640.7758   YY=          -2374.1181   ZZ=          -2266.2752
   XY=          -2197.7050   XZ=          -2102.8253   YZ=          -2044.3988
 Traceless Quadrupole moment (field-independent basis, Debye-Ang):
   XX=           -213.7194   YY=             52.9382   ZZ=            160.7812
   XY=          -2197.7050   XZ=          -2102.8253   YZ=          -2044.3988
 Octapole moment (field-independent basis, Debye-Ang**2):
  XXX=         -70157.6437  YYY=         -60986.2194  ZZZ=         -56387.3447  XYY=         -51508.6754
  XXY=         -54625.1609  XXZ=         -51231.3250  XZZ=         -47057.5923  YZZ=         -46986.5990
  YYZ=         -48483.2882  XYZ=         -43692.1077
 Hexadecapole moment (field-independent basis, Debye-Ang**3):
 XXXX=       -1908379.1190 YYYY=       -1623913.4383 ZZZZ=       -1459007.0410 XXXY=       -1447759.7835
 XXXZ=       -1341972.5572 YYYX=       -1302318.6738 YYYZ=       -1244137.0929 ZZZX=       -1145114.2404
 ZZZY=       -1166071.8856 XXYY=       -1252336.6799 XXZZ=       -1105976.5102 YYZZ=       -1100564.6803
 XXYZ=       -1062126.2233 YYXZ=       -1027642.3509 ZZXY=        -977347.0619
 N-N= 6.044207856224D+03 E-N=-2.405184577561D+04  KE= 5.003142115260D+03
 No NMR shielding tensors so no spin-rotation constants.
 Leave Link  601 at Thu May  3 01:09:01 2018, MaxMem= 14763950080 cpu:        69.7
 (Enter /cm/shared/gaussian/g09.e01/intel64-sandybridge/g09/l701.exe)
 Compute integral first derivatives.
 ... and contract with generalized density number  0.
 Leave Link  701 at Thu May  3 01:09:03 2018, MaxMem= 14763950080 cpu:       124.9
 (Enter /cm/shared/gaussian/g09.e01/intel64-sandybridge/g09/l702.exe)
 L702 exits ... SP integral derivatives will be done elsewhere.
 Leave Link  702 at Thu May  3 01:09:03 2018, MaxMem= 14763950080 cpu:         1.7
 (Enter /cm/shared/gaussian/g09.e01/intel64-sandybridge/g09/l703.exe)
 Compute integral first derivatives, UseDBF=F ICtDFT=           0.
 Integral derivatives from FoFJK, PRISM(SPDF).
 Calling FoFJK, ICntrl=      2127 FMM=T ISym2X=0 I1Cent= 0 IOpClX= 0 NMat=1 NMatS=1 NMatT=0.
 FoFJK:  IHMeth= 1 ICntrl=    2127 DoSepK=F KAlg= 0 I1Cent=   0 FoldK=F
 IRaf=         0 NMat=   1 IRICut=       1 DoRegI=T DoRafI=F ISym2E= 0.
 FoFCou: FMM=T IPFlag=           0 FMFlag=      100000 FMFlg1=        2001
         NFxFlg=           0 DoJE=F BraDBF=F KetDBF=F FulRan=T
         wScrn=  0.000000 ICntrl=    2127 IOpCl=  0 I1Cent=           0 NGrid=           0
         NMat0=    1 NMatS0=      1 NMatT0=    0 NMatD0=    1 NMtDS0=    0 NMtDT0=    0
 Symmetry not used in FoFCou.
 FMM levels:  10  Number of levels for PrismC:   9
 Leave Link  703 at Thu May  3 01:09:18 2018, MaxMem= 14763950080 cpu:       989.1
 (Enter /cm/shared/gaussian/g09.e01/intel64-sandybridge/g09/l716.exe)
 Dipole        =-4.16454040D+01-3.93414837D+01-3.86892919D+01
 Cartesian Forces:  Max     0.029955819 RMS     0.008953352
 Leave Link  716 at Thu May  3 01:09:19 2018, MaxMem= 14763950080 cpu:         3.5
 (Enter /cm/shared/gaussian/g09.e01/intel64-sandybridge/g09/l122.exe)
 CPIOFr:  IOpCl= 0 IRwI=-1 IRwCP=  731 ICalc= -1 LCPTot=     1005244 Len1MO=     2550559 IndFrg=     1005244
 CPIOFr:  IOpCl= 0 IRwI=-1 IRwCP=  731 ICalc=  0 LCPTot=     1005244 Len1MO=     2550559 IndFrg=     3555803
 Counterpoise: doing DCBS calculation for fragment   1 NewBq=T
 Leave Link  122 at Thu May  3 01:09:19 2018, MaxMem= 14763950080 cpu:         7.1
 (Enter /cm/shared/gaussian/g09.e01/intel64-sandybridge/g09/l301.exe)
 Basis read from rwf:  (5D, 7F)
 No pseudopotential information found on rwf file.
   795 basis functions,  1651 primitive gaussians,   829 cartesian basis functions
    18 alpha electrons       18 beta electrons
       nuclear repulsion energy         0.0000000000 Hartrees.
 IExCor= 1009 DFT=T Ex+Corr=PBE1PBE ExCW=0 ScaHFX=  0.250000
 ScaDFX=  0.750000  0.750000  1.000000  1.000000 ScalE2=  1.000000  1.000000
 IRadAn=      0 IRanWt=     -1 IRanGd=            0 ICorTp=0 IEmpDi=  4
 NAtoms=   97 NActive=   97 NUniq=   97 SFac= 1.00D+00 NAtFMM=   60 NAOKFM=T Big=T
 Integral buffers will be    131072 words long.
 Raffenetti 2 integral format.
 Two-electron integral symmetry is turned off.
 No density basis found on file   718.
 Leave Link  301 at Thu May  3 01:09:19 2018, MaxMem= 14763950080 cpu:         4.7
 (Enter /cm/shared/gaussian/g09.e01/intel64-sandybridge/g09/l302.exe)
 NPDir=0 NMtPBC=     1 NCelOv=     1 NCel=       1 NClECP=     1 NCelD=      1
         NCelK=      1 NCelE2=     1 NClLst=     1 CellRange=     0.0.
 One-electron integrals computed using PRISM.
 NBasis=   795 RedAO= T EigKep=  1.57D-02  NBF=   795
 NBsUse=   795 1.00D-06 EigRej= -1.00D+00 NBFU=   795
 Precomputing XC quadrature grid using
 IXCGrd= 4 IRadAn=           0 IRanWt=          -1 IRanGd=           0 AccXCQ= 0.00D+00.
 Generated NRdTot=       0 NPtTot=           0 NUsed=           0 NTot=          32
 NSgBfM=   751   754   754   754   754 MxSgAt=    97 MxSgA2=    97.
 Leave Link  302 at Thu May  3 01:09:23 2018, MaxMem= 14763950080 cpu:       244.4
 (Enter /cm/shared/gaussian/g09.e01/intel64-sandybridge/g09/l303.exe)
 DipDrv:  MaxL=1.
 Leave Link  303 at Thu May  3 01:09:23 2018, MaxMem= 14763950080 cpu:        28.4
 (Enter /cm/shared/gaussian/g09.e01/intel64-sandybridge/g09/l401.exe)
 ExpMin= 1.22D-01 ExpMax= 6.40D+05 ExpMxC= 6.18D+03 IAcc=2 IRadAn=         4 AccDes= 0.00D+00
 Harris functional with IExCor= 1009 and IRadAn=       4 diagonalized for initial guess.
 HarFok:  IExCor= 1009 AccDes= 0.00D+00 IRadAn=         4 IDoV= 1 UseB2=F ITyADJ=14
 ICtDFT=  3500011 ScaDFX=  1.000000  1.000000  1.000000  1.000000
 FoFCou: FMM=F IPFlag=           0 FMFlag=      100000 FMFlg1=        2001
         NFxFlg=           0 DoJE=T BraDBF=F KetDBF=T FulRan=T
         wScrn=  0.000000 ICntrl=     500 IOpCl=  0 I1Cent=   200000004 NGrid=           0
         NMat0=    1 NMatS0=      1 NMatT0=    0 NMatD0=    1 NMtDS0=    0 NMtDT0=    0
 Symmetry not used in FoFCou.
 Harris En= -2574.02000979175    
 JPrj=0 DoOrth=F DoCkMO=F.
 Leave Link  401 at Thu May  3 01:09:28 2018, MaxMem= 14763950080 cpu:       290.2
 (Enter /cm/shared/gaussian/g09.e01/intel64-sandybridge/g09/l502.exe)
 Closed shell SCF:
 Using DIIS extrapolation, IDIIS=  1040.
 Two-electron integral symmetry not used.
 IVT=     2138497 IEndB=     2138497 NGot= 14763950080 MDV= 14762516294
 LenX= 14762516294 LenY= 14761828224
 Requested convergence on RMS density matrix=1.00D-08 within 128 cycles.
 Requested convergence on MAX density matrix=1.00D-06.
 Requested convergence on             energy=1.00D-06.
 No special actions if energy rises.
 Fock matrices will be formed incrementally for  20 cycles.
 Integral accuracy reduced to 1.0D-05 until final iterations.

 Cycle   1  Pass 0  IDiag  1:
 FoFJK:  IHMeth= 1 ICntrl=       0 DoSepK=F KAlg= 0 I1Cent=   0 FoldK=F
 IRaf= 820000000 NMat=   1 IRICut=       1 DoRegI=T DoRafI=F ISym2E= 0.
 FoFCou: FMM=T IPFlag=           0 FMFlag=      100000 FMFlg1=        2001
         NFxFlg=           0 DoJE=F BraDBF=F KetDBF=F FulRan=T
         wScrn=  0.000000 ICntrl=       0 IOpCl=  0 I1Cent=           0 NGrid=           0
         NMat0=    1 NMatS0=      1 NMatT0=    0 NMatD0=    1 NMtDS0=    0 NMtDT0=    0
 Symmetry not used in FoFCou.
 FMM levels:  10  Number of levels for PrismC:   9
 E= -2573.87864109460    
 DIIS: error= 9.00D-03 at cycle   1 NSaved=   1.
 NSaved= 1 IEnMin= 1 EnMin= -2573.87864109460     IErMin= 1 ErrMin= 9.00D-03
 ErrMax= 9.00D-03  0.00D+00 EMaxC= 1.00D-01 BMatC= 3.91D-02 BMatP= 3.91D-02
 IDIUse=3 WtCom= 9.10D-01 WtEn= 9.00D-02
 Coeff-Com:  0.100D+01
 Coeff-En:   0.100D+01
 Coeff:      0.100D+01
 Gap=     0.184 Goal=   None    Shift=    0.000
 GapD=    0.184 DampG=1.000 DampE=1.000 DampFc=1.0000 IDamp=-1.
 RMSDP=5.03D-04 MaxDP=6.44D-02              OVMax= 1.53D-01

 Cycle   2  Pass 0  IDiag  1:
 RMSU=  4.98D-04    CP:  9.88D-01
 E= -2573.90062915190     Delta-E=       -0.021988057300 Rises=F Damp=F
 DIIS: error= 3.00D-03 at cycle   2 NSaved=   2.
 NSaved= 2 IEnMin= 2 EnMin= -2573.90062915190     IErMin= 2 ErrMin= 3.00D-03
 ErrMax= 3.00D-03  0.00D+00 EMaxC= 1.00D-01 BMatC= 7.84D-03 BMatP= 3.91D-02
 IDIUse=3 WtCom= 9.70D-01 WtEn= 3.00D-02
 Coeff-Com:  0.230D+00 0.770D+00
 Coeff-En:   0.531D-01 0.947D+00
 Coeff:      0.224D+00 0.776D+00
 Gap=     0.197 Goal=   None    Shift=    0.000
 RMSDP=2.24D-04 MaxDP=5.33D-02 DE=-2.20D-02 OVMax= 7.19D-02

 Cycle   3  Pass 0  IDiag  1:
 RMSU=  1.52D-04    CP:  9.94D-01  6.76D-01
 E= -2573.90924589773     Delta-E=       -0.008616745838 Rises=F Damp=F
 DIIS: error= 2.85D-03 at cycle   3 NSaved=   3.
 NSaved= 3 IEnMin= 3 EnMin= -2573.90924589773     IErMin= 3 ErrMin= 2.85D-03
 ErrMax= 2.85D-03  0.00D+00 EMaxC= 1.00D-01 BMatC= 2.88D-03 BMatP= 7.84D-03
 IDIUse=3 WtCom= 9.72D-01 WtEn= 2.85D-02
 Coeff-Com:  0.620D-01 0.363D+00 0.575D+00
 Coeff-En:   0.000D+00 0.176D+00 0.824D+00
 Coeff:      0.602D-01 0.358D+00 0.582D+00
 Gap=     0.175 Goal=   None    Shift=    0.000
 RMSDP=7.70D-05 MaxDP=1.87D-02 DE=-8.62D-03 OVMax= 2.37D-02

 Cycle   4  Pass 0  IDiag  1:
 RMSU=  8.70D-06    CP:  9.92D-01  7.72D-01  6.12D-01
 E= -2573.91247071160     Delta-E=       -0.003224813863 Rises=F Damp=F
 DIIS: error= 8.11D-05 at cycle   4 NSaved=   4.
 NSaved= 4 IEnMin= 4 EnMin= -2573.91247071160     IErMin= 4 ErrMin= 8.11D-05
 ErrMax= 8.11D-05  0.00D+00 EMaxC= 1.00D-01 BMatC= 1.45D-06 BMatP= 2.88D-03
 IDIUse=1 WtCom= 1.00D+00 WtEn= 0.00D+00
 Coeff-Com: -0.869D-03 0.123D-01 0.348D-01 0.954D+00
 Coeff:     -0.869D-03 0.123D-01 0.348D-01 0.954D+00
 Gap=     0.175 Goal=   None    Shift=    0.000
 RMSDP=2.41D-06 MaxDP=5.42D-04 DE=-3.22D-03 OVMax= 5.97D-04

 Initial convergence to 1.0D-05 achieved.  Increase integral accuracy.
 Cycle   5  Pass 1  IDiag  1:
 E= -2573.91313055339     Delta-E=       -0.000659841794 Rises=F Damp=F
 DIIS: error= 1.20D-05 at cycle   1 NSaved=   1.
 NSaved= 1 IEnMin= 1 EnMin= -2573.91313055339     IErMin= 1 ErrMin= 1.20D-05
 ErrMax= 1.20D-05  0.00D+00 EMaxC= 1.00D-01 BMatC= 8.28D-08 BMatP= 8.28D-08
 IDIUse=1 WtCom= 1.00D+00 WtEn= 0.00D+00
 Coeff-Com:  0.100D+01
 Coeff:      0.100D+01
 Gap=     0.176 Goal=   None    Shift=    0.000
 RMSDP=2.41D-06 MaxDP=5.42D-04 DE=-6.60D-04 OVMax= 2.18D-04

 Cycle   6  Pass 1  IDiag  1:
 RMSU=  9.42D-07    CP:  1.00D+00
 E= -2573.91313062130     Delta-E=       -0.000000067912 Rises=F Damp=F
 DIIS: error= 9.44D-06 at cycle   2 NSaved=   2.
 NSaved= 2 IEnMin= 2 EnMin= -2573.91313062130     IErMin= 2 ErrMin= 9.44D-06
 ErrMax= 9.44D-06  0.00D+00 EMaxC= 1.00D-01 BMatC= 4.38D-08 BMatP= 8.28D-08
 IDIUse=1 WtCom= 1.00D+00 WtEn= 0.00D+00
 Coeff-Com:  0.409D+00 0.591D+00
 Coeff:      0.409D+00 0.591D+00
 Gap=     0.176 Goal=   None    Shift=    0.000
 RMSDP=3.55D-07 MaxDP=8.52D-05 DE=-6.79D-08 OVMax= 1.13D-04

 Cycle   7  Pass 1  IDiag  1:
 RMSU=  2.72D-07    CP:  1.00D+00  7.60D-01
 E= -2573.91313067337     Delta-E=       -0.000000052062 Rises=F Damp=F
 DIIS: error= 1.83D-06 at cycle   3 NSaved=   3.
 NSaved= 3 IEnMin= 3 EnMin= -2573.91313067337     IErMin= 3 ErrMin= 1.83D-06
 ErrMax= 1.83D-06  0.00D+00 EMaxC= 1.00D-01 BMatC= 1.29D-09 BMatP= 4.38D-08
 IDIUse=1 WtCom= 1.00D+00 WtEn= 0.00D+00
 Coeff-Com: -0.139D-01 0.132D+00 0.882D+00
 Coeff:     -0.139D-01 0.132D+00 0.882D+00
 Gap=     0.176 Goal=   None    Shift=    0.000
 RMSDP=5.70D-08 MaxDP=1.31D-05 DE=-5.21D-08 OVMax= 1.63D-05

 Cycle   8  Pass 1  IDiag  1:
 RMSU=  2.54D-08    CP:  1.00D+00  8.11D-01  9.40D-01
 E= -2573.91313067480     Delta-E=       -0.000000001435 Rises=F Damp=F
 DIIS: error= 3.47D-07 at cycle   4 NSaved=   4.
 NSaved= 4 IEnMin= 4 EnMin= -2573.91313067480     IErMin= 4 ErrMin= 3.47D-07
 ErrMax= 3.47D-07  0.00D+00 EMaxC= 1.00D-01 BMatC= 2.51D-11 BMatP= 1.29D-09
 IDIUse=1 WtCom= 1.00D+00 WtEn= 0.00D+00
 Coeff-Com: -0.945D-02 0.393D-01 0.266D+00 0.704D+00
 Coeff:     -0.945D-02 0.393D-01 0.266D+00 0.704D+00
 Gap=     0.176 Goal=   None    Shift=    0.000
 RMSDP=8.38D-09 MaxDP=9.24D-07 DE=-1.43D-09 OVMax= 2.79D-06

 SCF Done:  E(RPBE1PBE) =  -2573.91313067     A.U. after    8 cycles
            NFock=  8  Conv=0.84D-08     -V/T= 2.0013
 KE= 2.570515495279D+03 PE=-6.162883320506D+03 EE= 1.018454694552D+03
 Leave Link  502 at Thu May  3 01:10:46 2018, MaxMem= 14763950080 cpu:      4898.3
 (Enter /cm/shared/gaussian/g09.e01/intel64-sandybridge/g09/l601.exe)
 Copying SCF densities to generalized density rwf, IOpCl= 0 IROHF=0.

 **********************************************************************

            Population analysis using the SCF density.

 **********************************************************************

 Alpha  occ. eigenvalues -- -482.99056 -62.39207 -56.16463 -56.16459 -56.16455
 Alpha  occ. eigenvalues --   -8.49353  -6.29665  -6.29659  -6.29644  -2.37935
 Alpha  occ. eigenvalues --   -2.37934  -2.37921  -2.37917  -2.37914  -0.47407
 Alpha  occ. eigenvalues --   -0.03268  -0.03245  -0.03234
 Alpha virt. eigenvalues --    0.14321   0.15457   0.16887   0.16952   0.18299
 Alpha virt. eigenvalues --    0.18792   0.19062   0.19660   0.19858   0.21510
 Alpha virt. eigenvalues --    0.22078   0.22300   0.23237   0.23614   0.24157
 Alpha virt. eigenvalues --    0.24568   0.24939   0.25338   0.25738   0.26044
 Alpha virt. eigenvalues --    0.26589   0.27237   0.27444   0.27780   0.28693
 Alpha virt. eigenvalues --    0.29208   0.29525   0.30280   0.31177   0.31601
 Alpha virt. eigenvalues --    0.31736   0.32450   0.32921   0.33856   0.34165
 Alpha virt. eigenvalues --    0.34609   0.34847   0.35720   0.35996   0.36239
 Alpha virt. eigenvalues --    0.36969   0.37499   0.38413   0.38697   0.39350
 Alpha virt. eigenvalues --    0.39417   0.40459   0.40735   0.41265   0.41807
 Alpha virt. eigenvalues --    0.42486   0.42655   0.43318   0.43675   0.44083
 Alpha virt. eigenvalues --    0.44699   0.45491   0.46007   0.46405   0.48167
 Alpha virt. eigenvalues --    0.48422   0.50534   0.50834   0.51662   0.61734
 Alpha virt. eigenvalues --    0.62161   0.62997   0.63527   0.64387   0.64466
 Alpha virt. eigenvalues --    0.64953   0.65411   0.65630   0.66186   0.66670
 Alpha virt. eigenvalues --    0.67134   0.67640   0.67874   0.68765   0.69200
 Alpha virt. eigenvalues --    0.69263   0.69672   0.70221   0.70621   0.70911
 Alpha virt. eigenvalues --    0.71394   0.71662   0.72083   0.72480   0.73186
 Alpha virt. eigenvalues --    0.73335   0.73546   0.74020   0.74439   0.74928
 Alpha virt. eigenvalues --    0.75199   0.75565   0.75755   0.76086   0.76513
 Alpha virt. eigenvalues --    0.76547   0.77124   0.77255   0.77625   0.77680
 Alpha virt. eigenvalues --    0.78148   0.78387   0.78621   0.78728   0.78872
 Alpha virt. eigenvalues --    0.79303   0.79618   0.80041   0.80651   0.81319
 Alpha virt. eigenvalues --    0.81486   0.81739   0.82300   0.82581   0.82854
 Alpha virt. eigenvalues --    0.83299   0.83568   0.83707   0.84102   0.84663
 Alpha virt. eigenvalues --    0.84755   0.85203   0.86067   0.86171   0.86803
 Alpha virt. eigenvalues --    0.87130   0.87424   0.87587   0.87737   0.88407
 Alpha virt. eigenvalues --    0.88819   0.89065   0.89491   0.90052   0.90465
 Alpha virt. eigenvalues --    0.90683   0.91458   0.91556   0.91647   0.91971
 Alpha virt. eigenvalues --    0.92604   0.93026   0.93600   0.94304   0.94605
 Alpha virt. eigenvalues --    0.94926   0.95386   0.95735   0.96048   0.96527
 Alpha virt. eigenvalues --    0.96670   0.96888   0.97083   0.97775   0.98290
 Alpha virt. eigenvalues --    0.98701   0.99066   1.00155   1.00383   1.00787
 Alpha virt. eigenvalues --    1.01163   1.01651   1.02251   1.03042   1.03433
 Alpha virt. eigenvalues --    1.04324   1.05108   1.05853   1.06168   1.06740
 Alpha virt. eigenvalues --    1.07375   1.08110   1.08672   1.08836   1.09474
 Alpha virt. eigenvalues --    1.09835   1.10583   1.10998   1.11104   1.11782
 Alpha virt. eigenvalues --    1.12864   1.13586   1.14167   1.14535   1.15277
 Alpha virt. eigenvalues --    1.15534   1.16386   1.16883   1.17940   1.18807
 Alpha virt. eigenvalues --    1.20011   1.20499   1.25308   1.25771   1.26784
 Alpha virt. eigenvalues --    1.28437   1.65698   1.66459   1.67331   1.67753
 Alpha virt. eigenvalues --    1.68389   1.68704   1.69372   1.69460   1.69820
 Alpha virt. eigenvalues --    1.70263   1.70872   1.71024   1.71455   1.71865
 Alpha virt. eigenvalues --    1.72027   1.72174   1.72816   1.73086   1.73281
 Alpha virt. eigenvalues --    1.73691   1.73920   1.74066   1.74889   1.74961
 Alpha virt. eigenvalues --    1.75194   1.75393   1.75816   1.75977   1.76136
 Alpha virt. eigenvalues --    1.76258   1.76577   1.76927   1.77587   1.77875
 Alpha virt. eigenvalues --    1.78010   1.78591   1.78885   1.79022   1.79487
 Alpha virt. eigenvalues --    1.79621   1.79849   1.80429   1.81111   1.81198
 Alpha virt. eigenvalues --    1.81569   1.82647   1.83013   1.83390   1.84083
 Alpha virt. eigenvalues --    1.84685   1.85783   1.85930   1.86592   1.86778
 Alpha virt. eigenvalues --    1.87263   1.88149   1.89497   1.91210   1.92312
 Alpha virt. eigenvalues --    1.93139   1.93659   1.94696   1.95388   1.95573
 Alpha virt. eigenvalues --    1.98429   1.98800   1.99017   1.99558   2.00207
 Alpha virt. eigenvalues --    2.00925   2.01036   2.01301   2.01456   2.01639
 Alpha virt. eigenvalues --    2.01817   2.02099   2.02267   2.02369   2.02495
 Alpha virt. eigenvalues --    2.02658   2.02718   2.03128   2.03158   2.03543
 Alpha virt. eigenvalues --    2.03733   2.03751   2.04172   2.04463   2.04642
 Alpha virt. eigenvalues --    2.04684   2.05182   2.05331   2.05621   2.05968
 Alpha virt. eigenvalues --    2.06314   2.06864   2.07122   2.07379   2.07603
 Alpha virt. eigenvalues --    2.08250   2.08346   2.08659   2.09150   2.09804
 Alpha virt. eigenvalues --    2.10232   2.10567   2.10693   2.11536   2.11724
 Alpha virt. eigenvalues --    2.12331   2.12530   2.12747   2.13284   2.13510
 Alpha virt. eigenvalues --    2.13923   2.14331   2.14655   2.15120   2.16114
 Alpha virt. eigenvalues --    2.16265   2.16759   2.16945   2.17722   2.17973
 Alpha virt. eigenvalues --    2.18292   2.18547   2.19131   2.19442   2.19578
 Alpha virt. eigenvalues --    2.19717   2.19947   2.20358   2.20593   2.20966
 Alpha virt. eigenvalues --    2.21793   2.21975   2.22393   2.22798   2.23378
 Alpha virt. eigenvalues --    2.23813   2.24468   2.24869   2.26131   2.26690
 Alpha virt. eigenvalues --    2.27245   2.27791   2.27960   2.28649   2.29016
 Alpha virt. eigenvalues --    2.29391   2.30926   2.32478   2.32861   2.33034
 Alpha virt. eigenvalues --    2.33679   2.33802   2.34212   2.35341   2.39204
 Alpha virt. eigenvalues --    2.40092   2.40539   2.40669   2.41498   2.42253
 Alpha virt. eigenvalues --    2.42547   2.42814   2.42995   2.43283   2.43484
 Alpha virt. eigenvalues --    2.43900   2.44116   2.44307   2.44682   2.45140
 Alpha virt. eigenvalues --    2.45605   2.46066   2.46410   2.47058   2.48096
 Alpha virt. eigenvalues --    2.49498   2.49616   2.50091   2.50815   2.51092
 Alpha virt. eigenvalues --    2.52065   2.52859   2.53323   2.54256   2.55037
 Alpha virt. eigenvalues --    2.55177   2.57213   2.61238   2.67001   2.67662
 Alpha virt. eigenvalues --    2.67925   2.68872   2.69353   2.69910   2.70004
 Alpha virt. eigenvalues --    2.70286   2.70760   2.71023   2.71279   2.71477
 Alpha virt. eigenvalues --    2.72229   2.72841   2.74185   2.74495   2.74862
 Alpha virt. eigenvalues --    2.75716   2.76254   2.76941   2.78217   2.79303
 Alpha virt. eigenvalues --    2.80071   2.80290   2.81901   2.83256   2.83959
 Alpha virt. eigenvalues --    2.84171   2.84756   2.85310   2.85351   2.85974
 Alpha virt. eigenvalues --    2.86602   2.86885   2.87182   2.87672   2.87917
 Alpha virt. eigenvalues --    2.88165   2.88262   2.88845   2.89275   2.90021
 Alpha virt. eigenvalues --    2.90494   2.90887   2.91067   2.91858   2.92457
 Alpha virt. eigenvalues --    2.92709   2.93390   2.93930   2.94893   2.95679
 Alpha virt. eigenvalues --    2.95925   2.97079   2.98144   2.98843   3.00477
 Alpha virt. eigenvalues --    3.01409   3.02417   3.03546   3.04533   3.06665
 Alpha virt. eigenvalues --    3.07297   3.09105   3.13664   3.14255   3.16211
 Alpha virt. eigenvalues --    3.16983   3.18102   3.18442   3.19482   3.20112
 Alpha virt. eigenvalues --    3.21215   3.21874   3.23197   3.25860   3.26181
 Alpha virt. eigenvalues --    3.26512   3.27249   3.30302   3.31475   3.32258
 Alpha virt. eigenvalues --    3.33929   3.37816   3.38461   3.40926   3.41250
 Alpha virt. eigenvalues --    3.41883   3.44485   3.45803   3.49128   3.50535
 Alpha virt. eigenvalues --    3.52879   3.54183   3.56320   3.64533   4.51531
 Alpha virt. eigenvalues --    4.51697   4.52129   4.52199   4.52212   4.52373
 Alpha virt. eigenvalues --    4.52451   4.52595   4.52620   4.52639   4.52819
 Alpha virt. eigenvalues --    4.52968   4.53017   4.53047   4.53181   4.53427
 Alpha virt. eigenvalues --    4.53452   4.53631   4.54182   4.54261   4.54370
 Alpha virt. eigenvalues --    4.54844   4.55457   4.55682   4.55909   4.56013
 Alpha virt. eigenvalues --    4.56113   4.56264   4.56532   4.56888   4.57417
 Alpha virt. eigenvalues --    4.58346   4.59047   4.60045   4.60352   4.60434
 Alpha virt. eigenvalues --    4.60462   4.60546   4.60628   4.60698   4.60751
 Alpha virt. eigenvalues --    4.60799   4.60941   4.60955   4.61158   4.61483
 Alpha virt. eigenvalues --    4.61600   4.61892   4.62059   4.62238   4.62391
 Alpha virt. eigenvalues --    4.62507   4.62811   4.63039   4.63188   4.64005
 Alpha virt. eigenvalues --    4.64125   4.64581   4.65267   4.65273   4.65646
 Alpha virt. eigenvalues --    4.66885   4.67101   4.68091   4.73608   4.75108
 Alpha virt. eigenvalues --    4.75819   4.76000   4.76086   4.76120   4.76229
 Alpha virt. eigenvalues --    4.76510   4.76599   4.77007   4.77903   4.78043
 Alpha virt. eigenvalues --    4.78139   4.78151   4.78344   4.78904   4.79004
 Alpha virt. eigenvalues --    4.80194   4.80434   4.80558   4.81865   4.82124
 Alpha virt. eigenvalues --    4.82407   4.82879   4.83202   4.83654   4.83722
 Alpha virt. eigenvalues --    4.84244   4.84751   4.85068   4.85406   4.85618
 Alpha virt. eigenvalues --    4.87004   4.87178   4.87443   4.87639   4.87819
 Alpha virt. eigenvalues --    4.88325   4.88410   4.89016   4.89203   4.89418
 Alpha virt. eigenvalues --    4.89661   4.89926   4.90407   4.90578   4.90664
 Alpha virt. eigenvalues --    4.91232   4.91785   4.91821   4.93406   4.94064
 Alpha virt. eigenvalues --    4.94539   4.95008   4.95499   4.97555   4.97605
 Alpha virt. eigenvalues --    4.97983   4.98557   4.99582   5.00290   5.01177
 Alpha virt. eigenvalues --    5.01970   5.04054   5.04528   5.04569   5.05044
 Alpha virt. eigenvalues --    5.06233   5.07250   5.07419   5.08100   5.08495
 Alpha virt. eigenvalues --    5.08843   5.09756   5.10241   5.11135   5.11737
 Alpha virt. eigenvalues --    5.12283   5.12592   5.13191   5.13322   5.13513
 Alpha virt. eigenvalues --    5.14532   5.15143   5.15365   5.16456   5.17150
 Alpha virt. eigenvalues --    5.18336   5.19853   5.23488   5.24392   5.25029
 Alpha virt. eigenvalues --    5.28093   5.28756   5.30648   5.32974   5.36149
 Alpha virt. eigenvalues --    5.36235   5.36448   5.37032   5.38538   5.38643
 Alpha virt. eigenvalues --    5.39362   5.39851   5.41264   5.42378   5.43697
 Alpha virt. eigenvalues --    5.44973   5.46216   5.46302   5.46412   5.47059
 Alpha virt. eigenvalues --    5.47570   5.49601   5.50733   5.51287   5.52465
 Alpha virt. eigenvalues --    5.55395   5.56003   5.58709   5.60392   5.60734
 Alpha virt. eigenvalues --    5.60821   5.61768   5.61891   5.62560   5.63684
 Alpha virt. eigenvalues --    5.72585   6.57179   6.57921   6.58709   6.58989
 Alpha virt. eigenvalues --    6.59700   6.59791   6.60204   6.60453   6.61213
 Alpha virt. eigenvalues --    6.61936   6.62733   6.62850   6.63355   6.63795
 Alpha virt. eigenvalues --    6.63936   6.64170   6.64623   6.65005   6.66229
 Alpha virt. eigenvalues --    6.67694   6.68352   6.68576   6.70466   6.70702
[...]
   Z20       36.83076   0.01201   0.00000   0.02620   0.02773  36.85849
   X21       41.36611  -0.00887   0.00000  -0.00302  -0.00249  41.36362
   Y21       43.35032   0.00455   0.00000   0.00015  -0.00042  43.34990
   Z21       35.67803  -0.00990   0.00000  -0.01375  -0.01276  35.66527
   X22       41.68736  -0.00051   0.00000   0.01056   0.01049  41.69785
   Y22       41.02595  -0.00537   0.00000  -0.01767  -0.01764  41.00831
   Z22       37.30319  -0.00353   0.00000  -0.02455  -0.02258  37.28061
   X23       44.38967   0.01005   0.00000   0.01356   0.01294  44.40261
   Y23       36.96304   0.00181   0.00000   0.03081   0.03073  36.99377
   Z23       37.73783   0.02195   0.00000   0.03352   0.03763  37.77546
   X24       44.08731  -0.00598   0.00000  -0.00448  -0.00469  44.08263
   Y24       37.35989  -0.00042   0.00000  -0.02082  -0.02155  37.33833
   Z24       35.99928  -0.01371   0.00000  -0.00235   0.00156  36.00084
   X25       42.72671  -0.00355   0.00000  -0.00406  -0.00485  42.72186
   Y25       36.71738  -0.00068   0.00000  -0.00646  -0.00610  36.71128
   Z25       38.43703  -0.00351   0.00000  -0.01273  -0.00887  38.42816
   X26       34.84655   0.00155   0.00000  -0.03426  -0.03455  34.81200
   Y26       32.76785  -0.00039   0.00000   0.02483   0.02437  32.79222
   Z26       34.05286   0.01498   0.00000   0.03266   0.03637  34.08923
   X27       33.73161  -0.01245   0.00000  -0.02073  -0.02067  33.71094
   Y27       33.25918   0.00073   0.00000  -0.00950  -0.01040  33.24878
   Z27       32.69226  -0.01516   0.00000  -0.02671  -0.02342  32.66885
   X28       35.39457   0.00232   0.00000   0.00280   0.00254  35.39711
   Y28       34.35522   0.00780   0.00000   0.03530   0.03503  34.39025
   Z28       34.75206   0.00191   0.00000  -0.00455  -0.00134  34.75072
   X29       30.21672   0.00646   0.00000   0.01229   0.01254  30.22926
   Y29       39.28741   0.00161   0.00000  -0.03881  -0.03847  39.24893
   Z29       34.88434  -0.02226   0.00000  -0.02650  -0.02628  34.85806
   X30       30.33010   0.00139   0.00000   0.00221   0.00203  30.33213
   Y30       38.75828  -0.00424   0.00000   0.01032   0.01133  38.76962
   Z30       36.60400   0.02371   0.00000   0.02680   0.02722  36.63121
   X31       28.55376  -0.00911   0.00000  -0.02264  -0.02233  28.53143
   Y31       38.81497   0.00038   0.00000   0.01195   0.01229  38.82726
   Z31       34.37412  -0.00088   0.00000   0.00374   0.00376  34.37788
   X32       38.47482   0.02998   0.00000   0.03801   0.03731  38.51213
   Y32       29.55532  -0.00957   0.00000   0.00055  -0.00022  29.55510
   Z32       34.35522   0.00326   0.00000  -0.00241   0.00335  34.35857
   X33       37.26540  -0.02103   0.00000  -0.02327  -0.02382  37.24158
   Y33       30.89702   0.01466   0.00000  -0.00089  -0.00154  30.89549
   Z33       34.35522  -0.00661   0.00000  -0.04035  -0.03539  34.31984
   X34       37.51106  -0.00300   0.00000   0.02425   0.02345  37.53451
   Y34       28.06243  -0.00666   0.00000  -0.00847  -0.00926  28.05318
   Z34       34.03397  -0.00131   0.00000  -0.00169   0.00444  34.03841
   X35       31.35056   0.00038   0.00000   0.02525   0.02317  31.37373
   Y35       36.56620   0.01283   0.00000   0.01153   0.01547  36.58167
   Z35       44.40856  -0.00311   0.00000   0.01414   0.01564  44.42420
   X36       33.12690   0.00850   0.00000   0.03089   0.02881  33.15571
   Y36       36.24495  -0.00566   0.00000  -0.02151  -0.01783  36.22711
   Z36       44.20069   0.00913   0.00000   0.05028   0.05230  44.25299
   X37       30.76474   0.00063   0.00000   0.00910   0.00665  30.77139
   Y37       35.20560  -0.01176   0.00000  -0.03134  -0.02694  35.17865
   Z37       45.44791   0.00099   0.00000  -0.02500  -0.02308  45.42483
   X38       45.42902  -0.00431   0.00000  -0.04232  -0.04336  45.38565
   Y38       41.76295   0.00150   0.00000   0.00112   0.00268  41.76562
   Z38       42.21648   0.00961   0.00000   0.02666   0.02912  42.24560
   X39       44.46526   0.00038   0.00000   0.01579   0.01509  44.48035
   Y39       41.93302  -0.00106   0.00000  -0.00145  -0.00041  41.93261
   Z39       40.68580  -0.00639   0.00000  -0.01881  -0.01660  40.66920
   X40       45.69358   0.00138   0.00000   0.01398   0.01271  45.70629
   Y40       39.96771   0.00118   0.00000   0.00477   0.00634  39.97404
   Z40       42.38656  -0.00586   0.00000  -0.03064  -0.02741  42.35915
   X41       31.91747  -0.01263   0.00000  -0.01225  -0.01136  31.90611
   Y41       45.35343   0.00379   0.00000  -0.00515  -0.00495  45.34848
   Z41       34.95993   0.00292   0.00000   0.02519   0.02339  34.98332
   X42       33.18359   0.01122   0.00000   0.01995   0.02076  33.20435
   Y42       44.06841  -0.00405   0.00000   0.00933   0.00929  44.07770
   Z42       34.73317  -0.00324   0.00000  -0.01609  -0.01712  34.71605
   X43       32.82454   0.00535   0.00000   0.01434   0.01523  32.83978
   Y43       46.75182   0.00059   0.00000  -0.00396  -0.00358  46.74824
   Z43       35.67803   0.00111   0.00000   0.00194  -0.00021  35.67781
   X44       34.50640  -0.00545   0.00000  -0.00047  -0.00246  34.50394
   Y44       41.47949   0.01622   0.00000   0.01028   0.01469  41.49418
   Z44       46.48726   0.01164   0.00000   0.02601   0.02626  46.51353
   X45       35.54575   0.00248   0.00000  -0.01940  -0.02129  35.52446
   Y45       40.38345  -0.01141   0.00000  -0.01264  -0.00874  40.37471
   Z45       45.48571  -0.00861   0.00000  -0.01100  -0.01010  45.47561
   X46       33.08910  -0.00308   0.00000  -0.01142  -0.01362  33.07549
   Y46       40.45904  -0.00345   0.00000  -0.00342   0.00132  40.46036
   Z46       46.97859  -0.00334   0.00000  -0.01703  -0.01668  46.96191
   X47       40.15668   0.00159   0.00000   0.01716   0.01710  40.17378
   Y47       46.92190   0.00802   0.00000  -0.00270  -0.00136  46.92054
   Z47       40.27006  -0.01637   0.00000  -0.03301  -0.03367  40.23640
   X48       40.96926   0.00338   0.00000  -0.00620  -0.00665  40.96262
   Y48       46.24160  -0.00511   0.00000  -0.00019   0.00165  46.24325
   Z48       41.72515   0.01103   0.00000   0.00725   0.00702  41.73218
   X49       38.56931  -0.00384   0.00000  -0.00334  -0.00348  38.56583
   Y49       46.03373   0.00017   0.00000   0.01627   0.01777  46.05149
   Z49       40.17558  -0.00122   0.00000  -0.01192  -0.01258  40.16300
   X50       42.15979   0.00337   0.00000   0.00591   0.00435  42.16414
   Y50       28.51597  -0.00874   0.00000   0.01599   0.01618  28.53215
   Z50       37.81342   0.02256   0.00000   0.03438   0.04132  37.85473
   X51       40.83698  -0.01326   0.00000  -0.01506  -0.01633  40.82065
   Y51       29.36634   0.00275   0.00000  -0.03338  -0.03341  29.33293
   Z51       36.92525  -0.01467   0.00000  -0.03940  -0.03306  36.89219
   X52       43.65267   0.00913   0.00000   0.00886   0.00754  43.66022
   Y52       28.95060   0.00463   0.00000   0.00767   0.00733  28.95793
   Z52       36.90635  -0.00579   0.00000  -0.00114   0.00594  36.91230
   X53       36.16936   0.01293   0.00000   0.03329   0.03229  36.20164
   Y53       45.93924   0.01690   0.00000  -0.00008   0.00324  45.94249
   Z53       44.20069  -0.00199   0.00000   0.00667   0.00555  44.20624
   X54       35.41347  -0.00834   0.00000  -0.00970  -0.01106  35.40241
   Y54       44.59754  -0.01320   0.00000  -0.00715  -0.00336  44.59417
   Z54       45.14556   0.00782   0.00000   0.01332   0.01255  45.15811
   X55       36.11267  -0.00937   0.00000  -0.04992  -0.05062  36.06204
   Y55       45.35343  -0.00516   0.00000  -0.01271  -0.01004  45.34339
   Z55       42.48104  -0.00231   0.00000   0.00586   0.00494  42.48598
   X56       28.79943  -0.01548   0.00000  -0.00443  -0.00535  28.79408
   Y56       32.27652  -0.00224   0.00000   0.00860   0.00984  32.28636
   Z56       36.79297  -0.01027   0.00000  -0.02106  -0.01844  36.77453
   X57       29.68760   0.00486   0.00000   0.01218   0.01124  29.69884
   Y57       30.84033  -0.00145   0.00000   0.00279   0.00368  30.84401
   Z57       36.13156  -0.00038   0.00000  -0.00193   0.00145  36.13301
   X58       30.02775   0.01418   0.00000   0.01721   0.01617  30.04392
   Y58       33.14580   0.00632   0.00000   0.00010   0.00160  33.14740
   Z58       37.77563   0.00930   0.00000   0.00754   0.01009  37.78571
   X59       33.37256  -0.01986   0.00000  -0.01061  -0.01339  33.35917
   Y59       30.63246   0.00331   0.00000   0.01657   0.02039  30.65285
   Z59       44.67313   0.01185   0.00000   0.01205   0.01628  44.68941
   X60       33.88279   0.00776   0.00000   0.01112   0.00875  33.89154
   Y60       31.40725   0.00484   0.00000  -0.00165   0.00150  31.40875
   Z60       43.12355  -0.01330   0.00000  -0.01706  -0.01301  43.11054
   X61       34.86545   0.01369   0.00000   0.01750   0.01450  34.87995
   Y61       29.85767  -0.00414   0.00000  -0.00233   0.00157  29.85924
   Z61       45.31563  -0.00039   0.00000  -0.01808  -0.01322  45.30241
   X62       47.20536   0.01141   0.00000   0.01604   0.01679  47.22215
   Y62       38.38034  -0.00457   0.00000  -0.00472  -0.00734  38.37300
   Z62       32.04976  -0.00678   0.00000  -0.00769  -0.00352  32.04624
   X63       47.28095  -0.00258   0.00000  -0.01021  -0.00940  47.27155
   Y63       40.08109   0.00560   0.00000   0.00413   0.00174  40.08283
   Z63       32.65447   0.00300   0.00000   0.00067   0.00419  32.65866
   X64       45.67468  -0.01080   0.00000  -0.01986  -0.01932  45.65536
   Y64       37.71893  -0.00107   0.00000   0.00641   0.00422  37.72316
   Z64       32.74895  -0.00139   0.00000  -0.03563  -0.03154  32.71742
   X65       38.62600   0.01721   0.00000   0.02573   0.02725  38.65325
   Y65       38.11578  -0.00846   0.00000  -0.00710  -0.01023  38.10554
   Z65       28.30810   0.00290   0.00000   0.01572   0.01818  28.32627
   X66       36.83076  -0.01174   0.00000   0.00281   0.00432  36.83508
   Y66       38.30475   0.00279   0.00000   0.00107  -0.00181  38.30293
   Z66       28.44038   0.00098   0.00000   0.00075   0.00273  28.44311
   X67       39.24961   0.00062   0.00000   0.00466   0.00642  39.25604
   Y67       39.79763   0.00442   0.00000   0.00630   0.00299  39.80062
   Z67       28.02464   0.00124   0.00000   0.00965   0.01157  28.03621
   X68       42.29207   0.00979   0.00000   0.00612   0.00647  42.29854
   Y68       31.40725   0.00588   0.00000   0.01290   0.01016  31.41740
   Z68       30.33010   0.00821   0.00000   0.00645   0.01228  30.34239
   X69       41.13934  -0.00407   0.00000  -0.00883  -0.00880  41.13053
   Y69       31.18048  -0.00477   0.00000  -0.02226  -0.02434  31.15614
   Z69       31.72850  -0.00025   0.00000  -0.00669  -0.00100  31.72750
   X70       41.38500  -0.00759   0.00000  -0.00964  -0.00904  41.37596
   Y70       30.80254  -0.00272   0.00000   0.00613   0.00293  30.80546
   Z70       28.89391  -0.00549   0.00000  -0.00054   0.00534  28.89925
   X71       43.33142  -0.01121   0.00000  -0.00994  -0.01263  43.31879
   Y71       32.61667   0.00095   0.00000   0.01786   0.02082  32.63750
   Z71       45.25894   0.00455   0.00000   0.01101   0.01659  45.27553
   X72       44.86210   0.00619   0.00000   0.00206  -0.00086  44.86124
   Y72       31.95527  -0.00350   0.00000  -0.01208  -0.00902  31.94625
   Z72       45.95814   0.00075   0.00000  -0.01249  -0.00631  45.95183
   X73       43.86054   0.00489   0.00000   0.01506   0.01274  43.87329
   Y73       33.99617   0.00566   0.00000   0.00363   0.00612  34.00229
   Z73       44.21959  -0.00548   0.00000  -0.01508  -0.00991  44.20968
   X74       49.01950   0.01267   0.00000   0.01475   0.01448  49.03398
   Y74       40.00550  -0.00346   0.00000  -0.00290  -0.00353  40.00198
   Z74       37.66224   0.00586   0.00000   0.00127   0.00520  37.66744
   X75       49.01950  -0.00231   0.00000  -0.00850  -0.00835  49.01114
   Y75       41.25272   0.00771   0.00000   0.01893   0.01779  41.27051
   Z75       36.35833  -0.00394   0.00000   0.00519   0.00862  36.36695
   X76       47.28095  -0.00947   0.00000  -0.00003  -0.00039  47.28056
   Y76       39.55197  -0.00437   0.00000  -0.01604  -0.01639  39.53557
   Z76       37.87011   0.00030   0.00000  -0.00280   0.00093  37.87104
   X77       39.98660  -0.02122   0.00000  -0.05021  -0.05280  39.93380
   Y77       29.15847  -0.01137   0.00000   0.00037   0.00282  29.16129
   Z77       43.01017   0.01021   0.00000  -0.00870  -0.00249  43.00768
   X78       40.76139   0.01078   0.00000   0.02015   0.01792  40.77931
   Y78       29.27186  -0.00058   0.00000  -0.02407  -0.02235  29.24951
   Z78       41.38500  -0.01380   0.00000  -0.00713  -0.00077  41.38423
   X79       40.55352   0.00999   0.00000   0.03489   0.03227  40.58579
   Y79       30.61356   0.00761   0.00000  -0.01133  -0.00860  30.60496
   Z79       43.91724   0.00277   0.00000  -0.00628  -0.00049  43.91674
   X80       31.67181   0.00041   0.00000   0.00058   0.00127  31.67308
   Y80       34.26073  -0.01385   0.00000  -0.01405  -0.01569  34.24505
   Z80       30.17893   0.00344   0.00000   0.01891   0.02139  30.20031
   X81       32.14424   0.00494   0.00000   0.00984   0.01076  32.15500
   Y81       36.01818   0.01189   0.00000   0.00409   0.00235  36.02053
   Z81       30.08444  -0.00310   0.00000  -0.01598  -0.01409  30.07035
   X82       29.91436  -0.00399   0.00000  -0.00398  -0.00338  29.91099
   Y82       34.29853  -0.00117   0.00000  -0.00589  -0.00716  34.29137
   Z82       30.63246   0.00525   0.00000   0.02598   0.02806  30.66052
   X83       43.55819  -0.00336   0.00000  -0.03093  -0.02941  43.52878
   Y83       44.74871  -0.00497   0.00000  -0.00849  -0.01084  44.73787
   Z83       31.70960  -0.01500   0.00000  -0.01443  -0.01352  31.69608
   X84       42.74561  -0.00170   0.00000   0.00655   0.00807  42.75368
   Y84       46.20380   0.00697   0.00000   0.01067   0.00870  46.21250
   Z84       32.42770   0.00920   0.00000   0.02435   0.02452  32.45222
   X85       44.16290   0.00308   0.00000   0.00815   0.00927  44.17217
   Y85       43.80385  -0.00001   0.00000   0.01527   0.01340  43.81725
   Z85       33.12690   0.00799   0.00000   0.00217   0.00357  33.13047
   X86       27.06088  -0.01806   0.00000  -0.01902  -0.01962  27.04126
   Y86       41.36611  -0.00092   0.00000  -0.01542  -0.01276  41.35335
   Z86       39.92991  -0.00669   0.00000   0.00630   0.00501  39.93493
   X87       28.66715   0.01654   0.00000   0.01825   0.01747  28.68462
   Y87       40.72360  -0.00458   0.00000  -0.00493  -0.00226  40.72134
   Z87       40.42124   0.00384   0.00000  -0.00594  -0.00663  40.41461
   X88       26.94749   0.00316   0.00000   0.01297   0.01238  26.95987
   Y88       42.99127   0.00376   0.00000   0.00035   0.00333  42.99460
   Z88       40.72360   0.00129   0.00000  -0.00513  -0.00708  40.71652
   X89       33.35367   0.00284   0.00000  -0.01689  -0.01533  33.33833
   Y89       38.68269  -0.00294   0.00000   0.00781   0.00530  38.68799
   Z89       28.40258   0.00563   0.00000   0.00975   0.01085  28.41343
   X90       32.27652  -0.00488   0.00000   0.00000   0.00185  32.27837
   Y90       38.51262  -0.00176   0.00000   0.00888   0.00591  38.51853
   Z90       26.96639  -0.01217   0.00000  -0.02481  -0.02387  26.94252
   X91       32.97572   0.00224   0.00000   0.01355   0.01515  32.99087
   Y91       40.32676   0.00982   0.00000   0.02130   0.01909  40.34585
   Z91       29.06399   0.00934   0.00000   0.03078   0.03116  29.09515
   X92       40.25117  -0.00002   0.00000   0.01883   0.02005  40.27121
   Y92       48.52817  -0.00087   0.00000  -0.01722  -0.01789  48.51027
   Z92       35.09221  -0.01713   0.00000  -0.01337  -0.01463  35.07759
   X93       40.61021   0.00087   0.00000  -0.00085   0.00050  40.61071
   Y93       50.28561  -0.00036   0.00000  -0.01156  -0.01215  50.27346
   Z93       35.39457   0.00221   0.00000  -0.00028  -0.00215  35.39242
   X94       40.53463   0.00206   0.00000  -0.00320  -0.00241  40.53221
   Y94       47.73448  -0.00137   0.00000   0.01303   0.01297  47.74745
   Z94       36.69848   0.01692   0.00000   0.03105   0.03015  36.72863
   X95       46.29829   0.01053   0.00000   0.00346   0.00408  46.30237
   Y95       46.52506  -0.00485   0.00000  -0.00544  -0.00608  46.51898
   Z95       36.88745  -0.00982   0.00000  -0.01317  -0.01237  36.87509
   X96       45.01328  -0.00688   0.00000  -0.00297  -0.00260  45.01068
   Y96       45.37232  -0.00687   0.00000  -0.01377  -0.01405  45.35828
   Z96       37.43547   0.00380   0.00000   0.00425   0.00523  37.44070
   X97       45.84476  -0.00486   0.00000  -0.00941  -0.00879  45.83597
   Y97       48.09353   0.00902   0.00000   0.00270   0.00242  48.09595
   Z97       37.64334   0.00555   0.00000   0.00513   0.00522  37.64857
         Item               Value     Threshold  Converged?
 Maximum Force            0.029985     0.000450     NO 
 RMS     Force            0.008972     0.000300     NO 
 Maximum Displacement     0.062361     0.001800     NO 
 RMS     Displacement     0.017474     0.001200     NO 
 Predicted change in Energy=-2.234027D-02
 GradGradGradGradGradGradGradGradGradGradGradGradGradGradGradGradGradGrad

 Leave Link  103 at Thu May  3 01:15:38 2018, MaxMem= 14763950080 cpu:        52.3
 (Enter /cm/shared/gaussian/g09.e01/intel64-sandybridge/g09/l9999.exe)
 1\1\GINC-POPLE03\Force\RPBE1PBE\CC-pVDZ\Br1H64O32(1-)\M.PELUSO\03-May-
 2018\0\\#p PBE1PBE/cc-pvDZ force Counterpoise=2 noSymm\\forces on chlo
 ride comput - NWATER: 32\\-1,1\Br,20.,20.,20.\O,22.09,19.98,17.66\H,21
 .44,19.74,18.32\H,21.66,19.8,16.82\O,18.43,21.73,17.75\H,18.96,21.11,1
 8.24\H,17.52,21.44,17.88\O,16.9,20.34,21.01\H,16.9,19.77,21.78\H,17.78
 ,20.26,20.65\O,18.24,17.32,21.06\H,18.13,16.56,20.49\H,18.69,17.96,20.
 52\O,19.86,20.21,23.35\H,20.01,19.86,22.48\H,20.65,20.71,23.55\O,18.92
 ,23.13,20.74\H,19.52,22.38,20.69\H,18.06,22.76,20.57\O,22.5,22.53,19.4
 9\H,21.89,22.94,18.88\H,22.06,21.71,19.74\O,23.49,19.56,19.97\H,23.33,
 19.77,19.05\H,22.61,19.43,20.34\O,18.44,17.34,18.02\H,17.85,17.6,17.3\
 H,18.73,18.18,18.39\O,15.99,20.79,18.46\H,16.05,20.51,19.37\H,15.11,20
 .54,18.19\O,20.36,15.64,18.18\H,19.72,16.35,18.18\H,19.85,14.85,18.01\
 O,16.59,19.35,23.5\H,17.53,19.18,23.39\H,16.28,18.63,24.05\O,24.04,22.
 1,22.34\H,23.53,22.19,21.53\H,24.18,21.15,22.43\O,16.89,24.,18.5\H,17.
 56,23.32,18.38\H,17.37,24.74,18.88\O,18.26,21.95,24.6\H,18.81,21.37,24
 .07\H,17.51,21.41,24.86\O,21.25,24.83,21.31\H,21.68,24.47,22.08\H,20.4
 1,24.36,21.26\O,22.31,15.09,20.01\H,21.61,15.54,19.54\H,23.1,15.32,19.
 53\O,19.14,24.31,23.39\H,18.74,23.6,23.89\H,19.11,24.,22.48\O,15.24,17
 .08,19.47\H,15.71,16.32,19.12\H,15.89,17.54,19.99\O,17.66,16.21,23.64\
 H,17.93,16.62,22.82\H,18.45,15.8,23.98\O,24.98,20.31,16.96\H,25.02,21.
 21,17.28\H,24.17,19.96,17.33\O,20.44,20.17,14.98\H,19.49,20.27,15.05\H
 ,20.77,21.06,14.83\O,22.38,16.62,16.05\H,21.77,16.5,16.79\H,21.9,16.3,
 15.29\O,22.93,17.26,23.95\H,23.74,16.91,24.32\H,23.21,17.99,23.4\O,25.
 94,21.17,19.93\H,25.94,21.83,19.24\H,25.02,20.93,20.04\O,21.16,15.43,2
 2.76\H,21.57,15.49,21.9\H,21.46,16.2,23.24\O,16.76,18.13,15.97\H,17.01
 ,19.06,15.92\H,15.83,18.15,16.21\O,23.05,23.68,16.78\H,22.62,24.45,17.
 16\H,23.37,23.18,17.53\O,14.32,21.89,21.13\H,15.17,21.55,21.39\H,14.26
 ,22.75,21.55\O,17.65,20.47,15.03\H,17.08,20.38,14.27\H,17.45,21.34,15.
 38\O,21.3,25.68,18.57\H,21.49,26.61,18.73\H,21.45,25.26,19.42\O,24.5,2
 4.62,19.52\H,23.82,24.01,19.81\H,24.26,25.45,19.92\\Version=ES64L-G09R
 evE.01\HF=-2443.172475\RMSD=3.001e-09\RMSF=8.972e-03\Dipole=-3.8247891
 ,-1.0259073,-1.2342417\Quadrupole=-162.4248521,43.9424103,118.4824417,
 -1634.0309958,-1566.5379928,-1518.7734041\PG=C01 [X(Br1H64O32)]\\@


 There are more things in heaven and earth, Horatio,
 than are dreamt of in your philosophy.
                   -- Hamlet, Act I, Scene 5
 Job cpu time:       0 days  9 hours 10 minutes 20.3 seconds.
 File lengths (MBytes):  RWF=    482 Int=      0 D2E=      0 Chk=    160 Scr=      1
 Normal termination of Gaussian 09 at Thu May  3 01:15:39 2018.
