 Entering Gaussian System, Link 0=/cm/shared/gaussian/g09.e01/intel64-sandybridge/g09/g09
 Initial command:
 /cm/shared/gaussian/g09.e01/intel64-sandybridge/g09/l1.exe "/local/scratch/m.peluso/32_wat/Gau-19166.inp" -scrdir="/local/scratch/m.peluso/32_wat/"
 Entering Link 1 = /cm/shared/gaussian/g09.e01/intel64-sandybridge/g09/l1.exe PID=     19167.
  
 Copyright (c) 1988,1990,1992,1993,1995,1998,2003,2009,2015,
            Gaussian, Inc.  All Rights Reserved.
  
 This is part of the Gaussian(R) 09 program.  It is based on
 the Gaussian(R) 03 system (copyright 2003, Gaussian, Inc.),
 the Gaussian(R) 98 system (copyright 1998, Gaussian, Inc.),
 the Gaussian(R) 94 system (copyright 1995, Gaussian, Inc.),
 the Gaussian 92(TM) system (copyright 1992, Gaussian, Inc.),
 the Gaussian 90(TM) system (copyright 1990, Gaussian, Inc.),
 the Gaussian 88(TM) system (copyright 1988, Gaussian, Inc.),
 the Gaussian 86(TM) system (copyright 1986, Carnegie Mellon
 University), and the Gaussian 82(TM) system (copyright 1983,
 Carnegie Mellon University). Gaussian is a federally registered
 trademark of Gaussian, Inc.
  
 This software contains proprietary and confidential information,
 including trade secrets, belonging to Gaussian, Inc.
  
 This software is provided under written license and may be
 used, copied, transmitted, or stored only in accord with that
 written license.
  
 The following legend is applicable only to US Government
 contracts under FAR:
  
                    RESTRICTED RIGHTS LEGEND
  
 Use, reproduction and disclosure by the US Government is
 subject to restrictions as set forth in subparagraphs (a)
 and (c) of the Commercial Computer Software - Restricted
 Rights clause in FAR 52.227-19.
  
 Gaussian, Inc.
 340 Quinnipiac St., Bldg. 40, Wallingford CT 06492
  
  
 ---------------------------------------------------------------
 Warning -- This program may not be used in any manner that
 competes with the business of Gaussian, Inc. or will provide
 assistance to any competitor of Gaussian, Inc.  The licensee
 of this program is prohibited from giving any competitor of
 Gaussian, Inc. access to this program.  By using this program,
 the user acknowledges that Gaussian, Inc. is engaged in the
 business of creating and licensing software in the field of
 computational chemistry and represents and warrants to the
 licensee that it is not a competitor of Gaussian, Inc. and that
 it will not use this program in any manner prohibited above.
 ---------------------------------------------------------------
  

 Cite this work as:
 Gaussian 09, Revision E.01,
 M. J. Frisch, G. W. Trucks, H. B. Schlegel, G. E. Scuseria, 
 M. A. Robb, J. R. Cheeseman, G. Scalmani, V. Barone, B. Mennucci, 
 G. A. Petersson, H. Nakatsuji, M. Caricato, X. Li, H. P. Hratchian, 
 A. F. Izmaylov, J. Bloino, G. Zheng, J. L. Sonnenberg, M. Hada, 
 M. Ehara, K. Toyota, R. Fukuda, J. Hasegawa, M. Ishida, T. Nakajima, 
 Y. Honda, O. Kitao, H. Nakai, T. Vreven, J. A. Montgomery, Jr., 
 J. E. Peralta, F. Ogliaro, M. Bearpark, J. J. Heyd, E. Brothers, 
 K. N. Kudin, V. N. Staroverov, T. Keith, R. Kobayashi, J. Normand, 
 K. Raghavachari, A. Rendell, J. C. Burant, S. S. Iyengar, J. Tomasi, 
 M. Cossi, N. Rega, J. M. Millam, M. Klene, J. E. Knox, J. B. Cross, 
 V. Bakken, C. Adamo, J. Jaramillo, R. Gomperts, R. E. Stratmann, 
 O. Yazyev, A. J. Austin, R. Cammi, C. Pomelli, J. W. Ochterski, 
 R. L. Martin, K. Morokuma, V. G. Zakrzewski, G. A. Voth, 
 P. Salvador, J. J. Dannenberg, S. Dapprich, A. D. Daniels, 
 O. Farkas, J. B. Foresman, J. V. Ortiz, J. Cioslowski, 
 and D. J. Fox, Gaussian, Inc., Wallingford CT, 2013.
 
 ******************************************
 Gaussian 09:  ES64L-G09RevE.01 30-Nov-2015
                 3-May-2018 
 ******************************************
 %Mem=110GB
 %NProcShared=64
 Will use up to   64 processors via shared memory.
 %chk=snap67.chk
 ----------------------------------------------
 #p PBE1PBE/cc-pvDZ force Counterpoise=2 noSymm
 ----------------------------------------------
 1/10=7,30=1,38=1,62=2/1,3;
 2/12=2,15=1,17=6,18=5,40=1/2;
 1/10=7,30=1,38=1,53=2,62=2,63=101/22;
 3/5=16,11=2,16=1,25=1,30=1,71=1,74=-13/1,2,3;
 4//1;
 5/5=2,38=5/2;
 6/7=2,8=2,9=2,10=2,28=1/1;
 7/7=1,29=1,30=1,33=-1/1,2,3,16;
 1/10=7,30=1,53=2,62=2,63=101/22;
 3/5=7,6=11,11=2,16=1,25=1,30=1,71=1,74=-13,82=7/1,2,3;
 4//1;
 5/5=2,38=5/2;
 6/7=2,8=2,9=2,10=2,28=1/1;
 7/7=1,29=1,30=1,33=-1/1,2,3,16;
 1/10=7,30=1,53=2,62=2,63=101/22(-5);
 7/9=1,29=1,44=-1/16;
 1/10=7,30=1,62=2/3;
 99//99;
 Leave Link    1 at Thu May  3 02:28:26 2018, MaxMem= 14763950080 cpu:         4.3
 (Enter /cm/shared/gaussian/g09.e01/intel64-sandybridge/g09/l101.exe)
 --------------------------------------
 forces on chloride comput - NWATER: 32
 --------------------------------------
 Symbolic Z-matrix:
 Charge = -1 Multiplicity = 1 in supermolecule
 Charge = -1 Multiplicity = 1 in fragment      1.
 Charge =  0 Multiplicity = 1 in fragment      2.
 Br(Fragment=1)        20.       20.       20. 
 O(Fragment=2)         17.33     20.78     21.37 
 H(Fragment=2)         18.22     20.67     21.05 
 H(Fragment=2)         16.84     21.12     20.62 
 O(Fragment=2)         22.12     21.88     21.34 
 H(Fragment=2)         21.55     22.14     22.06 
 H(Fragment=2)         21.61     21.23     20.85 
 O(Fragment=2)         19.88     20.33     23.14 
 H(Fragment=2)         20.38     21.06     23.48 
 H(Fragment=2)         19.76     20.53     22.21 
 O(Fragment=2)         21.75     17.73     18.45 
 H(Fragment=2)         21.13     18.41     18.68 
 H(Fragment=2)         22.58     18.2      18.31 
 O(Fragment=2)         20.25     21.43     16.89 
 H(Fragment=2)         20.03     21.16     17.78 
 H(Fragment=2)         19.41     21.43     16.42 
 O(Fragment=2)         18.07     17.16     19.96 
 H(Fragment=2)         18.7      17.84     20.21 
 H(Fragment=2)         18.16     16.5      20.65 
 O(Fragment=2)         17.64     19.18     17.64 
 H(Fragment=2)         18.47     19.48     18.02 
 H(Fragment=2)         17.57     18.27     17.92 
 O(Fragment=2)         19.45     23.49     20.13 
 H(Fragment=2)         18.92     23.03     19.47 
 H(Fragment=2)         20.04     22.81     20.46 
 O(Fragment=2)         21.45     17.93     23.2 
 H(Fragment=2)         21.36     17.51     22.34 
 H(Fragment=2)         20.91     18.72     23.13 
 O(Fragment=2)         21.48     16.17     20.78 
 H(Fragment=2)         20.7      15.62     20.81 
 H(Fragment=2)         21.42     16.63     19.94 
 O(Fragment=2)         23.83     22.46     19.29 
 H(Fragment=2)         24.26     21.76     18.8 
 H(Fragment=2)         23.15     22.01     19.8 
 O(Fragment=2)         16.62     18.33     22.55 
 H(Fragment=2)         16.74     17.54     22.02 
 H(Fragment=2)         16.94     19.04     21.98 
 O(Fragment=2)         17.63     22.84     18.32 
 H(Fragment=2)         17.63     22.6      17.39 
 H(Fragment=2)         16.99     22.25     18.72 
 O(Fragment=2)         23.75     18.95     22.17 
 H(Fragment=2)         23.43     19.73     22.62 
 H(Fragment=2)         23.21     18.24     22.5 
 O(Fragment=2)         17.41     23.12     22.86 
 H(Fragment=2)         18.36     23.       22.79 
 H(Fragment=2)         17.04     22.27     22.63 
 O(Fragment=2)         21.81     19.45     15.39 
 H(Fragment=2)         21.43     20.24     15.79 
 H(Fragment=2)         22.72     19.68     15.24 
 O(Fragment=2)         18.18     19.96     25.08 
 H(Fragment=2)         18.64     20.04     24.24 
 H(Fragment=2)         18.83     19.59     25.68 
 O(Fragment=2)         15.44     17.15     20.05 
 H(Fragment=2)         16.39     17.25     19.93 
 H(Fragment=2)         15.19     16.46     19.44 
 O(Fragment=2)         18.61     15.12     18.09 
 H(Fragment=2)         18.19     15.92     18.4 
 H(Fragment=2)         19.4      15.42     17.64 
 O(Fragment=2)         21.19     16.05     16.27 
 H(Fragment=2)         21.53     16.63     16.95 
 H(Fragment=2)         21.87     15.39     16.15 
 O(Fragment=2)         15.51     21.86     19.6 
 H(Fragment=2)         14.98     21.18     20.02 
 H(Fragment=2)         14.89     22.36     19.08 
 O(Fragment=2)         17.51     19.2      15.01 
 H(Fragment=2)         17.28     19.18     15.94 
 H(Fragment=2)         18.37     18.78     14.97 
 O(Fragment=2)         20.27     23.4      23.66 
 H(Fragment=2)         21.07     23.27     24.15 
 H(Fragment=2)         19.86     24.17     24.05 
 O(Fragment=2)         15.81     20.79     24.02 
 H(Fragment=2)         16.71     20.5      23.87 
 H(Fragment=2)         15.27     20.03     23.81 
 O(Fragment=2)         25.55     19.06     20.23 
 H(Fragment=2)         25.23     18.29     19.75 
 H(Fragment=2)         24.96     19.14     20.98 
 O(Fragment=2)         18.19     15.73     22.25 
 H(Fragment=2)         18.67     15.8      23.07 
 H(Fragment=2)         17.71     14.91     22.32 
 O(Fragment=2)         19.72     16.18     24.43 
 H(Fragment=2)         20.38     16.67     23.94 
 H(Fragment=2)         20.13     16.       25.28 
 O(Fragment=2)         21.21     23.53     15.27 
 H(Fragment=2)         22.02     23.6      15.78 
 H(Fragment=2)         20.67     22.9      15.76 
 O(Fragment=2)         17.53     25.37     19.5 
 H(Fragment=2)         18.32     24.97     19.87 
 H(Fragment=2)         17.1      24.66     19.02 
 O(Fragment=2)         24.54     20.7      17.46 
 H(Fragment=2)         24.01     20.74     16.67 
 H(Fragment=2)         24.98     19.85     17.42 
 O(Fragment=2)         19.82     17.8      15.14 
 H(Fragment=2)         20.13     17.01     15.58 
 H(Fragment=2)         20.6      18.35     15.05 
 O(Fragment=2)         22.36     21.74     24.72 
 H(Fragment=2)         22.31     21.71     25.67 
 H(Fragment=2)         22.65     20.87     24.46 
 
 NAtoms=     97 NQM=       97 NQMF=       0 NMMI=      0 NMMIF=      0
                NMic=       0 NMicF=      0.
                    Isotopes and Nuclear Properties:
 (Nuclear quadrupole moments (NQMom) in fm**2, nuclear magnetic moments (NMagM)
  in nuclear magnetons)

  Atom         1           2           3           4           5           6           7           8           9          10
 IAtWgt=          79          16           1           1          16           1           1          16           1           1
 AtmWgt=  78.9183361  15.9949146   1.0078250   1.0078250  15.9949146   1.0078250   1.0078250  15.9949146   1.0078250   1.0078250
 NucSpn=           3           0           1           1           0           1           1           0           1           1
 AtZEff=   0.0000000   0.0000000   0.0000000   0.0000000   0.0000000   0.0000000   0.0000000   0.0000000   0.0000000   0.0000000
 NQMom=   31.3000000   0.0000000   0.0000000   0.0000000   0.0000000   0.0000000   0.0000000   0.0000000   0.0000000   0.0000000
 NMagM=    2.1063990   0.0000000   2.7928460   2.7928460   0.0000000   2.7928460   2.7928460   0.0000000   2.7928460   2.7928460
 AtZNuc=  35.0000000   8.0000000   1.0000000   1.0000000   8.0000000   1.0000000   1.0000000   8.0000000   1.0000000   1.0000000

  Atom        11          12          13          14          15          16          17          18          19          20
 IAtWgt=          16           1           1          16           1           1          16           1           1          16
 AtmWgt=  15.9949146   1.0078250   1.0078250  15.9949146   1.0078250   1.0078250  15.9949146   1.0078250   1.0078250  15.9949146
 NucSpn=           0           1           1           0           1           1           0           1           1           0
 AtZEff=   0.0000000   0.0000000   0.0000000   0.0000000   0.0000000   0.0000000   0.0000000   0.0000000   0.0000000   0.0000000
 NQMom=    0.0000000   0.0000000   0.0000000   0.0000000   0.0000000   0.0000000   0.0000000   0.0000000   0.0000000   0.0000000
 NMagM=    0.0000000   2.7928460   2.7928460   0.0000000   2.7928460   2.7928460   0.0000000   2.7928460   2.7928460   0.0000000
 AtZNuc=   8.0000000   1.0000000   1.0000000   8.0000000   1.0000000   1.0000000   8.0000000   1.0000000   1.0000000   8.0000000

  Atom        21          22          23          24          25          26          27          28          29          30
 IAtWgt=           1           1          16           1           1          16           1           1          16           1
 AtmWgt=   1.0078250   1.0078250  15.9949146   1.0078250   1.0078250  15.9949146   1.0078250   1.0078250  15.9949146   1.0078250
 NucSpn=           1           1           0           1           1           0           1           1           0           1
 AtZEff=   0.0000000   0.0000000   0.0000000   0.0000000   0.0000000   0.0000000   0.0000000   0.0000000   0.0000000   0.0000000
 NQMom=    0.0000000   0.0000000   0.0000000   0.0000000   0.0000000   0.0000000   0.0000000   0.0000000   0.0000000   0.0000000
 NMagM=    2.7928460   2.7928460   0.0000000   2.7928460   2.7928460   0.0000000   2.7928460   2.7928460   0.0000000   2.7928460
 AtZNuc=   1.0000000   1.0000000   8.0000000   1.0000000   1.0000000   8.0000000   1.0000000   1.0000000   8.0000000   1.0000000

  Atom        31          32          33          34          35          36          37          38          39          40
 IAtWgt=           1          16           1           1          16           1           1          16           1           1
 AtmWgt=   1.0078250  15.9949146   1.0078250   1.0078250  15.9949146   1.0078250   1.0078250  15.9949146   1.0078250   1.0078250
 NucSpn=           1           0           1           1           0           1           1           0           1           1
 AtZEff=   0.0000000   0.0000000   0.0000000   0.0000000   0.0000000   0.0000000   0.0000000   0.0000000   0.0000000   0.0000000
 NQMom=    0.0000000   0.0000000   0.0000000   0.0000000   0.0000000   0.0000000   0.0000000   0.0000000   0.0000000   0.0000000
 NMagM=    2.7928460   0.0000000   2.7928460   2.7928460   0.0000000   2.7928460   2.7928460   0.0000000   2.7928460   2.7928460
 AtZNuc=   1.0000000   8.0000000   1.0000000   1.0000000   8.0000000   1.0000000   1.0000000   8.0000000   1.0000000   1.0000000

  Atom        41          42          43          44          45          46          47          48          49          50
 IAtWgt=          16           1           1          16           1           1          16           1           1          16
 AtmWgt=  15.9949146   1.0078250   1.0078250  15.9949146   1.0078250   1.0078250  15.9949146   1.0078250   1.0078250  15.9949146
 NucSpn=           0           1           1           0           1           1           0           1           1           0
 AtZEff=   0.0000000   0.0000000   0.0000000   0.0000000   0.0000000   0.0000000   0.0000000   0.0000000   0.0000000   0.0000000
 NQMom=    0.0000000   0.0000000   0.0000000   0.0000000   0.0000000   0.0000000   0.0000000   0.0000000   0.0000000   0.0000000
 NMagM=    0.0000000   2.7928460   2.7928460   0.0000000   2.7928460   2.7928460   0.0000000   2.7928460   2.7928460   0.0000000
 AtZNuc=   8.0000000   1.0000000   1.0000000   8.0000000   1.0000000   1.0000000   8.0000000   1.0000000   1.0000000   8.0000000

  Atom        51          52          53          54          55          56          57          58          59          60
 IAtWgt=           1           1          16           1           1          16           1           1          16           1
 AtmWgt=   1.0078250   1.0078250  15.9949146   1.0078250   1.0078250  15.9949146   1.0078250   1.0078250  15.9949146   1.0078250
 NucSpn=           1           1           0           1           1           0           1           1           0           1
 AtZEff=   0.0000000   0.0000000   0.0000000   0.0000000   0.0000000   0.0000000   0.0000000   0.0000000   0.0000000   0.0000000
 NQMom=    0.0000000   0.0000000   0.0000000   0.0000000   0.0000000   0.0000000   0.0000000   0.0000000   0.0000000   0.0000000
 NMagM=    2.7928460   2.7928460   0.0000000   2.7928460   2.7928460   0.0000000   2.7928460   2.7928460   0.0000000   2.7928460
 AtZNuc=   1.0000000   1.0000000   8.0000000   1.0000000   1.0000000   8.0000000   1.0000000   1.0000000   8.0000000   1.0000000

  Atom        61          62          63          64          65          66          67          68          69          70
 IAtWgt=           1          16           1           1          16           1           1          16           1           1
 AtmWgt=   1.0078250  15.9949146   1.0078250   1.0078250  15.9949146   1.0078250   1.0078250  15.9949146   1.0078250   1.0078250
 NucSpn=           1           0           1           1           0           1           1           0           1           1
 AtZEff=   0.0000000   0.0000000   0.0000000   0.0000000   0.0000000   0.0000000   0.0000000   0.0000000   0.0000000   0.0000000
 NQMom=    0.0000000   0.0000000   0.0000000   0.0000000   0.0000000   0.0000000   0.0000000   0.0000000   0.0000000   0.0000000
 NMagM=    2.7928460   0.0000000   2.7928460   2.7928460   0.0000000   2.7928460   2.7928460   0.0000000   2.7928460   2.7928460
 AtZNuc=   1.0000000   8.0000000   1.0000000   1.0000000   8.0000000   1.0000000   1.0000000   8.0000000   1.0000000   1.0000000

  Atom        71          72          73          74          75          76          77          78          79          80
 IAtWgt=          16           1           1          16           1           1          16           1           1          16
 AtmWgt=  15.9949146   1.0078250   1.0078250  15.9949146   1.0078250   1.0078250  15.9949146   1.0078250   1.0078250  15.9949146
 NucSpn=           0           1           1           0           1           1           0           1           1           0
 AtZEff=   0.0000000   0.0000000   0.0000000   0.0000000   0.0000000   0.0000000   0.0000000   0.0000000   0.0000000   0.0000000
 NQMom=    0.0000000   0.0000000   0.0000000   0.0000000   0.0000000   0.0000000   0.0000000   0.0000000   0.0000000   0.0000000
 NMagM=    0.0000000   2.7928460   2.7928460   0.0000000   2.7928460   2.7928460   0.0000000   2.7928460   2.7928460   0.0000000
 AtZNuc=   8.0000000   1.0000000   1.0000000   8.0000000   1.0000000   1.0000000   8.0000000   1.0000000   1.0000000   8.0000000

  Atom        81          82          83          84          85          86          87          88          89          90
 IAtWgt=           1           1          16           1           1          16           1           1          16           1
 AtmWgt=   1.0078250   1.0078250  15.9949146   1.0078250   1.0078250  15.9949146   1.0078250   1.0078250  15.9949146   1.0078250
 NucSpn=           1           1           0           1           1           0           1           1           0           1
 AtZEff=   0.0000000   0.0000000   0.0000000   0.0000000   0.0000000   0.0000000   0.0000000   0.0000000   0.0000000   0.0000000
 NQMom=    0.0000000   0.0000000   0.0000000   0.0000000   0.0000000   0.0000000   0.0000000   0.0000000   0.0000000   0.0000000
 NMagM=    2.7928460   2.7928460   0.0000000   2.7928460   2.7928460   0.0000000   2.7928460   2.7928460   0.0000000   2.7928460
 AtZNuc=   1.0000000   1.0000000   8.0000000   1.0000000   1.0000000   8.0000000   1.0000000   1.0000000   8.0000000   1.0000000

  Atom        91          92          93          94          95          96          97
 IAtWgt=           1          16           1           1          16           1           1
 AtmWgt=   1.0078250  15.9949146   1.0078250   1.0078250  15.9949146   1.0078250   1.0078250
 NucSpn=           1           0           1           1           0           1           1
 AtZEff=   0.0000000   0.0000000   0.0000000   0.0000000   0.0000000   0.0000000   0.0000000
 NQMom=    0.0000000   0.0000000   0.0000000   0.0000000   0.0000000   0.0000000   0.0000000
 NMagM=    2.7928460   0.0000000   2.7928460   2.7928460   0.0000000   2.7928460   2.7928460
 AtZNuc=   1.0000000   8.0000000   1.0000000   1.0000000   8.0000000   1.0000000   1.0000000
 Leave Link  101 at Thu May  3 02:28:26 2018, MaxMem= 14763950080 cpu:        13.5
 (Enter /cm/shared/gaussian/g09.e01/intel64-sandybridge/g09/l103.exe)

 GradGradGradGradGradGradGradGradGradGradGradGradGradGradGradGradGradGrad
 Berny optimization.
 Initialization pass.
 Trust Radius=3.00D-01 FncErr=1.00D-07 GrdErr=1.00D-07
 Number of steps in this run=      2 maximum allowed number of steps=      2.
 GradGradGradGradGradGradGradGradGradGradGradGradGradGradGradGradGradGrad

 Leave Link  103 at Thu May  3 02:28:26 2018, MaxMem= 14763950080 cpu:         1.7
 (Enter /cm/shared/gaussian/g09.e01/intel64-sandybridge/g09/l202.exe)
 Symmetry turned off by external request.
 Stoichiometry    BrH64O32(1-)
 Framework group  C1[X(BrH64O32)]
 Deg. of freedom   285
 Full point group                 C1      NOp   1
                          Input orientation:                          
 ---------------------------------------------------------------------
 Center     Atomic      Atomic             Coordinates (Angstroms)
 Number     Number       Type             X           Y           Z
 ---------------------------------------------------------------------
      1         35           0       20.000000   20.000000   20.000000
      2          8           0       17.330000   20.780000   21.370000
      3          1           0       18.220000   20.670000   21.050000
      4          1           0       16.840000   21.120000   20.620000
      5          8           0       22.120000   21.880000   21.340000
      6          1           0       21.550000   22.140000   22.060000
      7          1           0       21.610000   21.230000   20.850000
      8          8           0       19.880000   20.330000   23.140000
      9          1           0       20.380000   21.060000   23.480000
     10          1           0       19.760000   20.530000   22.210000
     11          8           0       21.750000   17.730000   18.450000
     12          1           0       21.130000   18.410000   18.680000
     13          1           0       22.580000   18.200000   18.310000
     14          8           0       20.250000   21.430000   16.890000
     15          1           0       20.030000   21.160000   17.780000
     16          1           0       19.410000   21.430000   16.420000
     17          8           0       18.070000   17.160000   19.960000
     18          1           0       18.700000   17.840000   20.210000
     19          1           0       18.160000   16.500000   20.650000
     20          8           0       17.640000   19.180000   17.640000
     21          1           0       18.470000   19.480000   18.020000
     22          1           0       17.570000   18.270000   17.920000
     23          8           0       19.450000   23.490000   20.130000
     24          1           0       18.920000   23.030000   19.470000
     25          1           0       20.040000   22.810000   20.460000
     26          8           0       21.450000   17.930000   23.200000
     27          1           0       21.360000   17.510000   22.340000
     28          1           0       20.910000   18.720000   23.130000
     29          8           0       21.480000   16.170000   20.780000
     30          1           0       20.700000   15.620000   20.810000
     31          1           0       21.420000   16.630000   19.940000
     32          8           0       23.830000   22.460000   19.290000
     33          1           0       24.260000   21.760000   18.800000
     34          1           0       23.150000   22.010000   19.800000
     35          8           0       16.620000   18.330000   22.550000
     36          1           0       16.740000   17.540000   22.020000
     37          1           0       16.940000   19.040000   21.980000
     38          8           0       17.630000   22.840000   18.320000
     39          1           0       17.630000   22.600000   17.390000
     40          1           0       16.990000   22.250000   18.720000
     41          8           0       23.750000   18.950000   22.170000
     42          1           0       23.430000   19.730000   22.620000
     43          1           0       23.210000   18.240000   22.500000
     44          8           0       17.410000   23.120000   22.860000
     45          1           0       18.360000   23.000000   22.790000
     46          1           0       17.040000   22.270000   22.630000
     47          8           0       21.810000   19.450000   15.390000
     48          1           0       21.430000   20.240000   15.790000
     49          1           0       22.720000   19.680000   15.240000
     50          8           0       18.180000   19.960000   25.080000
     51          1           0       18.640000   20.040000   24.240000
     52          1           0       18.830000   19.590000   25.680000
     53          8           0       15.440000   17.150000   20.050000
     54          1           0       16.390000   17.250000   19.930000
     55          1           0       15.190000   16.460000   19.440000
     56          8           0       18.610000   15.120000   18.090000
     57          1           0       18.190000   15.920000   18.400000
     58          1           0       19.400000   15.420000   17.640000
     59          8           0       21.190000   16.050000   16.270000
     60          1           0       21.530000   16.630000   16.950000
     61          1           0       21.870000   15.390000   16.150000
     62          8           0       15.510000   21.860000   19.600000
     63          1           0       14.980000   21.180000   20.020000
     64          1           0       14.890000   22.360000   19.080000
     65          8           0       17.510000   19.200000   15.010000
     66          1           0       17.280000   19.180000   15.940000
     67          1           0       18.370000   18.780000   14.970000
     68          8           0       20.270000   23.400000   23.660000
     69          1           0       21.070000   23.270000   24.150000
     70          1           0       19.860000   24.170000   24.050000
     71          8           0       15.810000   20.790000   24.020000
     72          1           0       16.710000   20.500000   23.870000
     73          1           0       15.270000   20.030000   23.810000
     74          8           0       25.550000   19.060000   20.230000
     75          1           0       25.230000   18.290000   19.750000
     76          1           0       24.960000   19.140000   20.980000
     77          8           0       18.190000   15.730000   22.250000
     78          1           0       18.670000   15.800000   23.070000
     79          1           0       17.710000   14.910000   22.320000
     80          8           0       19.720000   16.180000   24.430000
     81          1           0       20.380000   16.670000   23.940000
     82          1           0       20.130000   16.000000   25.280000
     83          8           0       21.210000   23.530000   15.270000
     84          1           0       22.020000   23.600000   15.780000
     85          1           0       20.670000   22.900000   15.760000
     86          8           0       17.530000   25.370000   19.500000
     87          1           0       18.320000   24.970000   19.870000
     88          1           0       17.100000   24.660000   19.020000
     89          8           0       24.540000   20.700000   17.460000
     90          1           0       24.010000   20.740000   16.670000
     91          1           0       24.980000   19.850000   17.420000
     92          8           0       19.820000   17.800000   15.140000
     93          1           0       20.130000   17.010000   15.580000
     94          1           0       20.600000   18.350000   15.050000
     95          8           0       22.360000   21.740000   24.720000
     96          1           0       22.310000   21.710000   25.670000
     97          1           0       22.650000   20.870000   24.460000
 ---------------------------------------------------------------------
 Rotational constants (GHZ):      0.0647997      0.0556173      0.0542469
 Leave Link  202 at Thu May  3 02:28:26 2018, MaxMem= 14763950080 cpu:         0.5
 (Enter /cm/shared/gaussian/g09.e01/intel64-sandybridge/g09/l122.exe)
 Counterpoise: doing full dimer calculation.
 Leave Link  122 at Thu May  3 02:28:26 2018, MaxMem= 14763950080 cpu:         0.0
 (Enter /cm/shared/gaussian/g09.e01/intel64-sandybridge/g09/l301.exe)
 Standard basis: CC-pVDZ (5D, 7F)
 Ernie: Thresh=  0.10000D-02 Tol=  0.10000D-05 Strict=F.
 Ernie:  87 primitive shells out of 1114 were deleted.
   795 basis functions,  1651 primitive gaussians,   829 cartesian basis functions
   178 alpha electrons      178 beta electrons
       nuclear repulsion energy      6287.3692520567 Hartrees.
 IExCor= 1009 DFT=T Ex+Corr=PBE1PBE ExCW=0 ScaHFX=  0.250000
 ScaDFX=  0.750000  0.750000  1.000000  1.000000 ScalE2=  1.000000  1.000000
 IRadAn=      0 IRanWt=     -1 IRanGd=            0 ICorTp=0 IEmpDi=  4
 NAtoms=   97 NActive=   97 NUniq=   97 SFac= 1.00D+00 NAtFMM=   60 NAOKFM=T Big=T
 Integral buffers will be    131072 words long.
 Raffenetti 2 integral format.
 Two-electron integral symmetry is turned off.
 Leave Link  301 at Thu May  3 02:28:26 2018, MaxMem= 14763950080 cpu:         4.6
 (Enter /cm/shared/gaussian/g09.e01/intel64-sandybridge/g09/l302.exe)
 NPDir=0 NMtPBC=     1 NCelOv=     1 NCel=       1 NClECP=     1 NCelD=      1
         NCelK=      1 NCelE2=     1 NClLst=     1 CellRange=     0.0.
 One-electron integrals computed using PRISM.
 NBasis=   795 RedAO= T EigKep=  1.22D-02  NBF=   795
 NBsUse=   795 1.00D-06 EigRej= -1.00D+00 NBFU=   795
 Precomputing XC quadrature grid using
 IXCGrd= 4 IRadAn=           0 IRanWt=          -1 IRanGd=           0 AccXCQ= 0.00D+00.
 Generated NRdTot=       0 NPtTot=           0 NUsed=           0 NTot=          32
 NSgBfM=   723   730   733   751   769 MxSgAt=    97 MxSgA2=    97.
 Leave Link  302 at Thu May  3 02:28:32 2018, MaxMem= 14763950080 cpu:       379.0
 (Enter /cm/shared/gaussian/g09.e01/intel64-sandybridge/g09/l303.exe)
 DipDrv:  MaxL=1.
 Leave Link  303 at Thu May  3 02:28:33 2018, MaxMem= 14763950080 cpu:        29.7
 (Enter /cm/shared/gaussian/g09.e01/intel64-sandybridge/g09/l401.exe)
 ExpMin= 1.22D-01 ExpMax= 6.40D+05 ExpMxC= 6.18D+03 IAcc=2 IRadAn=         4 AccDes= 0.00D+00
 Harris functional with IExCor= 1009 and IRadAn=       4 diagonalized for initial guess.
 HarFok:  IExCor= 1009 AccDes= 0.00D+00 IRadAn=         4 IDoV= 1 UseB2=F ITyADJ=14
 ICtDFT=  3500011 ScaDFX=  1.000000  1.000000  1.000000  1.000000
 FoFCou: FMM=F IPFlag=           0 FMFlag=      100000 FMFlg1=        2001
         NFxFlg=           0 DoJE=T BraDBF=F KetDBF=T FulRan=T
         wScrn=  0.000000 ICntrl=     500 IOpCl=  0 I1Cent=   200000004 NGrid=           0
         NMat0=    1 NMatS0=      1 NMatT0=    0 NMatD0=    1 NMtDS0=    0 NMtDT0=    0
 Symmetry not used in FoFCou.
 Harris En= -5018.41506599593    
 JPrj=0 DoOrth=F DoCkMO=F.
 Leave Link  401 at Thu May  3 02:28:38 2018, MaxMem= 14763950080 cpu:       349.1
 (Enter /cm/shared/gaussian/g09.e01/intel64-sandybridge/g09/l502.exe)
 Closed shell SCF:
 Using DIIS extrapolation, IDIIS=  1040.
 Two-electron integral symmetry not used.
 IVT=     2138497 IEndB=     2138497 NGot= 14763950080 MDV= 14762516294
 LenX= 14762516294 LenY= 14761828224
 Requested convergence on RMS density matrix=1.00D-08 within 128 cycles.
 Requested convergence on MAX density matrix=1.00D-06.
 Requested convergence on             energy=1.00D-06.
 No special actions if energy rises.
 Fock matrices will be formed incrementally for  20 cycles.
 Integral accuracy reduced to 1.0D-05 until final iterations.

 Cycle   1  Pass 0  IDiag  1:
 FoFJK:  IHMeth= 1 ICntrl=       0 DoSepK=F KAlg= 0 I1Cent=   0 FoldK=F
 IRaf= 860000000 NMat=   1 IRICut=       1 DoRegI=T DoRafI=F ISym2E= 0.
 FoFCou: FMM=T IPFlag=           0 FMFlag=      100000 FMFlg1=        2001
         NFxFlg=           0 DoJE=F BraDBF=F KetDBF=F FulRan=T
         wScrn=  0.000000 ICntrl=       0 IOpCl=  0 I1Cent=           0 NGrid=           0
         NMat0=    1 NMatS0=      1 NMatT0=    0 NMatD0=    1 NMtDS0=    0 NMtDT0=    0
 Symmetry not used in FoFCou.
 FMM levels:  10  Number of levels for PrismC:   9
 E= -5015.31065253970    
 DIIS: error= 3.25D-02 at cycle   1 NSaved=   1.
 NSaved= 1 IEnMin= 1 EnMin= -5015.31065253970     IErMin= 1 ErrMin= 3.25D-02
 ErrMax= 3.25D-02  0.00D+00 EMaxC= 1.00D-01 BMatC= 2.69D+00 BMatP= 2.69D+00
 IDIUse=3 WtCom= 6.75D-01 WtEn= 3.25D-01
 Coeff-Com:  0.100D+01
 Coeff-En:   0.100D+01
 Coeff:      0.100D+01
 Gap=     0.345 Goal=   None    Shift=    0.000
 GapD=    0.345 DampG=1.000 DampE=0.500 DampFc=0.5000 IDamp=-1.
 Damping current iteration by 5.00D-01
 RMSDP=2.92D-03 MaxDP=1.67D-01              OVMax= 1.90D-01

 Cycle   2  Pass 0  IDiag  1:
 RMSU=  1.45D-03    CP:  9.86D-01
 E= -5016.09273582166     Delta-E=       -0.782083281962 Rises=F Damp=T
 DIIS: error= 6.59D-03 at cycle   2 NSaved=   2.
 NSaved= 2 IEnMin= 2 EnMin= -5016.09273582166     IErMin= 2 ErrMin= 6.59D-03
 ErrMax= 6.59D-03  0.00D+00 EMaxC= 1.00D-01 BMatC= 8.51D-02 BMatP= 2.69D+00
 IDIUse=3 WtCom= 9.34D-01 WtEn= 6.59D-02
 Coeff-Com:  0.118D+00 0.882D+00
 Coeff-En:   0.214D+00 0.786D+00
 Coeff:      0.124D+00 0.876D+00
 Gap=     0.187 Goal=   None    Shift=    0.000
 RMSDP=3.90D-04 MaxDP=2.41D-02 DE=-7.82D-01 OVMax= 1.25D-01

 Cycle   3  Pass 0  IDiag  1:
 RMSU=  3.02D-04    CP:  9.88D-01  8.30D-01
 E= -5017.23292772794     Delta-E=       -1.140191906276 Rises=F Damp=F
 DIIS: error= 1.11D-03 at cycle   3 NSaved=   3.
 NSaved= 3 IEnMin= 3 EnMin= -5017.23292772794     IErMin= 3 ErrMin= 1.11D-03
 ErrMax= 1.11D-03  0.00D+00 EMaxC= 1.00D-01 BMatC= 2.50D-03 BMatP= 8.51D-02
 IDIUse=3 WtCom= 9.89D-01 WtEn= 1.11D-02
 Coeff-Com:  0.804D-02 0.890D-01 0.903D+00
 Coeff-En:   0.000D+00 0.000D+00 0.100D+01
 Coeff:      0.795D-02 0.880D-01 0.904D+00
 Gap=     0.199 Goal=   None    Shift=    0.000
 RMSDP=1.09D-04 MaxDP=1.46D-02 DE=-1.14D+00 OVMax= 1.59D-02

 Cycle   4  Pass 0  IDiag  1:
 RMSU=  9.76D-05    CP:  9.88D-01  8.39D-01  8.48D-01
 E= -5017.23346648772     Delta-E=       -0.000538759781 Rises=F Damp=F
 DIIS: error= 1.21D-03 at cycle   4 NSaved=   4.
 NSaved= 4 IEnMin= 4 EnMin= -5017.23346648772     IErMin= 3 ErrMin= 1.11D-03
 ErrMax= 1.21D-03  0.00D+00 EMaxC= 1.00D-01 BMatC= 2.49D-03 BMatP= 2.50D-03
 IDIUse=3 WtCom= 9.88D-01 WtEn= 1.21D-02
 Coeff-Com: -0.376D-04 0.901D-02 0.500D+00 0.491D+00
 Coeff-En:   0.000D+00 0.000D+00 0.438D+00 0.562D+00
 Coeff:     -0.372D-04 0.891D-02 0.499D+00 0.492D+00
 Gap=     0.199 Goal=   None    Shift=    0.000
 RMSDP=4.75D-05 MaxDP=5.88D-03 DE=-5.39D-04 OVMax= 5.38D-03

 Cycle   5  Pass 0  IDiag  1:
 RMSU=  2.06D-05    CP:  9.88D-01  8.36D-01  9.09D-01  6.09D-01
 E= -5017.23537644570     Delta-E=       -0.001909957982 Rises=F Damp=F
 DIIS: error= 1.20D-04 at cycle   5 NSaved=   5.
 NSaved= 5 IEnMin= 5 EnMin= -5017.23537644570     IErMin= 5 ErrMin= 1.20D-04
 ErrMax= 1.20D-04  0.00D+00 EMaxC= 1.00D-01 BMatC= 3.90D-05 BMatP= 2.49D-03
 IDIUse=3 WtCom= 9.99D-01 WtEn= 1.20D-03
 Coeff-Com:  0.769D-04-0.986D-03 0.148D+00 0.174D+00 0.678D+00
 Coeff-En:   0.000D+00 0.000D+00 0.000D+00 0.000D+00 0.100D+01
 Coeff:      0.769D-04-0.985D-03 0.148D+00 0.174D+00 0.679D+00
 Gap=     0.199 Goal=   None    Shift=    0.000
 RMSDP=9.31D-06 MaxDP=1.37D-03 DE=-1.91D-03 OVMax= 1.30D-03

 Cycle   6  Pass 0  IDiag  1:
 RMSU=  6.60D-06    CP:  9.88D-01  8.35D-01  9.20D-01  5.92D-01  7.48D-01
 E= -5017.23540907478     Delta-E=       -0.000032629081 Rises=F Damp=F
 DIIS: error= 6.20D-05 at cycle   6 NSaved=   6.
 NSaved= 6 IEnMin= 6 EnMin= -5017.23540907478     IErMin= 6 ErrMin= 6.20D-05
 ErrMax= 6.20D-05  0.00D+00 EMaxC= 1.00D-01 BMatC= 4.52D-06 BMatP= 3.90D-05
 IDIUse=1 WtCom= 1.00D+00 WtEn= 0.00D+00
 Coeff-Com: -0.124D-04-0.187D-02 0.317D-01 0.393D-01 0.282D+00 0.648D+00
 Coeff:     -0.124D-04-0.187D-02 0.317D-01 0.393D-01 0.282D+00 0.648D+00
 Gap=     0.199 Goal=   None    Shift=    0.000
 RMSDP=2.53D-06 MaxDP=4.51D-04 DE=-3.26D-05 OVMax= 3.46D-04

 Initial convergence to 1.0D-05 achieved.  Increase integral accuracy.
 Cycle   7  Pass 1  IDiag  1:
 E= -5017.23618760600     Delta-E=       -0.000778531221 Rises=F Damp=F
 DIIS: error= 6.50D-05 at cycle   1 NSaved=   1.
 NSaved= 1 IEnMin= 1 EnMin= -5017.23618760600     IErMin= 1 ErrMin= 6.50D-05
 ErrMax= 6.50D-05  0.00D+00 EMaxC= 1.00D-01 BMatC= 1.71D-06 BMatP= 1.71D-06
 IDIUse=1 WtCom= 1.00D+00 WtEn= 0.00D+00
 Coeff-Com:  0.100D+01
 Coeff:      0.100D+01
 Gap=     0.199 Goal=   None    Shift=    0.000
 RMSDP=2.53D-06 MaxDP=4.51D-04 DE=-7.79D-04 OVMax= 1.96D-04

 Cycle   8  Pass 1  IDiag  1:
 RMSU=  4.86D-06    CP:  1.00D+00
 E= -5017.23618916851     Delta-E=       -0.000001562506 Rises=F Damp=F
 DIIS: error= 1.50D-05 at cycle   2 NSaved=   2.
 NSaved= 2 IEnMin= 2 EnMin= -5017.23618916851     IErMin= 2 ErrMin= 1.50D-05
 ErrMax= 1.50D-05  0.00D+00 EMaxC= 1.00D-01 BMatC= 3.59D-07 BMatP= 1.71D-06
 IDIUse=1 WtCom= 1.00D+00 WtEn= 0.00D+00
 Coeff-Com:  0.237D+00 0.763D+00
 Coeff:      0.237D+00 0.763D+00
 Gap=     0.199 Goal=   None    Shift=    0.000
 RMSDP=8.62D-07 MaxDP=1.04D-04 DE=-1.56D-06 OVMax= 9.92D-05

 Cycle   9  Pass 1  IDiag  1:
 RMSU=  8.61D-07    CP:  1.00D+00  9.90D-01
 E= -5017.23618927616     Delta-E=       -0.000000107653 Rises=F Damp=F
 DIIS: error= 1.20D-05 at cycle   3 NSaved=   3.
 NSaved= 3 IEnMin= 3 EnMin= -5017.23618927616     IErMin= 3 ErrMin= 1.20D-05
 ErrMax= 1.20D-05  0.00D+00 EMaxC= 1.00D-01 BMatC= 2.18D-07 BMatP= 3.59D-07
 IDIUse=1 WtCom= 1.00D+00 WtEn= 0.00D+00
 Coeff-Com: -0.581D-02 0.437D+00 0.568D+00
 Coeff:     -0.581D-02 0.437D+00 0.568D+00
 Gap=     0.199 Goal=   None    Shift=    0.000
 RMSDP=3.75D-07 MaxDP=4.41D-05 DE=-1.08D-07 OVMax= 4.31D-05

 Cycle  10  Pass 1  IDiag  1:
 RMSU=  1.17D-07    CP:  1.00D+00  1.01D+00  6.02D-01
 E= -5017.23618943051     Delta-E=       -0.000000154345 Rises=F Damp=F
 DIIS: error= 1.25D-06 at cycle   4 NSaved=   4.
 NSaved= 4 IEnMin= 4 EnMin= -5017.23618943051     IErMin= 4 ErrMin= 1.25D-06
 ErrMax= 1.25D-06  0.00D+00 EMaxC= 1.00D-01 BMatC= 1.66D-09 BMatP= 2.18D-07
 IDIUse=1 WtCom= 1.00D+00 WtEn= 0.00D+00
 Coeff-Com: -0.510D-02 0.194D+00 0.262D+00 0.550D+00
 Coeff:     -0.510D-02 0.194D+00 0.262D+00 0.550D+00
 Gap=     0.199 Goal=   None    Shift=    0.000
 RMSDP=4.78D-08 MaxDP=8.30D-06 DE=-1.54D-07 OVMax= 6.62D-06

 Cycle  11  Pass 1  IDiag  1:
 RMSU=  3.45D-08    CP:  1.00D+00  1.01D+00  6.01D-01  7.22D-01
 E= -5017.23618943199     Delta-E=       -0.000000001484 Rises=F Damp=F
 DIIS: error= 3.03D-07 at cycle   5 NSaved=   5.
 NSaved= 5 IEnMin= 5 EnMin= -5017.23618943199     IErMin= 5 ErrMin= 3.03D-07
 ErrMax= 3.03D-07  0.00D+00 EMaxC= 1.00D-01 BMatC= 8.29D-11 BMatP= 1.66D-09
 IDIUse=1 WtCom= 1.00D+00 WtEn= 0.00D+00
 Coeff-Com: -0.178D-02 0.547D-01 0.753D-01 0.232D+00 0.640D+00
 Coeff:     -0.178D-02 0.547D-01 0.753D-01 0.232D+00 0.640D+00
 Gap=     0.199 Goal=   None    Shift=    0.000
 RMSDP=9.79D-09 MaxDP=1.32D-06 DE=-1.48D-09 OVMax= 1.01D-06

 Cycle  12  Pass 1  IDiag  1:
 RMSU=  9.09D-09    CP:  1.00D+00  1.01D+00  6.00D-01  7.46D-01  9.48D-01
 E= -5017.23618943190     Delta-E=        0.000000000087 Rises=F Damp=F
 DIIS: error= 6.24D-08 at cycle   6 NSaved=   6.
 NSaved= 6 IEnMin= 5 EnMin= -5017.23618943199     IErMin= 6 ErrMin= 6.24D-08
 ErrMax= 6.24D-08  0.00D+00 EMaxC= 1.00D-01 BMatC= 7.29D-12 BMatP= 8.29D-11
 IDIUse=1 WtCom= 1.00D+00 WtEn= 0.00D+00
 Coeff-Com:  0.373D-04-0.600D-02-0.761D-02 0.110D-01 0.242D+00 0.761D+00
 Coeff:      0.373D-04-0.600D-02-0.761D-02 0.110D-01 0.242D+00 0.761D+00
 Gap=     0.199 Goal=   None    Shift=    0.000
 RMSDP=3.74D-09 MaxDP=5.88D-07 DE= 8.73D-11 OVMax= 5.45D-07

 SCF Done:  E(RPBE1PBE) =  -5017.23618943     A.U. after   12 cycles
            NFock= 12  Conv=0.37D-08     -V/T= 2.0027
 KE= 5.003797556837D+03 PE=-2.453996012664D+04 EE= 8.231557128309D+03
 Leave Link  502 at Thu May  3 02:31:07 2018, MaxMem= 14763950080 cpu:      9406.7
 (Enter /cm/shared/gaussian/g09.e01/intel64-sandybridge/g09/l601.exe)
 Copying SCF densities to generalized density rwf, IOpCl= 0 IROHF=0.

 **********************************************************************

            Population analysis using the SCF density.

 **********************************************************************

 Alpha  occ. eigenvalues -- -483.18442 -62.58766 -56.36016 -56.35989 -56.35979
 Alpha  occ. eigenvalues --  -19.19329 -19.19183 -19.18255 -19.17390 -19.17306
 Alpha  occ. eigenvalues --  -19.17294 -19.16774 -19.16546 -19.16412 -19.15835
 Alpha  occ. eigenvalues --  -19.15376 -19.15305 -19.14961 -19.14743 -19.14622
 Alpha  occ. eigenvalues --  -19.14450 -19.13985 -19.13376 -19.12416 -19.10804
 Alpha  occ. eigenvalues --  -19.10058 -19.09860 -19.09587 -19.08447 -19.08062
 Alpha  occ. eigenvalues --  -19.07309 -19.06907 -19.05298 -19.04617 -19.04259
 Alpha  occ. eigenvalues --  -19.04241 -19.03526  -8.69120  -6.49531  -6.49401
 Alpha  occ. eigenvalues --   -6.49358  -2.57797  -2.57772  -2.57737  -2.57629
 Alpha  occ. eigenvalues --   -2.57625  -1.01937  -1.01821  -1.01180  -1.00641
 Alpha  occ. eigenvalues --   -0.99968  -0.99864  -0.99756  -0.99530  -0.99254
 Alpha  occ. eigenvalues --   -0.99042  -0.98133  -0.97915  -0.97520  -0.97265
 Alpha  occ. eigenvalues --   -0.97166  -0.96711  -0.96630  -0.96212  -0.95601
 Alpha  occ. eigenvalues --   -0.93464  -0.92635  -0.92416  -0.92285  -0.91160
 Alpha  occ. eigenvalues --   -0.91146  -0.90855  -0.89368  -0.87828  -0.87602
 Alpha  occ. eigenvalues --   -0.86923  -0.86873  -0.86585  -0.68969  -0.52601
 Alpha  occ. eigenvalues --   -0.52227  -0.51995  -0.50879  -0.50764  -0.50400
 Alpha  occ. eigenvalues --   -0.50346  -0.50123  -0.49876  -0.49597  -0.49251
 Alpha  occ. eigenvalues --   -0.49122  -0.48362  -0.48120  -0.47858  -0.47265
 Alpha  occ. eigenvalues --   -0.47013  -0.46819  -0.45642  -0.44906  -0.44585
 Alpha  occ. eigenvalues --   -0.44531  -0.44322  -0.43959  -0.43289  -0.43219
 Alpha  occ. eigenvalues --   -0.41293  -0.40758  -0.40115  -0.39445  -0.39204
 Alpha  occ. eigenvalues --   -0.39021  -0.38441  -0.38128  -0.37850  -0.37748
 Alpha  occ. eigenvalues --   -0.37418  -0.37169  -0.36317  -0.36113  -0.35872
 Alpha  occ. eigenvalues --   -0.35018  -0.34622  -0.33791  -0.33414  -0.33300
 Alpha  occ. eigenvalues --   -0.33060  -0.32828  -0.32148  -0.31699  -0.31309
 Alpha  occ. eigenvalues --   -0.30707  -0.30081  -0.29985  -0.29964  -0.29400
 Alpha  occ. eigenvalues --   -0.29171  -0.28905  -0.28767  -0.28606  -0.28346
 Alpha  occ. eigenvalues --   -0.28130  -0.27852  -0.27446  -0.27116  -0.26875
 Alpha  occ. eigenvalues --   -0.26793  -0.26571  -0.26203  -0.25947  -0.25814
 Alpha  occ. eigenvalues --   -0.25759  -0.25528  -0.25362  -0.25204  -0.24831
 Alpha  occ. eigenvalues --   -0.24358  -0.24330  -0.23679  -0.23293  -0.23096
 Alpha  occ. eigenvalues --   -0.22954  -0.22636  -0.21995  -0.21727  -0.21182
 Alpha  occ. eigenvalues --   -0.21175  -0.21027  -0.20815  -0.20780  -0.19571
 Alpha  occ. eigenvalues --   -0.19338  -0.19240  -0.17758  -0.16190  -0.16139
 Alpha  occ. eigenvalues --   -0.15658  -0.15493  -0.15088
 Alpha virt. eigenvalues --    0.04822   0.06371   0.08385   0.09097   0.10680
 Alpha virt. eigenvalues --    0.11431   0.12041   0.12722   0.13146   0.13519
 Alpha virt. eigenvalues --    0.14799   0.15258   0.16388   0.17059   0.17462
 Alpha virt. eigenvalues --    0.17628   0.18419   0.18633   0.19202   0.19721
 Alpha virt. eigenvalues --    0.20004   0.20504   0.21105   0.21389   0.22203
 Alpha virt. eigenvalues --    0.22633   0.23287   0.23664   0.24121   0.24708
 Alpha virt. eigenvalues --    0.25075   0.25812   0.26079   0.26473   0.27010
 Alpha virt. eigenvalues --    0.27663   0.28116   0.28424   0.28687   0.29383
 Alpha virt. eigenvalues --    0.29711   0.30395   0.30708   0.31177   0.31831
 Alpha virt. eigenvalues --    0.31946   0.32517   0.32666   0.33473   0.33735
 Alpha virt. eigenvalues --    0.34034   0.34308   0.35254   0.35667   0.36069
 Alpha virt. eigenvalues --    0.36794   0.38018   0.38172   0.38763   0.39585
 Alpha virt. eigenvalues --    0.40000   0.40688   0.41275   0.43167   0.55968
 Alpha virt. eigenvalues --    0.57309   0.57439   0.58310   0.58637   0.59510
 Alpha virt. eigenvalues --    0.60038   0.60124   0.61017   0.61246   0.61499
 Alpha virt. eigenvalues --    0.62022   0.62180   0.62781   0.63065   0.63864
 Alpha virt. eigenvalues --    0.64270   0.64605   0.65341   0.65573   0.65865
 Alpha virt. eigenvalues --    0.66046   0.66514   0.66928   0.67082   0.67254
 Alpha virt. eigenvalues --    0.67411   0.67726   0.68295   0.68715   0.68959
 Alpha virt. eigenvalues --    0.68990   0.69056   0.69608   0.70017   0.70615
 Alpha virt. eigenvalues --    0.70842   0.71126   0.71408   0.71599   0.71971
 Alpha virt. eigenvalues --    0.72170   0.72893   0.73300   0.73491   0.73811
 Alpha virt. eigenvalues --    0.74197   0.74673   0.74920   0.75199   0.75423
 Alpha virt. eigenvalues --    0.76200   0.76512   0.76536   0.76887   0.77472
 Alpha virt. eigenvalues --    0.77932   0.78399   0.78826   0.79493   0.79670
 Alpha virt. eigenvalues --    0.80532   0.81597   0.81693   0.82750   0.83107
 Alpha virt. eigenvalues --    0.84548   0.85327   0.86088   0.87060   0.88387
 Alpha virt. eigenvalues --    0.89790   0.92524   0.93485   0.94428   0.95296
 Alpha virt. eigenvalues --    0.95601   0.95717   0.96124   0.96587   0.96922
 Alpha virt. eigenvalues --    0.97225   0.97648   0.97934   0.98251   0.98580
 Alpha virt. eigenvalues --    0.99065   0.99324   0.99962   1.00160   1.00482
 Alpha virt. eigenvalues --    1.00523   1.00740   1.01112   1.01862   1.02241
 Alpha virt. eigenvalues --    1.02352   1.02897   1.03139   1.03306   1.03665
 Alpha virt. eigenvalues --    1.04200   1.04469   1.05097   1.05122   1.05471
 Alpha virt. eigenvalues --    1.05658   1.06136   1.06224   1.06549   1.06965
 Alpha virt. eigenvalues --    1.07110   1.07678   1.07894   1.08280   1.08434
 Alpha virt. eigenvalues --    1.08978   1.09397   1.09649   1.10165   1.10283
 Alpha virt. eigenvalues --    1.10637   1.11153   1.11345   1.11509   1.11773
 Alpha virt. eigenvalues --    1.12328   1.12640   1.12918   1.13208   1.13550
 Alpha virt. eigenvalues --    1.13971   1.14974   1.15070   1.15260   1.15761
 Alpha virt. eigenvalues --    1.16070   1.16352   1.16675   1.16914   1.17409
 Alpha virt. eigenvalues --    1.17645   1.18133   1.18312   1.18912   1.19053
 Alpha virt. eigenvalues --    1.19718   1.19982   1.20106   1.20765   1.21250
 Alpha virt. eigenvalues --    1.21845   1.22422   1.22945   1.23183   1.23589
 Alpha virt. eigenvalues --    1.24119   1.24453   1.24599   1.24972   1.25060
 Alpha virt. eigenvalues --    1.25746   1.26030   1.26310   1.26751   1.27476
 Alpha virt. eigenvalues --    1.27623   1.27933   1.28249   1.28341   1.28531
 Alpha virt. eigenvalues --    1.28993   1.29528   1.29644   1.29929   1.30607
 Alpha virt. eigenvalues --    1.30659   1.31036   1.31115   1.31787   1.31888
 Alpha virt. eigenvalues --    1.32274   1.32498   1.32822   1.33172   1.33336
 Alpha virt. eigenvalues --    1.33755   1.33992   1.34212   1.34639   1.35057
 Alpha virt. eigenvalues --    1.35379   1.35761   1.35870   1.36239   1.36571
 Alpha virt. eigenvalues --    1.36711   1.37114   1.37617   1.38057   1.38615
 Alpha virt. eigenvalues --    1.38932   1.39332   1.39708   1.39839   1.40213
 Alpha virt. eigenvalues --    1.40682   1.40785   1.41130   1.41660   1.41868
 Alpha virt. eigenvalues --    1.42591   1.43068   1.43546   1.43823   1.44497
 Alpha virt. eigenvalues --    1.44848   1.45326   1.45743   1.46129   1.46423
 Alpha virt. eigenvalues --    1.46599   1.47061   1.47476   1.48098   1.48607
 Alpha virt. eigenvalues --    1.48778   1.49899   1.50195   1.50521   1.51315
 Alpha virt. eigenvalues --    1.51719   1.52011   1.52132   1.52647   1.53190
 Alpha virt. eigenvalues --    1.53600   1.53934   1.54455   1.55069   1.55260
 Alpha virt. eigenvalues --    1.55576   1.56423   1.57214   1.57477   1.57712
 Alpha virt. eigenvalues --    1.58112   1.58788   1.58873   1.59370   1.59486
 Alpha virt. eigenvalues --    1.59666   1.60326   1.60664   1.61265   1.61571
 Alpha virt. eigenvalues --    1.62334   1.63084   1.63879   1.64254   1.65154
 Alpha virt. eigenvalues --    1.66020   1.66870   1.67780   1.68095   1.69208
 Alpha virt. eigenvalues --    1.69405   1.69582   1.69906   1.70572   1.70920
 Alpha virt. eigenvalues --    1.71578   1.72103   1.72481   1.74125   1.74307
 Alpha virt. eigenvalues --    1.76311   1.77205   1.77775   1.78056   1.78361
 Alpha virt. eigenvalues --    1.78740   1.79578   1.79858   1.80103   1.80447
 Alpha virt. eigenvalues --    1.80751   1.81035   1.81283   1.81584   1.82004
 Alpha virt. eigenvalues --    1.82310   1.83019   1.83909   1.84058   1.84414
 Alpha virt. eigenvalues --    1.84474   1.85197   1.85578   1.86068   1.86538
 Alpha virt. eigenvalues --    1.86920   1.87142   1.87994   1.88335   1.90007
 Alpha virt. eigenvalues --    1.90083   1.90746   1.91464   1.92351   1.93255
 Alpha virt. eigenvalues --    1.93958   1.94708   1.95181   1.95912   1.96436
 Alpha virt. eigenvalues --    1.96725   1.97400   1.97537   1.97954   1.98889
 Alpha virt. eigenvalues --    1.99356   2.00340   2.00945   2.02085   2.03627
 Alpha virt. eigenvalues --    2.03948   2.08855   2.11215   2.17213   2.17254
 Alpha virt. eigenvalues --    2.17838   2.18313   2.18574   2.18984   2.19611
 Alpha virt. eigenvalues --    2.20461   2.20808   2.21073   2.22083   2.22297
 Alpha virt. eigenvalues --    2.22531   2.22550   2.22741   2.23786   2.23859
 Alpha virt. eigenvalues --    2.24582   2.24768   2.25147   2.25294   2.25663
 Alpha virt. eigenvalues --    2.25697   2.26009   2.26248   2.26427   2.28482
 Alpha virt. eigenvalues --    2.28782   2.30156   2.30626   2.31291   2.32292
 Alpha virt. eigenvalues --    2.32553   2.33827   2.34120   2.34757   2.36009
 Alpha virt. eigenvalues --    2.37028   2.37200   2.37454   2.38069   2.38518
 Alpha virt. eigenvalues --    2.40671   2.43196   2.45765   2.46286   2.46710
 Alpha virt. eigenvalues --    2.48934   2.49321   2.50689   2.51366   2.52460
 Alpha virt. eigenvalues --    2.53430   2.54658   2.55342   2.56434   2.57227
 Alpha virt. eigenvalues --    2.58082   2.58707   2.59272   2.60987   2.61024
 Alpha virt. eigenvalues --    2.61699   2.66079   2.94100   2.94387   2.95215
 Alpha virt. eigenvalues --    2.95711   2.96701   2.97449   2.97716   2.97844
 Alpha virt. eigenvalues --    2.97972   2.98588   2.98658   2.98728   2.99417
 Alpha virt. eigenvalues --    3.00200   3.00319   3.00583   3.00742   3.00849
 Alpha virt. eigenvalues --    3.01245   3.01359   3.01521   3.01688   3.01828
 Alpha virt. eigenvalues --    3.01973   3.02093   3.02502   3.02596   3.02789
 Alpha virt. eigenvalues --    3.02822   3.03134   3.03296   3.03603   3.03898
 Alpha virt. eigenvalues --    3.04747   3.05032   3.05300   3.05432   3.05674
 Alpha virt. eigenvalues --    3.05877   3.05932   3.05988   3.06808   3.07272
 Alpha virt. eigenvalues --    3.07496   3.07914   3.07999   3.08227   3.08513
 Alpha virt. eigenvalues --    3.08765   3.09207   3.09873   3.10214   3.10360
 Alpha virt. eigenvalues --    3.10972   3.11279   3.11858   3.13286   3.13654
 Alpha virt. eigenvalues --    3.14050   3.15111   3.15463   3.15691   3.15976
 Alpha virt. eigenvalues --    3.16738   3.17159   3.17494   3.18330   3.18713
 Alpha virt. eigenvalues --    3.19487   3.19963   3.20598   3.20978   3.21420
 Alpha virt. eigenvalues --    3.21988   3.22049   3.22340   3.22728   3.23155
 Alpha virt. eigenvalues --    3.24023   3.24238   3.24600   3.24652   3.25158
 Alpha virt. eigenvalues --    3.25731   3.26069   3.27215   3.28298   3.29558
 Alpha virt. eigenvalues --    3.30389   3.30584   3.31939   3.32683   3.33263
 Alpha virt. eigenvalues --    3.33418   3.34610   3.36177   3.53624   3.54643
 Alpha virt. eigenvalues --    3.54931   3.55397   3.55951   3.56260   3.56940
 Alpha virt. eigenvalues --    3.57243   3.58421   3.59128   3.59916   3.60376
 Alpha virt. eigenvalues --    3.60806   3.61234   3.61693   3.62235   3.62624
 Alpha virt. eigenvalues --    3.63594   3.64388   3.65118   3.65661   3.65924
 Alpha virt. eigenvalues --    3.67183   3.68171   3.68725   3.69375   3.70218
 Alpha virt. eigenvalues --    3.70345   3.71094   3.71465   3.73420   3.74557
 Alpha virt. eigenvalues --    3.82034   3.82719   3.82905   3.84162   3.86078
 Alpha virt. eigenvalues --    3.86171   3.87084   3.87639   3.88143   3.88379
 Alpha virt. eigenvalues --    3.88974   3.89444   3.90348   3.90854   3.91077
 Alpha virt. eigenvalues --    3.91364   3.91419   3.92795   3.93408   3.93936
 Alpha virt. eigenvalues --    3.94474   3.95318   3.96416   3.96752   3.97697
 Alpha virt. eigenvalues --    3.98276   3.98733   3.99404   3.99804   4.01901
 Alpha virt. eigenvalues --    4.02469   4.04311
          Condensed to atoms (all electrons):
 Mulliken charges:
               1
     1  Br  -0.713138
     2  O   -0.258713
     3  H    0.146137
     4  H    0.141268
     5  O   -0.243030
     6  H    0.119253
     7  H    0.153721
     8  O   -0.244379
     9  H    0.119591
    10  H    0.153731
    11  O   -0.238028
    12  H    0.163539
    13  H    0.146248
    14  O   -0.248415
    15  H    0.159981
    16  H    0.151644
    17  O   -0.284879
    18  H    0.144777
    19  H    0.151526
    20  O   -0.258442
    21  H    0.122531
    22  H    0.141740
    23  O   -0.279861
    24  H    0.131063
    25  H    0.091746
    26  O   -0.299764
    27  H    0.140181
    28  H    0.142014
    29  O   -0.278080
    30  H    0.137828
    31  H    0.134488
    32  O   -0.336836
    33  H    0.126756
    34  H    0.112352
    35  O   -0.308147
    36  H    0.109391
    37  H    0.108399
    38  O   -0.243311
    39  H    0.137673
    40  H    0.144081
    41  O   -0.257571
    42  H    0.129699
    43  H    0.129942
    44  O   -0.316688
    45  H    0.097719
    46  H    0.131976
    47  O   -0.240620
    48  H    0.134841
    49  H    0.117646
    50  O   -0.276415
    51  H    0.139713
    52  H    0.097992
    53  O   -0.303168
    54  H    0.133760
    55  H    0.114931
    56  O   -0.307367
    57  H    0.123628
    58  H    0.113145
    59  O   -0.230873
    60  H    0.128086
    61  H    0.134214
    62  O   -0.209710
    63  H    0.166164
    64  H    0.148788
    65  O   -0.365651
    66  H    0.126768
    67  H    0.124192
    68  O   -0.233193
    69  H    0.125498
    70  H    0.155113
    71  O   -0.291527
    72  H    0.146806
    73  H    0.118728
    74  O   -0.307748
    75  H    0.106336
    76  H    0.150394
    77  O   -0.247112
    78  H    0.135480
    79  H    0.144159
    80  O   -0.268902
    81  H    0.129164
    82  H    0.134753
    83  O   -0.306010
    84  H    0.133916
    85  H    0.129903
    86  O   -0.328263
    87  H    0.141463
    88  H    0.107692
    89  O   -0.204125
    90  H    0.114347
    91  H    0.127245
    92  O   -0.322241
    93  H    0.136052
    94  H    0.128985
    95  O   -0.228225
    96  H    0.147296
    97  H    0.142242
 Sum of Mulliken charges =  -1.00000
 Mulliken charges with hydrogens summed into heavy atoms:
               1
     1  Br  -0.713138
     2  O    0.028692
     5  O    0.029944
     8  O    0.028943
    11  O    0.071759
    14  O    0.063210
    17  O    0.011423
    20  O    0.005828
    23  O   -0.057052
    26  O   -0.017569
    29  O   -0.005764
    32  O   -0.097728
    35  O   -0.090357
    38  O    0.038443
    41  O    0.002069
    44  O   -0.086994
    47  O    0.011867
    50  O   -0.038711
    53  O   -0.054476
    56  O   -0.070594
    59  O    0.031428
    62  O    0.105242
    65  O   -0.114691
    68  O    0.047418
    71  O   -0.025993
    74  O   -0.051018
    77  O    0.032527
    80  O   -0.004985
    83  O   -0.042191
    86  O   -0.079107
    89  O    0.037467
    92  O   -0.057203
    95  O    0.061313
         Mulliken charges condensed to fragments:
      1     -0.713138
      2     -0.286862
 Electronic spatial extent (au):  <R**2>=        1539041.8665
 Charge=             -1.0000 electrons
 Dipole moment (field-independent basis, Debye):
    X=            -87.0831    Y=           -108.1295    Z=            -91.5960  Tot=            166.3288
 Quadrupole moment (field-independent basis, Debye-Ang):
   XX=          -1845.7152   YY=          -2703.7182   ZZ=          -2015.8612
   XY=          -1995.8628   XZ=          -1633.7318   YZ=          -2077.4987
 Traceless Quadrupole moment (field-independent basis, Debye-Ang):
   XX=            342.7164   YY=           -515.2867   ZZ=            172.5703
   XY=          -1995.8628   XZ=          -1633.7318   YZ=          -2077.4987
 Octapole moment (field-independent basis, Debye-Ang**2):
  XXX=         -44724.7539  YYY=         -71164.7736  ZZZ=         -49046.0709  XYY=         -50835.9758
  XXY=         -42308.2837  XXZ=         -34623.8106  XZZ=         -35493.2438  YZZ=         -45297.3906
  YYZ=         -52338.2151  XYZ=         -37672.2056
 Hexadecapole moment (field-independent basis, Debye-Ang**3):
 XXXX=       -1176189.5561 YYYY=       -1906509.4637 ZZZZ=       -1260378.8236 XXXY=       -1010058.7501
 XXXZ=        -850173.4886 YYYX=       -1356650.6378 YYYZ=       -1385516.1558 ZZZX=        -856520.9027
 ZZZY=       -1081757.5749 XXYY=       -1070794.7688 XXZZ=        -740117.4399 YYZZ=       -1124031.1729
 XXYZ=        -795339.2305 YYXZ=        -967527.1657 ZZXY=        -807847.4160
 N-N= 6.287369252057D+03 E-N=-2.453996019934D+04  KE= 5.003797556837D+03
 No NMR shielding tensors so no spin-rotation constants.
 Leave Link  601 at Thu May  3 02:31:09 2018, MaxMem= 14763950080 cpu:        71.2
 (Enter /cm/shared/gaussian/g09.e01/intel64-sandybridge/g09/l701.exe)
 Compute integral first derivatives.
 ... and contract with generalized density number  0.
 Leave Link  701 at Thu May  3 02:31:11 2018, MaxMem= 14763950080 cpu:       155.1
 (Enter /cm/shared/gaussian/g09.e01/intel64-sandybridge/g09/l702.exe)
 L702 exits ... SP integral derivatives will be done elsewhere.
 Leave Link  702 at Thu May  3 02:31:13 2018, MaxMem= 14763950080 cpu:         1.7
 (Enter /cm/shared/gaussian/g09.e01/intel64-sandybridge/g09/l703.exe)
 Compute integral first derivatives, UseDBF=F ICtDFT=           0.
 Integral derivatives from FoFJK, PRISM(SPDF).
 Calling FoFJK, ICntrl=      2127 FMM=T ISym2X=0 I1Cent= 0 IOpClX= 0 NMat=1 NMatS=1 NMatT=0.
 FoFJK:  IHMeth= 1 ICntrl=    2127 DoSepK=F KAlg= 0 I1Cent=   0 FoldK=F
 IRaf=         0 NMat=   1 IRICut=       1 DoRegI=T DoRafI=F ISym2E= 0.
 FoFCou: FMM=T IPFlag=           0 FMFlag=      100000 FMFlg1=        2001
         NFxFlg=           0 DoJE=F BraDBF=F KetDBF=F FulRan=T
         wScrn=  0.000000 ICntrl=    2127 IOpCl=  0 I1Cent=           0 NGrid=           0
         NMat0=    1 NMatS0=      1 NMatT0=    0 NMatD0=    1 NMtDS0=    0 NMtDT0=    0
 Symmetry not used in FoFCou.
 FMM levels:  10  Number of levels for PrismC:   9
 Leave Link  703 at Thu May  3 02:31:32 2018, MaxMem= 14763950080 cpu:      1243.8
 (Enter /cm/shared/gaussian/g09.e01/intel64-sandybridge/g09/l716.exe)
 Dipole        =-3.42611375D+01-4.25414063D+01-3.60366286D+01
 Cartesian Forces:  Max     0.029087392 RMS     0.009506915
 Leave Link  716 at Thu May  3 02:31:33 2018, MaxMem= 14763950080 cpu:         3.6
 (Enter /cm/shared/gaussian/g09.e01/intel64-sandybridge/g09/l122.exe)
 CPIOFr:  IOpCl= 0 IRwI=-1 IRwCP=  731 ICalc= -1 LCPTot=     1005244 Len1MO=     2550559 IndFrg=     1005244
 CPIOFr:  IOpCl= 0 IRwI=-1 IRwCP=  731 ICalc=  0 LCPTot=     1005244 Len1MO=     2550559 IndFrg=     3555803
 Counterpoise: doing DCBS calculation for fragment   1 NewBq=T
 Leave Link  122 at Thu May  3 02:31:33 2018, MaxMem= 14763950080 cpu:         6.9
 (Enter /cm/shared/gaussian/g09.e01/intel64-sandybridge/g09/l301.exe)
 Basis read from rwf:  (5D, 7F)
 No pseudopotential information found on rwf file.
   795 basis functions,  1651 primitive gaussians,   829 cartesian basis functions
    18 alpha electrons       18 beta electrons
       nuclear repulsion energy         0.0000000000 Hartrees.
 IExCor= 1009 DFT=T Ex+Corr=PBE1PBE ExCW=0 ScaHFX=  0.250000
 ScaDFX=  0.750000  0.750000  1.000000  1.000000 ScalE2=  1.000000  1.000000
 IRadAn=      0 IRanWt=     -1 IRanGd=            0 ICorTp=0 IEmpDi=  4
 NAtoms=   97 NActive=   97 NUniq=   97 SFac= 1.00D+00 NAtFMM=   60 NAOKFM=T Big=T
 Integral buffers will be    131072 words long.
 Raffenetti 2 integral format.
 Two-electron integral symmetry is turned off.
 No density basis found on file   718.
 Leave Link  301 at Thu May  3 02:31:33 2018, MaxMem= 14763950080 cpu:         5.0
 (Enter /cm/shared/gaussian/g09.e01/intel64-sandybridge/g09/l302.exe)
 NPDir=0 NMtPBC=     1 NCelOv=     1 NCel=       1 NClECP=     1 NCelD=      1
         NCelK=      1 NCelE2=     1 NClLst=     1 CellRange=     0.0.
 One-electron integrals computed using PRISM.
 NBasis=   795 RedAO= T EigKep=  1.22D-02  NBF=   795
 NBsUse=   795 1.00D-06 EigRej= -1.00D+00 NBFU=   795
 Precomputing XC quadrature grid using
 IXCGrd= 4 IRadAn=           0 IRanWt=          -1 IRanGd=           0 AccXCQ= 0.00D+00.
 Generated NRdTot=       0 NPtTot=           0 NUsed=           0 NTot=          32
 NSgBfM=   723   730   733   751   769 MxSgAt=    97 MxSgA2=    97.
 Leave Link  302 at Thu May  3 02:31:37 2018, MaxMem= 14763950080 cpu:       269.1
 (Enter /cm/shared/gaussian/g09.e01/intel64-sandybridge/g09/l303.exe)
 DipDrv:  MaxL=1.
 Leave Link  303 at Thu May  3 02:31:38 2018, MaxMem= 14763950080 cpu:        80.7
 (Enter /cm/shared/gaussian/g09.e01/intel64-sandybridge/g09/l401.exe)
 ExpMin= 1.22D-01 ExpMax= 6.40D+05 ExpMxC= 6.18D+03 IAcc=2 IRadAn=         4 AccDes= 0.00D+00
 Harris functional with IExCor= 1009 and IRadAn=       4 diagonalized for initial guess.
 HarFok:  IExCor= 1009 AccDes= 0.00D+00 IRadAn=         4 IDoV= 1 UseB2=F ITyADJ=14
 ICtDFT=  3500011 ScaDFX=  1.000000  1.000000  1.000000  1.000000
 FoFCou: FMM=F IPFlag=           0 FMFlag=      100000 FMFlg1=        2001
         NFxFlg=           0 DoJE=T BraDBF=F KetDBF=T FulRan=T
         wScrn=  0.000000 ICntrl=     500 IOpCl=  0 I1Cent=   200000004 NGrid=           0
         NMat0=    1 NMatS0=      1 NMatT0=    0 NMatD0=    1 NMtDS0=    0 NMtDT0=    0
 Symmetry not used in FoFCou.
 Harris En= -2574.02002443184    
 JPrj=0 DoOrth=F DoCkMO=F.
 Leave Link  401 at Thu May  3 02:31:44 2018, MaxMem= 14763950080 cpu:       312.1
 (Enter /cm/shared/gaussian/g09.e01/intel64-sandybridge/g09/l502.exe)
 Closed shell SCF:
 Using DIIS extrapolation, IDIIS=  1040.
 Two-electron integral symmetry not used.
 IVT=     2138497 IEndB=     2138497 NGot= 14763950080 MDV= 14762516294
 LenX= 14762516294 LenY= 14761828224
 Requested convergence on RMS density matrix=1.00D-08 within 128 cycles.
 Requested convergence on MAX density matrix=1.00D-06.
 Requested convergence on             energy=1.00D-06.
 No special actions if energy rises.
 Fock matrices will be formed incrementally for  20 cycles.
 Integral accuracy reduced to 1.0D-05 until final iterations.

 Cycle   1  Pass 0  IDiag  1:
 FoFJK:  IHMeth= 1 ICntrl=       0 DoSepK=F KAlg= 0 I1Cent=   0 FoldK=F
 IRaf= 860000000 NMat=   1 IRICut=       1 DoRegI=T DoRafI=F ISym2E= 0.
 FoFCou: FMM=T IPFlag=           0 FMFlag=      100000 FMFlg1=        2001
         NFxFlg=           0 DoJE=F BraDBF=F KetDBF=F FulRan=T
         wScrn=  0.000000 ICntrl=       0 IOpCl=  0 I1Cent=           0 NGrid=           0
         NMat0=    1 NMatS0=      1 NMatT0=    0 NMatD0=    1 NMtDS0=    0 NMtDT0=    0
 Symmetry not used in FoFCou.
 FMM levels:  10  Number of levels for PrismC:   9
 E= -2573.87885005847    
 DIIS: error= 1.17D-02 at cycle   1 NSaved=   1.
 NSaved= 1 IEnMin= 1 EnMin= -2573.87885005847     IErMin= 1 ErrMin= 1.17D-02
 ErrMax= 1.17D-02  0.00D+00 EMaxC= 1.00D-01 BMatC= 3.89D-02 BMatP= 3.89D-02
 IDIUse=3 WtCom= 8.83D-01 WtEn= 1.17D-01
 Coeff-Com:  0.100D+01
 Coeff-En:   0.100D+01
 Coeff:      0.100D+01
 Gap=     0.179 Goal=   None    Shift=    0.000
 GapD=    0.179 DampG=1.000 DampE=0.500 DampFc=0.5000 IDamp=-1.
 Damping current iteration by 5.00D-01
 RMSDP=4.81D-04 MaxDP=6.54D-02              OVMax= 1.55D-01

 Cycle   2  Pass 0  IDiag  1:
 RMSU=  2.38D-04    CP:  9.94D-01
 E= -2573.89593757610     Delta-E=       -0.017087517632 Rises=F Damp=T
 DIIS: error= 6.70D-03 at cycle   2 NSaved=   2.
 NSaved= 2 IEnMin= 2 EnMin= -2573.89593757610     IErMin= 2 ErrMin= 6.70D-03
 ErrMax= 6.70D-03  0.00D+00 EMaxC= 1.00D-01 BMatC= 9.23D-03 BMatP= 3.89D-02
 IDIUse=3 WtCom= 9.33D-01 WtEn= 6.70D-02
 Coeff-Com: -0.564D+00 0.156D+01
 Coeff-En:   0.000D+00 0.100D+01
 Coeff:     -0.527D+00 0.153D+01
 Gap=     0.192 Goal=   None    Shift=    0.000
 RMSDP=1.73D-04 MaxDP=4.09D-02 DE=-1.71D-02 OVMax= 7.02D-02

 Cycle   3  Pass 0  IDiag  1:
 RMSU=  1.51D-04    CP:  9.94D-01  1.35D+00
 E= -2573.90962831746     Delta-E=       -0.013690741355 Rises=F Damp=F
 DIIS: error= 2.13D-03 at cycle   3 NSaved=   3.
 NSaved= 3 IEnMin= 3 EnMin= -2573.90962831746     IErMin= 3 ErrMin= 2.13D-03
 ErrMax= 2.13D-03  0.00D+00 EMaxC= 1.00D-01 BMatC= 2.67D-03 BMatP= 9.23D-03
 IDIUse=3 WtCom= 9.79D-01 WtEn= 2.13D-02
 Coeff-Com: -0.303D+00 0.721D+00 0.583D+00
 Coeff-En:   0.000D+00 0.000D+00 0.100D+01
 Coeff:     -0.297D+00 0.706D+00 0.592D+00
 Gap=     0.175 Goal=   None    Shift=    0.000
 RMSDP=7.20D-05 MaxDP=1.77D-02 DE=-1.37D-02 OVMax= 2.19D-02

 Cycle   4  Pass 0  IDiag  1:
 RMSU=  8.66D-06    CP:  9.92D-01  1.53D+00  6.26D-01
 E= -2573.91254343724     Delta-E=       -0.002915119780 Rises=F Damp=F
 DIIS: error= 4.36D-05 at cycle   4 NSaved=   4.
 NSaved= 4 IEnMin= 4 EnMin= -2573.91254343724     IErMin= 4 ErrMin= 4.36D-05
 ErrMax= 4.36D-05  0.00D+00 EMaxC= 1.00D-01 BMatC= 9.21D-07 BMatP= 2.67D-03
 IDIUse=1 WtCom= 1.00D+00 WtEn= 0.00D+00
 Coeff-Com: -0.172D-01 0.325D-01 0.312D-01 0.953D+00
 Coeff:     -0.172D-01 0.325D-01 0.312D-01 0.953D+00
 Gap=     0.176 Goal=   None    Shift=    0.000
 RMSDP=2.23D-06 MaxDP=2.78D-04 DE=-2.92D-03 OVMax= 5.75D-04

 Initial convergence to 1.0D-05 achieved.  Increase integral accuracy.
 Cycle   5  Pass 1  IDiag  1:
 E= -2573.91341172512     Delta-E=       -0.000868287878 Rises=F Damp=F
 DIIS: error= 1.03D-05 at cycle   1 NSaved=   1.
 NSaved= 1 IEnMin= 1 EnMin= -2573.91341172512     IErMin= 1 ErrMin= 1.03D-05
 ErrMax= 1.03D-05  0.00D+00 EMaxC= 1.00D-01 BMatC= 1.07D-07 BMatP= 1.07D-07
 IDIUse=1 WtCom= 1.00D+00 WtEn= 0.00D+00
 Coeff-Com:  0.100D+01
 Coeff:      0.100D+01
 Gap=     0.176 Goal=   None    Shift=    0.000
 RMSDP=2.23D-06 MaxDP=2.78D-04 DE=-8.68D-04 OVMax= 2.81D-04

 Cycle   6  Pass 1  IDiag  1:
 RMSU=  1.36D-06    CP:  1.00D+00
 E= -2573.91341189098     Delta-E=       -0.000000165862 Rises=F Damp=F
 DIIS: error= 6.43D-06 at cycle   2 NSaved=   2.
 NSaved= 2 IEnMin= 2 EnMin= -2573.91341189098     IErMin= 2 ErrMin= 6.43D-06
 ErrMax= 6.43D-06  0.00D+00 EMaxC= 1.00D-01 BMatC= 3.46D-08 BMatP= 1.07D-07
 IDIUse=1 WtCom= 1.00D+00 WtEn= 0.00D+00
 Coeff-Com:  0.330D+00 0.670D+00
 Coeff:      0.330D+00 0.670D+00
 Gap=     0.176 Goal=   None    Shift=    0.000
 RMSDP=3.58D-07 MaxDP=8.29D-05 DE=-1.66D-07 OVMax= 1.18D-04

 Cycle   7  Pass 1  IDiag  1:
 RMSU=  3.46D-07    CP:  1.00D+00  9.38D-01
 E= -2573.91341193140     Delta-E=       -0.000000040417 Rises=F Damp=F
 DIIS: error= 1.94D-06 at cycle   3 NSaved=   3.
 NSaved= 3 IEnMin= 3 EnMin= -2573.91341193140     IErMin= 3 ErrMin= 1.94D-06
 ErrMax= 1.94D-06  0.00D+00 EMaxC= 1.00D-01 BMatC= 3.52D-09 BMatP= 3.46D-08
 IDIUse=1 WtCom= 1.00D+00 WtEn= 0.00D+00
 Coeff-Com: -0.321D-01 0.217D+00 0.815D+00
 Coeff:     -0.321D-01 0.217D+00 0.815D+00
 Gap=     0.176 Goal=   None    Shift=    0.000
 RMSDP=9.88D-08 MaxDP=2.54D-05 DE=-4.04D-08 OVMax= 2.70D-05

 Cycle   8  Pass 1  IDiag  1:
 RMSU=  4.11D-08    CP:  1.00D+00  9.91D-01  8.45D-01
 E= -2573.91341193565     Delta-E=       -0.000000004255 Rises=F Damp=F
 DIIS: error= 4.76D-07 at cycle   4 NSaved=   4.
 NSaved= 4 IEnMin= 4 EnMin= -2573.91341193565     IErMin= 4 ErrMin= 4.76D-07
 ErrMax= 4.76D-07  0.00D+00 EMaxC= 1.00D-01 BMatC= 5.24D-11 BMatP= 3.52D-09
 IDIUse=1 WtCom= 1.00D+00 WtEn= 0.00D+00
 Coeff-Com: -0.146D-01 0.698D-01 0.278D+00 0.667D+00
 Coeff:     -0.146D-01 0.698D-01 0.278D+00 0.667D+00
 Gap=     0.176 Goal=   None    Shift=    0.000
 RMSDP=1.26D-08 MaxDP=1.29D-06 DE=-4.26D-09 OVMax= 4.14D-06

 Cycle   9  Pass 1  IDiag  1:
 RMSU=  1.07D-08    CP:  1.00D+00  9.93D-01  8.50D-01  8.62D-01
 E= -2573.91341193572     Delta-E=       -0.000000000064 Rises=F Damp=F
 DIIS: error= 5.29D-08 at cycle   5 NSaved=   5.
 NSaved= 5 IEnMin= 5 EnMin= -2573.91341193572     IErMin= 5 ErrMin= 5.29D-08
 ErrMax= 5.29D-08  0.00D+00 EMaxC= 1.00D-01 BMatC= 1.28D-12 BMatP= 5.24D-11
 IDIUse=1 WtCom= 1.00D+00 WtEn= 0.00D+00
 Coeff-Com:  0.882D-03-0.938D-02-0.378D-01 0.744D-01 0.972D+00
 Coeff:      0.882D-03-0.938D-02-0.378D-01 0.744D-01 0.972D+00
 Gap=     0.176 Goal=   None    Shift=    0.000
 RMSDP=2.93D-09 MaxDP=3.65D-07 DE=-6.41D-11 OVMax= 1.07D-06

 SCF Done:  E(RPBE1PBE) =  -2573.91341194     A.U. after    9 cycles
            NFock=  9  Conv=0.29D-08     -V/T= 2.0013
 KE= 2.570507042395D+03 PE=-6.162843096154D+03 EE= 1.018422641823D+03
 Leave Link  502 at Thu May  3 02:33:28 2018, MaxMem= 14763950080 cpu:      6553.8
 (Enter /cm/shared/gaussian/g09.e01/intel64-sandybridge/g09/l601.exe)
 Copying SCF densities to generalized density rwf, IOpCl= 0 IROHF=0.

 **********************************************************************

            Population analysis using the SCF density.

 **********************************************************************

 Alpha  occ. eigenvalues -- -482.99170 -62.39314 -56.16569 -56.16566 -56.16563
 Alpha  occ. eigenvalues --   -8.49451  -6.29762  -6.29753  -6.29745  -2.38029
 Alpha  occ. eigenvalues --   -2.38028  -2.38021  -2.38013  -2.38012  -0.47468
 Alpha  occ. eigenvalues --   -0.03311  -0.03306  -0.03300
 Alpha virt. eigenvalues --    0.14329   0.15981   0.16776   0.17027   0.18344
 Alpha virt. eigenvalues --    0.19086   0.19173   0.19794   0.20481   0.22113
 Alpha virt. eigenvalues --    0.22159   0.23099   0.23605   0.23711   0.24029
 Alpha virt. eigenvalues --    0.24379   0.25219   0.25821   0.26841   0.26845
 Alpha virt. eigenvalues --    0.27128   0.27740   0.28333   0.29004   0.29571
 Alpha virt. eigenvalues --    0.30339   0.30675   0.30997   0.31947   0.32319
 Alpha virt. eigenvalues --    0.33350   0.33605   0.33863   0.34529   0.35033
 Alpha virt. eigenvalues --    0.35709   0.36319   0.36890   0.37238   0.37854
 Alpha virt. eigenvalues --    0.38402   0.38564   0.38976   0.39516   0.40280
 Alpha virt. eigenvalues --    0.41102   0.41544   0.41746   0.42423   0.43216
 Alpha virt. eigenvalues --    0.43508   0.43911   0.44517   0.44616   0.45344
 Alpha virt. eigenvalues --    0.46249   0.47328   0.47917   0.47976   0.48390
 Alpha virt. eigenvalues --    0.49262   0.49813   0.51934   0.54602   0.61868
 Alpha virt. eigenvalues --    0.62733   0.63215   0.63925   0.64123   0.64848
 Alpha virt. eigenvalues --    0.65474   0.66165   0.67104   0.67520   0.67801
 Alpha virt. eigenvalues --    0.68070   0.69016   0.69589   0.69837   0.70462
 Alpha virt. eigenvalues --    0.70628   0.70776   0.71504   0.72194   0.72576
 Alpha virt. eigenvalues --    0.72628   0.72998   0.73206   0.73770   0.74239
 Alpha virt. eigenvalues --    0.74526   0.74662   0.75071   0.75244   0.75698
 Alpha virt. eigenvalues --    0.75913   0.76386   0.76455   0.77149   0.77254
 Alpha virt. eigenvalues --    0.77812   0.77932   0.78085   0.78544   0.78773
 Alpha virt. eigenvalues --    0.79056   0.79575   0.79628   0.79848   0.80237
 Alpha virt. eigenvalues --    0.80819   0.81226   0.81367   0.81719   0.81874
 Alpha virt. eigenvalues --    0.82699   0.82811   0.82979   0.83484   0.83714
 Alpha virt. eigenvalues --    0.84498   0.84867   0.85086   0.85692   0.86075
 Alpha virt. eigenvalues --    0.86162   0.86720   0.87768   0.88319   0.89047
 Alpha virt. eigenvalues --    0.89397   0.89710   0.90091   0.90824   0.91281
 Alpha virt. eigenvalues --    0.91827   0.91981   0.92693   0.92837   0.93162
 Alpha virt. eigenvalues --    0.94101   0.94378   0.94495   0.95032   0.95237
 Alpha virt. eigenvalues --    0.95548   0.96260   0.96624   0.96712   0.97054
 Alpha virt. eigenvalues --    0.97762   0.98325   0.98628   0.98841   0.99004
 Alpha virt. eigenvalues --    0.99426   0.99579   1.00004   1.00441   1.00510
 Alpha virt. eigenvalues --    1.01205   1.01431   1.01972   1.02392   1.03518
 Alpha virt. eigenvalues --    1.04761   1.05026   1.05230   1.05370   1.05711
 Alpha virt. eigenvalues --    1.06248   1.06940   1.07183   1.07621   1.07959
 Alpha virt. eigenvalues --    1.08636   1.08902   1.09524   1.10187   1.10284
 Alpha virt. eigenvalues --    1.10657   1.11429   1.11933   1.13118   1.13156
 Alpha virt. eigenvalues --    1.13925   1.14676   1.15587   1.16128   1.17126
 Alpha virt. eigenvalues --    1.18336   1.20357   1.20872   1.21300   1.23482
 Alpha virt. eigenvalues --    1.23741   1.24798   1.26945   1.30084   1.30733
 Alpha virt. eigenvalues --    1.34226   1.65305   1.65506   1.66097   1.66855
 Alpha virt. eigenvalues --    1.67805   1.68532   1.68884   1.69280   1.69544
 Alpha virt. eigenvalues --    1.69690   1.70778   1.71340   1.71957   1.72179
 Alpha virt. eigenvalues --    1.72833   1.73221   1.73517   1.73756   1.73909
 Alpha virt. eigenvalues --    1.74405   1.74478   1.74787   1.75012   1.75529
 Alpha virt. eigenvalues --    1.75665   1.75961   1.76523   1.76572   1.77361
 Alpha virt. eigenvalues --    1.77523   1.77823   1.78088   1.78483   1.79254
 Alpha virt. eigenvalues --    1.79464   1.79726   1.79936   1.80172   1.80555
 Alpha virt. eigenvalues --    1.80842   1.81887   1.82177   1.82555   1.83015
 Alpha virt. eigenvalues --    1.83557   1.84146   1.84758   1.85385   1.85610
 Alpha virt. eigenvalues --    1.86060   1.86594   1.87488   1.88130   1.88428
 Alpha virt. eigenvalues --    1.89154   1.89352   1.89592   1.91059   1.91254
 Alpha virt. eigenvalues --    1.93112   1.94292   1.95200   1.96523   1.97317
 Alpha virt. eigenvalues --    1.97987   1.98594   1.99578   1.99990   2.00142
 Alpha virt. eigenvalues --    2.00373   2.00753   2.01283   2.01693   2.01725
 Alpha virt. eigenvalues --    2.01928   2.02160   2.02461   2.02685   2.02915
 Alpha virt. eigenvalues --    2.03051   2.03203   2.03693   2.03914   2.03958
 Alpha virt. eigenvalues --    2.04188   2.04393   2.04601   2.05074   2.05449
 Alpha virt. eigenvalues --    2.05606   2.06274   2.06511   2.06576   2.07488
 Alpha virt. eigenvalues --    2.07818   2.08222   2.08818   2.09095   2.09256
 Alpha virt. eigenvalues --    2.09637   2.10161   2.10603   2.10901   2.11288
 Alpha virt. eigenvalues --    2.11510   2.11833   2.12737   2.13106   2.13463
 Alpha virt. eigenvalues --    2.13769   2.13864   2.14778   2.15001   2.15195
 Alpha virt. eigenvalues --    2.15513   2.15948   2.16104   2.16382   2.16917
 Alpha virt. eigenvalues --    2.17490   2.17929   2.17971   2.18576   2.18810
 Alpha virt. eigenvalues --    2.19304   2.19562   2.20097   2.20647   2.20826
 Alpha virt. eigenvalues --    2.21066   2.21695   2.22222   2.22432   2.23722
 Alpha virt. eigenvalues --    2.24062   2.24293   2.25322   2.25993   2.26671
 Alpha virt. eigenvalues --    2.26983   2.27050   2.27932   2.28562   2.28697
 Alpha virt. eigenvalues --    2.29277   2.29837   2.30333   2.31196   2.32624
 Alpha virt. eigenvalues --    2.33684   2.34786   2.35353   2.35993   2.36725
 Alpha virt. eigenvalues --    2.37584   2.38309   2.39041   2.40004   2.40372
 Alpha virt. eigenvalues --    2.41478   2.41817   2.42836   2.43582   2.44448
 Alpha virt. eigenvalues --    2.44730   2.44955   2.46080   2.46580   2.46794
 Alpha virt. eigenvalues --    2.47180   2.47600   2.47877   2.48459   2.48756
 Alpha virt. eigenvalues --    2.48926   2.49641   2.49784   2.50486   2.51398
 Alpha virt. eigenvalues --    2.51647   2.52192   2.53057   2.53618   2.53750
 Alpha virt. eigenvalues --    2.54931   2.55121   2.55967   2.56477   2.59131
 Alpha virt. eigenvalues --    2.59690   2.60322   2.61214   2.68507   2.70384
 Alpha virt. eigenvalues --    2.70512   2.70582   2.71021   2.71442   2.72613
 Alpha virt. eigenvalues --    2.73500   2.74292   2.74911   2.75312   2.75729
 Alpha virt. eigenvalues --    2.76248   2.76692   2.77190   2.77959   2.78778
 Alpha virt. eigenvalues --    2.79696   2.80736   2.81308   2.81750   2.82149
 Alpha virt. eigenvalues --    2.84084   2.84322   2.84410   2.85127   2.85650
 Alpha virt. eigenvalues --    2.85893   2.86455   2.87509   2.87772   2.87999
 Alpha virt. eigenvalues --    2.88205   2.88924   2.89730   2.89896   2.90398
 Alpha virt. eigenvalues --    2.91375   2.91523   2.92465   2.92710   2.93489
 Alpha virt. eigenvalues --    2.93686   2.94237   2.94325   2.94861   2.95316
 Alpha virt. eigenvalues --    2.96151   2.97336   2.98084   2.98810   3.00051
 Alpha virt. eigenvalues --    3.00833   3.01884   3.02606   3.02973   3.04131
 Alpha virt. eigenvalues --    3.04471   3.05140   3.07669   3.08680   3.09187
 Alpha virt. eigenvalues --    3.10172   3.14889   3.17525   3.18473   3.19015
 Alpha virt. eigenvalues --    3.19677   3.22080   3.22596   3.24929   3.25742
 Alpha virt. eigenvalues --    3.26710   3.27586   3.29336   3.31156   3.32099
 Alpha virt. eigenvalues --    3.34713   3.35709   3.38766   3.40148   3.41521
 Alpha virt. eigenvalues --    3.44038   3.44859   3.45725   3.46481   3.48056
 Alpha virt. eigenvalues --    3.49014   3.52534   3.53453   3.54340   3.58981
 Alpha virt. eigenvalues --    3.59186   3.63822   3.67132   3.69991   4.52005
 Alpha virt. eigenvalues --    4.52043   4.52233   4.52296   4.52324   4.52393
 Alpha virt. eigenvalues --    4.52571   4.52895   4.53164   4.53230   4.53375
 Alpha virt. eigenvalues --    4.53555   4.53780   4.53823   4.53854   4.54062
 Alpha virt. eigenvalues --    4.54188   4.54470   4.54736   4.54998   4.55188
 Alpha virt. eigenvalues --    4.55283   4.55383   4.55675   4.55898   4.56299
 Alpha virt. eigenvalues --    4.57091   4.57399   4.57983   4.58299   4.58505
 Alpha virt. eigenvalues --    4.59344   4.60015   4.60237   4.60327   4.60373
 Alpha virt. eigenvalues --    4.60399   4.60950   4.61064   4.61098   4.61317
 Alpha virt. eigenvalues --    4.61367   4.61466   4.61817   4.62103   4.62140
 Alpha virt. eigenvalues --    4.62549   4.62907   4.63014   4.63198   4.63336
 Alpha virt. eigenvalues --    4.63601   4.63730   4.63991   4.64029   4.64106
 Alpha virt. eigenvalues --    4.64293   4.64691   4.64856   4.65041   4.65677
 Alpha virt. eigenvalues --    4.67768   4.68126   4.69153   4.75168   4.75820
 Alpha virt. eigenvalues --    4.75896   4.76358   4.76673   4.77091   4.77198
 Alpha virt. eigenvalues --    4.77505   4.77780   4.78698   4.79083   4.79108
 Alpha virt. eigenvalues --    4.80006   4.80029   4.80727   4.81615   4.81788
 Alpha virt. eigenvalues --    4.81878   4.82180   4.82512   4.82777   4.82950
 Alpha virt. eigenvalues --    4.83198   4.83665   4.84195   4.84480   4.84662
 Alpha virt. eigenvalues --    4.85184   4.85857   4.86191   4.86428   4.86809
 Alpha virt. eigenvalues --    4.87416   4.88281   4.88476   4.88591   4.88774
 Alpha virt. eigenvalues --    4.89359   4.89631   4.90397   4.90524   4.91291
 Alpha virt. eigenvalues --    4.92429   4.92670   4.93487   4.93803   4.94055
 Alpha virt. eigenvalues --    4.94453   4.94733   4.94874   4.95678   4.96033
 Alpha virt. eigenvalues --    4.96849   4.97936   4.98258   4.98469   4.99559
 Alpha virt. eigenvalues --    5.00107   5.01024   5.01875   5.02352   5.02874
 Alpha virt. eigenvalues --    5.04850   5.05199   5.06438   5.07301   5.07680
[...]
   Y20       36.24495   0.00983   0.00000   0.01328   0.01276  36.25771
   Z20       33.33477   0.00366   0.00000   0.04084   0.03991  33.37468
   X21       34.90324   0.00514   0.00000   0.00627   0.00635  34.90959
   Y21       36.81187  -0.00084   0.00000  -0.00665  -0.00734  36.80452
   Z21       34.05286   0.00430   0.00000   0.01110   0.01004  34.06291
   X22       33.20249   0.00011   0.00000   0.00014  -0.00003  33.20246
   Y22       34.52530  -0.01011   0.00000  -0.01139  -0.01190  34.51339
   Z22       33.86389   0.00601   0.00000   0.01556   0.01460  33.87849
   X23       36.75517   0.00579   0.00000   0.00854   0.00977  36.76495
   Y23       44.38967   0.00230   0.00000   0.00050  -0.00050  44.38917
   Z23       38.04019   0.00732   0.00000   0.01526   0.01424  38.05443
   X24       35.75362  -0.00397   0.00000   0.00216   0.00319  35.75681
   Y24       43.52039  -0.00040   0.00000   0.01062   0.00976  43.53015
   Z24       36.79297  -0.00651   0.00000  -0.00607  -0.00702  36.78595
   X25       37.87011   0.00665   0.00000   0.02655   0.02771  37.89782
   Y25       43.10465   0.00191   0.00000   0.00882   0.00769  43.11234
   Z25       38.66380   0.00176   0.00000   0.00427   0.00311  38.66691
   X26       40.53463   0.00980   0.00000  -0.00773  -0.00705  40.52758
   Y26       33.88279  -0.01396   0.00000  -0.02177  -0.02332  33.85947
   Z26       43.84165   0.01217   0.00000  -0.00216  -0.00382  43.83783
   X27       40.36455  -0.00092   0.00000   0.00041   0.00086  40.36541
   Y27       33.08910  -0.01041   0.00000  -0.01911  -0.02059  33.06851
   Z27       42.21648  -0.01894   0.00000  -0.03189  -0.03355  42.18293
   X28       39.51417  -0.01330   0.00000  -0.01509  -0.01426  39.49992
   Y28       35.37567   0.01792   0.00000   0.01380   0.01236  35.38803
   Z28       43.70937  -0.00003   0.00000   0.00510   0.00358  43.71294
   X29       40.59132   0.00685   0.00000  -0.01042  -0.01049  40.58083
   Y29       30.55687   0.00283   0.00000   0.01922   0.01780  30.57467
   Z29       39.26851   0.01831   0.00000   0.03283   0.03107  39.29958
   X30       39.11733  -0.01120   0.00000  -0.01520  -0.01538  39.10195
   Y30       29.51752  -0.00661   0.00000  -0.00520  -0.00647  29.51105
   Z30       39.32520   0.00002   0.00000   0.00104  -0.00061  39.32460
   X31       40.47793   0.00326   0.00000   0.02121   0.02107  40.49900
   Y31       31.42615   0.00727   0.00000   0.00554   0.00417  31.43031
   Z31       37.68114  -0.01289   0.00000  -0.00445  -0.00617  37.67497
   X32       45.03217  -0.00216   0.00000   0.00031   0.00119  45.03337
   Y32       42.44325   0.01183   0.00000   0.02778   0.02597  42.46922
   Z32       36.45282   0.00077   0.00000  -0.00956  -0.01139  36.44143
   X33       45.84476   0.00415   0.00000   0.00520   0.00586  45.85062
   Y33       41.12044  -0.00562   0.00000   0.00102  -0.00085  41.11959
   Z33       35.52685  -0.00210   0.00000   0.00764   0.00569  35.53254
   X34       43.74716   0.00232   0.00000   0.01298   0.01387  43.76103
   Y34       41.59287   0.00630   0.00000   0.03460   0.03290  41.62577
   Z34       37.41658   0.00363   0.00000   0.01648   0.01474  37.43132
   X35       31.40725   0.00033   0.00000   0.00961   0.01027  31.41752
   Y35       34.63868  -0.00044   0.00000   0.00206   0.00148  34.64016
   Z35       42.61332   0.00738   0.00000   0.01482   0.01403  42.62735
   X36       31.63402  -0.00242   0.00000  -0.01274  -0.01234  31.62168
   Y36       33.14580  -0.00501   0.00000  -0.00628  -0.00685  33.13895
   Z36       41.61177   0.00025   0.00000   0.00933   0.00848  41.62025
   X37       32.01196  -0.00234   0.00000  -0.01919  -0.01850  31.99346
   Y37       35.98039   0.00793   0.00000   0.01679   0.01619  35.99657
   Z37       41.53618  -0.00267   0.00000   0.00025  -0.00056  41.53562
   X38       33.31587   0.00758   0.00000  -0.00115  -0.00036  33.31551
   Y38       43.16134   0.00346   0.00000  -0.01392  -0.01447  43.14687
   Z38       34.61978  -0.01108   0.00000  -0.01972  -0.02045  34.59934
   X39       33.31587   0.00020   0.00000  -0.00268  -0.00211  33.31377
   Y39       42.70781   0.00041   0.00000  -0.00245  -0.00294  42.70487
   Z39       32.86234  -0.00385   0.00000  -0.02111  -0.02186  32.84048
   X40       32.10645  -0.01216   0.00000  -0.01854  -0.01780  32.08865
   Y40       42.04641  -0.01115   0.00000  -0.01774  -0.01818  42.02823
   Z40       35.37567   0.00652   0.00000   0.00135   0.00070  35.37637
   X41       44.88100   0.01841   0.00000   0.02798   0.02869  44.90968
   Y41       35.81031   0.00815   0.00000   0.00572   0.00378  35.81409
   Z41       41.89523  -0.00710   0.00000   0.01323   0.01122  41.90645
   X42       44.27628  -0.00522   0.00000  -0.01263  -0.01169  44.26459
   Y42       37.28430   0.00758   0.00000   0.02132   0.01942  37.30372
   Z42       42.74561  -0.00214   0.00000  -0.02383  -0.02574  42.71987
   X43       43.86054  -0.01370   0.00000  -0.01944  -0.01882  43.84173
   Y43       34.46860  -0.00933   0.00000   0.00793   0.00608  34.47468
   Z43       42.51884   0.01020   0.00000   0.01936   0.01741  42.53625
   X44       32.90013   0.00056   0.00000  -0.00123   0.00041  32.90054
   Y44       43.69047   0.01963   0.00000   0.02703   0.02628  43.71675
   Z44       43.19914   0.00796   0.00000   0.01877   0.01809  43.21723
   X45       34.69537   0.00200   0.00000  -0.00258  -0.00098  34.69439
   Y45       43.46370  -0.00307   0.00000  -0.00254  -0.00347  43.46023
   Z45       43.06686  -0.00412   0.00000  -0.01563  -0.01647  43.05038
   X46       32.20093  -0.00299   0.00000  -0.00235  -0.00091  32.20002
   Y46       42.08420  -0.01035   0.00000   0.00632   0.00566  42.08986
   Z46       42.76450  -0.00163   0.00000   0.00770   0.00704  42.77154
   X47       41.21493   0.00531   0.00000   0.02626   0.02588  41.24081
   Y47       36.75517  -0.00192   0.00000   0.01418   0.01297  36.76814
   Z47       29.08289   0.00425   0.00000   0.03038   0.02873  29.11162
   X48       40.49683  -0.01021   0.00000  -0.02019  -0.02035  40.47648
   Y48       38.24806   0.00927   0.00000   0.01677   0.01562  38.26368
   Z48       29.83878   0.00771   0.00000   0.01931   0.01778  29.85655
   X49       42.93458   0.01156   0.00000   0.02695   0.02659  42.96116
   Y49       37.18981   0.00230   0.00000   0.01714   0.01576  37.20557
   Z49       28.79943  -0.00719   0.00000  -0.02382  -0.02561  28.77382
   X50       34.35522  -0.00992   0.00000  -0.01026  -0.00885  34.34637
   Y50       37.71893   0.00109   0.00000   0.00640   0.00538  37.72432
   Z50       47.39433   0.01599   0.00000   0.03080   0.02982  47.42415
   X51       35.22450   0.00780   0.00000   0.00444   0.00572  35.23022
   Y51       37.87011  -0.00284   0.00000  -0.01304  -0.01410  37.85601
   Z51       45.80696  -0.00472   0.00000   0.01586   0.01480  45.82177
   X52       35.58354   0.00271   0.00000   0.00508   0.00652  35.59006
   Y52       37.01973  -0.00314   0.00000  -0.01423  -0.01540  37.00434
   Z52       48.52817  -0.00143   0.00000   0.00140   0.00029  48.52846
   X53       29.17737  -0.01569   0.00000  -0.02829  -0.02831  29.14906
   Y53       32.40880   0.00523   0.00000   0.00294   0.00273  32.41153
   Z53       37.88901   0.00706   0.00000   0.00235   0.00171  37.89072
   X54       30.97261   0.00809   0.00000  -0.01066  -0.01067  30.96194
   Y54       32.59778   0.00401   0.00000   0.01755   0.01715  32.61493
   Z54       37.66224  -0.00200   0.00000   0.00047  -0.00034  37.66190
   X55       28.70494  -0.00087   0.00000  -0.00055  -0.00081  28.70413
   Y55       31.10489  -0.00736   0.00000  -0.01185  -0.01198  31.09291
   Z55       36.73628  -0.00681   0.00000  -0.01057  -0.01121  36.72506
   X56       35.16780  -0.00240   0.00000   0.00335   0.00259  35.17040
   Y56       28.57266  -0.01727   0.00000  -0.01677  -0.01749  28.55517
   Z56       34.18515  -0.00028   0.00000  -0.00303  -0.00434  34.18080
   X57       34.37412  -0.00016   0.00000   0.01665   0.01610  34.39022
   Y57       30.08444   0.01081   0.00000   0.00558   0.00492  30.08936
   Z57       34.77096   0.00596   0.00000   0.01514   0.01394  34.78491
   X58       36.66069   0.00781   0.00000   0.00740   0.00663  36.66731
   Y58       29.13958   0.00443   0.00000   0.00264   0.00178  29.14136
   Z58       33.33477  -0.00657   0.00000  -0.01389  -0.01532  33.31945
   X59       40.04330  -0.00096   0.00000   0.00791   0.00702  40.05032
   Y59       30.33010  -0.01971   0.00000  -0.04897  -0.05011  30.28000
   Z59       30.74584   0.00084   0.00000   0.04779   0.04608  30.79192
   X60       40.68580   0.00365   0.00000   0.00280   0.00214  40.68795
   Y60       31.42615   0.01521   0.00000   0.02012   0.01888  31.44503
   Z60       32.03086   0.01721   0.00000   0.03046   0.02872  32.05958
   X61       41.32831   0.00390   0.00000   0.02351   0.02247  41.35078
   Y61       29.08289  -0.00767   0.00000  -0.02662  -0.02788  29.05501
   Z61       30.51908  -0.00242   0.00000  -0.00043  -0.00230  30.51678
   X62       29.30965   0.00536   0.00000  -0.01082  -0.01001  29.29965
   Y62       41.30941  -0.00500   0.00000  -0.01382  -0.01402  41.29539
   Z62       37.03863   0.00226   0.00000  -0.00481  -0.00522  37.03341
   X63       28.30810  -0.00469   0.00000  -0.01430  -0.01354  28.29456
   Y63       40.02440  -0.00724   0.00000  -0.01796  -0.01809  40.00631
   Z63       37.83232   0.00288   0.00000   0.00241   0.00205  37.83437
   X64       28.13802  -0.00847   0.00000  -0.01373  -0.01290  28.12512
   Y64       42.25428   0.00956   0.00000   0.01850   0.01844  42.27272
   Z64       36.05597  -0.00577   0.00000  -0.00115  -0.00142  36.05455
   X65       33.08910  -0.01811   0.00000  -0.01152  -0.01202  33.07708
   Y65       36.28274   0.01823   0.00000   0.04151   0.04116  36.32390
   Z65       28.36479  -0.02008   0.00000  -0.03510  -0.03600  28.32879
   X66       32.65447   0.00477   0.00000   0.01464   0.01430  32.66877
   Y66       36.24495  -0.00047   0.00000   0.00792   0.00757  36.25251
   Z66       30.12223   0.00589   0.00000  -0.01409  -0.01495  30.10728
   X67       34.71427   0.01105   0.00000  -0.01210  -0.01269  34.70158
   Y67       35.48906  -0.01277   0.00000  -0.02584  -0.02635  35.46271
   Z67       28.28920   0.00404   0.00000   0.00228   0.00120  28.29040
   X68       38.30475  -0.00831   0.00000   0.00335   0.00518  38.30993
   Y68       44.21959  -0.00813   0.00000  -0.01269  -0.01404  44.20555
   Z68       44.71092  -0.01474   0.00000  -0.01231  -0.01348  44.69744
   X69       39.81653   0.01874   0.00000   0.02302   0.02491  39.84144
   Y69       43.97393  -0.00435   0.00000  -0.00881  -0.01034  43.96359
   Z69       45.63689   0.01031   0.00000   0.01010   0.00879  45.64568
   X70       37.52996  -0.00742   0.00000  -0.01704  -0.01500  37.51497
   Y70       45.67468   0.00657   0.00000  -0.00341  -0.00469  45.66999
   Z70       45.44791   0.00106   0.00000  -0.01207  -0.01311  45.43480
   X71       29.87657  -0.01296   0.00000  -0.03708  -0.03570  29.84087
   Y71       39.28741   0.01908   0.00000   0.03151   0.03102  39.31843
   Z71       45.39122  -0.00054   0.00000  -0.02332  -0.02383  45.36739
   X72       31.57732   0.00026   0.00000  -0.02531  -0.02400  31.55332
   Y72       38.73939  -0.00726   0.00000  -0.00641  -0.00708  38.73231
   Z72       45.10776   0.00580   0.00000   0.03814   0.03744  45.14521
   X73       28.85612   0.00361   0.00000   0.01588   0.01708  28.87320
   Y73       37.85121  -0.01130   0.00000  -0.02193  -0.02231  37.82890
   Z73       44.99438  -0.00467   0.00000  -0.01203  -0.01250  44.98188
   X74       48.28250   0.01923   0.00000   0.02078   0.02117  48.30367
   Y74       36.01818   0.00229   0.00000   0.00892   0.00672  36.02490
   Z74       38.22916  -0.02338   0.00000  -0.03465  -0.03697  38.19219
   X75       47.67779  -0.00288   0.00000  -0.00346  -0.00331  47.67448
   Y75       34.56309  -0.00205   0.00000  -0.00902  -0.01112  34.55197
   Z75       37.32209   0.00490   0.00000   0.01244   0.01013  37.33223
   X76       47.16756  -0.01306   0.00000  -0.00233  -0.00180  47.16577
   Y76       36.16936  -0.00239   0.00000  -0.00486  -0.00697  36.16238
   Z76       39.64645   0.01045   0.00000  -0.01076  -0.01297  39.63348
   X77       34.37412  -0.00554   0.00000   0.01389   0.01398  34.38810
   Y77       29.72539   0.00097   0.00000  -0.01854  -0.01941  29.70598
   Z77       42.04641  -0.02913   0.00000  -0.03296  -0.03417  42.01224
   X78       35.28119   0.01147   0.00000  -0.00288  -0.00262  35.27857
   Y78       29.85767   0.00603   0.00000   0.02224   0.02124  29.87891
   Z78       43.59598   0.02570   0.00000   0.02277   0.02148  43.61746
   X79       33.46705  -0.00642   0.00000  -0.01316  -0.01322  33.45383
   Y79       28.17582  -0.00974   0.00000  -0.01502  -0.01580  28.16002
   Z79       42.17869   0.00115   0.00000   0.00154   0.00037  42.17906
   X80       37.26540  -0.01521   0.00000  -0.00443  -0.00387  37.26153
   Y80       30.57577  -0.01413   0.00000  -0.01983  -0.02111  30.55466
   Z80       46.16601   0.00627   0.00000  -0.00670  -0.00815  46.15786
   X81       38.51262   0.01668   0.00000   0.01668   0.01725  38.52987
   Y81       31.50173   0.01670   0.00000   0.03698   0.03560  31.53733
   Z81       45.24004  -0.00471   0.00000   0.01658   0.01504  45.25508
   X82       38.04019  -0.00081   0.00000  -0.01034  -0.00966  38.03052
   Y82       30.23562  -0.00106   0.00000  -0.00693  -0.00833  30.22729
   Z82       47.77228  -0.00012   0.00000  -0.00010  -0.00164  47.77064
   X83       40.08109  -0.00196   0.00000   0.00706   0.00744  40.08853
   Y83       44.46526   0.00291   0.00000  -0.00300  -0.00408  44.46117
   Z83       28.85612  -0.01395   0.00000  -0.02689  -0.02821  28.82791
   X84       41.61177   0.00043   0.00000  -0.00936  -0.00886  41.60291
   Y84       44.59754  -0.00120   0.00000   0.00394   0.00268  44.60021
   Z84       29.81988   0.00708   0.00000   0.01264   0.01119  29.83106
   X85       39.06064   0.00587   0.00000   0.02222   0.02257  39.08321
   Y85       43.27473   0.00141   0.00000   0.01577   0.01476  43.28949
   Z85       29.78208   0.00813   0.00000   0.02235   0.02109  29.80318
   X86       33.12690  -0.01106   0.00000  -0.01424  -0.01275  33.11415
   Y86       47.94235   0.02117   0.00000   0.03673   0.03614  47.97849
   Z86       36.84966  -0.00149   0.00000  -0.00132  -0.00189  36.84777
   X87       34.61978   0.00440   0.00000  -0.01503  -0.01356  34.60622
   Y87       47.18646  -0.00847   0.00000  -0.00273  -0.00349  47.18297
   Z87       37.54886   0.00338   0.00000   0.00548   0.00475  37.55360
   X88       32.31432   0.00600   0.00000   0.02246   0.02372  32.33804
   Y88       46.60065  -0.00583   0.00000  -0.00066  -0.00115  46.59950
   Z88       35.94259   0.00028   0.00000   0.00606   0.00552  35.94811
   X89       46.37388   0.00449   0.00000   0.00558   0.00579  46.37967
   Y89       39.11733  -0.00562   0.00000  -0.01926  -0.02111  39.09622
   Z89       32.99462   0.00186   0.00000  -0.00867  -0.01072  32.98390
   X90       45.37232  -0.00756   0.00000  -0.01205  -0.01196  45.36036
   Y90       39.19292   0.00259   0.00000   0.00271   0.00101  39.19393
   Z90       31.50173  -0.00866   0.00000  -0.01215  -0.01411  31.48763
   X91       47.20536   0.00534   0.00000   0.01723   0.01728  47.22263
   Y91       37.51106  -0.00499   0.00000  -0.01732  -0.01925  37.49181
   Z91       32.91903   0.00235   0.00000   0.00408   0.00190  32.92093
   X92       37.45437  -0.02547   0.00000  -0.04505  -0.04580  37.40857
   Y92       33.63713   0.01125   0.00000   0.02740   0.02660  33.66372
   Z92       28.61045  -0.01055   0.00000  -0.01987  -0.02125  28.58921
   X93       38.04019   0.00228   0.00000  -0.02064  -0.02147  38.01872
   Y93       32.14424  -0.00756   0.00000   0.00404   0.00316  32.14740
   Z93       29.44193  -0.00197   0.00000  -0.03437  -0.03584  29.40609
   X94       38.92836   0.00860   0.00000  -0.00087  -0.00153  38.92683
   Y94       34.67647   0.00139   0.00000  -0.00614  -0.00709  34.66938
   Z94       28.44038  -0.00139   0.00000  -0.00901  -0.01050  28.42988
   X95       42.25428  -0.00503   0.00000  -0.01262  -0.01092  42.24335
   Y95       41.08265   0.01303   0.00000   0.01097   0.00916  41.09181
   Z95       46.71403  -0.01195   0.00000  -0.00747  -0.00909  46.70494
   X96       42.15979  -0.00089   0.00000  -0.00453  -0.00268  42.15711
   Y96       41.02595  -0.00321   0.00000  -0.00585  -0.00770  41.01826
   Z96       48.50927   0.01372   0.00000   0.01221   0.01060  48.51987
   X97       42.80230   0.00438   0.00000   0.00545   0.00693  42.80922
   Y97       39.43858  -0.01060   0.00000  -0.00437  -0.00623  39.43236
   Z97       46.22270  -0.00141   0.00000   0.00008  -0.00163  46.22107
         Item               Value     Threshold  Converged?
 Maximum Force            0.029135     0.000450     NO 
 RMS     Force            0.009522     0.000300     NO 
 Maximum Displacement     0.057571     0.001800     NO 
 RMS     Displacement     0.017574     0.001200     NO 
 Predicted change in Energy=-2.707971D-02
 GradGradGradGradGradGradGradGradGradGradGradGradGradGradGradGradGradGrad

 Leave Link  103 at Thu May  3 02:39:48 2018, MaxMem= 14763950080 cpu:        63.3
 (Enter /cm/shared/gaussian/g09.e01/intel64-sandybridge/g09/l9999.exe)
 1\1\GINC-POPLE03\Force\RPBE1PBE\CC-pVDZ\Br1H64O32(1-)\M.PELUSO\03-May-
 2018\0\\#p PBE1PBE/cc-pvDZ force Counterpoise=2 noSymm\\forces on chlo
 ride comput - NWATER: 32\\-1,1\Br,20.,20.,20.\O,17.33,20.78,21.37\H,18
 .22,20.67,21.05\H,16.84,21.12,20.62\O,22.12,21.88,21.34\H,21.55,22.14,
 22.06\H,21.61,21.23,20.85\O,19.88,20.33,23.14\H,20.38,21.06,23.48\H,19
 .76,20.53,22.21\O,21.75,17.73,18.45\H,21.13,18.41,18.68\H,22.58,18.2,1
 8.31\O,20.25,21.43,16.89\H,20.03,21.16,17.78\H,19.41,21.43,16.42\O,18.
 07,17.16,19.96\H,18.7,17.84,20.21\H,18.16,16.5,20.65\O,17.64,19.18,17.
 64\H,18.47,19.48,18.02\H,17.57,18.27,17.92\O,19.45,23.49,20.13\H,18.92
 ,23.03,19.47\H,20.04,22.81,20.46\O,21.45,17.93,23.2\H,21.36,17.51,22.3
 4\H,20.91,18.72,23.13\O,21.48,16.17,20.78\H,20.7,15.62,20.81\H,21.42,1
 6.63,19.94\O,23.83,22.46,19.29\H,24.26,21.76,18.8\H,23.15,22.01,19.8\O
 ,16.62,18.33,22.55\H,16.74,17.54,22.02\H,16.94,19.04,21.98\O,17.63,22.
 84,18.32\H,17.63,22.6,17.39\H,16.99,22.25,18.72\O,23.75,18.95,22.17\H,
 23.43,19.73,22.62\H,23.21,18.24,22.5\O,17.41,23.12,22.86\H,18.36,23.,2
 2.79\H,17.04,22.27,22.63\O,21.81,19.45,15.39\H,21.43,20.24,15.79\H,22.
 72,19.68,15.24\O,18.18,19.96,25.08\H,18.64,20.04,24.24\H,18.83,19.59,2
 5.68\O,15.44,17.15,20.05\H,16.39,17.25,19.93\H,15.19,16.46,19.44\O,18.
 61,15.12,18.09\H,18.19,15.92,18.4\H,19.4,15.42,17.64\O,21.19,16.05,16.
 27\H,21.53,16.63,16.95\H,21.87,15.39,16.15\O,15.51,21.86,19.6\H,14.98,
 21.18,20.02\H,14.89,22.36,19.08\O,17.51,19.2,15.01\H,17.28,19.18,15.94
 \H,18.37,18.78,14.97\O,20.27,23.4,23.66\H,21.07,23.27,24.15\H,19.86,24
 .17,24.05\O,15.81,20.79,24.02\H,16.71,20.5,23.87\H,15.27,20.03,23.81\O
 ,25.55,19.06,20.23\H,25.23,18.29,19.75\H,24.96,19.14,20.98\O,18.19,15.
 73,22.25\H,18.67,15.8,23.07\H,17.71,14.91,22.32\O,19.72,16.18,24.43\H,
 20.38,16.67,23.94\H,20.13,16.,25.28\O,21.21,23.53,15.27\H,22.02,23.6,1
 5.78\H,20.67,22.9,15.76\O,17.53,25.37,19.5\H,18.32,24.97,19.87\H,17.1,
 24.66,19.02\O,24.54,20.7,17.46\H,24.01,20.74,16.67\H,24.98,19.85,17.42
 \O,19.82,17.8,15.14\H,20.13,17.01,15.58\H,20.6,18.35,15.05\O,22.36,21.
 74,24.72\H,22.31,21.71,25.67\H,22.65,20.87,24.46\\Version=ES64L-G09Rev
 E.01\HF=-2443.1635808\RMSD=4.436e-09\RMSF=9.522e-03\Dipole=3.0644744,-
 5.0426017,1.9958543\Quadrupole=251.0887154,-380.7999266,129.7112111,-1
 485.4733701,-1216.6769116,-1543.6650394\PG=C01 [X(Br1H64O32)]\\@


 WHEN HAVING A MEETING OF THE MINDS,
 MAKE SURE YOU HAVE THE EQUIPMENT FOR IT.
 Job cpu time:       0 days 11 hours 52 minutes 44.4 seconds.
 File lengths (MBytes):  RWF=    482 Int=      0 D2E=      0 Chk=    160 Scr=      1
 Normal termination of Gaussian 09 at Thu May  3 02:39:48 2018.
