 Entering Gaussian System, Link 0=/cm/shared/gaussian/g09.e01/intel64-sandybridge/g09/g09
 Initial command:
 /cm/shared/gaussian/g09.e01/intel64-sandybridge/g09/l1.exe "/local/scratch/m.peluso/32_wat/Gau-64787.inp" -scrdir="/local/scratch/m.peluso/32_wat/"
 Entering Link 1 = /cm/shared/gaussian/g09.e01/intel64-sandybridge/g09/l1.exe PID=     64788.
  
 Copyright (c) 1988,1990,1992,1993,1995,1998,2003,2009,2015,
            Gaussian, Inc.  All Rights Reserved.
  
 This is part of the Gaussian(R) 09 program.  It is based on
 the Gaussian(R) 03 system (copyright 2003, Gaussian, Inc.),
 the Gaussian(R) 98 system (copyright 1998, Gaussian, Inc.),
 the Gaussian(R) 94 system (copyright 1995, Gaussian, Inc.),
 the Gaussian 92(TM) system (copyright 1992, Gaussian, Inc.),
 the Gaussian 90(TM) system (copyright 1990, Gaussian, Inc.),
 the Gaussian 88(TM) system (copyright 1988, Gaussian, Inc.),
 the Gaussian 86(TM) system (copyright 1986, Carnegie Mellon
 University), and the Gaussian 82(TM) system (copyright 1983,
 Carnegie Mellon University). Gaussian is a federally registered
 trademark of Gaussian, Inc.
  
 This software contains proprietary and confidential information,
 including trade secrets, belonging to Gaussian, Inc.
  
 This software is provided under written license and may be
 used, copied, transmitted, or stored only in accord with that
 written license.
  
 The following legend is applicable only to US Government
 contracts under FAR:
  
                    RESTRICTED RIGHTS LEGEND
  
 Use, reproduction and disclosure by the US Government is
 subject to restrictions as set forth in subparagraphs (a)
 and (c) of the Commercial Computer Software - Restricted
 Rights clause in FAR 52.227-19.
  
 Gaussian, Inc.
 340 Quinnipiac St., Bldg. 40, Wallingford CT 06492
  
  
 ---------------------------------------------------------------
 Warning -- This program may not be used in any manner that
 competes with the business of Gaussian, Inc. or will provide
 assistance to any competitor of Gaussian, Inc.  The licensee
 of this program is prohibited from giving any competitor of
 Gaussian, Inc. access to this program.  By using this program,
 the user acknowledges that Gaussian, Inc. is engaged in the
 business of creating and licensing software in the field of
 computational chemistry and represents and warrants to the
 licensee that it is not a competitor of Gaussian, Inc. and that
 it will not use this program in any manner prohibited above.
 ---------------------------------------------------------------
  

 Cite this work as:
 Gaussian 09, Revision E.01,
 M. J. Frisch, G. W. Trucks, H. B. Schlegel, G. E. Scuseria, 
 M. A. Robb, J. R. Cheeseman, G. Scalmani, V. Barone, B. Mennucci, 
 G. A. Petersson, H. Nakatsuji, M. Caricato, X. Li, H. P. Hratchian, 
 A. F. Izmaylov, J. Bloino, G. Zheng, J. L. Sonnenberg, M. Hada, 
 M. Ehara, K. Toyota, R. Fukuda, J. Hasegawa, M. Ishida, T. Nakajima, 
 Y. Honda, O. Kitao, H. Nakai, T. Vreven, J. A. Montgomery, Jr., 
 J. E. Peralta, F. Ogliaro, M. Bearpark, J. J. Heyd, E. Brothers, 
 K. N. Kudin, V. N. Staroverov, T. Keith, R. Kobayashi, J. Normand, 
 K. Raghavachari, A. Rendell, J. C. Burant, S. S. Iyengar, J. Tomasi, 
 M. Cossi, N. Rega, J. M. Millam, M. Klene, J. E. Knox, J. B. Cross, 
 V. Bakken, C. Adamo, J. Jaramillo, R. Gomperts, R. E. Stratmann, 
 O. Yazyev, A. J. Austin, R. Cammi, C. Pomelli, J. W. Ochterski, 
 R. L. Martin, K. Morokuma, V. G. Zakrzewski, G. A. Voth, 
 P. Salvador, J. J. Dannenberg, S. Dapprich, A. D. Daniels, 
 O. Farkas, J. B. Foresman, J. V. Ortiz, J. Cioslowski, 
 and D. J. Fox, Gaussian, Inc., Wallingford CT, 2013.
 
 ******************************************
 Gaussian 09:  ES64L-G09RevE.01 30-Nov-2015
                 3-May-2018 
 ******************************************
 %Mem=110GB
 %NProcShared=64
 Will use up to   64 processors via shared memory.
 %chk=snap93.chk
 ----------------------------------------------
 #p PBE1PBE/cc-pvDZ force Counterpoise=2 noSymm
 ----------------------------------------------
 1/10=7,30=1,38=1,62=2/1,3;
 2/12=2,15=1,17=6,18=5,40=1/2;
 1/10=7,30=1,38=1,53=2,62=2,63=101/22;
 3/5=16,11=2,16=1,25=1,30=1,71=1,74=-13/1,2,3;
 4//1;
 5/5=2,38=5/2;
 6/7=2,8=2,9=2,10=2,28=1/1;
 7/7=1,29=1,30=1,33=-1/1,2,3,16;
 1/10=7,30=1,53=2,62=2,63=101/22;
 3/5=7,6=11,11=2,16=1,25=1,30=1,71=1,74=-13,82=7/1,2,3;
 4//1;
 5/5=2,38=5/2;
 6/7=2,8=2,9=2,10=2,28=1/1;
 7/7=1,29=1,30=1,33=-1/1,2,3,16;
 1/10=7,30=1,53=2,62=2,63=101/22(-5);
 7/9=1,29=1,44=-1/16;
 1/10=7,30=1,62=2/3;
 99//99;
 Leave Link    1 at Thu May  3 04:14:49 2018, MaxMem= 14763950080 cpu:         7.4
 (Enter /cm/shared/gaussian/g09.e01/intel64-sandybridge/g09/l101.exe)
 --------------------------------------
 forces on chloride comput - NWATER: 32
 --------------------------------------
 Symbolic Z-matrix:
 Charge = -1 Multiplicity = 1 in supermolecule
 Charge = -1 Multiplicity = 1 in fragment      1.
 Charge =  0 Multiplicity = 1 in fragment      2.
 Br(Fragment=1)        20.       20.       20. 
 O(Fragment=2)         17.79     22.03     20.71 
 H(Fragment=2)         18.35     21.28     20.52 
 H(Fragment=2)         18.35     22.62     21.22 
 O(Fragment=2)         19.42     18.34     17.43 
 H(Fragment=2)         19.66     18.85     18.2 
 H(Fragment=2)         18.81     18.89     16.95 
 O(Fragment=2)         20.11     18.71     22.95 
 H(Fragment=2)         20.22     19.07     22.06 
 H(Fragment=2)         19.35     18.13     22.88 
 O(Fragment=2)         21.58     22.79     19.7 
 H(Fragment=2)         20.79     23.31     19.59 
 H(Fragment=2)         21.26     21.9      19.84 
 O(Fragment=2)         17.12     18.01     19.67 
 H(Fragment=2)         17.89     18.56     19.53 
 H(Fragment=2)         16.52     18.26     18.97 
 O(Fragment=2)         23.34     19.06     18.89 
 H(Fragment=2)         22.49     19.43     19.13 
 H(Fragment=2)         23.76     19.73     18.35 
 O(Fragment=2)         18.34     22.16     17.77 
 H(Fragment=2)         17.53     22.66     17.65 
 H(Fragment=2)         18.34     21.93     18.7 
 O(Fragment=2)         20.26     16.43     20.18 
 H(Fragment=2)         19.53     16.92     20.57 
 H(Fragment=2)         20.14     16.55     19.23 
 O(Fragment=2)         20.6      21.23     16.25 
 H(Fragment=2)         21.18     21.98     16.39 
 H(Fragment=2)         19.78     21.49     16.67 
 O(Fragment=2)         21.52     18.46     15.67 
 H(Fragment=2)         21.34     19.37     15.41 
 H(Fragment=2)         21.22     18.41     16.58 
 O(Fragment=2)         24.02     17.81     21.25 
 H(Fragment=2)         24.59     17.1      20.93 
 H(Fragment=2)         23.84     18.33     20.47 
 O(Fragment=2)         15.38     21.3      21.16 
 H(Fragment=2)         15.26     20.4      20.85 
 H(Fragment=2)         16.14     21.62     20.67 
 O(Fragment=2)         22.53     17.74     23.68 
 H(Fragment=2)         21.63     17.9      23.39 
 H(Fragment=2)         23.02     17.63     22.87 
 O(Fragment=2)         18.02     17.16     22.72 
 H(Fragment=2)         17.62     16.66     23.42 
 H(Fragment=2)         17.61     16.83     21.92 
 O(Fragment=2)         16.45     19.23     23.37 
 H(Fragment=2)         16.59     20.01     22.83 
 H(Fragment=2)         17.02     18.57     22.99 
 O(Fragment=2)         22.63     23.19     17.15 
 H(Fragment=2)         22.48     24.1      16.88 
 H(Fragment=2)         22.43     23.18     18.08 
 O(Fragment=2)         19.24     23.87     22.19 
 H(Fragment=2)         18.78     24.64     22.52 
 H(Fragment=2)         20.15     24.       22.47 
 O(Fragment=2)         25.13     20.32     21.48 
 H(Fragment=2)         25.62     20.77     22.17 
 H(Fragment=2)         24.22     20.59     21.62 
 O(Fragment=2)         20.57     15.43     23.07 
 H(Fragment=2)         20.23     15.74     23.91 
 H(Fragment=2)         20.36     16.14     22.46 
 O(Fragment=2)         23.81     23.27     21.84 
 H(Fragment=2)         23.5      24.16     22.03 
 H(Fragment=2)         23.31     23.01     21.06 
 O(Fragment=2)         15.8      19.58     17.82 
 H(Fragment=2)         15.92     20.52     17.9 
 H(Fragment=2)         16.44     19.31     17.16 
 O(Fragment=2)         20.09     24.62     18.58 
 H(Fragment=2)         20.27     25.5      18.26 
 H(Fragment=2)         19.21     24.42     18.27 
 O(Fragment=2)         20.13     21.02     24.78 
 H(Fragment=2)         21.07     21.       24.61 
 H(Fragment=2)         19.87     20.09     24.81 
 O(Fragment=2)         22.81     16.68     17.62 
 H(Fragment=2)         22.52     17.23     16.89 
 H(Fragment=2)         23.46     17.21     18.07 
 O(Fragment=2)         22.82     14.96     19.62 
 H(Fragment=2)         22.78     14.94     18.66 
 H(Fragment=2)         22.46     15.81     19.86 
 O(Fragment=2)         24.13     20.9      16.98 
 H(Fragment=2)         23.91     20.56     16.11 
 H(Fragment=2)         23.61     21.69     17.07 
 O(Fragment=2)         14.59     18.88     20.4 
 H(Fragment=2)         14.43     18.78     19.46 
 H(Fragment=2)         15.3      18.27     20.59 
 O(Fragment=2)         18.12     15.72     16.9 
 H(Fragment=2)         18.78     15.03     16.9 
 H(Fragment=2)         18.6      16.5      16.63 
 O(Fragment=2)         22.87     19.93     25.02 
 H(Fragment=2)         23.81     19.94     25.19 
 H(Fragment=2)         22.72     19.1      24.57 
 O(Fragment=2)         18.83     14.07     20.94 
 H(Fragment=2)         18.87     14.23     20. 
 H(Fragment=2)         19.4      14.74     21.32 
 O(Fragment=2)         19.3      22.17     14.05 
 H(Fragment=2)         19.77     21.78     14.79 
 H(Fragment=2)         19.72     23.01     13.91 
 O(Fragment=2)         18.47     23.1      25.15 
 H(Fragment=2)         18.83     22.22     25.19 
 H(Fragment=2)         18.46     23.32     24.22 
 
 NAtoms=     97 NQM=       97 NQMF=       0 NMMI=      0 NMMIF=      0
                NMic=       0 NMicF=      0.
                    Isotopes and Nuclear Properties:
 (Nuclear quadrupole moments (NQMom) in fm**2, nuclear magnetic moments (NMagM)
  in nuclear magnetons)

  Atom         1           2           3           4           5           6           7           8           9          10
 IAtWgt=          79          16           1           1          16           1           1          16           1           1
 AtmWgt=  78.9183361  15.9949146   1.0078250   1.0078250  15.9949146   1.0078250   1.0078250  15.9949146   1.0078250   1.0078250
 NucSpn=           3           0           1           1           0           1           1           0           1           1
 AtZEff=   0.0000000   0.0000000   0.0000000   0.0000000   0.0000000   0.0000000   0.0000000   0.0000000   0.0000000   0.0000000
 NQMom=   31.3000000   0.0000000   0.0000000   0.0000000   0.0000000   0.0000000   0.0000000   0.0000000   0.0000000   0.0000000
 NMagM=    2.1063990   0.0000000   2.7928460   2.7928460   0.0000000   2.7928460   2.7928460   0.0000000   2.7928460   2.7928460
 AtZNuc=  35.0000000   8.0000000   1.0000000   1.0000000   8.0000000   1.0000000   1.0000000   8.0000000   1.0000000   1.0000000

  Atom        11          12          13          14          15          16          17          18          19          20
 IAtWgt=          16           1           1          16           1           1          16           1           1          16
 AtmWgt=  15.9949146   1.0078250   1.0078250  15.9949146   1.0078250   1.0078250  15.9949146   1.0078250   1.0078250  15.9949146
 NucSpn=           0           1           1           0           1           1           0           1           1           0
 AtZEff=   0.0000000   0.0000000   0.0000000   0.0000000   0.0000000   0.0000000   0.0000000   0.0000000   0.0000000   0.0000000
 NQMom=    0.0000000   0.0000000   0.0000000   0.0000000   0.0000000   0.0000000   0.0000000   0.0000000   0.0000000   0.0000000
 NMagM=    0.0000000   2.7928460   2.7928460   0.0000000   2.7928460   2.7928460   0.0000000   2.7928460   2.7928460   0.0000000
 AtZNuc=   8.0000000   1.0000000   1.0000000   8.0000000   1.0000000   1.0000000   8.0000000   1.0000000   1.0000000   8.0000000

  Atom        21          22          23          24          25          26          27          28          29          30
 IAtWgt=           1           1          16           1           1          16           1           1          16           1
 AtmWgt=   1.0078250   1.0078250  15.9949146   1.0078250   1.0078250  15.9949146   1.0078250   1.0078250  15.9949146   1.0078250
 NucSpn=           1           1           0           1           1           0           1           1           0           1
 AtZEff=   0.0000000   0.0000000   0.0000000   0.0000000   0.0000000   0.0000000   0.0000000   0.0000000   0.0000000   0.0000000
 NQMom=    0.0000000   0.0000000   0.0000000   0.0000000   0.0000000   0.0000000   0.0000000   0.0000000   0.0000000   0.0000000
 NMagM=    2.7928460   2.7928460   0.0000000   2.7928460   2.7928460   0.0000000   2.7928460   2.7928460   0.0000000   2.7928460
 AtZNuc=   1.0000000   1.0000000   8.0000000   1.0000000   1.0000000   8.0000000   1.0000000   1.0000000   8.0000000   1.0000000

  Atom        31          32          33          34          35          36          37          38          39          40
 IAtWgt=           1          16           1           1          16           1           1          16           1           1
 AtmWgt=   1.0078250  15.9949146   1.0078250   1.0078250  15.9949146   1.0078250   1.0078250  15.9949146   1.0078250   1.0078250
 NucSpn=           1           0           1           1           0           1           1           0           1           1
 AtZEff=   0.0000000   0.0000000   0.0000000   0.0000000   0.0000000   0.0000000   0.0000000   0.0000000   0.0000000   0.0000000
 NQMom=    0.0000000   0.0000000   0.0000000   0.0000000   0.0000000   0.0000000   0.0000000   0.0000000   0.0000000   0.0000000
 NMagM=    2.7928460   0.0000000   2.7928460   2.7928460   0.0000000   2.7928460   2.7928460   0.0000000   2.7928460   2.7928460
 AtZNuc=   1.0000000   8.0000000   1.0000000   1.0000000   8.0000000   1.0000000   1.0000000   8.0000000   1.0000000   1.0000000

  Atom        41          42          43          44          45          46          47          48          49          50
 IAtWgt=          16           1           1          16           1           1          16           1           1          16
 AtmWgt=  15.9949146   1.0078250   1.0078250  15.9949146   1.0078250   1.0078250  15.9949146   1.0078250   1.0078250  15.9949146
 NucSpn=           0           1           1           0           1           1           0           1           1           0
 AtZEff=   0.0000000   0.0000000   0.0000000   0.0000000   0.0000000   0.0000000   0.0000000   0.0000000   0.0000000   0.0000000
 NQMom=    0.0000000   0.0000000   0.0000000   0.0000000   0.0000000   0.0000000   0.0000000   0.0000000   0.0000000   0.0000000
 NMagM=    0.0000000   2.7928460   2.7928460   0.0000000   2.7928460   2.7928460   0.0000000   2.7928460   2.7928460   0.0000000
 AtZNuc=   8.0000000   1.0000000   1.0000000   8.0000000   1.0000000   1.0000000   8.0000000   1.0000000   1.0000000   8.0000000

  Atom        51          52          53          54          55          56          57          58          59          60
 IAtWgt=           1           1          16           1           1          16           1           1          16           1
 AtmWgt=   1.0078250   1.0078250  15.9949146   1.0078250   1.0078250  15.9949146   1.0078250   1.0078250  15.9949146   1.0078250
 NucSpn=           1           1           0           1           1           0           1           1           0           1
 AtZEff=   0.0000000   0.0000000   0.0000000   0.0000000   0.0000000   0.0000000   0.0000000   0.0000000   0.0000000   0.0000000
 NQMom=    0.0000000   0.0000000   0.0000000   0.0000000   0.0000000   0.0000000   0.0000000   0.0000000   0.0000000   0.0000000
 NMagM=    2.7928460   2.7928460   0.0000000   2.7928460   2.7928460   0.0000000   2.7928460   2.7928460   0.0000000   2.7928460
 AtZNuc=   1.0000000   1.0000000   8.0000000   1.0000000   1.0000000   8.0000000   1.0000000   1.0000000   8.0000000   1.0000000

  Atom        61          62          63          64          65          66          67          68          69          70
 IAtWgt=           1          16           1           1          16           1           1          16           1           1
 AtmWgt=   1.0078250  15.9949146   1.0078250   1.0078250  15.9949146   1.0078250   1.0078250  15.9949146   1.0078250   1.0078250
 NucSpn=           1           0           1           1           0           1           1           0           1           1
 AtZEff=   0.0000000   0.0000000   0.0000000   0.0000000   0.0000000   0.0000000   0.0000000   0.0000000   0.0000000   0.0000000
 NQMom=    0.0000000   0.0000000   0.0000000   0.0000000   0.0000000   0.0000000   0.0000000   0.0000000   0.0000000   0.0000000
 NMagM=    2.7928460   0.0000000   2.7928460   2.7928460   0.0000000   2.7928460   2.7928460   0.0000000   2.7928460   2.7928460
 AtZNuc=   1.0000000   8.0000000   1.0000000   1.0000000   8.0000000   1.0000000   1.0000000   8.0000000   1.0000000   1.0000000

  Atom        71          72          73          74          75          76          77          78          79          80
 IAtWgt=          16           1           1          16           1           1          16           1           1          16
 AtmWgt=  15.9949146   1.0078250   1.0078250  15.9949146   1.0078250   1.0078250  15.9949146   1.0078250   1.0078250  15.9949146
 NucSpn=           0           1           1           0           1           1           0           1           1           0
 AtZEff=   0.0000000   0.0000000   0.0000000   0.0000000   0.0000000   0.0000000   0.0000000   0.0000000   0.0000000   0.0000000
 NQMom=    0.0000000   0.0000000   0.0000000   0.0000000   0.0000000   0.0000000   0.0000000   0.0000000   0.0000000   0.0000000
 NMagM=    0.0000000   2.7928460   2.7928460   0.0000000   2.7928460   2.7928460   0.0000000   2.7928460   2.7928460   0.0000000
 AtZNuc=   8.0000000   1.0000000   1.0000000   8.0000000   1.0000000   1.0000000   8.0000000   1.0000000   1.0000000   8.0000000

  Atom        81          82          83          84          85          86          87          88          89          90
 IAtWgt=           1           1          16           1           1          16           1           1          16           1
 AtmWgt=   1.0078250   1.0078250  15.9949146   1.0078250   1.0078250  15.9949146   1.0078250   1.0078250  15.9949146   1.0078250
 NucSpn=           1           1           0           1           1           0           1           1           0           1
 AtZEff=   0.0000000   0.0000000   0.0000000   0.0000000   0.0000000   0.0000000   0.0000000   0.0000000   0.0000000   0.0000000
 NQMom=    0.0000000   0.0000000   0.0000000   0.0000000   0.0000000   0.0000000   0.0000000   0.0000000   0.0000000   0.0000000
 NMagM=    2.7928460   2.7928460   0.0000000   2.7928460   2.7928460   0.0000000   2.7928460   2.7928460   0.0000000   2.7928460
 AtZNuc=   1.0000000   1.0000000   8.0000000   1.0000000   1.0000000   8.0000000   1.0000000   1.0000000   8.0000000   1.0000000

  Atom        91          92          93          94          95          96          97
 IAtWgt=           1          16           1           1          16           1           1
 AtmWgt=   1.0078250  15.9949146   1.0078250   1.0078250  15.9949146   1.0078250   1.0078250
 NucSpn=           1           0           1           1           0           1           1
 AtZEff=   0.0000000   0.0000000   0.0000000   0.0000000   0.0000000   0.0000000   0.0000000
 NQMom=    0.0000000   0.0000000   0.0000000   0.0000000   0.0000000   0.0000000   0.0000000
 NMagM=    2.7928460   0.0000000   2.7928460   2.7928460   0.0000000   2.7928460   2.7928460
 AtZNuc=   1.0000000   8.0000000   1.0000000   1.0000000   8.0000000   1.0000000   1.0000000
 Leave Link  101 at Thu May  3 04:14:50 2018, MaxMem= 14763950080 cpu:        14.7
 (Enter /cm/shared/gaussian/g09.e01/intel64-sandybridge/g09/l103.exe)

 GradGradGradGradGradGradGradGradGradGradGradGradGradGradGradGradGradGrad
 Berny optimization.
 Initialization pass.
 Trust Radius=3.00D-01 FncErr=1.00D-07 GrdErr=1.00D-07
 Number of steps in this run=      2 maximum allowed number of steps=      2.
 GradGradGradGradGradGradGradGradGradGradGradGradGradGradGradGradGradGrad

 Leave Link  103 at Thu May  3 04:14:50 2018, MaxMem= 14763950080 cpu:         2.0
 (Enter /cm/shared/gaussian/g09.e01/intel64-sandybridge/g09/l202.exe)
 Symmetry turned off by external request.
 Stoichiometry    BrH64O32(1-)
 Framework group  C1[X(BrH64O32)]
 Deg. of freedom   285
 Full point group                 C1      NOp   1
                          Input orientation:                          
 ---------------------------------------------------------------------
 Center     Atomic      Atomic             Coordinates (Angstroms)
 Number     Number       Type             X           Y           Z
 ---------------------------------------------------------------------
      1         35           0       20.000000   20.000000   20.000000
      2          8           0       17.790000   22.030000   20.710000
      3          1           0       18.350000   21.280000   20.520000
      4          1           0       18.350000   22.620000   21.220000
      5          8           0       19.420000   18.340000   17.430000
      6          1           0       19.660000   18.850000   18.200000
      7          1           0       18.810000   18.890000   16.950000
      8          8           0       20.110000   18.710000   22.950000
      9          1           0       20.220000   19.070000   22.060000
     10          1           0       19.350000   18.130000   22.880000
     11          8           0       21.580000   22.790000   19.700000
     12          1           0       20.790000   23.310000   19.590000
     13          1           0       21.260000   21.900000   19.840000
     14          8           0       17.120000   18.010000   19.670000
     15          1           0       17.890000   18.560000   19.530000
     16          1           0       16.520000   18.260000   18.970000
     17          8           0       23.340000   19.060000   18.890000
     18          1           0       22.490000   19.430000   19.130000
     19          1           0       23.760000   19.730000   18.350000
     20          8           0       18.340000   22.160000   17.770000
     21          1           0       17.530000   22.660000   17.650000
     22          1           0       18.340000   21.930000   18.700000
     23          8           0       20.260000   16.430000   20.180000
     24          1           0       19.530000   16.920000   20.570000
     25          1           0       20.140000   16.550000   19.230000
     26          8           0       20.600000   21.230000   16.250000
     27          1           0       21.180000   21.980000   16.390000
     28          1           0       19.780000   21.490000   16.670000
     29          8           0       21.520000   18.460000   15.670000
     30          1           0       21.340000   19.370000   15.410000
     31          1           0       21.220000   18.410000   16.580000
     32          8           0       24.020000   17.810000   21.250000
     33          1           0       24.590000   17.100000   20.930000
     34          1           0       23.840000   18.330000   20.470000
     35          8           0       15.380000   21.300000   21.160000
     36          1           0       15.260000   20.400000   20.850000
     37          1           0       16.140000   21.620000   20.670000
     38          8           0       22.530000   17.740000   23.680000
     39          1           0       21.630000   17.900000   23.390000
     40          1           0       23.020000   17.630000   22.870000
     41          8           0       18.020000   17.160000   22.720000
     42          1           0       17.620000   16.660000   23.420000
     43          1           0       17.610000   16.830000   21.920000
     44          8           0       16.450000   19.230000   23.370000
     45          1           0       16.590000   20.010000   22.830000
     46          1           0       17.020000   18.570000   22.990000
     47          8           0       22.630000   23.190000   17.150000
     48          1           0       22.480000   24.100000   16.880000
     49          1           0       22.430000   23.180000   18.080000
     50          8           0       19.240000   23.870000   22.190000
     51          1           0       18.780000   24.640000   22.520000
     52          1           0       20.150000   24.000000   22.470000
     53          8           0       25.130000   20.320000   21.480000
     54          1           0       25.620000   20.770000   22.170000
     55          1           0       24.220000   20.590000   21.620000
     56          8           0       20.570000   15.430000   23.070000
     57          1           0       20.230000   15.740000   23.910000
     58          1           0       20.360000   16.140000   22.460000
     59          8           0       23.810000   23.270000   21.840000
     60          1           0       23.500000   24.160000   22.030000
     61          1           0       23.310000   23.010000   21.060000
     62          8           0       15.800000   19.580000   17.820000
     63          1           0       15.920000   20.520000   17.900000
     64          1           0       16.440000   19.310000   17.160000
     65          8           0       20.090000   24.620000   18.580000
     66          1           0       20.270000   25.500000   18.260000
     67          1           0       19.210000   24.420000   18.270000
     68          8           0       20.130000   21.020000   24.780000
     69          1           0       21.070000   21.000000   24.610000
     70          1           0       19.870000   20.090000   24.810000
     71          8           0       22.810000   16.680000   17.620000
     72          1           0       22.520000   17.230000   16.890000
     73          1           0       23.460000   17.210000   18.070000
     74          8           0       22.820000   14.960000   19.620000
     75          1           0       22.780000   14.940000   18.660000
     76          1           0       22.460000   15.810000   19.860000
     77          8           0       24.130000   20.900000   16.980000
     78          1           0       23.910000   20.560000   16.110000
     79          1           0       23.610000   21.690000   17.070000
     80          8           0       14.590000   18.880000   20.400000
     81          1           0       14.430000   18.780000   19.460000
     82          1           0       15.300000   18.270000   20.590000
     83          8           0       18.120000   15.720000   16.900000
     84          1           0       18.780000   15.030000   16.900000
     85          1           0       18.600000   16.500000   16.630000
     86          8           0       22.870000   19.930000   25.020000
     87          1           0       23.810000   19.940000   25.190000
     88          1           0       22.720000   19.100000   24.570000
     89          8           0       18.830000   14.070000   20.940000
     90          1           0       18.870000   14.230000   20.000000
     91          1           0       19.400000   14.740000   21.320000
     92          8           0       19.300000   22.170000   14.050000
     93          1           0       19.770000   21.780000   14.790000
     94          1           0       19.720000   23.010000   13.910000
     95          8           0       18.470000   23.100000   25.150000
     96          1           0       18.830000   22.220000   25.190000
     97          1           0       18.460000   23.320000   24.220000
 ---------------------------------------------------------------------
 Rotational constants (GHZ):      0.0595477      0.0562222      0.0555539
 Leave Link  202 at Thu May  3 04:14:50 2018, MaxMem= 14763950080 cpu:         0.6
 (Enter /cm/shared/gaussian/g09.e01/intel64-sandybridge/g09/l122.exe)
 Counterpoise: doing full dimer calculation.
 Leave Link  122 at Thu May  3 04:14:50 2018, MaxMem= 14763950080 cpu:         0.0
 (Enter /cm/shared/gaussian/g09.e01/intel64-sandybridge/g09/l301.exe)
 Standard basis: CC-pVDZ (5D, 7F)
 Ernie: Thresh=  0.10000D-02 Tol=  0.10000D-05 Strict=F.
 Ernie:  87 primitive shells out of 1114 were deleted.
   795 basis functions,  1651 primitive gaussians,   829 cartesian basis functions
   178 alpha electrons      178 beta electrons
       nuclear repulsion energy      6224.4486285087 Hartrees.
 IExCor= 1009 DFT=T Ex+Corr=PBE1PBE ExCW=0 ScaHFX=  0.250000
 ScaDFX=  0.750000  0.750000  1.000000  1.000000 ScalE2=  1.000000  1.000000
 IRadAn=      0 IRanWt=     -1 IRanGd=            0 ICorTp=0 IEmpDi=  4
 NAtoms=   97 NActive=   97 NUniq=   97 SFac= 1.00D+00 NAtFMM=   60 NAOKFM=T Big=T
 Integral buffers will be    131072 words long.
 Raffenetti 2 integral format.
 Two-electron integral symmetry is turned off.
 Leave Link  301 at Thu May  3 04:14:50 2018, MaxMem= 14763950080 cpu:         6.1
 (Enter /cm/shared/gaussian/g09.e01/intel64-sandybridge/g09/l302.exe)
 NPDir=0 NMtPBC=     1 NCelOv=     1 NCel=       1 NClECP=     1 NCelD=      1
         NCelK=      1 NCelE2=     1 NClLst=     1 CellRange=     0.0.
 One-electron integrals computed using PRISM.
 NBasis=   795 RedAO= T EigKep=  1.61D-02  NBF=   795
 NBsUse=   795 1.00D-06 EigRej= -1.00D+00 NBFU=   795
 Precomputing XC quadrature grid using
 IXCGrd= 4 IRadAn=           0 IRanWt=          -1 IRanGd=           0 AccXCQ= 0.00D+00.
 Generated NRdTot=       0 NPtTot=           0 NUsed=           0 NTot=          32
 NSgBfM=   754   757   764   764   764 MxSgAt=    97 MxSgA2=    97.
 Leave Link  302 at Thu May  3 04:14:57 2018, MaxMem= 14763950080 cpu:       462.8
 (Enter /cm/shared/gaussian/g09.e01/intel64-sandybridge/g09/l303.exe)
 DipDrv:  MaxL=1.
 Leave Link  303 at Thu May  3 04:14:58 2018, MaxMem= 14763950080 cpu:        31.0
 (Enter /cm/shared/gaussian/g09.e01/intel64-sandybridge/g09/l401.exe)
 ExpMin= 1.22D-01 ExpMax= 6.40D+05 ExpMxC= 6.18D+03 IAcc=2 IRadAn=         4 AccDes= 0.00D+00
 Harris functional with IExCor= 1009 and IRadAn=       4 diagonalized for initial guess.
 HarFok:  IExCor= 1009 AccDes= 0.00D+00 IRadAn=         4 IDoV= 1 UseB2=F ITyADJ=14
 ICtDFT=  3500011 ScaDFX=  1.000000  1.000000  1.000000  1.000000
 FoFCou: FMM=F IPFlag=           0 FMFlag=      100000 FMFlg1=        2001
         NFxFlg=           0 DoJE=T BraDBF=F KetDBF=T FulRan=T
         wScrn=  0.000000 ICntrl=     500 IOpCl=  0 I1Cent=   200000004 NGrid=           0
         NMat0=    1 NMatS0=      1 NMatT0=    0 NMatD0=    1 NMtDS0=    0 NMtDT0=    0
 Symmetry not used in FoFCou.
 Harris En= -5018.42907852148    
 JPrj=0 DoOrth=F DoCkMO=F.
 Leave Link  401 at Thu May  3 04:15:03 2018, MaxMem= 14763950080 cpu:       334.6
 (Enter /cm/shared/gaussian/g09.e01/intel64-sandybridge/g09/l502.exe)
 Closed shell SCF:
 Using DIIS extrapolation, IDIIS=  1040.
 Two-electron integral symmetry not used.
 IVT=     2138497 IEndB=     2138497 NGot= 14763950080 MDV= 14762516294
 LenX= 14762516294 LenY= 14761828224
 Requested convergence on RMS density matrix=1.00D-08 within 128 cycles.
 Requested convergence on MAX density matrix=1.00D-06.
 Requested convergence on             energy=1.00D-06.
 No special actions if energy rises.
 Fock matrices will be formed incrementally for  20 cycles.
 Integral accuracy reduced to 1.0D-05 until final iterations.

 Cycle   1  Pass 0  IDiag  1:
 FoFJK:  IHMeth= 1 ICntrl=       0 DoSepK=F KAlg= 0 I1Cent=   0 FoldK=F
 IRaf= 850000000 NMat=   1 IRICut=       1 DoRegI=T DoRafI=F ISym2E= 0.
 FoFCou: FMM=T IPFlag=           0 FMFlag=      100000 FMFlg1=        2001
         NFxFlg=           0 DoJE=F BraDBF=F KetDBF=F FulRan=T
         wScrn=  0.000000 ICntrl=       0 IOpCl=  0 I1Cent=           0 NGrid=           0
         NMat0=    1 NMatS0=      1 NMatT0=    0 NMatD0=    1 NMtDS0=    0 NMtDT0=    0
 Symmetry not used in FoFCou.
 FMM levels:  10  Number of levels for PrismC:   9
 E= -5015.32654766188    
 DIIS: error= 2.87D-02 at cycle   1 NSaved=   1.
 NSaved= 1 IEnMin= 1 EnMin= -5015.32654766188     IErMin= 1 ErrMin= 2.87D-02
 ErrMax= 2.87D-02  0.00D+00 EMaxC= 1.00D-01 BMatC= 2.69D+00 BMatP= 2.69D+00
 IDIUse=3 WtCom= 7.13D-01 WtEn= 2.87D-01
 Coeff-Com:  0.100D+01
 Coeff-En:   0.100D+01
 Coeff:      0.100D+01
 Gap=     0.312 Goal=   None    Shift=    0.000
 GapD=    0.312 DampG=1.000 DampE=0.500 DampFc=0.5000 IDamp=-1.
 Damping current iteration by 5.00D-01
 RMSDP=2.86D-03 MaxDP=1.70D-01              OVMax= 1.84D-01

 Cycle   2  Pass 0  IDiag  1:
 RMSU=  1.42D-03    CP:  9.86D-01
 E= -5016.11457522951     Delta-E=       -0.788027567634 Rises=F Damp=T
 DIIS: error= 6.76D-03 at cycle   2 NSaved=   2.
 NSaved= 2 IEnMin= 2 EnMin= -5016.11457522951     IErMin= 2 ErrMin= 6.76D-03
 ErrMax= 6.76D-03  0.00D+00 EMaxC= 1.00D-01 BMatC= 8.45D-02 BMatP= 2.69D+00
 IDIUse=3 WtCom= 9.32D-01 WtEn= 6.76D-02
 Coeff-Com:  0.117D+00 0.883D+00
 Coeff-En:   0.211D+00 0.789D+00
 Coeff:      0.124D+00 0.876D+00
 Gap=     0.198 Goal=   None    Shift=    0.000
 RMSDP=3.59D-04 MaxDP=2.06D-02 DE=-7.88D-01 OVMax= 1.11D-01

 Cycle   3  Pass 0  IDiag  1:
 RMSU=  2.84D-04    CP:  9.87D-01  8.46D-01
 E= -5017.25091864987     Delta-E=       -1.136343420359 Rises=F Damp=F
 DIIS: error= 8.58D-04 at cycle   3 NSaved=   3.
 NSaved= 3 IEnMin= 3 EnMin= -5017.25091864987     IErMin= 3 ErrMin= 8.58D-04
 ErrMax= 8.58D-04  0.00D+00 EMaxC= 1.00D-01 BMatC= 2.52D-03 BMatP= 8.45D-02
 IDIUse=3 WtCom= 9.91D-01 WtEn= 8.58D-03
 Coeff-Com:  0.997D-02 0.912D-01 0.899D+00
 Coeff-En:   0.000D+00 0.000D+00 0.100D+01
 Coeff:      0.988D-02 0.904D-01 0.900D+00
 Gap=     0.208 Goal=   None    Shift=    0.000
 RMSDP=1.03D-04 MaxDP=1.38D-02 DE=-1.14D+00 OVMax= 1.49D-02

 Cycle   4  Pass 0  IDiag  1:
 RMSU=  9.15D-05    CP:  9.88D-01  8.51D-01  8.33D-01
 E= -5017.25130943395     Delta-E=       -0.000390784073 Rises=F Damp=F
 DIIS: error= 1.03D-03 at cycle   4 NSaved=   4.
 NSaved= 4 IEnMin= 4 EnMin= -5017.25130943395     IErMin= 3 ErrMin= 8.58D-04
 ErrMax= 1.03D-03  0.00D+00 EMaxC= 1.00D-01 BMatC= 2.57D-03 BMatP= 2.52D-03
 IDIUse=3 WtCom= 9.90D-01 WtEn= 1.03D-02
 Coeff-Com:  0.892D-03 0.910D-02 0.502D+00 0.488D+00
 Coeff-En:   0.000D+00 0.000D+00 0.455D+00 0.545D+00
 Coeff:      0.883D-03 0.900D-02 0.501D+00 0.489D+00
 Gap=     0.209 Goal=   None    Shift=    0.000
 RMSDP=4.58D-05 MaxDP=5.03D-03 DE=-3.91D-04 OVMax= 5.13D-03

 Cycle   5  Pass 0  IDiag  1:
 RMSU=  1.87D-05    CP:  9.88D-01  8.48D-01  8.97D-01  5.89D-01
 E= -5017.25325131953     Delta-E=       -0.001941885588 Rises=F Damp=F
 DIIS: error= 1.03D-04 at cycle   5 NSaved=   5.
 NSaved= 5 IEnMin= 5 EnMin= -5017.25325131953     IErMin= 5 ErrMin= 1.03D-04
 ErrMax= 1.03D-04  0.00D+00 EMaxC= 1.00D-01 BMatC= 3.56D-05 BMatP= 2.52D-03
 IDIUse=3 WtCom= 9.99D-01 WtEn= 1.03D-03
 Coeff-Com:  0.324D-03-0.110D-02 0.147D+00 0.171D+00 0.682D+00
 Coeff-En:   0.000D+00 0.000D+00 0.000D+00 0.000D+00 0.100D+01
 Coeff:      0.323D-03-0.110D-02 0.147D+00 0.171D+00 0.683D+00
 Gap=     0.208 Goal=   None    Shift=    0.000
 RMSDP=8.65D-06 MaxDP=1.26D-03 DE=-1.94D-03 OVMax= 1.30D-03

 Cycle   6  Pass 0  IDiag  1:
 RMSU=  5.89D-06    CP:  9.88D-01  8.48D-01  9.08D-01  5.73D-01  7.20D-01
 E= -5017.25328026881     Delta-E=       -0.000028949275 Rises=F Damp=F
 DIIS: error= 1.04D-04 at cycle   6 NSaved=   6.
 NSaved= 6 IEnMin= 6 EnMin= -5017.25328026881     IErMin= 5 ErrMin= 1.03D-04
 ErrMax= 1.04D-04  0.00D+00 EMaxC= 1.00D-01 BMatC= 4.42D-06 BMatP= 3.56D-05
 IDIUse=3 WtCom= 9.99D-01 WtEn= 1.03D-03
 Coeff-Com:  0.550D-04-0.184D-02 0.335D-01 0.410D-01 0.291D+00 0.636D+00
 Coeff-En:   0.000D+00 0.000D+00 0.000D+00 0.000D+00 0.000D+00 0.100D+01
 Coeff:      0.549D-04-0.184D-02 0.334D-01 0.410D-01 0.291D+00 0.637D+00
 Gap=     0.208 Goal=   None    Shift=    0.000
 RMSDP=2.35D-06 MaxDP=3.91D-04 DE=-2.89D-05 OVMax= 3.21D-04

 Initial convergence to 1.0D-05 achieved.  Increase integral accuracy.
 Cycle   7  Pass 1  IDiag  1:
 E= -5017.25398598258     Delta-E=       -0.000705713774 Rises=F Damp=F
 DIIS: error= 2.41D-05 at cycle   1 NSaved=   1.
 NSaved= 1 IEnMin= 1 EnMin= -5017.25398598258     IErMin= 1 ErrMin= 2.41D-05
 ErrMax= 2.41D-05  0.00D+00 EMaxC= 1.00D-01 BMatC= 1.64D-06 BMatP= 1.64D-06
 IDIUse=1 WtCom= 1.00D+00 WtEn= 0.00D+00
 Coeff-Com:  0.100D+01
 Coeff:      0.100D+01
 Gap=     0.209 Goal=   None    Shift=    0.000
 RMSDP=2.35D-06 MaxDP=3.91D-04 DE=-7.06D-04 OVMax= 1.93D-04

 Cycle   8  Pass 1  IDiag  1:
 RMSU=  4.57D-06    CP:  1.00D+00
 E= -5017.25398746359     Delta-E=       -0.000001481003 Rises=F Damp=F
 DIIS: error= 1.70D-05 at cycle   2 NSaved=   2.
 NSaved= 2 IEnMin= 2 EnMin= -5017.25398746359     IErMin= 2 ErrMin= 1.70D-05
 ErrMax= 1.70D-05  0.00D+00 EMaxC= 1.00D-01 BMatC= 4.48D-07 BMatP= 1.64D-06
 IDIUse=1 WtCom= 1.00D+00 WtEn= 0.00D+00
 Coeff-Com:  0.280D+00 0.720D+00
 Coeff:      0.280D+00 0.720D+00
 Gap=     0.209 Goal=   None    Shift=    0.000
 RMSDP=8.88D-07 MaxDP=1.29D-04 DE=-1.48D-06 OVMax= 9.95D-05

 Cycle   9  Pass 1  IDiag  1:
 RMSU=  8.84D-07    CP:  1.00D+00  9.81D-01
 E= -5017.25398763482     Delta-E=       -0.000000171234 Rises=F Damp=F
 DIIS: error= 1.19D-05 at cycle   3 NSaved=   3.
 NSaved= 3 IEnMin= 3 EnMin= -5017.25398763482     IErMin= 3 ErrMin= 1.19D-05
 ErrMax= 1.19D-05  0.00D+00 EMaxC= 1.00D-01 BMatC= 2.13D-07 BMatP= 4.48D-07
 IDIUse=1 WtCom= 1.00D+00 WtEn= 0.00D+00
 Coeff-Com: -0.694D-02 0.407D+00 0.599D+00
 Coeff:     -0.694D-02 0.407D+00 0.599D+00
 Gap=     0.209 Goal=   None    Shift=    0.000
 RMSDP=3.71D-07 MaxDP=5.79D-05 DE=-1.71D-07 OVMax= 4.65D-05

 Cycle  10  Pass 1  IDiag  1:
 RMSU=  1.07D-07    CP:  1.00D+00  1.01D+00  6.19D-01
 E= -5017.25398778506     Delta-E=       -0.000000150243 Rises=F Damp=F
 DIIS: error= 1.25D-06 at cycle   4 NSaved=   4.
 NSaved= 4 IEnMin= 4 EnMin= -5017.25398778506     IErMin= 4 ErrMin= 1.25D-06
 ErrMax= 1.25D-06  0.00D+00 EMaxC= 1.00D-01 BMatC= 1.88D-09 BMatP= 2.13D-07
 IDIUse=1 WtCom= 1.00D+00 WtEn= 0.00D+00
 Coeff-Com: -0.573D-02 0.190D+00 0.288D+00 0.528D+00
 Coeff:     -0.573D-02 0.190D+00 0.288D+00 0.528D+00
 Gap=     0.209 Goal=   None    Shift=    0.000
 RMSDP=4.48D-08 MaxDP=5.27D-06 DE=-1.50D-07 OVMax= 5.42D-06

 Cycle  11  Pass 1  IDiag  1:
 RMSU=  3.27D-08    CP:  1.00D+00  1.01D+00  6.23D-01  7.19D-01
 E= -5017.25398778658     Delta-E=       -0.000000001515 Rises=F Damp=F
 DIIS: error= 2.44D-07 at cycle   5 NSaved=   5.
 NSaved= 5 IEnMin= 5 EnMin= -5017.25398778658     IErMin= 5 ErrMin= 2.44D-07
 ErrMax= 2.44D-07  0.00D+00 EMaxC= 1.00D-01 BMatC= 9.42D-11 BMatP= 1.88D-09
 IDIUse=1 WtCom= 1.00D+00 WtEn= 0.00D+00
 Coeff-Com: -0.190D-02 0.483D-01 0.748D-01 0.224D+00 0.655D+00
 Coeff:     -0.190D-02 0.483D-01 0.748D-01 0.224D+00 0.655D+00
 Gap=     0.209 Goal=   None    Shift=    0.000
 RMSDP=9.94D-09 MaxDP=1.08D-06 DE=-1.52D-09 OVMax= 1.01D-06

 Cycle  12  Pass 1  IDiag  1:
 RMSU=  9.01D-09    CP:  1.00D+00  1.01D+00  6.22D-01  7.46D-01  9.17D-01
 E= -5017.25398778661     Delta-E=       -0.000000000031 Rises=F Damp=F
 DIIS: error= 6.72D-08 at cycle   6 NSaved=   6.
 NSaved= 6 IEnMin= 6 EnMin= -5017.25398778661     IErMin= 6 ErrMin= 6.72D-08
 ErrMax= 6.72D-08  0.00D+00 EMaxC= 1.00D-01 BMatC= 5.32D-12 BMatP= 9.42D-11
 IDIUse=1 WtCom= 1.00D+00 WtEn= 0.00D+00
 Coeff-Com:  0.621D-04-0.587D-02-0.858D-02 0.126D-01 0.211D+00 0.791D+00
 Coeff:      0.621D-04-0.587D-02-0.858D-02 0.126D-01 0.211D+00 0.791D+00
 Gap=     0.209 Goal=   None    Shift=    0.000
 RMSDP=3.41D-09 MaxDP=4.26D-07 DE=-3.09D-11 OVMax= 4.96D-07

 SCF Done:  E(RPBE1PBE) =  -5017.25398779     A.U. after   12 cycles
            NFock= 12  Conv=0.34D-08     -V/T= 2.0027
 KE= 5.003601073774D+03 PE=-2.441560454534D+04 EE= 8.170300855265D+03
 Leave Link  502 at Thu May  3 04:17:41 2018, MaxMem= 14763950080 cpu:     10009.4
 (Enter /cm/shared/gaussian/g09.e01/intel64-sandybridge/g09/l601.exe)
 Copying SCF densities to generalized density rwf, IOpCl= 0 IROHF=0.

 **********************************************************************

            Population analysis using the SCF density.

 **********************************************************************

 Alpha  occ. eigenvalues -- -483.16519 -62.56853 -56.34093 -56.34077 -56.34072
 Alpha  occ. eigenvalues --  -19.20075 -19.19337 -19.19290 -19.19074 -19.18765
 Alpha  occ. eigenvalues --  -19.18412 -19.16193 -19.15433 -19.14956 -19.13974
 Alpha  occ. eigenvalues --  -19.13461 -19.13232 -19.13151 -19.12793 -19.12304
 Alpha  occ. eigenvalues --  -19.12297 -19.11962 -19.11676 -19.11299 -19.10723
 Alpha  occ. eigenvalues --  -19.10507 -19.09698 -19.09298 -19.08626 -19.08425
 Alpha  occ. eigenvalues --  -19.07879 -19.06681 -19.06481 -19.06465 -19.05929
 Alpha  occ. eigenvalues --  -19.05720 -19.04940  -8.67215  -6.47568  -6.47521
 Alpha  occ. eigenvalues --   -6.47486  -2.55847  -2.55838  -2.55809  -2.55772
 Alpha  occ. eigenvalues --   -2.55768  -1.02914  -1.02154  -1.01922  -1.01545
 Alpha  occ. eigenvalues --   -1.01246  -1.01010  -0.99091  -0.98492  -0.97652
 Alpha  occ. eigenvalues --   -0.96855  -0.96575  -0.96307  -0.95374  -0.95207
 Alpha  occ. eigenvalues --   -0.94980  -0.94934  -0.94585  -0.94332  -0.93845
 Alpha  occ. eigenvalues --   -0.93746  -0.92855  -0.92303  -0.91801  -0.91138
 Alpha  occ. eigenvalues --   -0.90943  -0.90469  -0.90415  -0.89478  -0.88691
 Alpha  occ. eigenvalues --   -0.88531  -0.88398  -0.87995  -0.67034  -0.53328
 Alpha  occ. eigenvalues --   -0.52342  -0.51966  -0.51891  -0.51854  -0.51104
 Alpha  occ. eigenvalues --   -0.49745  -0.49420  -0.49038  -0.47484  -0.47426
 Alpha  occ. eigenvalues --   -0.47328  -0.46588  -0.46237  -0.46103  -0.46021
 Alpha  occ. eigenvalues --   -0.45912  -0.45853  -0.45248  -0.44900  -0.43293
 Alpha  occ. eigenvalues --   -0.42794  -0.42245  -0.42054  -0.41731  -0.41567
 Alpha  occ. eigenvalues --   -0.41382  -0.41275  -0.40872  -0.40246  -0.40082
 Alpha  occ. eigenvalues --   -0.39598  -0.39499  -0.38832  -0.38515  -0.38122
 Alpha  occ. eigenvalues --   -0.37776  -0.37603  -0.35629  -0.35193  -0.34705
 Alpha  occ. eigenvalues --   -0.34037  -0.33871  -0.33131  -0.32386  -0.31994
 Alpha  occ. eigenvalues --   -0.31693  -0.31423  -0.31193  -0.30901  -0.30845
 Alpha  occ. eigenvalues --   -0.30642  -0.30421  -0.30256  -0.30174  -0.30006
 Alpha  occ. eigenvalues --   -0.29810  -0.29186  -0.28905  -0.28677  -0.28491
 Alpha  occ. eigenvalues --   -0.28343  -0.27805  -0.27590  -0.27188  -0.26529
 Alpha  occ. eigenvalues --   -0.26476  -0.26217  -0.26181  -0.25156  -0.24976
 Alpha  occ. eigenvalues --   -0.24879  -0.24694  -0.23945  -0.23812  -0.23368
 Alpha  occ. eigenvalues --   -0.23218  -0.23062  -0.22915  -0.22774  -0.22421
 Alpha  occ. eigenvalues --   -0.22080  -0.22022  -0.21982  -0.21518  -0.21268
 Alpha  occ. eigenvalues --   -0.20878  -0.20746  -0.20637  -0.20584  -0.19099
 Alpha  occ. eigenvalues --   -0.18930  -0.18563  -0.18235  -0.18019  -0.17361
 Alpha  occ. eigenvalues --   -0.17150  -0.16972  -0.16548
 Alpha virt. eigenvalues --    0.04307   0.06805   0.08959   0.09286   0.10248
 Alpha virt. eigenvalues --    0.11247   0.12600   0.12801   0.13906   0.14292
 Alpha virt. eigenvalues --    0.15245   0.15682   0.16047   0.17290   0.17813
 Alpha virt. eigenvalues --    0.17978   0.18555   0.18807   0.19740   0.20260
 Alpha virt. eigenvalues --    0.20528   0.20770   0.21379   0.21669   0.22160
 Alpha virt. eigenvalues --    0.22398   0.22675   0.23174   0.23639   0.24007
 Alpha virt. eigenvalues --    0.24474   0.25014   0.25604   0.26484   0.26723
 Alpha virt. eigenvalues --    0.26998   0.27526   0.27785   0.28063   0.29188
 Alpha virt. eigenvalues --    0.29459   0.29472   0.29939   0.30323   0.30519
 Alpha virt. eigenvalues --    0.30700   0.30969   0.31629   0.32093   0.32438
 Alpha virt. eigenvalues --    0.33191   0.34121   0.34602   0.34649   0.35052
 Alpha virt. eigenvalues --    0.35789   0.36366   0.36706   0.37893   0.39273
 Alpha virt. eigenvalues --    0.40883   0.41526   0.42444   0.43939   0.55113
 Alpha virt. eigenvalues --    0.56355   0.56949   0.58339   0.59205   0.59277
 Alpha virt. eigenvalues --    0.60438   0.60822   0.61100   0.61546   0.61998
 Alpha virt. eigenvalues --    0.63225   0.63613   0.63871   0.64198   0.64563
 Alpha virt. eigenvalues --    0.65110   0.65171   0.65400   0.65536   0.65728
 Alpha virt. eigenvalues --    0.66024   0.66259   0.66547   0.67221   0.67729
 Alpha virt. eigenvalues --    0.68075   0.68249   0.68415   0.68798   0.69157
 Alpha virt. eigenvalues --    0.69326   0.69498   0.69961   0.70499   0.70828
 Alpha virt. eigenvalues --    0.70995   0.71460   0.71713   0.72185   0.72542
 Alpha virt. eigenvalues --    0.73086   0.73388   0.73459   0.73636   0.74065
 Alpha virt. eigenvalues --    0.74551   0.74579   0.75095   0.75475   0.75740
 Alpha virt. eigenvalues --    0.76107   0.76371   0.76791   0.77571   0.77722
 Alpha virt. eigenvalues --    0.78065   0.78499   0.79114   0.79897   0.80015
 Alpha virt. eigenvalues --    0.80651   0.81949   0.82763   0.82977   0.83822
 Alpha virt. eigenvalues --    0.84613   0.86211   0.86521   0.87209   0.89349
 Alpha virt. eigenvalues --    0.90702   0.91451   0.91591   0.93022   0.93468
 Alpha virt. eigenvalues --    0.94180   0.94919   0.95587   0.95965   0.96665
 Alpha virt. eigenvalues --    0.96758   0.97619   0.98054   0.98257   0.98765
 Alpha virt. eigenvalues --    0.99233   0.99749   1.00283   1.00716   1.00909
 Alpha virt. eigenvalues --    1.01198   1.01445   1.01833   1.02423   1.02623
 Alpha virt. eigenvalues --    1.02841   1.03155   1.03298   1.03538   1.03845
 Alpha virt. eigenvalues --    1.04073   1.04231   1.04399   1.04516   1.05075
 Alpha virt. eigenvalues --    1.05623   1.05834   1.06187   1.06302   1.06683
 Alpha virt. eigenvalues --    1.07121   1.07276   1.07339   1.08364   1.08631
 Alpha virt. eigenvalues --    1.08894   1.09004   1.09796   1.10323   1.10422
 Alpha virt. eigenvalues --    1.10663   1.10801   1.11135   1.11470   1.11933
 Alpha virt. eigenvalues --    1.12300   1.12533   1.13003   1.13055   1.13177
 Alpha virt. eigenvalues --    1.13308   1.13569   1.14005   1.14457   1.14576
 Alpha virt. eigenvalues --    1.14866   1.15125   1.15392   1.15737   1.15950
 Alpha virt. eigenvalues --    1.16525   1.16754   1.17031   1.17582   1.17956
 Alpha virt. eigenvalues --    1.18552   1.18653   1.19153   1.19452   1.20269
 Alpha virt. eigenvalues --    1.20346   1.21367   1.21542   1.21819   1.22025
 Alpha virt. eigenvalues --    1.22247   1.22504   1.23196   1.23841   1.24014
 Alpha virt. eigenvalues --    1.24824   1.25024   1.25305   1.25541   1.25933
 Alpha virt. eigenvalues --    1.26352   1.27097   1.27224   1.27705   1.27885
 Alpha virt. eigenvalues --    1.28279   1.28518   1.28857   1.29138   1.29809
 Alpha virt. eigenvalues --    1.30079   1.30655   1.30781   1.31069   1.31341
 Alpha virt. eigenvalues --    1.31512   1.31822   1.32330   1.32460   1.32663
 Alpha virt. eigenvalues --    1.33082   1.33298   1.33493   1.33766   1.34074
 Alpha virt. eigenvalues --    1.34366   1.34963   1.35257   1.35641   1.35941
 Alpha virt. eigenvalues --    1.36015   1.36514   1.36704   1.36812   1.37010
 Alpha virt. eigenvalues --    1.37386   1.37691   1.37942   1.38228   1.38981
 Alpha virt. eigenvalues --    1.39690   1.39901   1.40128   1.40744   1.41095
 Alpha virt. eigenvalues --    1.42214   1.42378   1.42858   1.43211   1.43589
 Alpha virt. eigenvalues --    1.44106   1.44213   1.44903   1.45038   1.45373
 Alpha virt. eigenvalues --    1.46452   1.46995   1.47412   1.47720   1.48047
 Alpha virt. eigenvalues --    1.49035   1.49816   1.50261   1.50996   1.51115
 Alpha virt. eigenvalues --    1.51521   1.52281   1.52456   1.52766   1.53125
 Alpha virt. eigenvalues --    1.53644   1.53983   1.54395   1.54871   1.54917
 Alpha virt. eigenvalues --    1.55629   1.56677   1.57125   1.57434   1.57997
 Alpha virt. eigenvalues --    1.58222   1.58760   1.59310   1.59475   1.60258
 Alpha virt. eigenvalues --    1.60879   1.61547   1.61895   1.62894   1.63497
 Alpha virt. eigenvalues --    1.64064   1.64529   1.65250   1.65281   1.66347
 Alpha virt. eigenvalues --    1.66929   1.67521   1.67702   1.68242   1.68709
 Alpha virt. eigenvalues --    1.68937   1.69438   1.70965   1.71320   1.72196
 Alpha virt. eigenvalues --    1.72398   1.72786   1.73106   1.73777   1.74183
 Alpha virt. eigenvalues --    1.74616   1.74944   1.75137   1.75546   1.75933
 Alpha virt. eigenvalues --    1.76003   1.76524   1.77423   1.77964   1.78318
 Alpha virt. eigenvalues --    1.78542   1.79074   1.80059   1.80231   1.80898
 Alpha virt. eigenvalues --    1.82010   1.82205   1.82962   1.83061   1.83535
 Alpha virt. eigenvalues --    1.83908   1.84186   1.84537   1.84784   1.85256
 Alpha virt. eigenvalues --    1.85625   1.86048   1.86460   1.87013   1.87527
 Alpha virt. eigenvalues --    1.88857   1.89184   1.90759   1.91009   1.91406
 Alpha virt. eigenvalues --    1.91551   1.92215   1.92588   1.92959   1.93407
 Alpha virt. eigenvalues --    1.94436   1.94688   1.94774   1.95559   1.95850
 Alpha virt. eigenvalues --    1.96631   1.97253   1.98299   1.99059   2.00164
 Alpha virt. eigenvalues --    2.00642   2.02030   2.05429   2.15242   2.16550
 Alpha virt. eigenvalues --    2.16685   2.17006   2.17559   2.20185   2.20903
 Alpha virt. eigenvalues --    2.20973   2.21463   2.21518   2.21649   2.21891
 Alpha virt. eigenvalues --    2.23041   2.23285   2.23972   2.24231   2.24639
 Alpha virt. eigenvalues --    2.25025   2.25191   2.25670   2.26531   2.26643
 Alpha virt. eigenvalues --    2.27444   2.27665   2.27951   2.28129   2.28481
 Alpha virt. eigenvalues --    2.28986   2.29341   2.29675   2.29900   2.30327
 Alpha virt. eigenvalues --    2.30530   2.30937   2.31094   2.31391   2.32324
 Alpha virt. eigenvalues --    2.32870   2.33449   2.33954   2.34666   2.34817
 Alpha virt. eigenvalues --    2.35262   2.37269   2.37954   2.40386   2.40671
 Alpha virt. eigenvalues --    2.42827   2.43688   2.44107   2.46293   2.48845
 Alpha virt. eigenvalues --    2.49344   2.51561   2.54259   2.54709   2.57865
 Alpha virt. eigenvalues --    2.58725   2.60438   2.62400   2.66752   2.67462
 Alpha virt. eigenvalues --    2.69841   2.75209   2.92665   2.94209   2.94746
 Alpha virt. eigenvalues --    2.95523   2.97345   2.97745   2.98287   2.98412
 Alpha virt. eigenvalues --    2.98676   2.99065   2.99442   2.99743   2.99871
 Alpha virt. eigenvalues --    3.00112   3.00447   3.00674   3.00786   3.00804
 Alpha virt. eigenvalues --    3.00928   3.00966   3.01313   3.01809   3.01905
 Alpha virt. eigenvalues --    3.02034   3.02217   3.02481   3.03640   3.03697
 Alpha virt. eigenvalues --    3.03887   3.04089   3.04349   3.04418   3.04601
 Alpha virt. eigenvalues --    3.04729   3.05015   3.05144   3.05251   3.05433
 Alpha virt. eigenvalues --    3.05619   3.06333   3.06619   3.06674   3.06988
 Alpha virt. eigenvalues --    3.07307   3.07467   3.07504   3.07561   3.07726
 Alpha virt. eigenvalues --    3.07839   3.08462   3.08571   3.09950   3.09971
 Alpha virt. eigenvalues --    3.10230   3.11069   3.12095   3.12652   3.12952
 Alpha virt. eigenvalues --    3.13308   3.13703   3.14287   3.14642   3.15871
 Alpha virt. eigenvalues --    3.17392   3.17762   3.18404   3.18843   3.19314
 Alpha virt. eigenvalues --    3.19851   3.20214   3.21201   3.21991   3.22560
 Alpha virt. eigenvalues --    3.22859   3.23237   3.23564   3.23663   3.24200
 Alpha virt. eigenvalues --    3.25294   3.25582   3.25737   3.26166   3.26224
 Alpha virt. eigenvalues --    3.26674   3.26962   3.27418   3.27701   3.27913
 Alpha virt. eigenvalues --    3.28222   3.28912   3.30417   3.31012   3.31178
 Alpha virt. eigenvalues --    3.31367   3.32614   3.33342   3.53587   3.54428
 Alpha virt. eigenvalues --    3.54735   3.55124   3.56341   3.56636   3.57650
 Alpha virt. eigenvalues --    3.58531   3.58758   3.59048   3.60494   3.60712
 Alpha virt. eigenvalues --    3.60841   3.61570   3.61881   3.62485   3.63238
 Alpha virt. eigenvalues --    3.63646   3.64054   3.64214   3.65336   3.65466
 Alpha virt. eigenvalues --    3.65722   3.66870   3.66911   3.67003   3.67821
 Alpha virt. eigenvalues --    3.68781   3.68884   3.69294   3.70645   3.71198
 Alpha virt. eigenvalues --    3.78914   3.81014   3.81565   3.83685   3.84225
 Alpha virt. eigenvalues --    3.84374   3.84686   3.85208   3.86339   3.87557
 Alpha virt. eigenvalues --    3.88405   3.88610   3.89000   3.89679   3.90125
 Alpha virt. eigenvalues --    3.91005   3.91433   3.91761   3.92095   3.92427
 Alpha virt. eigenvalues --    3.93001   3.93344   3.94510   3.94707   3.95456
 Alpha virt. eigenvalues --    3.95953   3.96596   3.97921   3.98157   3.98762
 Alpha virt. eigenvalues --    3.99077   4.01279
          Condensed to atoms (all electrons):
 Mulliken charges:
               1
     1  Br  -0.700554
     2  O   -0.276655
     3  H    0.158562
     4  H    0.138290
     5  O   -0.245288
     6  H    0.160478
     7  H    0.119308
     8  O   -0.294080
     9  H    0.165281
    10  H    0.142304
    11  O   -0.283352
    12  H    0.131819
    13  H    0.164122
    14  O   -0.282277
    15  H    0.117231
    16  H    0.120996
    17  O   -0.272316
    18  H    0.145504
    19  H    0.139228
    20  O   -0.253766
    21  H    0.145155
    22  H    0.121988
    23  O   -0.244209
    24  H    0.115993
    25  H    0.134609
    26  O   -0.266824
    27  H    0.110964
    28  H    0.137762
    29  O   -0.305535
    30  H    0.137700
    31  H    0.125309
    32  O   -0.262314
    33  H    0.134373
    34  H    0.132759
    35  O   -0.333578
    36  H    0.111600
    37  H    0.115183
    38  O   -0.302344
    39  H    0.130423
    40  H    0.132732
    41  O   -0.210257
    42  H    0.164051
    43  H    0.159442
    44  O   -0.318066
    45  H    0.117577
    46  H    0.105315
    47  O   -0.246252
    48  H    0.136346
    49  H    0.143726
    50  O   -0.210336
    51  H    0.154491
    52  H    0.154009
    53  O   -0.261093
    54  H    0.123500
    55  H    0.131526
    56  O   -0.245005
    57  H    0.126224
    58  H    0.130943
    59  O   -0.286126
    60  H    0.122390
    61  H    0.131140
    62  O   -0.232298
    63  H    0.134189
    64  H    0.145206
    65  O   -0.229563
    66  H    0.134351
    67  H    0.127951
    68  O   -0.283678
    69  H    0.133650
    70  H    0.146054
    71  O   -0.288288
    72  H    0.122999
    73  H    0.129184
    74  O   -0.308273
    75  H    0.131855
    76  H    0.125122
    77  O   -0.265310
    78  H    0.137690
    79  H    0.138690
    80  O   -0.234509
    81  H    0.136671
    82  H    0.136874
    83  O   -0.283555
    84  H    0.135275
    85  H    0.126311
    86  O   -0.312578
    87  H    0.112131
    88  H    0.132224
    89  O   -0.300575
    90  H    0.117082
    91  H    0.126243
    92  O   -0.307774
    93  H    0.115036
    94  H    0.108108
    95  O   -0.324629
    96  H    0.143353
    97  H    0.084656
 Sum of Mulliken charges =  -1.00000
 Mulliken charges with hydrogens summed into heavy atoms:
               1
     1  Br  -0.700554
     2  O    0.020197
     5  O    0.034498
     8  O    0.013505
    11  O    0.012589
    14  O   -0.044050
    17  O    0.012416
    20  O    0.013376
    23  O    0.006393
    26  O   -0.018099
    29  O   -0.042525
    32  O    0.004817
    35  O   -0.106795
    38  O   -0.039189
    41  O    0.113236
    44  O   -0.095174
    47  O    0.033820
    50  O    0.098163
    53  O   -0.006067
    56  O    0.012163
    59  O   -0.032596
    62  O    0.047097
    65  O    0.032739
    68  O   -0.003975
    71  O   -0.036105
    74  O   -0.051297
    77  O    0.011070
    80  O    0.039036
    83  O   -0.021970
    86  O   -0.068222
    89  O   -0.057250
    92  O   -0.084630
    95  O   -0.096620
         Mulliken charges condensed to fragments:
      1     -0.700554
      2     -0.299446
 Electronic spatial extent (au):  <R**2>=        1551283.8029
 Charge=             -1.0000 electrons
 Dipole moment (field-independent basis, Debye):
    X=            -96.7622    Y=            -78.5686    Z=           -109.6544  Tot=            166.0122
 Quadrupole moment (field-independent basis, Debye-Ang):
   XX=          -2258.3899   YY=          -1470.2017   ZZ=          -2776.4863
   XY=          -1556.0369   XZ=          -2188.3527   YZ=          -1872.7811
 Traceless Quadrupole moment (field-independent basis, Debye-Ang):
   XX=            -90.0306   YY=            698.1576   ZZ=           -608.1270
   XY=          -1556.0369   XZ=          -2188.3527   YZ=          -1872.7811
 Octapole moment (field-independent basis, Debye-Ang**2):
  XXX=         -57784.7156  YYY=         -31381.2270  ZZZ=         -73668.3756  XYY=         -28589.9027
  XXY=         -36894.9786  XXZ=         -50016.3093  XZZ=         -55003.6129  YZZ=         -49687.1832
  YYZ=         -36223.5485  XYZ=         -36696.3173
 Hexadecapole moment (field-independent basis, Debye-Ang**3):
 XXXX=       -1541735.9819 YYYY=        -738300.2520 ZZZZ=       -1983635.0138 XXXY=        -974336.1341
 XXXZ=       -1250585.2885 YYYX=        -602335.6349 YYYZ=        -783523.3437 ZZZX=       -1452983.2274
 ZZZY=       -1367988.7864 XXYY=        -678628.0983 XXZZ=       -1223222.6132 YYZZ=        -987716.2819
 XXYZ=        -843660.6974 YYXZ=        -697675.8399 ZZXY=        -967826.6563
 N-N= 6.224448628509D+03 E-N=-2.441560459808D+04  KE= 5.003601073774D+03
 No NMR shielding tensors so no spin-rotation constants.
 Leave Link  601 at Thu May  3 04:17:43 2018, MaxMem= 14763950080 cpu:        70.7
 (Enter /cm/shared/gaussian/g09.e01/intel64-sandybridge/g09/l701.exe)
 Compute integral first derivatives.
 ... and contract with generalized density number  0.
 Leave Link  701 at Thu May  3 04:17:45 2018, MaxMem= 14763950080 cpu:       158.1
 (Enter /cm/shared/gaussian/g09.e01/intel64-sandybridge/g09/l702.exe)
 L702 exits ... SP integral derivatives will be done elsewhere.
 Leave Link  702 at Thu May  3 04:17:45 2018, MaxMem= 14763950080 cpu:         2.6
 (Enter /cm/shared/gaussian/g09.e01/intel64-sandybridge/g09/l703.exe)
 Compute integral first derivatives, UseDBF=F ICtDFT=           0.
 Integral derivatives from FoFJK, PRISM(SPDF).
 Calling FoFJK, ICntrl=      2127 FMM=T ISym2X=0 I1Cent= 0 IOpClX= 0 NMat=1 NMatS=1 NMatT=0.
 FoFJK:  IHMeth= 1 ICntrl=    2127 DoSepK=F KAlg= 0 I1Cent=   0 FoldK=F
 IRaf=         0 NMat=   1 IRICut=       1 DoRegI=T DoRafI=F ISym2E= 0.
 FoFCou: FMM=T IPFlag=           0 FMFlag=      100000 FMFlg1=        2001
         NFxFlg=           0 DoJE=F BraDBF=F KetDBF=F FulRan=T
         wScrn=  0.000000 ICntrl=    2127 IOpCl=  0 I1Cent=           0 NGrid=           0
         NMat0=    1 NMatS0=      1 NMatT0=    0 NMatD0=    1 NMtDS0=    0 NMtDT0=    0
 Symmetry not used in FoFCou.
 FMM levels:  10  Number of levels for PrismC:   9
 Leave Link  703 at Thu May  3 04:18:05 2018, MaxMem= 14763950080 cpu:      1245.2
 (Enter /cm/shared/gaussian/g09.e01/intel64-sandybridge/g09/l716.exe)
 Dipole        =-3.80691887D+01-3.09112591D+01-4.31413651D+01
 Cartesian Forces:  Max     0.035535077 RMS     0.010283655
 Leave Link  716 at Thu May  3 04:18:05 2018, MaxMem= 14763950080 cpu:         4.5
 (Enter /cm/shared/gaussian/g09.e01/intel64-sandybridge/g09/l122.exe)
 CPIOFr:  IOpCl= 0 IRwI=-1 IRwCP=  731 ICalc= -1 LCPTot=     1005244 Len1MO=     2550559 IndFrg=     1005244
 CPIOFr:  IOpCl= 0 IRwI=-1 IRwCP=  731 ICalc=  0 LCPTot=     1005244 Len1MO=     2550559 IndFrg=     3555803
 Counterpoise: doing DCBS calculation for fragment   1 NewBq=T
 Leave Link  122 at Thu May  3 04:18:05 2018, MaxMem= 14763950080 cpu:         7.0
 (Enter /cm/shared/gaussian/g09.e01/intel64-sandybridge/g09/l301.exe)
 Basis read from rwf:  (5D, 7F)
 No pseudopotential information found on rwf file.
   795 basis functions,  1651 primitive gaussians,   829 cartesian basis functions
    18 alpha electrons       18 beta electrons
       nuclear repulsion energy         0.0000000000 Hartrees.
 IExCor= 1009 DFT=T Ex+Corr=PBE1PBE ExCW=0 ScaHFX=  0.250000
 ScaDFX=  0.750000  0.750000  1.000000  1.000000 ScalE2=  1.000000  1.000000
 IRadAn=      0 IRanWt=     -1 IRanGd=            0 ICorTp=0 IEmpDi=  4
 NAtoms=   97 NActive=   97 NUniq=   97 SFac= 1.00D+00 NAtFMM=   60 NAOKFM=T Big=T
 Integral buffers will be    131072 words long.
 Raffenetti 2 integral format.
 Two-electron integral symmetry is turned off.
 No density basis found on file   718.
 Leave Link  301 at Thu May  3 04:18:06 2018, MaxMem= 14763950080 cpu:         6.5
 (Enter /cm/shared/gaussian/g09.e01/intel64-sandybridge/g09/l302.exe)
 NPDir=0 NMtPBC=     1 NCelOv=     1 NCel=       1 NClECP=     1 NCelD=      1
         NCelK=      1 NCelE2=     1 NClLst=     1 CellRange=     0.0.
 One-electron integrals computed using PRISM.
 NBasis=   795 RedAO= T EigKep=  1.61D-02  NBF=   795
 NBsUse=   795 1.00D-06 EigRej= -1.00D+00 NBFU=   795
 Precomputing XC quadrature grid using
 IXCGrd= 4 IRadAn=           0 IRanWt=          -1 IRanGd=           0 AccXCQ= 0.00D+00.
 Generated NRdTot=       0 NPtTot=           0 NUsed=           0 NTot=          32
 NSgBfM=   754   757   764   764   764 MxSgAt=    97 MxSgA2=    97.
 Leave Link  302 at Thu May  3 04:18:10 2018, MaxMem= 14763950080 cpu:       269.4
 (Enter /cm/shared/gaussian/g09.e01/intel64-sandybridge/g09/l303.exe)
 DipDrv:  MaxL=1.
 Leave Link  303 at Thu May  3 04:18:12 2018, MaxMem= 14763950080 cpu:       110.0
 (Enter /cm/shared/gaussian/g09.e01/intel64-sandybridge/g09/l401.exe)
 ExpMin= 1.22D-01 ExpMax= 6.40D+05 ExpMxC= 6.18D+03 IAcc=2 IRadAn=         4 AccDes= 0.00D+00
 Harris functional with IExCor= 1009 and IRadAn=       4 diagonalized for initial guess.
 HarFok:  IExCor= 1009 AccDes= 0.00D+00 IRadAn=         4 IDoV= 1 UseB2=F ITyADJ=14
 ICtDFT=  3500011 ScaDFX=  1.000000  1.000000  1.000000  1.000000
 FoFCou: FMM=F IPFlag=           0 FMFlag=      100000 FMFlg1=        2001
         NFxFlg=           0 DoJE=T BraDBF=F KetDBF=T FulRan=T
         wScrn=  0.000000 ICntrl=     500 IOpCl=  0 I1Cent=   200000004 NGrid=           0
         NMat0=    1 NMatS0=      1 NMatT0=    0 NMatD0=    1 NMtDS0=    0 NMtDT0=    0
 Symmetry not used in FoFCou.
 Harris En= -2574.01982875180    
 JPrj=0 DoOrth=F DoCkMO=F.
 Leave Link  401 at Thu May  3 04:18:16 2018, MaxMem= 14763950080 cpu:       288.3
 (Enter /cm/shared/gaussian/g09.e01/intel64-sandybridge/g09/l502.exe)
 Closed shell SCF:
 Using DIIS extrapolation, IDIIS=  1040.
 Two-electron integral symmetry not used.
 IVT=     2138497 IEndB=     2138497 NGot= 14763950080 MDV= 14762516294
 LenX= 14762516294 LenY= 14761828224
 Requested convergence on RMS density matrix=1.00D-08 within 128 cycles.
 Requested convergence on MAX density matrix=1.00D-06.
 Requested convergence on             energy=1.00D-06.
 No special actions if energy rises.
 Fock matrices will be formed incrementally for  20 cycles.
 Integral accuracy reduced to 1.0D-05 until final iterations.

 Cycle   1  Pass 0  IDiag  1:
 FoFJK:  IHMeth= 1 ICntrl=       0 DoSepK=F KAlg= 0 I1Cent=   0 FoldK=F
 IRaf= 850000000 NMat=   1 IRICut=       1 DoRegI=T DoRafI=F ISym2E= 0.
 FoFCou: FMM=T IPFlag=           0 FMFlag=      100000 FMFlg1=        2001
         NFxFlg=           0 DoJE=F BraDBF=F KetDBF=F FulRan=T
         wScrn=  0.000000 ICntrl=       0 IOpCl=  0 I1Cent=           0 NGrid=           0
         NMat0=    1 NMatS0=      1 NMatT0=    0 NMatD0=    1 NMtDS0=    0 NMtDT0=    0
 Symmetry not used in FoFCou.
 FMM levels:  10  Number of levels for PrismC:   9
 E= -2573.87868218804    
 DIIS: error= 1.27D-02 at cycle   1 NSaved=   1.
 NSaved= 1 IEnMin= 1 EnMin= -2573.87868218804     IErMin= 1 ErrMin= 1.27D-02
 ErrMax= 1.27D-02  0.00D+00 EMaxC= 1.00D-01 BMatC= 3.83D-02 BMatP= 3.83D-02
 IDIUse=3 WtCom= 8.73D-01 WtEn= 1.27D-01
 Coeff-Com:  0.100D+01
 Coeff-En:   0.100D+01
 Coeff:      0.100D+01
 Gap=     0.178 Goal=   None    Shift=    0.000
 GapD=    0.178 DampG=1.000 DampE=0.500 DampFc=0.5000 IDamp=-1.
 Damping current iteration by 5.00D-01
 RMSDP=4.74D-04 MaxDP=6.74D-02              OVMax= 1.49D-01

 Cycle   2  Pass 0  IDiag  1:
 RMSU=  2.35D-04    CP:  9.95D-01
 E= -2573.89531985690     Delta-E=       -0.016637668864 Rises=F Damp=T
 DIIS: error= 7.51D-03 at cycle   2 NSaved=   2.
 NSaved= 2 IEnMin= 2 EnMin= -2573.89531985690     IErMin= 2 ErrMin= 7.51D-03
 ErrMax= 7.51D-03  0.00D+00 EMaxC= 1.00D-01 BMatC= 9.04D-03 BMatP= 3.83D-02
 IDIUse=3 WtCom= 9.25D-01 WtEn= 7.51D-02
 Coeff-Com: -0.576D+00 0.158D+01
 Coeff-En:   0.000D+00 0.100D+01
 Coeff:     -0.532D+00 0.153D+01
 Gap=     0.188 Goal=   None    Shift=    0.000
 RMSDP=1.69D-04 MaxDP=4.04D-02 DE=-1.66D-02 OVMax= 6.60D-02

 Cycle   3  Pass 0  IDiag  1:
 RMSU=  1.47D-04    CP:  9.94D-01  1.36D+00
 E= -2573.90874556873     Delta-E=       -0.013425711833 Rises=F Damp=F
 DIIS: error= 3.74D-03 at cycle   3 NSaved=   3.
 NSaved= 3 IEnMin= 3 EnMin= -2573.90874556873     IErMin= 3 ErrMin= 3.74D-03
 ErrMax= 3.74D-03  0.00D+00 EMaxC= 1.00D-01 BMatC= 2.44D-03 BMatP= 9.04D-03
 IDIUse=3 WtCom= 9.63D-01 WtEn= 3.74D-02
 Coeff-Com: -0.302D+00 0.715D+00 0.587D+00
 Coeff-En:   0.000D+00 0.000D+00 0.100D+01
 Coeff:     -0.291D+00 0.689D+00 0.602D+00
 Gap=     0.171 Goal=   None    Shift=    0.000
 RMSDP=7.08D-05 MaxDP=1.74D-02 DE=-1.34D-02 OVMax= 2.10D-02

 Cycle   4  Pass 0  IDiag  1:
 RMSU=  8.58D-06    CP:  9.92D-01  1.54D+00  6.28D-01
 E= -2573.91138253593     Delta-E=       -0.002636967194 Rises=F Damp=F
 DIIS: error= 1.37D-04 at cycle   4 NSaved=   4.
 NSaved= 4 IEnMin= 4 EnMin= -2573.91138253593     IErMin= 4 ErrMin= 1.37D-04
 ErrMax= 1.37D-04  0.00D+00 EMaxC= 1.00D-01 BMatC= 2.10D-06 BMatP= 2.44D-03
 IDIUse=3 WtCom= 9.99D-01 WtEn= 1.37D-03
 Coeff-Com: -0.145D-01 0.273D-01 0.441D-01 0.943D+00
 Coeff-En:   0.000D+00 0.000D+00 0.000D+00 0.100D+01
 Coeff:     -0.145D-01 0.273D-01 0.440D-01 0.943D+00
 Gap=     0.173 Goal=   None    Shift=    0.000
 RMSDP=2.65D-06 MaxDP=5.26D-04 DE=-2.64D-03 OVMax= 8.15D-04

 Initial convergence to 1.0D-05 achieved.  Increase integral accuracy.
 Cycle   5  Pass 1  IDiag  1:
 E= -2573.91223769340     Delta-E=       -0.000855157469 Rises=F Damp=F
 DIIS: error= 1.36D-05 at cycle   1 NSaved=   1.
 NSaved= 1 IEnMin= 1 EnMin= -2573.91223769340     IErMin= 1 ErrMin= 1.36D-05
 ErrMax= 1.36D-05  0.00D+00 EMaxC= 1.00D-01 BMatC= 1.24D-07 BMatP= 1.24D-07
 IDIUse=1 WtCom= 1.00D+00 WtEn= 0.00D+00
 Coeff-Com:  0.100D+01
 Coeff:      0.100D+01
 Gap=     0.173 Goal=   None    Shift=    0.000
 RMSDP=2.65D-06 MaxDP=5.26D-04 DE=-8.55D-04 OVMax= 2.48D-04

 Cycle   6  Pass 1  IDiag  1:
 RMSU=  1.27D-06    CP:  1.00D+00
 E= -2573.91223787847     Delta-E=       -0.000000185070 Rises=F Damp=F
 DIIS: error= 1.00D-05 at cycle   2 NSaved=   2.
 NSaved= 2 IEnMin= 2 EnMin= -2573.91223787847     IErMin= 2 ErrMin= 1.00D-05
 ErrMax= 1.00D-05  0.00D+00 EMaxC= 1.00D-01 BMatC= 3.17D-08 BMatP= 1.24D-07
 IDIUse=1 WtCom= 1.00D+00 WtEn= 0.00D+00
 Coeff-Com:  0.294D+00 0.706D+00
 Coeff:      0.294D+00 0.706D+00
 Gap=     0.174 Goal=   None    Shift=    0.000
 RMSDP=3.58D-07 MaxDP=7.28D-05 DE=-1.85D-07 OVMax= 1.18D-04

 Cycle   7  Pass 1  IDiag  1:
 RMSU=  3.45D-07    CP:  1.00D+00  9.29D-01
 E= -2573.91223791609     Delta-E=       -0.000000037624 Rises=F Damp=F
 DIIS: error= 3.62D-06 at cycle   3 NSaved=   3.
 NSaved= 3 IEnMin= 3 EnMin= -2573.91223791609     IErMin= 3 ErrMin= 3.62D-06
 ErrMax= 3.62D-06  0.00D+00 EMaxC= 1.00D-01 BMatC= 4.08D-09 BMatP= 3.17D-08
 IDIUse=1 WtCom= 1.00D+00 WtEn= 0.00D+00
 Coeff-Com: -0.309D-01 0.239D+00 0.792D+00
 Coeff:     -0.309D-01 0.239D+00 0.792D+00
 Gap=     0.173 Goal=   None    Shift=    0.000
 RMSDP=1.02D-07 MaxDP=2.48D-05 DE=-3.76D-08 OVMax= 3.11D-05

 Cycle   8  Pass 1  IDiag  1:
 RMSU=  4.44D-08    CP:  1.00D+00  9.81D-01  8.20D-01
 E= -2573.91223792082     Delta-E=       -0.000000004727 Rises=F Damp=F
 DIIS: error= 5.19D-07 at cycle   4 NSaved=   4.
 NSaved= 4 IEnMin= 4 EnMin= -2573.91223792082     IErMin= 4 ErrMin= 5.19D-07
 ErrMax= 5.19D-07  0.00D+00 EMaxC= 1.00D-01 BMatC= 9.29D-11 BMatP= 4.08D-09
 IDIUse=1 WtCom= 1.00D+00 WtEn= 0.00D+00
 Coeff-Com: -0.164D-01 0.903D-01 0.319D+00 0.607D+00
 Coeff:     -0.164D-01 0.903D-01 0.319D+00 0.607D+00
 Gap=     0.173 Goal=   None    Shift=    0.000
 RMSDP=1.46D-08 MaxDP=2.36D-06 DE=-4.73D-09 OVMax= 4.64D-06

 Cycle   9  Pass 1  IDiag  1:
 RMSU=  9.98D-09    CP:  1.00D+00  9.83D-01  8.27D-01  7.72D-01
 E= -2573.91223792090     Delta-E=       -0.000000000081 Rises=F Damp=F
 DIIS: error= 3.95D-08 at cycle   5 NSaved=   5.
 NSaved= 5 IEnMin= 5 EnMin= -2573.91223792090     IErMin= 5 ErrMin= 3.95D-08
 ErrMax= 3.95D-08  0.00D+00 EMaxC= 1.00D-01 BMatC= 5.42D-13 BMatP= 9.29D-11
 IDIUse=1 WtCom= 1.00D+00 WtEn= 0.00D+00
 Coeff-Com:  0.935D-03-0.889D-02-0.346D-01 0.196D-02 0.104D+01
 Coeff:      0.935D-03-0.889D-02-0.346D-01 0.196D-02 0.104D+01
 Gap=     0.173 Goal=   None    Shift=    0.000
 RMSDP=2.42D-09 MaxDP=3.84D-07 DE=-8.14D-11 OVMax= 9.65D-07

 SCF Done:  E(RPBE1PBE) =  -2573.91223792     A.U. after    9 cycles
            NFock=  9  Conv=0.24D-08     -V/T= 2.0013
 KE= 2.570510936030D+03 PE=-6.162920405048D+03 EE= 1.018497231097D+03
 Leave Link  502 at Thu May  3 04:20:02 2018, MaxMem= 14763950080 cpu:      6678.8
 (Enter /cm/shared/gaussian/g09.e01/intel64-sandybridge/g09/l601.exe)
 Copying SCF densities to generalized density rwf, IOpCl= 0 IROHF=0.

 **********************************************************************

            Population analysis using the SCF density.

 **********************************************************************

 Alpha  occ. eigenvalues -- -482.98948 -62.39094 -56.16350 -56.16346 -56.16342
 Alpha  occ. eigenvalues --   -8.49227  -6.29541  -6.29531  -6.29517  -2.37808
 Alpha  occ. eigenvalues --   -2.37806  -2.37795  -2.37788  -2.37785  -0.47268
 Alpha  occ. eigenvalues --   -0.03136  -0.03120  -0.03105
 Alpha virt. eigenvalues --    0.14243   0.16083   0.16565   0.16784   0.18294
 Alpha virt. eigenvalues --    0.18731   0.19263   0.19576   0.20000   0.21731
 Alpha virt. eigenvalues --    0.22084   0.22752   0.23036   0.23448   0.23855
 Alpha virt. eigenvalues --    0.24354   0.25147   0.25743   0.25905   0.26426
 Alpha virt. eigenvalues --    0.27492   0.27922   0.28548   0.29010   0.29431
 Alpha virt. eigenvalues --    0.30038   0.30490   0.30987   0.31509   0.32225
 Alpha virt. eigenvalues --    0.32642   0.33048   0.33206   0.34322   0.34704
 Alpha virt. eigenvalues --    0.35276   0.35545   0.36245   0.36636   0.37222
 Alpha virt. eigenvalues --    0.37585   0.38184   0.38750   0.39393   0.39922
 Alpha virt. eigenvalues --    0.39966   0.40415   0.40812   0.41492   0.41723
 Alpha virt. eigenvalues --    0.42423   0.42742   0.43626   0.44405   0.44621
 Alpha virt. eigenvalues --    0.45065   0.45820   0.46528   0.47233   0.48391
 Alpha virt. eigenvalues --    0.48565   0.48872   0.50257   0.51750   0.60779
 Alpha virt. eigenvalues --    0.61458   0.62066   0.63686   0.63851   0.65138
 Alpha virt. eigenvalues --    0.65355   0.65582   0.66079   0.66410   0.67162
 Alpha virt. eigenvalues --    0.67430   0.67772   0.68643   0.69265   0.69630
 Alpha virt. eigenvalues --    0.70154   0.70468   0.71314   0.71424   0.71947
 Alpha virt. eigenvalues --    0.72113   0.72194   0.72497   0.72857   0.73236
 Alpha virt. eigenvalues --    0.73336   0.73900   0.74185   0.75252   0.75495
 Alpha virt. eigenvalues --    0.75698   0.76160   0.76198   0.76516   0.76625
 Alpha virt. eigenvalues --    0.77149   0.77698   0.77890   0.78189   0.78579
 Alpha virt. eigenvalues --    0.78905   0.79138   0.79333   0.80125   0.80551
 Alpha virt. eigenvalues --    0.80763   0.80965   0.81214   0.81866   0.82193
 Alpha virt. eigenvalues --    0.82611   0.83261   0.83543   0.83780   0.84421
 Alpha virt. eigenvalues --    0.84680   0.84878   0.85875   0.85990   0.86625
 Alpha virt. eigenvalues --    0.87274   0.87887   0.88003   0.88113   0.88631
 Alpha virt. eigenvalues --    0.88891   0.88972   0.89692   0.90182   0.90612
 Alpha virt. eigenvalues --    0.91426   0.91747   0.91890   0.92246   0.92368
 Alpha virt. eigenvalues --    0.92789   0.93165   0.93210   0.93643   0.93875
 Alpha virt. eigenvalues --    0.94499   0.94864   0.95416   0.95458   0.95790
 Alpha virt. eigenvalues --    0.96206   0.96649   0.96917   0.97055   0.97558
 Alpha virt. eigenvalues --    0.97870   0.98203   0.98573   0.98770   0.99327
 Alpha virt. eigenvalues --    0.99529   1.00002   1.00349   1.00626   1.01052
 Alpha virt. eigenvalues --    1.01617   1.02486   1.02753   1.03015   1.04122
 Alpha virt. eigenvalues --    1.04631   1.04971   1.05390   1.06120   1.06510
 Alpha virt. eigenvalues --    1.06801   1.07138   1.08174   1.09049   1.09915
 Alpha virt. eigenvalues --    1.10737   1.10977   1.11067   1.11816   1.12889
 Alpha virt. eigenvalues --    1.13191   1.13686   1.14399   1.14594   1.15051
 Alpha virt. eigenvalues --    1.17021   1.17658   1.18866   1.19980   1.21187
 Alpha virt. eigenvalues --    1.22447   1.24518   1.25716   1.26276   1.28042
 Alpha virt. eigenvalues --    1.28918   1.65402   1.65771   1.66415   1.67353
 Alpha virt. eigenvalues --    1.67751   1.67814   1.68755   1.69111   1.69964
 Alpha virt. eigenvalues --    1.70205   1.71202   1.71472   1.71866   1.72200
 Alpha virt. eigenvalues --    1.72524   1.72776   1.72833   1.73134   1.73480
 Alpha virt. eigenvalues --    1.73583   1.74131   1.74674   1.75250   1.75309
 Alpha virt. eigenvalues --    1.75377   1.75629   1.76034   1.76344   1.76535
 Alpha virt. eigenvalues --    1.76674   1.77050   1.77377   1.77873   1.78285
 Alpha virt. eigenvalues --    1.78499   1.78822   1.79225   1.79419   1.80134
 Alpha virt. eigenvalues --    1.80323   1.80759   1.81495   1.81873   1.82539
 Alpha virt. eigenvalues --    1.82649   1.83032   1.83252   1.83949   1.84402
 Alpha virt. eigenvalues --    1.84821   1.86053   1.86224   1.86546   1.87382
 Alpha virt. eigenvalues --    1.88021   1.88240   1.89410   1.89449   1.89899
 Alpha virt. eigenvalues --    1.90027   1.91278   1.93158   1.93716   1.94335
 Alpha virt. eigenvalues --    1.95666   1.97178   1.98028   1.98081   1.98613
 Alpha virt. eigenvalues --    1.99519   2.00146   2.00774   2.01003   2.01445
 Alpha virt. eigenvalues --    2.01678   2.01827   2.01915   2.02172   2.02401
 Alpha virt. eigenvalues --    2.02628   2.02935   2.03024   2.03608   2.03727
 Alpha virt. eigenvalues --    2.03809   2.04161   2.04323   2.04391   2.04643
 Alpha virt. eigenvalues --    2.05060   2.05172   2.05834   2.06155   2.06351
 Alpha virt. eigenvalues --    2.06518   2.06872   2.06965   2.07407   2.08093
 Alpha virt. eigenvalues --    2.08267   2.08566   2.08833   2.09197   2.09559
 Alpha virt. eigenvalues --    2.09890   2.10151   2.11052   2.11453   2.11462
 Alpha virt. eigenvalues --    2.12000   2.12548   2.13143   2.14389   2.14591
 Alpha virt. eigenvalues --    2.14886   2.15588   2.15868   2.16291   2.16782
 Alpha virt. eigenvalues --    2.16899   2.17204   2.17583   2.18312   2.18851
 Alpha virt. eigenvalues --    2.19179   2.19882   2.20236   2.20792   2.21145
 Alpha virt. eigenvalues --    2.21399   2.21908   2.22178   2.22570   2.23129
 Alpha virt. eigenvalues --    2.23538   2.23947   2.24644   2.24841   2.25410
 Alpha virt. eigenvalues --    2.25826   2.26442   2.27759   2.28545   2.29425
 Alpha virt. eigenvalues --    2.29942   2.30823   2.30962   2.31940   2.32601
 Alpha virt. eigenvalues --    2.33015   2.34054   2.34635   2.35617   2.36166
 Alpha virt. eigenvalues --    2.36708   2.38100   2.38171   2.38718   2.39221
 Alpha virt. eigenvalues --    2.40209   2.40898   2.40940   2.41763   2.42023
 Alpha virt. eigenvalues --    2.42796   2.43762   2.44151   2.44577   2.45134
 Alpha virt. eigenvalues --    2.45254   2.45669   2.45897   2.46859   2.47184
 Alpha virt. eigenvalues --    2.47440   2.47897   2.48502   2.49340   2.49893
 Alpha virt. eigenvalues --    2.50206   2.50576   2.51726   2.52056   2.52304
 Alpha virt. eigenvalues --    2.53098   2.53503   2.54622   2.54728   2.56460
 Alpha virt. eigenvalues --    2.57351   2.57634   2.59167   2.66288   2.67617
 Alpha virt. eigenvalues --    2.69264   2.69387   2.69582   2.70275   2.70810
 Alpha virt. eigenvalues --    2.71567   2.71587   2.71976   2.72711   2.73047
 Alpha virt. eigenvalues --    2.73376   2.73585   2.74108   2.75158   2.75439
 Alpha virt. eigenvalues --    2.76115   2.76473   2.76892   2.77408   2.78655
 Alpha virt. eigenvalues --    2.79091   2.80691   2.81033   2.81952   2.82210
 Alpha virt. eigenvalues --    2.82773   2.82841   2.83229   2.84288   2.85614
 Alpha virt. eigenvalues --    2.85834   2.86131   2.86467   2.87041   2.88689
 Alpha virt. eigenvalues --    2.89275   2.89359   2.89713   2.90512   2.91455
 Alpha virt. eigenvalues --    2.92054   2.92472   2.92908   2.94168   2.94675
 Alpha virt. eigenvalues --    2.95513   2.95784   2.96409   2.97386   2.98507
 Alpha virt. eigenvalues --    2.99752   3.00998   3.01587   3.02664   3.03165
 Alpha virt. eigenvalues --    3.04593   3.05013   3.06434   3.08648   3.09197
 Alpha virt. eigenvalues --    3.13456   3.14671   3.15311   3.17354   3.17826
 Alpha virt. eigenvalues --    3.18716   3.19680   3.20764   3.21819   3.23054
 Alpha virt. eigenvalues --    3.23669   3.23829   3.24708   3.26913   3.29849
 Alpha virt. eigenvalues --    3.30514   3.31224   3.31405   3.34532   3.37339
 Alpha virt. eigenvalues --    3.39548   3.40318   3.42909   3.44889   3.46135
 Alpha virt. eigenvalues --    3.47582   3.49347   3.49823   3.52264   3.55839
 Alpha virt. eigenvalues --    3.57977   3.60433   3.60854   3.67458   4.51046
 Alpha virt. eigenvalues --    4.51846   4.52023   4.52220   4.52521   4.52594
 Alpha virt. eigenvalues --    4.52662   4.52831   4.52945   4.53191   4.53378
 Alpha virt. eigenvalues --    4.53446   4.53526   4.53563   4.53750   4.53814
 Alpha virt. eigenvalues --    4.54031   4.54106   4.54326   4.54932   4.55048
 Alpha virt. eigenvalues --    4.55190   4.55564   4.55786   4.55964   4.56687
 Alpha virt. eigenvalues --    4.56750   4.56869   4.57078   4.57474   4.57713
 Alpha virt. eigenvalues --    4.58745   4.60011   4.60421   4.60721   4.60842
 Alpha virt. eigenvalues --    4.60940   4.60983   4.61047   4.61115   4.61252
 Alpha virt. eigenvalues --    4.61452   4.61514   4.61789   4.61792   4.61976
 Alpha virt. eigenvalues --    4.62055   4.62175   4.62250   4.62452   4.62514
 Alpha virt. eigenvalues --    4.62661   4.62920   4.63395   4.63613   4.63772
 Alpha virt. eigenvalues --    4.63895   4.64102   4.65094   4.65683   4.65980
 Alpha virt. eigenvalues --    4.66180   4.66737   4.68984   4.74699   4.75178
 Alpha virt. eigenvalues --    4.75727   4.75899   4.76456   4.76724   4.76757
 Alpha virt. eigenvalues --    4.77100   4.77466   4.78041   4.79110   4.79358
 Alpha virt. eigenvalues --    4.79797   4.80486   4.80617   4.80734   4.81141
 Alpha virt. eigenvalues --    4.81287   4.81576   4.82508   4.82688   4.82956
 Alpha virt. eigenvalues --    4.83222   4.83365   4.83912   4.84386   4.84766
 Alpha virt. eigenvalues --    4.85156   4.85431   4.85880   4.86292   4.86395
 Alpha virt. eigenvalues --    4.87154   4.87601   4.87718   4.87942   4.88255
 Alpha virt. eigenvalues --    4.88304   4.88452   4.88542   4.88608   4.89390
 Alpha virt. eigenvalues --    4.90650   4.90771   4.91080   4.91441   4.91541
 Alpha virt. eigenvalues --    4.92483   4.92924   4.93906   4.94755   4.94811
 Alpha virt. eigenvalues --    4.96360   4.96638   4.97056   4.97268   4.98999
[...]
   Z21       33.35367  -0.00043   0.00000  -0.00243  -0.00573  33.34794
   X22       34.65758  -0.00122   0.00000  -0.00180  -0.00174  34.65584
   Y22       41.44169  -0.00049   0.00000   0.01538   0.01349  41.45519
   Z22       35.33788   0.02067   0.00000   0.02322   0.02053  35.35841
   X23       38.28585   0.00236   0.00000   0.00103  -0.00074  38.28511
   Y23       31.04820  -0.00255   0.00000   0.00056  -0.00112  31.04708
   Z23       38.13467   0.00277   0.00000   0.00239   0.00290  38.13758
   X24       36.90635  -0.00256   0.00000  -0.00314  -0.00492  36.90143
   Y24       31.97417   0.00506   0.00000   0.01922   0.01790  31.99206
   Z24       38.87167  -0.00506   0.00000  -0.02160  -0.02156  38.85010
   X25       38.05908  -0.00099   0.00000   0.00224   0.00081  38.05989
   Y25       31.27497   0.00064   0.00000  -0.00007  -0.00216  31.27280
   Z25       36.33943  -0.00175   0.00000  -0.00120  -0.00079  36.33865
   X26       38.92836   0.00386   0.00000  -0.00577  -0.00506  38.92330
   Y26       40.11889  -0.01395   0.00000   0.00927   0.00567  40.12455
   Z26       30.70805  -0.01405   0.00000  -0.02283  -0.02444  30.68361
   X27       40.02440   0.01225   0.00000   0.02345   0.02429  40.04869
   Y27       41.53618   0.01092   0.00000   0.00581   0.00214  41.53832
   Z27       30.97261   0.00816   0.00000   0.02946   0.02770  31.00031
   X28       37.37878  -0.01364   0.00000  -0.00730  -0.00667  37.37212
   Y28       40.61021   0.00475   0.00000   0.00339   0.00020  40.61041
   Z28       31.50173   0.01401   0.00000   0.03662   0.03461  31.53635
   X29       40.66691   0.01495   0.00000   0.04279   0.04302  40.70992
   Y29       34.88434  -0.00694   0.00000   0.00252  -0.00158  34.88276
   Z29       29.61201  -0.01365   0.00000  -0.00824  -0.00825  29.60376
   X30       40.32676  -0.00247   0.00000  -0.00314  -0.00261  40.32414
   Y30       36.60400   0.00339   0.00000   0.00552   0.00136  36.60535
   Z30       29.12068   0.00703   0.00000   0.01954   0.01904  29.13972
   X31       40.09999  -0.01358   0.00000  -0.04466  -0.04475  40.05524
   Y31       34.78986   0.00616   0.00000   0.01599   0.01240  34.80226
   Z31       31.33166   0.00513   0.00000  -0.01810  -0.01820  31.31346
   X32       45.39122  -0.00050   0.00000  -0.02182  -0.02362  45.36760
   Y32       33.65602  -0.02138   0.00000  -0.03868  -0.04078  33.61524
   Z32       40.15668   0.01938   0.00000   0.01293   0.01405  40.17073
   X33       46.46837  -0.00284   0.00000  -0.00396  -0.00582  46.46254
   Y33       32.31432  -0.00016   0.00000  -0.01083  -0.01322  32.30110
   Z33       39.55197   0.00008   0.00000  -0.00124   0.00040  39.55237
   X34       45.05107  -0.00057   0.00000   0.01318   0.01178  45.06285
   Y34       34.63868   0.01247   0.00000   0.01308   0.01066  34.64934
   Z34       38.68269  -0.01675   0.00000  -0.00251  -0.00169  38.68100
   X35       29.06399  -0.01077   0.00000  -0.03488  -0.03578  29.02821
   Y35       40.25117   0.01135   0.00000   0.01720   0.01718  40.26835
   Z35       39.98660   0.00476   0.00000   0.00001  -0.00338  39.98323
   X36       28.83722  -0.00859   0.00000  -0.03098  -0.03201  28.80521
   Y36       38.55041  -0.01190   0.00000  -0.00758  -0.00771  38.54270
   Z36       39.40079  -0.00144   0.00000   0.00980   0.00680  39.40759
   X37       30.50018   0.00698   0.00000   0.01085   0.01018  30.51036
   Y37       40.85588   0.00397   0.00000   0.00679   0.00636  40.86224
   Z37       39.06064   0.00579   0.00000   0.04262   0.03935  39.09999
   X38       42.57553   0.00443   0.00000   0.00599   0.00337  42.57890
   Y38       33.52374  -0.00751   0.00000  -0.03321  -0.03382  33.48992
   Z38       44.74871   0.02388   0.00000   0.01128   0.01195  44.76066
   X39       40.87478  -0.01563   0.00000  -0.00924  -0.01172  40.86306
   Y39       33.82610   0.00460   0.00000   0.01088   0.01036  33.83646
   Z39       44.20069  -0.00546   0.00000  -0.00256  -0.00228  44.19841
   X40       43.50150   0.01404   0.00000   0.02484   0.02248  43.52397
   Y40       33.31587  -0.00024   0.00000   0.00927   0.00815  33.32402
   Z40       43.21804  -0.02078   0.00000  -0.02180  -0.02093  43.19711
   X41       34.05286   0.00650   0.00000   0.00449   0.00205  34.05491
   Y41       32.42770  -0.00105   0.00000  -0.04005  -0.04000  32.38770
   Z41       42.93458  -0.00979   0.00000  -0.02134  -0.02190  42.91267
   X42       33.29697  -0.00683   0.00000  -0.00772  -0.01052  33.28645
   Y42       31.48284  -0.01150   0.00000  -0.02475  -0.02427  31.45857
   Z42       44.25739   0.01398   0.00000   0.01414   0.01368  44.27106
   X43       33.27808  -0.00513   0.00000  -0.01447  -0.01672  33.26136
   Y43       31.80409  -0.00557   0.00000  -0.02105  -0.02128  31.78281
   Z43       41.42280  -0.01290   0.00000  -0.03248  -0.03303  41.38977
   X44       31.08599  -0.01323   0.00000  -0.01486  -0.01701  31.06899
   Y44       36.33943   0.00625   0.00000   0.01583   0.01658  36.35602
   Z44       44.16290   0.01225   0.00000   0.01428   0.01221  44.17511
   X45       31.35056  -0.00389   0.00000  -0.02497  -0.02674  31.32382
   Y45       37.81342   0.00908   0.00000   0.01844   0.01890  37.83232
   Z45       43.14245  -0.00614   0.00000  -0.00657  -0.00895  43.13350
   X46       32.16314   0.00925   0.00000   0.00955   0.00737  32.17051
   Y46       35.09221  -0.00448   0.00000   0.01490   0.01532  35.10754
   Z46       43.44480  -0.00572   0.00000  -0.00009  -0.00166  43.44315
   X47       42.76450   0.00301   0.00000  -0.01390  -0.01300  42.75150
   Y47       43.82275   0.00015   0.00000   0.00272  -0.00096  43.82179
   Z47       32.40880  -0.03077   0.00000  -0.01309  -0.01495  32.39386
   X48       42.48104   0.00134   0.00000   0.00519   0.00640  42.48744
   Y48       45.54240   0.00122   0.00000   0.00924   0.00547  45.54787
   Z48       31.89858  -0.00069   0.00000  -0.00053  -0.00286  31.89572
   X49       42.38656  -0.01393   0.00000  -0.03826  -0.03769  42.34887
   Y49       43.80385  -0.00465   0.00000  -0.01696  -0.02014  43.78371
   Z49       34.16625   0.03409   0.00000   0.03176   0.02985  34.19610
   X50       36.35833   0.00040   0.00000   0.00136   0.00076  36.35909
   Y50       45.10776  -0.00387   0.00000   0.00770   0.00720  45.11497
   Z50       41.93302  -0.00579   0.00000  -0.00791  -0.01121  41.92181
   X51       35.48906  -0.00477   0.00000  -0.00385  -0.00438  35.48468
   Y51       46.56285   0.00824   0.00000   0.01352   0.01330  46.57615
   Z51       42.55663   0.00313   0.00000   0.00688   0.00307  42.55970
   X52       38.07798   0.00451   0.00000   0.00571   0.00504  38.08302
   Y52       45.35343  -0.00408   0.00000  -0.01871  -0.01930  45.33413
   Z52       42.46215   0.00283   0.00000   0.01165   0.00860  42.47075
   X53       47.48882   0.00684   0.00000   0.01522   0.01398  47.50279
   Y53       38.39924  -0.00021   0.00000   0.02469   0.02241  38.42165
   Z53       40.59132  -0.00966   0.00000  -0.02242  -0.02211  40.56921
   X54       48.41478  -0.00200   0.00000  -0.00769  -0.00906  48.40572
   Y54       39.24961   0.00540   0.00000   0.01630   0.01423  39.26384
   Z54       41.89523   0.00425   0.00000   0.00669   0.00696  41.90218
   X55       45.76917  -0.00324   0.00000   0.00454   0.00331  45.77247
   Y55       38.90946   0.00174   0.00000  -0.00218  -0.00416  38.90530
   Z55       40.85588   0.00633   0.00000   0.01936   0.01925  40.87513
   X56       38.87167  -0.00130   0.00000  -0.01720  -0.02018  38.85149
   Y56       29.15847  -0.01087   0.00000  -0.02179  -0.02220  29.13627
   Z56       43.59598  -0.00437   0.00000  -0.01132  -0.01024  43.58574
   X57       38.22916  -0.00034   0.00000   0.01082   0.00764  38.23679
   Y57       29.74429   0.00450   0.00000   0.00877   0.00883  29.75312
   Z57       45.18335   0.00407   0.00000  -0.00064   0.00018  45.18354
   X58       38.47482   0.00512   0.00000   0.03215   0.02955  38.50438
   Y58       30.50018   0.00678   0.00000   0.01580   0.01515  30.51533
   Z58       42.44325  -0.00071   0.00000   0.00422   0.00491  42.44816
   X59       44.99438   0.00690   0.00000   0.00902   0.00838  45.00276
   Y59       43.97393  -0.00282   0.00000  -0.00382  -0.00561  43.96832
   Z59       41.27162   0.00489   0.00000  -0.00097  -0.00246  41.26916
   X60       44.40856  -0.00228   0.00000  -0.00319  -0.00367  44.40489
   Y60       45.65578   0.00067   0.00000  -0.00435  -0.00597  45.64982
   Z60       41.63067  -0.00096   0.00000   0.00001  -0.00200  41.62867
   X61       44.04952  -0.00745   0.00000  -0.01671  -0.01716  44.03236
   Y61       43.48260   0.00096   0.00000   0.00765   0.00563  43.48823
   Z61       39.79763  -0.00556   0.00000  -0.00198  -0.00353  39.79411
   X62       29.85767  -0.00758   0.00000  -0.01193  -0.01215  29.84552
   Y62       37.00084  -0.01519   0.00000  -0.01081  -0.01249  36.98834
   Z62       33.67492  -0.00220   0.00000  -0.01606  -0.01849  33.65643
   X63       30.08444   0.00356   0.00000   0.00778   0.00777  30.09221
   Y63       38.77718   0.01438   0.00000   0.00693   0.00526  38.78244
   Z63       33.82610   0.00493   0.00000   0.02087   0.01803  33.84413
   X64       31.06710   0.00283   0.00000  -0.00022  -0.00028  31.06681
   Y64       36.49061   0.00002   0.00000   0.00536   0.00321  36.49382
   Z64       32.42770  -0.00791   0.00000  -0.02225  -0.02435  32.40335
   X65       37.96460   0.00510   0.00000  -0.00566  -0.00489  37.95971
   Y65       46.52506  -0.00098   0.00000   0.01261   0.01023  46.53528
   Z65       35.11111   0.00316   0.00000   0.00152  -0.00185  35.10926
   X66       38.30475   0.00074   0.00000  -0.00635  -0.00525  38.29950
   Y66       48.18802   0.01037   0.00000   0.02454   0.02196  48.20998
   Z66       34.50640  -0.00154   0.00000   0.00256  -0.00115  34.50524
   X67       36.30164  -0.01060   0.00000  -0.01205  -0.01122  36.29042
   Y67       46.14711  -0.00628   0.00000  -0.01545  -0.01777  46.12935
   Z67       34.52530  -0.00511   0.00000  -0.01029  -0.01385  34.51145
   X68       38.04019  -0.01821   0.00000  -0.00757  -0.00974  38.03045
   Y68       39.72204   0.00106   0.00000  -0.00076  -0.00026  39.72178
   Z68       46.82741   0.00446   0.00000   0.01038   0.00871  46.83612
   X69       39.81653   0.01660   0.00000   0.01816   0.01603  39.83256
   Y69       39.68425  -0.00646   0.00000  -0.01886  -0.01867  39.66558
   Z69       46.50616   0.00211   0.00000   0.02206   0.02072  46.52688
   X70       37.54886   0.00525   0.00000   0.01385   0.01145  37.56030
   Y70       37.96460   0.00075   0.00000  -0.00391  -0.00334  37.96126
   Z70       46.88411  -0.00699   0.00000  -0.03004  -0.03136  46.85275
   X71       43.10465  -0.01131   0.00000  -0.00307  -0.00393  43.10072
   Y71       31.52063  -0.02023   0.00000  -0.02148  -0.02498  31.49565
   Z71       33.29697  -0.00893   0.00000  -0.03009  -0.02884  33.26813
   X72       42.55663   0.00386   0.00000   0.01977   0.01929  42.57592
   Y72       32.55998   0.00493   0.00000   0.00576   0.00198  32.56196
   Z72       31.91747  -0.00937   0.00000  -0.03007  -0.02918  31.88830
   X73       44.33298   0.00494   0.00000  -0.02542  -0.02630  44.30668
   Y73       32.52219   0.01406   0.00000   0.02020   0.01676  32.53895
   Z73       34.14735   0.00869   0.00000   0.01126   0.01246  34.15981
   X74       43.12355   0.01072   0.00000   0.02242   0.02046  43.14402
   Y74       28.27030  -0.02066   0.00000  -0.02268  -0.02525  28.24505
   Z74       37.07643   0.00860   0.00000   0.01528   0.01734  37.09376
   X75       43.04796  -0.00186   0.00000   0.00043  -0.00121  43.04675
   Y75       28.23251   0.01008   0.00000   0.03299   0.02998  28.26249
   Z75       35.26229  -0.00183   0.00000   0.00812   0.01016  35.27245
   X76       42.44325  -0.00694   0.00000  -0.00758  -0.00940  42.43385
   Y76       29.87657   0.00943   0.00000  -0.00818  -0.01055  29.86602
   Z76       37.52996  -0.00005   0.00000   0.00240   0.00394  37.53390
   X77       45.59909   0.01636   0.00000   0.01548   0.01586  45.61495
   Y77       39.49528  -0.01974   0.00000  -0.01193  -0.01606  39.47922
   Z77       32.08755   0.00433   0.00000   0.00547   0.00519  32.09274
   X78       45.18335  -0.00397   0.00000  -0.01036  -0.00977  45.17358
   Y78       38.85277  -0.00375   0.00000  -0.01356  -0.01804  38.83473
   Z78       30.44349  -0.00281   0.00000   0.00477   0.00457  30.44806
   X79       44.61643  -0.00944   0.00000   0.00831   0.00886  44.62530
   Y79       40.98816   0.02106   0.00000   0.02620   0.02224  41.01040
   Z79       32.25763  -0.00244   0.00000  -0.01348  -0.01431  32.24332
   X80       27.57110  -0.01783   0.00000  -0.04347  -0.04472  27.52638
   Y80       35.67803   0.00111   0.00000  -0.03345  -0.03363  35.64440
   Z80       38.55041   0.00482   0.00000   0.01332   0.01081  38.56123
   X81       27.26875   0.00168   0.00000   0.00970   0.00875  27.27749
   Y81       35.48906  -0.00005   0.00000   0.00462   0.00404  35.49309
   Z81       36.77407  -0.00639   0.00000  -0.00792  -0.01043  36.76364
   X82       28.91281   0.01223   0.00000   0.01969   0.01823  28.93104
   Y82       34.52530  -0.00611   0.00000   0.00576   0.00549  34.53079
   Z82       38.90946   0.00171   0.00000   0.00209   0.00010  38.90956
   X83       34.24184  -0.01607   0.00000  -0.01324  -0.01410  34.22774
   Y83       29.70649  -0.00454   0.00000  -0.00339  -0.00607  29.70043
   Z83       31.93637   0.00214   0.00000  -0.00643  -0.00630  31.93007
   X84       35.48906   0.00818   0.00000   0.00886   0.00783  35.49689
   Y84       28.40258  -0.00533   0.00000  -0.00141  -0.00426  28.39832
   Z84       31.93637  -0.00078   0.00000  -0.00204  -0.00136  31.93501
   X85       35.14891   0.00985   0.00000   0.01681   0.01623  35.16514
   Y85       31.18048   0.00936   0.00000   0.01054   0.00762  31.18810
   Z85       31.42615   0.00201   0.00000   0.02356   0.02349  31.44964
   X86       43.21804  -0.00663   0.00000  -0.00795  -0.01046  43.20757
   Y86       37.66224   0.03556   0.00000   0.03636   0.03630  37.69854
   Z86       47.28095   0.01681   0.00000   0.01590   0.01564  47.29658
   X87       44.99438   0.00638   0.00000   0.00520   0.00263  44.99701
   Y87       37.68114  -0.00015   0.00000   0.01104   0.01082  37.69196
   Z87       47.60220  -0.00043   0.00000  -0.00080  -0.00074  47.60146
   X88       42.93458   0.00043   0.00000   0.01180   0.00923  42.94380
   Y88       36.09377  -0.02713   0.00000  -0.00830  -0.00855  36.08522
   Z88       46.43057  -0.01658   0.00000  -0.01582  -0.01573  46.41484
   X89       35.58354  -0.01688   0.00000  -0.04178  -0.04439  35.53915
   Y89       26.58845  -0.00931   0.00000   0.00255   0.00158  26.59003
   Z89       39.57087   0.00889   0.00000   0.00870   0.00983  39.58069
   X90       35.65913   0.00432   0.00000   0.01277   0.01052  35.66965
   Y90       26.89080   0.00595   0.00000   0.01345   0.01203  26.90283
   Z90       37.79452  -0.00735   0.00000  -0.00108   0.00000  37.79452
   X91       36.66069   0.01017   0.00000   0.02590   0.02332  36.68401
   Y91       27.85456  -0.00015   0.00000  -0.02959  -0.03053  27.82404
   Z91       40.28896   0.00046   0.00000  -0.00173  -0.00070  40.28826
   X92       36.47171  -0.02037   0.00000  -0.03079  -0.02911  36.44260
   Y92       41.89523  -0.00456   0.00000   0.01003   0.00573  41.90096
   Z92       26.55065  -0.01331   0.00000  -0.00615  -0.00863  26.54202
   X93       37.35989   0.01157   0.00000   0.01513   0.01646  37.37634
   Y93       41.15824  -0.00650   0.00000  -0.00781  -0.01188  41.14635
   Z93       27.94905   0.00866   0.00000  -0.01096  -0.01310  27.93595
   X94       37.26540   0.00784   0.00000   0.00715   0.00908  37.27448
   Y94       43.48260   0.01174   0.00000   0.01362   0.00915  43.49175
   Z94       26.28609  -0.00065   0.00000  -0.00069  -0.00343  26.28266
   X95       34.90324  -0.01605   0.00000  -0.02559  -0.02737  34.87587
   Y95       43.65267   0.02829   0.00000   0.02902   0.03010  43.68278
   Z95       47.52661   0.01322   0.00000   0.01838   0.01518  47.54179
   X96       35.58354   0.01480   0.00000   0.03276   0.03075  35.61429
   Y96       41.98971  -0.01598   0.00000   0.01321   0.01421  42.00392
   Z96       47.60220  -0.00557   0.00000  -0.00688  -0.00954  47.59266
   X97       34.88434   0.00249   0.00000   0.00459   0.00317  34.88751
   Y97       44.06841  -0.00764   0.00000  -0.02331  -0.02267  44.04574
   Z97       45.76917  -0.00821   0.00000  -0.00503  -0.00832  45.76085
         Item               Value     Threshold  Converged?
 Maximum Force            0.035555     0.000450     NO 
 RMS     Force            0.010297     0.000300     NO 
 Maximum Displacement     0.081488     0.001800     NO 
 RMS     Displacement     0.017517     0.001200     NO 
 Predicted change in Energy=-2.826985D-02
 GradGradGradGradGradGradGradGradGradGradGradGradGradGradGradGradGradGrad

 Leave Link  103 at Thu May  3 04:26:01 2018, MaxMem= 14763950080 cpu:        74.7
 (Enter /cm/shared/gaussian/g09.e01/intel64-sandybridge/g09/l9999.exe)
 1\1\GINC-POPLE03\Force\RPBE1PBE\CC-pVDZ\Br1H64O32(1-)\M.PELUSO\03-May-
 2018\0\\#p PBE1PBE/cc-pvDZ force Counterpoise=2 noSymm\\forces on chlo
 ride comput - NWATER: 32\\-1,1\Br,20.,20.,20.\O,17.79,22.03,20.71\H,18
 .35,21.28,20.52\H,18.35,22.62,21.22\O,19.42,18.34,17.43\H,19.66,18.85,
 18.2\H,18.81,18.89,16.95\O,20.11,18.71,22.95\H,20.22,19.07,22.06\H,19.
 35,18.13,22.88\O,21.58,22.79,19.7\H,20.79,23.31,19.59\H,21.26,21.9,19.
 84\O,17.12,18.01,19.67\H,17.89,18.56,19.53\H,16.52,18.26,18.97\O,23.34
 ,19.06,18.89\H,22.49,19.43,19.13\H,23.76,19.73,18.35\O,18.34,22.16,17.
 77\H,17.53,22.66,17.65\H,18.34,21.93,18.7\O,20.26,16.43,20.18\H,19.53,
 16.92,20.57\H,20.14,16.55,19.23\O,20.6,21.23,16.25\H,21.18,21.98,16.39
 \H,19.78,21.49,16.67\O,21.52,18.46,15.67\H,21.34,19.37,15.41\H,21.22,1
 8.41,16.58\O,24.02,17.81,21.25\H,24.59,17.1,20.93\H,23.84,18.33,20.47\
 O,15.38,21.3,21.16\H,15.26,20.4,20.85\H,16.14,21.62,20.67\O,22.53,17.7
 4,23.68\H,21.63,17.9,23.39\H,23.02,17.63,22.87\O,18.02,17.16,22.72\H,1
 7.62,16.66,23.42\H,17.61,16.83,21.92\O,16.45,19.23,23.37\H,16.59,20.01
 ,22.83\H,17.02,18.57,22.99\O,22.63,23.19,17.15\H,22.48,24.1,16.88\H,22
 .43,23.18,18.08\O,19.24,23.87,22.19\H,18.78,24.64,22.52\H,20.15,24.,22
 .47\O,25.13,20.32,21.48\H,25.62,20.77,22.17\H,24.22,20.59,21.62\O,20.5
 7,15.43,23.07\H,20.23,15.74,23.91\H,20.36,16.14,22.46\O,23.81,23.27,21
 .84\H,23.5,24.16,22.03\H,23.31,23.01,21.06\O,15.8,19.58,17.82\H,15.92,
 20.52,17.9\H,16.44,19.31,17.16\O,20.09,24.62,18.58\H,20.27,25.5,18.26\
 H,19.21,24.42,18.27\O,20.13,21.02,24.78\H,21.07,21.,24.61\H,19.87,20.0
 9,24.81\O,22.81,16.68,17.62\H,22.52,17.23,16.89\H,23.46,17.21,18.07\O,
 22.82,14.96,19.62\H,22.78,14.94,18.66\H,22.46,15.81,19.86\O,24.13,20.9
 ,16.98\H,23.91,20.56,16.11\H,23.61,21.69,17.07\O,14.59,18.88,20.4\H,14
 .43,18.78,19.46\H,15.3,18.27,20.59\O,18.12,15.72,16.9\H,18.78,15.03,16
 .9\H,18.6,16.5,16.63\O,22.87,19.93,25.02\H,23.81,19.94,25.19\H,22.72,1
 9.1,24.57\O,18.83,14.07,20.94\H,18.87,14.23,20.\H,19.4,14.74,21.32\O,1
 9.3,22.17,14.05\H,19.77,21.78,14.79\H,19.72,23.01,13.91\O,18.47,23.1,2
 5.15\H,18.83,22.22,25.19\H,18.46,23.32,24.22\\Version=ES64L-G09RevE.01
 \HF=-2443.1963032\RMSD=3.361e-09\RMSF=1.030e-02\Dipole=-0.027338,6.290
 7368,-5.2105781\Quadrupole=-67.3322339,522.2255834,-454.8933494,-1159.
 6518957,-1632.6626796,-1396.3076682\PG=C01 [X(Br1H64O32)]\\@


 GOD GAVE US TWO ENDS... ONE TO SIT ON...    
 AND THE OTHER TO THINK WITH...              
 YOUR SUCCESS DEPENDS UPON WHICH END YOU     
 USE THE MOST...                             
                                             
 IT'S A CASE OF HEADS YOU WIN TAILS YOU LOSE.
          SOURCE UNKNOWN(IT'S JUST AS WELL.) 
 Job cpu time:       0 days 11 hours 44 minutes 45.1 seconds.
 File lengths (MBytes):  RWF=    482 Int=      0 D2E=      0 Chk=    160 Scr=      1
 Normal termination of Gaussian 09 at Thu May  3 04:26:02 2018.
