 Entering Gaussian System, Link 0=/cm/shared/gaussian/g09.e01/intel64-sandybridge/g09/g09
 Initial command:
 /cm/shared/gaussian/g09.e01/intel64-sandybridge/g09/l1.exe "/local/scratch/m.peluso/32_wat/Gau-38555.inp" -scrdir="/local/scratch/m.peluso/32_wat/"
 Entering Link 1 = /cm/shared/gaussian/g09.e01/intel64-sandybridge/g09/l1.exe PID=     38556.
  
 Copyright (c) 1988,1990,1992,1993,1995,1998,2003,2009,2015,
            Gaussian, Inc.  All Rights Reserved.
  
 This is part of the Gaussian(R) 09 program.  It is based on
 the Gaussian(R) 03 system (copyright 2003, Gaussian, Inc.),
 the Gaussian(R) 98 system (copyright 1998, Gaussian, Inc.),
 the Gaussian(R) 94 system (copyright 1995, Gaussian, Inc.),
 the Gaussian 92(TM) system (copyright 1992, Gaussian, Inc.),
 the Gaussian 90(TM) system (copyright 1990, Gaussian, Inc.),
 the Gaussian 88(TM) system (copyright 1988, Gaussian, Inc.),
 the Gaussian 86(TM) system (copyright 1986, Carnegie Mellon
 University), and the Gaussian 82(TM) system (copyright 1983,
 Carnegie Mellon University). Gaussian is a federally registered
 trademark of Gaussian, Inc.
  
 This software contains proprietary and confidential information,
 including trade secrets, belonging to Gaussian, Inc.
  
 This software is provided under written license and may be
 used, copied, transmitted, or stored only in accord with that
 written license.
  
 The following legend is applicable only to US Government
 contracts under FAR:
  
                    RESTRICTED RIGHTS LEGEND
  
 Use, reproduction and disclosure by the US Government is
 subject to restrictions as set forth in subparagraphs (a)
 and (c) of the Commercial Computer Software - Restricted
 Rights clause in FAR 52.227-19.
  
 Gaussian, Inc.
 340 Quinnipiac St., Bldg. 40, Wallingford CT 06492
  
  
 ---------------------------------------------------------------
 Warning -- This program may not be used in any manner that
 competes with the business of Gaussian, Inc. or will provide
 assistance to any competitor of Gaussian, Inc.  The licensee
 of this program is prohibited from giving any competitor of
 Gaussian, Inc. access to this program.  By using this program,
 the user acknowledges that Gaussian, Inc. is engaged in the
 business of creating and licensing software in the field of
 computational chemistry and represents and warrants to the
 licensee that it is not a competitor of Gaussian, Inc. and that
 it will not use this program in any manner prohibited above.
 ---------------------------------------------------------------
  

 Cite this work as:
 Gaussian 09, Revision E.01,
 M. J. Frisch, G. W. Trucks, H. B. Schlegel, G. E. Scuseria, 
 M. A. Robb, J. R. Cheeseman, G. Scalmani, V. Barone, B. Mennucci, 
 G. A. Petersson, H. Nakatsuji, M. Caricato, X. Li, H. P. Hratchian, 
 A. F. Izmaylov, J. Bloino, G. Zheng, J. L. Sonnenberg, M. Hada, 
 M. Ehara, K. Toyota, R. Fukuda, J. Hasegawa, M. Ishida, T. Nakajima, 
 Y. Honda, O. Kitao, H. Nakai, T. Vreven, J. A. Montgomery, Jr., 
 J. E. Peralta, F. Ogliaro, M. Bearpark, J. J. Heyd, E. Brothers, 
 K. N. Kudin, V. N. Staroverov, T. Keith, R. Kobayashi, J. Normand, 
 K. Raghavachari, A. Rendell, J. C. Burant, S. S. Iyengar, J. Tomasi, 
 M. Cossi, N. Rega, J. M. Millam, M. Klene, J. E. Knox, J. B. Cross, 
 V. Bakken, C. Adamo, J. Jaramillo, R. Gomperts, R. E. Stratmann, 
 O. Yazyev, A. J. Austin, R. Cammi, C. Pomelli, J. W. Ochterski, 
 R. L. Martin, K. Morokuma, V. G. Zakrzewski, G. A. Voth, 
 P. Salvador, J. J. Dannenberg, S. Dapprich, A. D. Daniels, 
 O. Farkas, J. B. Foresman, J. V. Ortiz, J. Cioslowski, 
 and D. J. Fox, Gaussian, Inc., Wallingford CT, 2013.
 
 ******************************************
 Gaussian 09:  ES64L-G09RevE.01 30-Nov-2015
                 3-May-2018 
 ******************************************
 %Mem=110GB
 %NProcShared=64
 Will use up to   64 processors via shared memory.
 %chk=snap91.chk
 ----------------------------------------------
 #p PBE1PBE/cc-pvDZ force Counterpoise=2 noSymm
 ----------------------------------------------
 1/10=7,30=1,38=1,62=2/1,3;
 2/12=2,15=1,17=6,18=5,40=1/2;
 1/10=7,30=1,38=1,53=2,62=2,63=101/22;
 3/5=16,11=2,16=1,25=1,30=1,71=1,74=-13/1,2,3;
 4//1;
 5/5=2,38=5/2;
 6/7=2,8=2,9=2,10=2,28=1/1;
 7/7=1,29=1,30=1,33=-1/1,2,3,16;
 1/10=7,30=1,53=2,62=2,63=101/22;
 3/5=7,6=11,11=2,16=1,25=1,30=1,71=1,74=-13,82=7/1,2,3;
 4//1;
 5/5=2,38=5/2;
 6/7=2,8=2,9=2,10=2,28=1/1;
 7/7=1,29=1,30=1,33=-1/1,2,3,16;
 1/10=7,30=1,53=2,62=2,63=101/22(-5);
 7/9=1,29=1,44=-1/16;
 1/10=7,30=1,62=2/3;
 99//99;
 Leave Link    1 at Thu May  3 00:57:09 2018, MaxMem= 14763950080 cpu:         6.2
 (Enter /cm/shared/gaussian/g09.e01/intel64-sandybridge/g09/l101.exe)
 --------------------------------------
 forces on chloride comput - NWATER: 32
 --------------------------------------
 Symbolic Z-matrix:
 Charge = -1 Multiplicity = 1 in supermolecule
 Charge = -1 Multiplicity = 1 in fragment      1.
 Charge =  0 Multiplicity = 1 in fragment      2.
 Br(Fragment=1)        20.       20.       20. 
 O(Fragment=2)         22.61     20.97     18.51 
 H(Fragment=2)         22.24     21.65     17.95 
 H(Fragment=2)         21.86     20.46     18.81 
 O(Fragment=2)         21.94     17.74     21.31 
 H(Fragment=2)         22.72     18.19     20.98 
 H(Fragment=2)         21.2      18.23     20.95 
 O(Fragment=2)         18.21     18.65     17.53 
 H(Fragment=2)         18.66     19.03     18.28 
 H(Fragment=2)         18.71     17.86     17.32 
 O(Fragment=2)         22.42     21.21     21.76 
 H(Fragment=2)         21.71     21.74     22.13 
 H(Fragment=2)         21.99     20.56     21.21 
 O(Fragment=2)         17.95     22.25     21.21 
 H(Fragment=2)         18.72     22.78     21.02 
 H(Fragment=2)         18.25     21.35     21.08 
 O(Fragment=2)         18.15     19.66     22.92 
 H(Fragment=2)         18.82     19.77     22.24 
 H(Fragment=2)         17.71     20.51     22.96 
 O(Fragment=2)         17.67     21.78     18. 
 H(Fragment=2)         18.32     21.66     18.69 
 H(Fragment=2)         18.04     21.33     17.24 
 O(Fragment=2)         15.97     19.66     19.66 
 H(Fragment=2)         16.66     19.29     19.11 
 H(Fragment=2)         15.2      19.66     19.1 
 O(Fragment=2)         19.93     23.87     19.26 
 H(Fragment=2)         19.86     24.61     19.87 
 H(Fragment=2)         20.76     23.45     19.51 
 O(Fragment=2)         19.28     16.43     20.52 
 H(Fragment=2)         18.42     16.57     20.9 
 H(Fragment=2)         19.89     16.55     21.24 
 O(Fragment=2)         20.35     16.67     18.03 
 H(Fragment=2)         20.91     15.92     17.82 
 H(Fragment=2)         20.       16.47     18.9 
 O(Fragment=2)         24.18     19.24     19.91 
 H(Fragment=2)         23.73     19.75     19.23 
 H(Fragment=2)         24.98     19.73     20.08 
 O(Fragment=2)         21.03     22.75     17.01 
 H(Fragment=2)         20.21     22.98     17.45 
 H(Fragment=2)         20.75     22.31     16.21 
 O(Fragment=2)         17.62     16.92     22.69 
 H(Fragment=2)         17.53     17.88     22.66 
 H(Fragment=2)         17.78     16.73     23.61 
 O(Fragment=2)         20.49     23.05     22.88 
 H(Fragment=2)         20.95     23.88     22.78 
 H(Fragment=2)         20.31     22.99     23.82 
 O(Fragment=2)         20.93     20.51     15.41 
 H(Fragment=2)         20.99     19.59     15.69 
 H(Fragment=2)         21.29     20.51     14.52 
 O(Fragment=2)         23.37     16.79     18.54 
 H(Fragment=2)         22.61     16.97     17.98 
 H(Fragment=2)         23.73     17.66     18.73 
 O(Fragment=2)         23.88     19.3      23.74 
 H(Fragment=2)         23.4      19.71     23.02 
 H(Fragment=2)         24.61     19.91     23.91 
 O(Fragment=2)         21.08     17.81     15.42 
 H(Fragment=2)         20.52     17.48     16.13 
 H(Fragment=2)         21.88     17.28     15.49 
 O(Fragment=2)         21.89     15.02     21.23 
 H(Fragment=2)         21.87     15.97     21.39 
 H(Fragment=2)         22.06     14.94     20.29 
 O(Fragment=2)         17.64     19.94     15.06 
 H(Fragment=2)         17.9      19.51     15.87 
 H(Fragment=2)         18.43     19.95     14.52 
 O(Fragment=2)         15.18     20.88     21.82 
 H(Fragment=2)         16.       21.28     22.11 
 H(Fragment=2)         15.4      20.45     20.99 
 O(Fragment=2)         14.9      21.71     17.94 
 H(Fragment=2)         15.75     21.43     18.26 
 H(Fragment=2)         14.8      21.28     17.09 
 O(Fragment=2)         24.03     23.13     22.85 
 H(Fragment=2)         23.48     22.52     22.35 
 H(Fragment=2)         24.55     22.57     23.43 
 O(Fragment=2)         16.11     16.47     17.25 
 H(Fragment=2)         16.56     17.25     17.57 
 H(Fragment=2)         15.46     16.8      16.64 
 O(Fragment=2)         21.76     17.       24.61 
 H(Fragment=2)         21.29     16.8      23.79 
 H(Fragment=2)         22.67     17.08     24.34 
 O(Fragment=2)         15.67     24.23     18.76 
 H(Fragment=2)         16.38     23.6      18.89 
 H(Fragment=2)         14.92     23.69     18.52 
 O(Fragment=2)         16.82     24.92     22.08 
 H(Fragment=2)         17.07     24.       22. 
 H(Fragment=2)         17.03     25.14     22.99 
 O(Fragment=2)         24.09     23.83     20.04 
 H(Fragment=2)         24.06     23.43     20.92 
 H(Fragment=2)         23.79     24.72     20.18 
 O(Fragment=2)         24.99     22.62     17.65 
 H(Fragment=2)         24.39     22.74     18.39 
 H(Fragment=2)         25.3      21.72     17.74 
 O(Fragment=2)         23.35     22.24     15.01 
 H(Fragment=2)         24.11     21.73     14.73 
 H(Fragment=2)         23.       21.75     15.76 
 O(Fragment=2)         21.05     21.73     25.52 
 H(Fragment=2)         21.43     20.85     25.45 
 H(Fragment=2)         21.73     22.26     25.92 
 
 NAtoms=     97 NQM=       97 NQMF=       0 NMMI=      0 NMMIF=      0
                NMic=       0 NMicF=      0.
                    Isotopes and Nuclear Properties:
 (Nuclear quadrupole moments (NQMom) in fm**2, nuclear magnetic moments (NMagM)
  in nuclear magnetons)

  Atom         1           2           3           4           5           6           7           8           9          10
 IAtWgt=          79          16           1           1          16           1           1          16           1           1
 AtmWgt=  78.9183361  15.9949146   1.0078250   1.0078250  15.9949146   1.0078250   1.0078250  15.9949146   1.0078250   1.0078250
 NucSpn=           3           0           1           1           0           1           1           0           1           1
 AtZEff=   0.0000000   0.0000000   0.0000000   0.0000000   0.0000000   0.0000000   0.0000000   0.0000000   0.0000000   0.0000000
 NQMom=   31.3000000   0.0000000   0.0000000   0.0000000   0.0000000   0.0000000   0.0000000   0.0000000   0.0000000   0.0000000
 NMagM=    2.1063990   0.0000000   2.7928460   2.7928460   0.0000000   2.7928460   2.7928460   0.0000000   2.7928460   2.7928460
 AtZNuc=  35.0000000   8.0000000   1.0000000   1.0000000   8.0000000   1.0000000   1.0000000   8.0000000   1.0000000   1.0000000

  Atom        11          12          13          14          15          16          17          18          19          20
 IAtWgt=          16           1           1          16           1           1          16           1           1          16
 AtmWgt=  15.9949146   1.0078250   1.0078250  15.9949146   1.0078250   1.0078250  15.9949146   1.0078250   1.0078250  15.9949146
 NucSpn=           0           1           1           0           1           1           0           1           1           0
 AtZEff=   0.0000000   0.0000000   0.0000000   0.0000000   0.0000000   0.0000000   0.0000000   0.0000000   0.0000000   0.0000000
 NQMom=    0.0000000   0.0000000   0.0000000   0.0000000   0.0000000   0.0000000   0.0000000   0.0000000   0.0000000   0.0000000
 NMagM=    0.0000000   2.7928460   2.7928460   0.0000000   2.7928460   2.7928460   0.0000000   2.7928460   2.7928460   0.0000000
 AtZNuc=   8.0000000   1.0000000   1.0000000   8.0000000   1.0000000   1.0000000   8.0000000   1.0000000   1.0000000   8.0000000

  Atom        21          22          23          24          25          26          27          28          29          30
 IAtWgt=           1           1          16           1           1          16           1           1          16           1
 AtmWgt=   1.0078250   1.0078250  15.9949146   1.0078250   1.0078250  15.9949146   1.0078250   1.0078250  15.9949146   1.0078250
 NucSpn=           1           1           0           1           1           0           1           1           0           1
 AtZEff=   0.0000000   0.0000000   0.0000000   0.0000000   0.0000000   0.0000000   0.0000000   0.0000000   0.0000000   0.0000000
 NQMom=    0.0000000   0.0000000   0.0000000   0.0000000   0.0000000   0.0000000   0.0000000   0.0000000   0.0000000   0.0000000
 NMagM=    2.7928460   2.7928460   0.0000000   2.7928460   2.7928460   0.0000000   2.7928460   2.7928460   0.0000000   2.7928460
 AtZNuc=   1.0000000   1.0000000   8.0000000   1.0000000   1.0000000   8.0000000   1.0000000   1.0000000   8.0000000   1.0000000

  Atom        31          32          33          34          35          36          37          38          39          40
 IAtWgt=           1          16           1           1          16           1           1          16           1           1
 AtmWgt=   1.0078250  15.9949146   1.0078250   1.0078250  15.9949146   1.0078250   1.0078250  15.9949146   1.0078250   1.0078250
 NucSpn=           1           0           1           1           0           1           1           0           1           1
 AtZEff=   0.0000000   0.0000000   0.0000000   0.0000000   0.0000000   0.0000000   0.0000000   0.0000000   0.0000000   0.0000000
 NQMom=    0.0000000   0.0000000   0.0000000   0.0000000   0.0000000   0.0000000   0.0000000   0.0000000   0.0000000   0.0000000
 NMagM=    2.7928460   0.0000000   2.7928460   2.7928460   0.0000000   2.7928460   2.7928460   0.0000000   2.7928460   2.7928460
 AtZNuc=   1.0000000   8.0000000   1.0000000   1.0000000   8.0000000   1.0000000   1.0000000   8.0000000   1.0000000   1.0000000

  Atom        41          42          43          44          45          46          47          48          49          50
 IAtWgt=          16           1           1          16           1           1          16           1           1          16
 AtmWgt=  15.9949146   1.0078250   1.0078250  15.9949146   1.0078250   1.0078250  15.9949146   1.0078250   1.0078250  15.9949146
 NucSpn=           0           1           1           0           1           1           0           1           1           0
 AtZEff=   0.0000000   0.0000000   0.0000000   0.0000000   0.0000000   0.0000000   0.0000000   0.0000000   0.0000000   0.0000000
 NQMom=    0.0000000   0.0000000   0.0000000   0.0000000   0.0000000   0.0000000   0.0000000   0.0000000   0.0000000   0.0000000
 NMagM=    0.0000000   2.7928460   2.7928460   0.0000000   2.7928460   2.7928460   0.0000000   2.7928460   2.7928460   0.0000000
 AtZNuc=   8.0000000   1.0000000   1.0000000   8.0000000   1.0000000   1.0000000   8.0000000   1.0000000   1.0000000   8.0000000

  Atom        51          52          53          54          55          56          57          58          59          60
 IAtWgt=           1           1          16           1           1          16           1           1          16           1
 AtmWgt=   1.0078250   1.0078250  15.9949146   1.0078250   1.0078250  15.9949146   1.0078250   1.0078250  15.9949146   1.0078250
 NucSpn=           1           1           0           1           1           0           1           1           0           1
 AtZEff=   0.0000000   0.0000000   0.0000000   0.0000000   0.0000000   0.0000000   0.0000000   0.0000000   0.0000000   0.0000000
 NQMom=    0.0000000   0.0000000   0.0000000   0.0000000   0.0000000   0.0000000   0.0000000   0.0000000   0.0000000   0.0000000
 NMagM=    2.7928460   2.7928460   0.0000000   2.7928460   2.7928460   0.0000000   2.7928460   2.7928460   0.0000000   2.7928460
 AtZNuc=   1.0000000   1.0000000   8.0000000   1.0000000   1.0000000   8.0000000   1.0000000   1.0000000   8.0000000   1.0000000

  Atom        61          62          63          64          65          66          67          68          69          70
 IAtWgt=           1          16           1           1          16           1           1          16           1           1
 AtmWgt=   1.0078250  15.9949146   1.0078250   1.0078250  15.9949146   1.0078250   1.0078250  15.9949146   1.0078250   1.0078250
 NucSpn=           1           0           1           1           0           1           1           0           1           1
 AtZEff=   0.0000000   0.0000000   0.0000000   0.0000000   0.0000000   0.0000000   0.0000000   0.0000000   0.0000000   0.0000000
 NQMom=    0.0000000   0.0000000   0.0000000   0.0000000   0.0000000   0.0000000   0.0000000   0.0000000   0.0000000   0.0000000
 NMagM=    2.7928460   0.0000000   2.7928460   2.7928460   0.0000000   2.7928460   2.7928460   0.0000000   2.7928460   2.7928460
 AtZNuc=   1.0000000   8.0000000   1.0000000   1.0000000   8.0000000   1.0000000   1.0000000   8.0000000   1.0000000   1.0000000

  Atom        71          72          73          74          75          76          77          78          79          80
 IAtWgt=          16           1           1          16           1           1          16           1           1          16
 AtmWgt=  15.9949146   1.0078250   1.0078250  15.9949146   1.0078250   1.0078250  15.9949146   1.0078250   1.0078250  15.9949146
 NucSpn=           0           1           1           0           1           1           0           1           1           0
 AtZEff=   0.0000000   0.0000000   0.0000000   0.0000000   0.0000000   0.0000000   0.0000000   0.0000000   0.0000000   0.0000000
 NQMom=    0.0000000   0.0000000   0.0000000   0.0000000   0.0000000   0.0000000   0.0000000   0.0000000   0.0000000   0.0000000
 NMagM=    0.0000000   2.7928460   2.7928460   0.0000000   2.7928460   2.7928460   0.0000000   2.7928460   2.7928460   0.0000000
 AtZNuc=   8.0000000   1.0000000   1.0000000   8.0000000   1.0000000   1.0000000   8.0000000   1.0000000   1.0000000   8.0000000

  Atom        81          82          83          84          85          86          87          88          89          90
 IAtWgt=           1           1          16           1           1          16           1           1          16           1
 AtmWgt=   1.0078250   1.0078250  15.9949146   1.0078250   1.0078250  15.9949146   1.0078250   1.0078250  15.9949146   1.0078250
 NucSpn=           1           1           0           1           1           0           1           1           0           1
 AtZEff=   0.0000000   0.0000000   0.0000000   0.0000000   0.0000000   0.0000000   0.0000000   0.0000000   0.0000000   0.0000000
 NQMom=    0.0000000   0.0000000   0.0000000   0.0000000   0.0000000   0.0000000   0.0000000   0.0000000   0.0000000   0.0000000
 NMagM=    2.7928460   2.7928460   0.0000000   2.7928460   2.7928460   0.0000000   2.7928460   2.7928460   0.0000000   2.7928460
 AtZNuc=   1.0000000   1.0000000   8.0000000   1.0000000   1.0000000   8.0000000   1.0000000   1.0000000   8.0000000   1.0000000

  Atom        91          92          93          94          95          96          97
 IAtWgt=           1          16           1           1          16           1           1
 AtmWgt=   1.0078250  15.9949146   1.0078250   1.0078250  15.9949146   1.0078250   1.0078250
 NucSpn=           1           0           1           1           0           1           1
 AtZEff=   0.0000000   0.0000000   0.0000000   0.0000000   0.0000000   0.0000000   0.0000000
 NQMom=    0.0000000   0.0000000   0.0000000   0.0000000   0.0000000   0.0000000   0.0000000
 NMagM=    2.7928460   0.0000000   2.7928460   2.7928460   0.0000000   2.7928460   2.7928460
 AtZNuc=   1.0000000   8.0000000   1.0000000   1.0000000   8.0000000   1.0000000   1.0000000
 Leave Link  101 at Thu May  3 00:57:10 2018, MaxMem= 14763950080 cpu:        12.6
 (Enter /cm/shared/gaussian/g09.e01/intel64-sandybridge/g09/l103.exe)

 GradGradGradGradGradGradGradGradGradGradGradGradGradGradGradGradGradGrad
 Berny optimization.
 Initialization pass.
 Trust Radius=3.00D-01 FncErr=1.00D-07 GrdErr=1.00D-07
 Number of steps in this run=      2 maximum allowed number of steps=      2.
 GradGradGradGradGradGradGradGradGradGradGradGradGradGradGradGradGradGrad

 Leave Link  103 at Thu May  3 00:57:10 2018, MaxMem= 14763950080 cpu:         1.7
 (Enter /cm/shared/gaussian/g09.e01/intel64-sandybridge/g09/l202.exe)
 Symmetry turned off by external request.
 Stoichiometry    BrH64O32(1-)
 Framework group  C1[X(BrH64O32)]
 Deg. of freedom   285
 Full point group                 C1      NOp   1
                          Input orientation:                          
 ---------------------------------------------------------------------
 Center     Atomic      Atomic             Coordinates (Angstroms)
 Number     Number       Type             X           Y           Z
 ---------------------------------------------------------------------
      1         35           0       20.000000   20.000000   20.000000
      2          8           0       22.610000   20.970000   18.510000
      3          1           0       22.240000   21.650000   17.950000
      4          1           0       21.860000   20.460000   18.810000
      5          8           0       21.940000   17.740000   21.310000
      6          1           0       22.720000   18.190000   20.980000
      7          1           0       21.200000   18.230000   20.950000
      8          8           0       18.210000   18.650000   17.530000
      9          1           0       18.660000   19.030000   18.280000
     10          1           0       18.710000   17.860000   17.320000
     11          8           0       22.420000   21.210000   21.760000
     12          1           0       21.710000   21.740000   22.130000
     13          1           0       21.990000   20.560000   21.210000
     14          8           0       17.950000   22.250000   21.210000
     15          1           0       18.720000   22.780000   21.020000
     16          1           0       18.250000   21.350000   21.080000
     17          8           0       18.150000   19.660000   22.920000
     18          1           0       18.820000   19.770000   22.240000
     19          1           0       17.710000   20.510000   22.960000
     20          8           0       17.670000   21.780000   18.000000
     21          1           0       18.320000   21.660000   18.690000
     22          1           0       18.040000   21.330000   17.240000
     23          8           0       15.970000   19.660000   19.660000
     24          1           0       16.660000   19.290000   19.110000
     25          1           0       15.200000   19.660000   19.100000
     26          8           0       19.930000   23.870000   19.260000
     27          1           0       19.860000   24.610000   19.870000
     28          1           0       20.760000   23.450000   19.510000
     29          8           0       19.280000   16.430000   20.520000
     30          1           0       18.420000   16.570000   20.900000
     31          1           0       19.890000   16.550000   21.240000
     32          8           0       20.350000   16.670000   18.030000
     33          1           0       20.910000   15.920000   17.820000
     34          1           0       20.000000   16.470000   18.900000
     35          8           0       24.180000   19.240000   19.910000
     36          1           0       23.730000   19.750000   19.230000
     37          1           0       24.980000   19.730000   20.080000
     38          8           0       21.030000   22.750000   17.010000
     39          1           0       20.210000   22.980000   17.450000
     40          1           0       20.750000   22.310000   16.210000
     41          8           0       17.620000   16.920000   22.690000
     42          1           0       17.530000   17.880000   22.660000
     43          1           0       17.780000   16.730000   23.610000
     44          8           0       20.490000   23.050000   22.880000
     45          1           0       20.950000   23.880000   22.780000
     46          1           0       20.310000   22.990000   23.820000
     47          8           0       20.930000   20.510000   15.410000
     48          1           0       20.990000   19.590000   15.690000
     49          1           0       21.290000   20.510000   14.520000
     50          8           0       23.370000   16.790000   18.540000
     51          1           0       22.610000   16.970000   17.980000
     52          1           0       23.730000   17.660000   18.730000
     53          8           0       23.880000   19.300000   23.740000
     54          1           0       23.400000   19.710000   23.020000
     55          1           0       24.610000   19.910000   23.910000
     56          8           0       21.080000   17.810000   15.420000
     57          1           0       20.520000   17.480000   16.130000
     58          1           0       21.880000   17.280000   15.490000
     59          8           0       21.890000   15.020000   21.230000
     60          1           0       21.870000   15.970000   21.390000
     61          1           0       22.060000   14.940000   20.290000
     62          8           0       17.640000   19.940000   15.060000
     63          1           0       17.900000   19.510000   15.870000
     64          1           0       18.430000   19.950000   14.520000
     65          8           0       15.180000   20.880000   21.820000
     66          1           0       16.000000   21.280000   22.110000
     67          1           0       15.400000   20.450000   20.990000
     68          8           0       14.900000   21.710000   17.940000
     69          1           0       15.750000   21.430000   18.260000
     70          1           0       14.800000   21.280000   17.090000
     71          8           0       24.030000   23.130000   22.850000
     72          1           0       23.480000   22.520000   22.350000
     73          1           0       24.550000   22.570000   23.430000
     74          8           0       16.110000   16.470000   17.250000
     75          1           0       16.560000   17.250000   17.570000
     76          1           0       15.460000   16.800000   16.640000
     77          8           0       21.760000   17.000000   24.610000
     78          1           0       21.290000   16.800000   23.790000
     79          1           0       22.670000   17.080000   24.340000
     80          8           0       15.670000   24.230000   18.760000
     81          1           0       16.380000   23.600000   18.890000
     82          1           0       14.920000   23.690000   18.520000
     83          8           0       16.820000   24.920000   22.080000
     84          1           0       17.070000   24.000000   22.000000
     85          1           0       17.030000   25.140000   22.990000
     86          8           0       24.090000   23.830000   20.040000
     87          1           0       24.060000   23.430000   20.920000
     88          1           0       23.790000   24.720000   20.180000
     89          8           0       24.990000   22.620000   17.650000
     90          1           0       24.390000   22.740000   18.390000
     91          1           0       25.300000   21.720000   17.740000
     92          8           0       23.350000   22.240000   15.010000
     93          1           0       24.110000   21.730000   14.730000
     94          1           0       23.000000   21.750000   15.760000
     95          8           0       21.050000   21.730000   25.520000
     96          1           0       21.430000   20.850000   25.450000
     97          1           0       21.730000   22.260000   25.920000
 ---------------------------------------------------------------------
 Rotational constants (GHZ):      0.0602137      0.0547632      0.0530706
 Leave Link  202 at Thu May  3 00:57:10 2018, MaxMem= 14763950080 cpu:         0.5
 (Enter /cm/shared/gaussian/g09.e01/intel64-sandybridge/g09/l122.exe)
 Counterpoise: doing full dimer calculation.
 Leave Link  122 at Thu May  3 00:57:10 2018, MaxMem= 14763950080 cpu:         0.1
 (Enter /cm/shared/gaussian/g09.e01/intel64-sandybridge/g09/l301.exe)
 Standard basis: CC-pVDZ (5D, 7F)
 Ernie: Thresh=  0.10000D-02 Tol=  0.10000D-05 Strict=F.
 Ernie:  87 primitive shells out of 1114 were deleted.
   795 basis functions,  1651 primitive gaussians,   829 cartesian basis functions
   178 alpha electrons      178 beta electrons
       nuclear repulsion energy      6192.3752209830 Hartrees.
 IExCor= 1009 DFT=T Ex+Corr=PBE1PBE ExCW=0 ScaHFX=  0.250000
 ScaDFX=  0.750000  0.750000  1.000000  1.000000 ScalE2=  1.000000  1.000000
 IRadAn=      0 IRanWt=     -1 IRanGd=            0 ICorTp=0 IEmpDi=  4
 NAtoms=   97 NActive=   97 NUniq=   97 SFac= 1.00D+00 NAtFMM=   60 NAOKFM=T Big=T
 Integral buffers will be    131072 words long.
 Raffenetti 2 integral format.
 Two-electron integral symmetry is turned off.
 Leave Link  301 at Thu May  3 00:57:10 2018, MaxMem= 14763950080 cpu:         4.3
 (Enter /cm/shared/gaussian/g09.e01/intel64-sandybridge/g09/l302.exe)
 NPDir=0 NMtPBC=     1 NCelOv=     1 NCel=       1 NClECP=     1 NCelD=      1
         NCelK=      1 NCelE2=     1 NClLst=     1 CellRange=     0.0.
 One-electron integrals computed using PRISM.
 NBasis=   795 RedAO= T EigKep=  1.54D-02  NBF=   795
 NBsUse=   795 1.00D-06 EigRej= -1.00D+00 NBFU=   795
 Precomputing XC quadrature grid using
 IXCGrd= 4 IRadAn=           0 IRanWt=          -1 IRanGd=           0 AccXCQ= 0.00D+00.
 Generated NRdTot=       0 NPtTot=           0 NUsed=           0 NTot=          32
 NSgBfM=   733   733   736   750   756 MxSgAt=    97 MxSgA2=    97.
 Leave Link  302 at Thu May  3 00:57:16 2018, MaxMem= 14763950080 cpu:       408.4
 (Enter /cm/shared/gaussian/g09.e01/intel64-sandybridge/g09/l303.exe)
 DipDrv:  MaxL=1.
 Leave Link  303 at Thu May  3 00:57:17 2018, MaxMem= 14763950080 cpu:        29.3
 (Enter /cm/shared/gaussian/g09.e01/intel64-sandybridge/g09/l401.exe)
 ExpMin= 1.22D-01 ExpMax= 6.40D+05 ExpMxC= 6.18D+03 IAcc=2 IRadAn=         4 AccDes= 0.00D+00
 Harris functional with IExCor= 1009 and IRadAn=       4 diagonalized for initial guess.
 HarFok:  IExCor= 1009 AccDes= 0.00D+00 IRadAn=         4 IDoV= 1 UseB2=F ITyADJ=14
 ICtDFT=  3500011 ScaDFX=  1.000000  1.000000  1.000000  1.000000
 FoFCou: FMM=F IPFlag=           0 FMFlag=      100000 FMFlg1=        2001
         NFxFlg=           0 DoJE=T BraDBF=F KetDBF=T FulRan=T
         wScrn=  0.000000 ICntrl=     500 IOpCl=  0 I1Cent=   200000004 NGrid=           0
         NMat0=    1 NMatS0=      1 NMatT0=    0 NMatD0=    1 NMtDS0=    0 NMtDT0=    0
 Symmetry not used in FoFCou.
 Harris En= -5018.41257321679    
 JPrj=0 DoOrth=F DoCkMO=F.
 Leave Link  401 at Thu May  3 00:57:22 2018, MaxMem= 14763950080 cpu:       321.9
 (Enter /cm/shared/gaussian/g09.e01/intel64-sandybridge/g09/l502.exe)
 Closed shell SCF:
 Using DIIS extrapolation, IDIIS=  1040.
 Two-electron integral symmetry not used.
 IVT=     2138497 IEndB=     2138497 NGot= 14763950080 MDV= 14762516294
 LenX= 14762516294 LenY= 14761828224
 Requested convergence on RMS density matrix=1.00D-08 within 128 cycles.
 Requested convergence on MAX density matrix=1.00D-06.
 Requested convergence on             energy=1.00D-06.
 No special actions if energy rises.
 Fock matrices will be formed incrementally for  20 cycles.
 Integral accuracy reduced to 1.0D-05 until final iterations.

 Cycle   1  Pass 0  IDiag  1:
 FoFJK:  IHMeth= 1 ICntrl=       0 DoSepK=F KAlg= 0 I1Cent=   0 FoldK=F
 IRaf= 840000000 NMat=   1 IRICut=       1 DoRegI=T DoRafI=F ISym2E= 0.
 FoFCou: FMM=T IPFlag=           0 FMFlag=      100000 FMFlg1=        2001
         NFxFlg=           0 DoJE=F BraDBF=F KetDBF=F FulRan=T
         wScrn=  0.000000 ICntrl=       0 IOpCl=  0 I1Cent=           0 NGrid=           0
         NMat0=    1 NMatS0=      1 NMatT0=    0 NMatD0=    1 NMtDS0=    0 NMtDT0=    0
 Symmetry not used in FoFCou.
 FMM levels:  10  Number of levels for PrismC:   9
 E= -5015.29679466550    
 DIIS: error= 2.80D-02 at cycle   1 NSaved=   1.
 NSaved= 1 IEnMin= 1 EnMin= -5015.29679466550     IErMin= 1 ErrMin= 2.80D-02
 ErrMax= 2.80D-02  0.00D+00 EMaxC= 1.00D-01 BMatC= 2.72D+00 BMatP= 2.72D+00
 IDIUse=3 WtCom= 7.20D-01 WtEn= 2.80D-01
 Coeff-Com:  0.100D+01
 Coeff-En:   0.100D+01
 Coeff:      0.100D+01
 Gap=     0.307 Goal=   None    Shift=    0.000
 GapD=    0.307 DampG=1.000 DampE=0.500 DampFc=0.5000 IDamp=-1.
 Damping current iteration by 5.00D-01
 RMSDP=2.87D-03 MaxDP=1.57D-01              OVMax= 1.80D-01

 Cycle   2  Pass 0  IDiag  1:
 RMSU=  1.43D-03    CP:  9.85D-01
 E= -5016.08635748286     Delta-E=       -0.789562817354 Rises=F Damp=T
 DIIS: error= 7.40D-03 at cycle   2 NSaved=   2.
 NSaved= 2 IEnMin= 2 EnMin= -5016.08635748286     IErMin= 2 ErrMin= 7.40D-03
 ErrMax= 7.40D-03  0.00D+00 EMaxC= 1.00D-01 BMatC= 8.95D-02 BMatP= 2.72D+00
 IDIUse=3 WtCom= 9.26D-01 WtEn= 7.40D-02
 Coeff-Com:  0.122D+00 0.878D+00
 Coeff-En:   0.219D+00 0.781D+00
 Coeff:      0.130D+00 0.870D+00
 Gap=     0.207 Goal=   None    Shift=    0.000
 RMSDP=3.55D-04 MaxDP=1.94D-02 DE=-7.90D-01 OVMax= 9.72D-02

 Cycle   3  Pass 0  IDiag  1:
 RMSU=  2.72D-04    CP:  9.87D-01  8.41D-01
 E= -5017.24739404695     Delta-E=       -1.161036564090 Rises=F Damp=F
 DIIS: error= 1.17D-03 at cycle   3 NSaved=   3.
 NSaved= 3 IEnMin= 3 EnMin= -5017.24739404695     IErMin= 3 ErrMin= 1.17D-03
 ErrMax= 1.17D-03  0.00D+00 EMaxC= 1.00D-01 BMatC= 1.48D-03 BMatP= 8.95D-02
 IDIUse=3 WtCom= 9.88D-01 WtEn= 1.17D-02
 Coeff-Com:  0.792D-02 0.592D-01 0.933D+00
 Coeff-En:   0.000D+00 0.000D+00 0.100D+01
 Coeff:      0.783D-02 0.585D-01 0.934D+00
 Gap=     0.220 Goal=   None    Shift=    0.000
 RMSDP=8.92D-05 MaxDP=1.44D-02 DE=-1.16D+00 OVMax= 1.64D-02

 Cycle   4  Pass 0  IDiag  1:
 RMSU=  7.95D-05    CP:  9.88D-01  8.43D-01  8.52D-01
 E= -5017.24784250923     Delta-E=       -0.000448462284 Rises=F Damp=F
 DIIS: error= 8.27D-04 at cycle   4 NSaved=   4.
 NSaved= 4 IEnMin= 4 EnMin= -5017.24784250923     IErMin= 4 ErrMin= 8.27D-04
 ErrMax= 8.27D-04  0.00D+00 EMaxC= 1.00D-01 BMatC= 1.37D-03 BMatP= 1.48D-03
 IDIUse=3 WtCom= 9.92D-01 WtEn= 8.27D-03
 Coeff-Com:  0.181D-02 0.723D-02 0.488D+00 0.503D+00
 Coeff-En:   0.000D+00 0.000D+00 0.411D+00 0.589D+00
 Coeff:      0.180D-02 0.717D-02 0.487D+00 0.504D+00
 Gap=     0.217 Goal=   None    Shift=    0.000
 RMSDP=3.81D-05 MaxDP=5.63D-03 DE=-4.48D-04 OVMax= 5.74D-03

 Cycle   5  Pass 0  IDiag  1:
 RMSU=  1.58D-05    CP:  9.87D-01  8.42D-01  9.07D-01  6.07D-01
 E= -5017.24895039807     Delta-E=       -0.001107888840 Rises=F Damp=F
 DIIS: error= 1.03D-04 at cycle   5 NSaved=   5.
 NSaved= 5 IEnMin= 5 EnMin= -5017.24895039807     IErMin= 5 ErrMin= 1.03D-04
 ErrMax= 1.03D-04  0.00D+00 EMaxC= 1.00D-01 BMatC= 3.26D-05 BMatP= 1.37D-03
 IDIUse=3 WtCom= 9.99D-01 WtEn= 1.03D-03
 Coeff-Com:  0.592D-03-0.153D-02 0.138D+00 0.183D+00 0.680D+00
 Coeff-En:   0.000D+00 0.000D+00 0.000D+00 0.000D+00 0.100D+01
 Coeff:      0.591D-03-0.153D-02 0.138D+00 0.183D+00 0.680D+00
 Gap=     0.218 Goal=   None    Shift=    0.000
 RMSDP=7.52D-06 MaxDP=1.07D-03 DE=-1.11D-03 OVMax= 1.19D-03

 Cycle   6  Pass 0  IDiag  1:
 RMSU=  5.26D-06    CP:  9.87D-01  8.41D-01  9.16D-01  5.87D-01  7.24D-01
 E= -5017.24897482771     Delta-E=       -0.000024429644 Rises=F Damp=F
 DIIS: error= 6.67D-05 at cycle   6 NSaved=   6.
 NSaved= 6 IEnMin= 6 EnMin= -5017.24897482771     IErMin= 6 ErrMin= 6.67D-05
 ErrMax= 6.67D-05  0.00D+00 EMaxC= 1.00D-01 BMatC= 3.76D-06 BMatP= 3.26D-05
 IDIUse=1 WtCom= 1.00D+00 WtEn= 0.00D+00
 Coeff-Com:  0.119D-03-0.188D-02 0.321D-01 0.449D-01 0.290D+00 0.635D+00
 Coeff:      0.119D-03-0.188D-02 0.321D-01 0.449D-01 0.290D+00 0.635D+00
 Gap=     0.218 Goal=   None    Shift=    0.000
 RMSDP=2.28D-06 MaxDP=4.50D-04 DE=-2.44D-05 OVMax= 3.94D-04

 Initial convergence to 1.0D-05 achieved.  Increase integral accuracy.
 Cycle   7  Pass 1  IDiag  1:
 E= -5017.24919638020     Delta-E=       -0.000221552489 Rises=F Damp=F
 DIIS: error= 3.93D-05 at cycle   1 NSaved=   1.
 NSaved= 1 IEnMin= 1 EnMin= -5017.24919638020     IErMin= 1 ErrMin= 3.93D-05
 ErrMax= 3.93D-05  0.00D+00 EMaxC= 1.00D-01 BMatC= 1.78D-06 BMatP= 1.78D-06
 IDIUse=1 WtCom= 1.00D+00 WtEn= 0.00D+00
 Coeff-Com:  0.100D+01
 Coeff:      0.100D+01
 Gap=     0.218 Goal=   None    Shift=    0.000
 RMSDP=2.28D-06 MaxDP=4.50D-04 DE=-2.22D-04 OVMax= 3.77D-04

 Cycle   8  Pass 1  IDiag  1:
 RMSU=  5.35D-06    CP:  1.00D+00
 E= -5017.24919846912     Delta-E=       -0.000002088913 Rises=F Damp=F
 DIIS: error= 7.38D-06 at cycle   2 NSaved=   2.
 NSaved= 2 IEnMin= 2 EnMin= -5017.24919846912     IErMin= 2 ErrMin= 7.38D-06
 ErrMax= 7.38D-06  0.00D+00 EMaxC= 1.00D-01 BMatC= 9.96D-08 BMatP= 1.78D-06
 IDIUse=1 WtCom= 1.00D+00 WtEn= 0.00D+00
 Coeff-Com:  0.684D-01 0.932D+00
 Coeff:      0.684D-01 0.932D+00
 Gap=     0.218 Goal=   None    Shift=    0.000
 RMSDP=6.02D-07 MaxDP=6.31D-05 DE=-2.09D-06 OVMax= 8.00D-05

 Cycle   9  Pass 1  IDiag  1:
 RMSU=  5.92D-07    CP:  1.00D+00  1.02D+00
 E= -5017.24919845746     Delta-E=        0.000000011656 Rises=F Damp=F
 DIIS: error= 8.53D-06 at cycle   3 NSaved=   3.
 NSaved= 3 IEnMin= 2 EnMin= -5017.24919846912     IErMin= 2 ErrMin= 7.38D-06
 ErrMax= 8.53D-06  0.00D+00 EMaxC= 1.00D-01 BMatC= 1.28D-07 BMatP= 9.96D-08
 IDIUse=1 WtCom= 1.00D+00 WtEn= 0.00D+00
 Coeff-Com: -0.121D-01 0.535D+00 0.477D+00
 Coeff:     -0.121D-01 0.535D+00 0.477D+00
 Gap=     0.218 Goal=   None    Shift=    0.000
 RMSDP=2.95D-07 MaxDP=3.50D-05 DE= 1.17D-08 OVMax= 3.52D-05

 Cycle  10  Pass 1  IDiag  1:
 RMSU=  1.10D-07    CP:  1.00D+00  1.03D+00  5.47D-01
 E= -5017.24919855080     Delta-E=       -0.000000093340 Rises=F Damp=F
 DIIS: error= 9.69D-07 at cycle   4 NSaved=   4.
 NSaved= 4 IEnMin= 4 EnMin= -5017.24919855080     IErMin= 4 ErrMin= 9.69D-07
 ErrMax= 9.69D-07  0.00D+00 EMaxC= 1.00D-01 BMatC= 7.77D-10 BMatP= 9.96D-08
 IDIUse=1 WtCom= 1.00D+00 WtEn= 0.00D+00
 Coeff-Com: -0.535D-02 0.189D+00 0.182D+00 0.635D+00
 Coeff:     -0.535D-02 0.189D+00 0.182D+00 0.635D+00
 Gap=     0.218 Goal=   None    Shift=    0.000
 RMSDP=4.01D-08 MaxDP=6.62D-06 DE=-9.33D-08 OVMax= 6.90D-06

 Cycle  11  Pass 1  IDiag  1:
 RMSU=  3.57D-08    CP:  1.00D+00  1.03D+00  5.41D-01  8.56D-01
 E= -5017.24919855163     Delta-E=       -0.000000000835 Rises=F Damp=F
 DIIS: error= 2.12D-07 at cycle   5 NSaved=   5.
 NSaved= 5 IEnMin= 5 EnMin= -5017.24919855163     IErMin= 5 ErrMin= 2.12D-07
 ErrMax= 2.12D-07  0.00D+00 EMaxC= 1.00D-01 BMatC= 6.69D-11 BMatP= 7.77D-10
 IDIUse=1 WtCom= 1.00D+00 WtEn= 0.00D+00
 Coeff-Com: -0.622D-03 0.535D-02 0.962D-02 0.223D+00 0.763D+00
 Coeff:     -0.622D-03 0.535D-02 0.962D-02 0.223D+00 0.763D+00
 Gap=     0.218 Goal=   None    Shift=    0.000
 RMSDP=1.01D-08 MaxDP=1.27D-06 DE=-8.35D-10 OVMax= 1.25D-06

 Cycle  12  Pass 1  IDiag  1:
 RMSU=  6.92D-09    CP:  1.00D+00  1.03D+00  5.44D-01  9.14D-01  9.29D-01
 E= -5017.24919855157     Delta-E=        0.000000000065 Rises=F Damp=F
 DIIS: error= 1.13D-07 at cycle   6 NSaved=   6.
 NSaved= 6 IEnMin= 5 EnMin= -5017.24919855163     IErMin= 6 ErrMin= 1.13D-07
 ErrMax= 1.13D-07  0.00D+00 EMaxC= 1.00D-01 BMatC= 1.16D-11 BMatP= 6.69D-11
 IDIUse=1 WtCom= 1.00D+00 WtEn= 0.00D+00
 Coeff-Com:  0.337D-04-0.972D-02-0.706D-02 0.715D-01 0.387D+00 0.558D+00
 Coeff:      0.337D-04-0.972D-02-0.706D-02 0.715D-01 0.387D+00 0.558D+00
 Gap=     0.218 Goal=   None    Shift=    0.000
 RMSDP=3.57D-09 MaxDP=3.94D-07 DE= 6.55D-11 OVMax= 6.08D-07

 SCF Done:  E(RPBE1PBE) =  -5017.24919855     A.U. after   12 cycles
            NFock= 12  Conv=0.36D-08     -V/T= 2.0028
 KE= 5.003057565319D+03 PE=-2.435110873291D+04 EE= 8.138426748052D+03
 Leave Link  502 at Thu May  3 00:59:36 2018, MaxMem= 14763950080 cpu:      8472.4
 (Enter /cm/shared/gaussian/g09.e01/intel64-sandybridge/g09/l601.exe)
 Copying SCF densities to generalized density rwf, IOpCl= 0 IROHF=0.

 **********************************************************************

            Population analysis using the SCF density.

 **********************************************************************

 Alpha  occ. eigenvalues -- -483.15404 -62.55702 -56.32948 -56.32940 -56.32915
 Alpha  occ. eigenvalues --  -19.17684 -19.17140 -19.16166 -19.16070 -19.15675
 Alpha  occ. eigenvalues --  -19.15617 -19.15410 -19.15263 -19.14195 -19.14087
 Alpha  occ. eigenvalues --  -19.13463 -19.13412 -19.13304 -19.13250 -19.12683
 Alpha  occ. eigenvalues --  -19.12597 -19.12418 -19.12218 -19.11852 -19.11658
 Alpha  occ. eigenvalues --  -19.11352 -19.11292 -19.10880 -19.10748 -19.10616
 Alpha  occ. eigenvalues --  -19.10576 -19.09761 -19.09628 -19.09215 -19.08192
 Alpha  occ. eigenvalues --  -19.05911 -19.04693  -8.66017  -6.46390  -6.46347
 Alpha  occ. eigenvalues --   -6.46241  -2.54679  -2.54674  -2.54590  -2.54552
 Alpha  occ. eigenvalues --   -2.54530  -1.00120  -0.99599  -0.98792  -0.98592
 Alpha  occ. eigenvalues --   -0.98405  -0.98120  -0.97948  -0.97369  -0.97132
 Alpha  occ. eigenvalues --   -0.96542  -0.95921  -0.95830  -0.95734  -0.95530
 Alpha  occ. eigenvalues --   -0.95407  -0.95065  -0.94830  -0.94667  -0.94504
 Alpha  occ. eigenvalues --   -0.94472  -0.94363  -0.93428  -0.93415  -0.93266
 Alpha  occ. eigenvalues --   -0.93132  -0.92871  -0.92166  -0.92087  -0.91697
 Alpha  occ. eigenvalues --   -0.90678  -0.88689  -0.87356  -0.65538  -0.50781
 Alpha  occ. eigenvalues --   -0.50637  -0.49686  -0.49645  -0.49288  -0.48965
 Alpha  occ. eigenvalues --   -0.48823  -0.47951  -0.47441  -0.47399  -0.46860
 Alpha  occ. eigenvalues --   -0.46648  -0.46350  -0.46013  -0.45987  -0.45481
 Alpha  occ. eigenvalues --   -0.45454  -0.45268  -0.45092  -0.44826  -0.44690
 Alpha  occ. eigenvalues --   -0.44362  -0.44253  -0.44067  -0.44000  -0.42771
 Alpha  occ. eigenvalues --   -0.42754  -0.42681  -0.42557  -0.42185  -0.41059
 Alpha  occ. eigenvalues --   -0.38372  -0.38222  -0.37358  -0.36484  -0.35972
 Alpha  occ. eigenvalues --   -0.35682  -0.34789  -0.34439  -0.34082  -0.33776
 Alpha  occ. eigenvalues --   -0.33454  -0.33068  -0.32909  -0.32358  -0.32273
 Alpha  occ. eigenvalues --   -0.32046  -0.31819  -0.31660  -0.31481  -0.31342
 Alpha  occ. eigenvalues --   -0.31098  -0.30671  -0.29765  -0.29652  -0.29175
 Alpha  occ. eigenvalues --   -0.29154  -0.28704  -0.28496  -0.28231  -0.27928
 Alpha  occ. eigenvalues --   -0.27848  -0.27536  -0.27265  -0.26851  -0.26568
 Alpha  occ. eigenvalues --   -0.26491  -0.26384  -0.26262  -0.25873  -0.25715
 Alpha  occ. eigenvalues --   -0.25522  -0.24790  -0.24236  -0.24088  -0.24031
 Alpha  occ. eigenvalues --   -0.23976  -0.23710  -0.23583  -0.23298  -0.23249
 Alpha  occ. eigenvalues --   -0.22969  -0.22846  -0.22562  -0.22475  -0.22178
 Alpha  occ. eigenvalues --   -0.21920  -0.21713  -0.21368  -0.20686  -0.20398
 Alpha  occ. eigenvalues --   -0.20389  -0.20255  -0.20132  -0.19438  -0.19336
 Alpha  occ. eigenvalues --   -0.19073  -0.17140  -0.15691
 Alpha virt. eigenvalues --    0.06089   0.07406   0.09217   0.10735   0.10917
 Alpha virt. eigenvalues --    0.11748   0.12578   0.13370   0.14168   0.15028
 Alpha virt. eigenvalues --    0.15555   0.15745   0.15986   0.16555   0.17013
 Alpha virt. eigenvalues --    0.17437   0.17955   0.18169   0.19183   0.19489
 Alpha virt. eigenvalues --    0.20027   0.20225   0.20934   0.21088   0.21509
 Alpha virt. eigenvalues --    0.21697   0.22153   0.22669   0.22884   0.23386
 Alpha virt. eigenvalues --    0.23648   0.23844   0.24509   0.24711   0.25648
 Alpha virt. eigenvalues --    0.26381   0.26756   0.27037   0.27506   0.27849
 Alpha virt. eigenvalues --    0.28196   0.28565   0.29673   0.29789   0.30365
 Alpha virt. eigenvalues --    0.30599   0.30817   0.31400   0.31763   0.32073
 Alpha virt. eigenvalues --    0.32477   0.33121   0.33434   0.33894   0.33990
 Alpha virt. eigenvalues --    0.34614   0.34975   0.35509   0.35916   0.36796
 Alpha virt. eigenvalues --    0.37326   0.38172   0.40642   0.41384   0.57384
 Alpha virt. eigenvalues --    0.58982   0.59528   0.59756   0.60112   0.60807
 Alpha virt. eigenvalues --    0.60929   0.61443   0.62495   0.63035   0.63531
 Alpha virt. eigenvalues --    0.63797   0.64177   0.64536   0.64932   0.65010
 Alpha virt. eigenvalues --    0.65476   0.65708   0.66058   0.66560   0.66738
 Alpha virt. eigenvalues --    0.66897   0.67429   0.67717   0.67807   0.68013
 Alpha virt. eigenvalues --    0.68273   0.68750   0.69016   0.69371   0.69487
 Alpha virt. eigenvalues --    0.69976   0.70064   0.70162   0.70605   0.70769
 Alpha virt. eigenvalues --    0.70916   0.71386   0.71716   0.71896   0.72153
 Alpha virt. eigenvalues --    0.72742   0.72924   0.73112   0.73956   0.74287
 Alpha virt. eigenvalues --    0.74667   0.75300   0.75623   0.75971   0.76164
 Alpha virt. eigenvalues --    0.77172   0.77477   0.77737   0.77859   0.78244
 Alpha virt. eigenvalues --    0.78842   0.79169   0.79546   0.80278   0.80574
 Alpha virt. eigenvalues --    0.81330   0.81524   0.82152   0.82565   0.82949
 Alpha virt. eigenvalues --    0.83861   0.84078   0.85144   0.85515   0.87554
 Alpha virt. eigenvalues --    0.89948   0.91376   0.92955   0.93073   0.94391
 Alpha virt. eigenvalues --    0.94610   0.95053   0.95508   0.96229   0.96496
 Alpha virt. eigenvalues --    0.97210   0.97631   0.98102   0.98200   0.98369
 Alpha virt. eigenvalues --    0.98677   0.99533   0.99709   0.99851   1.00075
 Alpha virt. eigenvalues --    1.00634   1.00797   1.01214   1.01561   1.02099
 Alpha virt. eigenvalues --    1.02259   1.02691   1.02922   1.03109   1.03365
 Alpha virt. eigenvalues --    1.03656   1.03946   1.04307   1.04464   1.04919
 Alpha virt. eigenvalues --    1.05255   1.05381   1.05710   1.06254   1.06546
 Alpha virt. eigenvalues --    1.06900   1.07448   1.07865   1.08630   1.08818
 Alpha virt. eigenvalues --    1.08993   1.09164   1.09281   1.09604   1.09730
 Alpha virt. eigenvalues --    1.09892   1.10241   1.10826   1.11013   1.11315
 Alpha virt. eigenvalues --    1.11648   1.11962   1.12293   1.12394   1.12765
 Alpha virt. eigenvalues --    1.13062   1.13151   1.13767   1.14099   1.14210
 Alpha virt. eigenvalues --    1.14793   1.14962   1.15568   1.15775   1.16014
 Alpha virt. eigenvalues --    1.16142   1.16622   1.16865   1.17037   1.17212
 Alpha virt. eigenvalues --    1.17588   1.17859   1.18359   1.18462   1.18880
 Alpha virt. eigenvalues --    1.19113   1.19786   1.20175   1.20466   1.20882
 Alpha virt. eigenvalues --    1.21376   1.22126   1.22306   1.22800   1.23121
 Alpha virt. eigenvalues --    1.23519   1.24028   1.24531   1.24831   1.25068
 Alpha virt. eigenvalues --    1.25686   1.25875   1.26417   1.26891   1.27642
 Alpha virt. eigenvalues --    1.27914   1.28274   1.28658   1.28778   1.29216
 Alpha virt. eigenvalues --    1.29513   1.30101   1.30666   1.31113   1.31160
 Alpha virt. eigenvalues --    1.31322   1.32041   1.32327   1.32848   1.33273
 Alpha virt. eigenvalues --    1.33468   1.33603   1.33864   1.34038   1.34655
 Alpha virt. eigenvalues --    1.34999   1.35362   1.35805   1.35989   1.36108
 Alpha virt. eigenvalues --    1.36251   1.36665   1.37035   1.37408   1.37536
 Alpha virt. eigenvalues --    1.37847   1.38067   1.38392   1.38746   1.39073
 Alpha virt. eigenvalues --    1.39446   1.40131   1.40327   1.40456   1.40994
 Alpha virt. eigenvalues --    1.41197   1.41394   1.41685   1.42090   1.42708
 Alpha virt. eigenvalues --    1.42981   1.43304   1.44143   1.44346   1.45239
 Alpha virt. eigenvalues --    1.45308   1.46117   1.46345   1.46550   1.47542
 Alpha virt. eigenvalues --    1.48065   1.48342   1.49230   1.49808   1.50151
 Alpha virt. eigenvalues --    1.50767   1.50937   1.51084   1.51541   1.52277
 Alpha virt. eigenvalues --    1.52546   1.52720   1.53027   1.53502   1.53883
 Alpha virt. eigenvalues --    1.54478   1.54863   1.54982   1.55380   1.55754
 Alpha virt. eigenvalues --    1.56006   1.56373   1.56557   1.56869   1.57306
 Alpha virt. eigenvalues --    1.57587   1.58182   1.58855   1.59955   1.60195
 Alpha virt. eigenvalues --    1.60819   1.61053   1.61283   1.61647   1.62397
 Alpha virt. eigenvalues --    1.63275   1.65529   1.66272   1.68140   1.69398
 Alpha virt. eigenvalues --    1.70323   1.71160   1.71683   1.72506   1.72868
 Alpha virt. eigenvalues --    1.73120   1.73509   1.74044   1.74409   1.74823
 Alpha virt. eigenvalues --    1.75602   1.75796   1.76175   1.76364   1.76579
 Alpha virt. eigenvalues --    1.76877   1.77177   1.77494   1.77811   1.78293
 Alpha virt. eigenvalues --    1.78942   1.79091   1.79614   1.80154   1.80440
 Alpha virt. eigenvalues --    1.80900   1.81235   1.81380   1.81753   1.82516
 Alpha virt. eigenvalues --    1.83100   1.83506   1.83588   1.84168   1.84591
 Alpha virt. eigenvalues --    1.84758   1.85156   1.85722   1.85919   1.86675
 Alpha virt. eigenvalues --    1.87061   1.87502   1.88026   1.88233   1.89183
 Alpha virt. eigenvalues --    1.90449   1.90702   1.90916   1.92294   1.93263
 Alpha virt. eigenvalues --    1.94651   1.94743   1.96250   1.96988   1.97891
 Alpha virt. eigenvalues --    1.98170   1.98705   1.99891   2.00346   2.01691
 Alpha virt. eigenvalues --    2.04729   2.06565   2.09466   2.17572   2.17938
 Alpha virt. eigenvalues --    2.19299   2.19660   2.19959   2.20591   2.21000
 Alpha virt. eigenvalues --    2.21706   2.22354   2.23035   2.23150   2.23514
 Alpha virt. eigenvalues --    2.23690   2.23727   2.23906   2.24282   2.24581
 Alpha virt. eigenvalues --    2.24864   2.25008   2.25211   2.25317   2.25702
 Alpha virt. eigenvalues --    2.25797   2.26116   2.26383   2.27100   2.27454
 Alpha virt. eigenvalues --    2.27785   2.28363   2.28603   2.28901   2.29344
 Alpha virt. eigenvalues --    2.30201   2.30374   2.30634   2.31094   2.31433
 Alpha virt. eigenvalues --    2.31682   2.31934   2.32126   2.32342   2.32835
 Alpha virt. eigenvalues --    2.33218   2.34151   2.34395   2.35953   2.36122
 Alpha virt. eigenvalues --    2.36324   2.36556   2.37279   2.37944   2.40090
 Alpha virt. eigenvalues --    2.40770   2.41636   2.42342   2.43247   2.45770
 Alpha virt. eigenvalues --    2.47233   2.51859   2.53729   2.55721   2.57126
 Alpha virt. eigenvalues --    2.60056   2.73488   2.94712   2.96344   2.96614
 Alpha virt. eigenvalues --    2.97108   2.97255   2.97885   2.98158   2.98412
 Alpha virt. eigenvalues --    2.98666   2.99024   2.99057   2.99406   2.99775
 Alpha virt. eigenvalues --    3.00117   3.00865   3.01403   3.01502   3.01774
 Alpha virt. eigenvalues --    3.01823   3.01862   3.01965   3.02267   3.02430
 Alpha virt. eigenvalues --    3.02474   3.02671   3.02811   3.03000   3.03080
 Alpha virt. eigenvalues --    3.03160   3.03272   3.03426   3.03808   3.03888
 Alpha virt. eigenvalues --    3.03909   3.03929   3.04199   3.04618   3.04800
 Alpha virt. eigenvalues --    3.04819   3.05373   3.05890   3.05927   3.06131
 Alpha virt. eigenvalues --    3.06180   3.06302   3.06596   3.07045   3.07383
 Alpha virt. eigenvalues --    3.07521   3.07597   3.07902   3.07961   3.08067
 Alpha virt. eigenvalues --    3.08167   3.08553   3.08585   3.08770   3.10014
 Alpha virt. eigenvalues --    3.10455   3.10645   3.10883   3.11739   3.13017
 Alpha virt. eigenvalues --    3.13833   3.18963   3.19031   3.19727   3.19899
 Alpha virt. eigenvalues --    3.20719   3.20872   3.21496   3.22042   3.22726
 Alpha virt. eigenvalues --    3.23325   3.23742   3.23836   3.23961   3.24101
 Alpha virt. eigenvalues --    3.24362   3.24499   3.24604   3.25055   3.25146
 Alpha virt. eigenvalues --    3.25282   3.25467   3.25706   3.26027   3.26801
 Alpha virt. eigenvalues --    3.26901   3.27138   3.27350   3.27509   3.28128
 Alpha virt. eigenvalues --    3.29169   3.30626   3.32703   3.53424   3.55040
 Alpha virt. eigenvalues --    3.55353   3.56487   3.56859   3.57104   3.57911
 Alpha virt. eigenvalues --    3.58535   3.58987   3.59391   3.59479   3.60033
 Alpha virt. eigenvalues --    3.60313   3.60532   3.60656   3.60909   3.60999
 Alpha virt. eigenvalues --    3.61775   3.62098   3.62566   3.63494   3.64459
 Alpha virt. eigenvalues --    3.64960   3.65113   3.65349   3.66072   3.66301
 Alpha virt. eigenvalues --    3.67705   3.69587   3.69798   3.72483   3.73928
 Alpha virt. eigenvalues --    3.81074   3.82122   3.83017   3.84372   3.85453
 Alpha virt. eigenvalues --    3.86238   3.86422   3.86691   3.87024   3.87550
 Alpha virt. eigenvalues --    3.88003   3.88119   3.88492   3.88767   3.89085
 Alpha virt. eigenvalues --    3.89438   3.90125   3.90213   3.91162   3.91444
 Alpha virt. eigenvalues --    3.91657   3.91768   3.93041   3.94253   3.94439
 Alpha virt. eigenvalues --    3.95021   3.96214   3.97497   3.99246   4.01212
 Alpha virt. eigenvalues --    4.02348   4.05498
          Condensed to atoms (all electrons):
 Mulliken charges:
               1
     1  Br  -0.715712
     2  O   -0.294278
     3  H    0.134316
     4  H    0.143837
     5  O   -0.294197
     6  H    0.144345
     7  H    0.149214
     8  O   -0.278614
     9  H    0.160718
    10  H    0.161739
    11  O   -0.277431
    12  H    0.132881
    13  H    0.136840
    14  O   -0.263778
    15  H    0.113796
    16  H    0.131024
    17  O   -0.259711
    18  H    0.145699
    19  H    0.128835
    20  O   -0.251061
    21  H    0.140883
    22  H    0.118614
    23  O   -0.213832
    24  H    0.119340
    25  H    0.127016
    26  O   -0.228007
    27  H    0.145009
    28  H    0.142447
    29  O   -0.259380
    30  H    0.149523
    31  H    0.119182
    32  O   -0.276843
    33  H    0.140638
    34  H    0.155157
    35  O   -0.260358
    36  H    0.136373
    37  H    0.140413
    38  O   -0.278524
    39  H    0.134039
    40  H    0.146643
    41  O   -0.289577
    42  H    0.145394
    43  H    0.135772
    44  O   -0.236457
    45  H    0.134604
    46  H    0.147152
    47  O   -0.272172
    48  H    0.129735
    49  H    0.130898
    50  O   -0.292441
    51  H    0.089988
    52  H    0.131396
    53  O   -0.276957
    54  H    0.125990
    55  H    0.118305
    56  O   -0.265587
    57  H    0.147369
    58  H    0.149275
    59  O   -0.315411
    60  H    0.147491
    61  H    0.114950
    62  O   -0.299249
    63  H    0.128771
    64  H    0.120794
    65  O   -0.321901
    66  H    0.116167
    67  H    0.139436
    68  O   -0.274949
    69  H    0.124673
    70  H    0.126256
    71  O   -0.295522
    72  H    0.139500
    73  H    0.133915
    74  O   -0.282714
    75  H    0.122416
    76  H    0.126084
    77  O   -0.297875
    78  H    0.139152
    79  H    0.136085
    80  O   -0.308204
    81  H    0.129088
    82  H    0.129551
    83  O   -0.277017
    84  H    0.129315
    85  H    0.112112
    86  O   -0.250648
    87  H    0.116653
    88  H    0.125244
    89  O   -0.285981
    90  H    0.143589
    91  H    0.103554
    92  O   -0.270045
    93  H    0.116792
    94  H    0.126234
    95  O   -0.257394
    96  H    0.159311
    97  H    0.130296
 Sum of Mulliken charges =  -1.00000
 Mulliken charges with hydrogens summed into heavy atoms:
               1
     1  Br  -0.715712
     2  O   -0.016124
     5  O   -0.000638
     8  O    0.043843
    11  O   -0.007710
    14  O   -0.018958
    17  O    0.014823
    20  O    0.008436
    23  O    0.032524
    26  O    0.059449
    29  O    0.009325
    32  O    0.018952
    35  O    0.016428
    38  O    0.002159
    41  O   -0.008411
    44  O    0.045299
    47  O   -0.011539
    50  O   -0.071057
    53  O   -0.032662
    56  O    0.031057
    59  O   -0.052970
    62  O   -0.049684
    65  O   -0.066299
    68  O   -0.024020
    71  O   -0.022106
    74  O   -0.034214
    77  O   -0.022638
    80  O   -0.049565
    83  O   -0.035590
    86  O   -0.008751
    89  O   -0.038839
    92  O   -0.027019
    95  O    0.032213
         Mulliken charges condensed to fragments:
      1     -0.715712
      2     -0.284288
 Electronic spatial extent (au):  <R**2>=        1564523.9078
 Charge=             -1.0000 electrons
 Dipole moment (field-independent basis, Debye):
    X=            -86.0760    Y=            -97.8491    Z=            -94.2006  Tot=            160.8020
 Quadrupole moment (field-independent basis, Debye-Ang):
   XX=          -1822.2314   YY=          -2303.5126   ZZ=          -2088.4045
   XY=          -1727.6144   XZ=          -1667.0890   YZ=          -1851.1799
 Traceless Quadrupole moment (field-independent basis, Debye-Ang):
   XX=            249.1514   YY=           -232.1297   ZZ=            -17.0217
   XY=          -1727.6144   XZ=          -1667.0890   YZ=          -1851.1799
 Octapole moment (field-independent basis, Debye-Ang**2):
  XXX=         -44313.1642  YYY=         -59318.9045  ZZZ=         -50527.5796  XYY=         -40827.7138
  XXY=         -36242.0141  XXZ=         -34955.5810  XZZ=         -37049.8856  YZZ=         -39771.3556
  YYZ=         -42463.7273  XYZ=         -31946.4842
 Hexadecapole moment (field-independent basis, Debye-Ang**3):
 XXXX=       -1169571.2918 YYYY=       -1590317.8774 ZZZZ=       -1285830.6044 XXXY=        -880550.4105
 XXXZ=        -846716.8121 YYYX=       -1066272.3342 YYYZ=       -1081045.1806 ZZZX=        -908253.1601
 ZZZY=        -943331.2374 XXYY=        -847573.1634 XXZZ=        -767852.0904 YYZZ=        -878445.7451
 XXYZ=        -661281.7615 YYXZ=        -731908.1563 ZZXY=        -683351.1295
 N-N= 6.192375220983D+03 E-N=-2.435110871936D+04  KE= 5.003057565319D+03
 No NMR shielding tensors so no spin-rotation constants.
 Leave Link  601 at Thu May  3 00:59:39 2018, MaxMem= 14763950080 cpu:        70.8
 (Enter /cm/shared/gaussian/g09.e01/intel64-sandybridge/g09/l701.exe)
 Compute integral first derivatives.
 ... and contract with generalized density number  0.
 Leave Link  701 at Thu May  3 00:59:41 2018, MaxMem= 14763950080 cpu:       129.2
 (Enter /cm/shared/gaussian/g09.e01/intel64-sandybridge/g09/l702.exe)
 L702 exits ... SP integral derivatives will be done elsewhere.
 Leave Link  702 at Thu May  3 00:59:41 2018, MaxMem= 14763950080 cpu:         1.7
 (Enter /cm/shared/gaussian/g09.e01/intel64-sandybridge/g09/l703.exe)
 Compute integral first derivatives, UseDBF=F ICtDFT=           0.
 Integral derivatives from FoFJK, PRISM(SPDF).
 Calling FoFJK, ICntrl=      2127 FMM=T ISym2X=0 I1Cent= 0 IOpClX= 0 NMat=1 NMatS=1 NMatT=0.
 FoFJK:  IHMeth= 1 ICntrl=    2127 DoSepK=F KAlg= 0 I1Cent=   0 FoldK=F
 IRaf=         0 NMat=   1 IRICut=       1 DoRegI=T DoRafI=F ISym2E= 0.
 FoFCou: FMM=T IPFlag=           0 FMFlag=      100000 FMFlg1=        2001
         NFxFlg=           0 DoJE=F BraDBF=F KetDBF=F FulRan=T
         wScrn=  0.000000 ICntrl=    2127 IOpCl=  0 I1Cent=           0 NGrid=           0
         NMat0=    1 NMatS0=      1 NMatT0=    0 NMatD0=    1 NMtDS0=    0 NMtDT0=    0
 Symmetry not used in FoFCou.
 FMM levels:  10  Number of levels for PrismC:   9
 Leave Link  703 at Thu May  3 00:59:59 2018, MaxMem= 14763950080 cpu:      1119.4
 (Enter /cm/shared/gaussian/g09.e01/intel64-sandybridge/g09/l716.exe)
 Dipole        =-3.38648977D+01-3.84968069D+01-3.70613807D+01
 Cartesian Forces:  Max     0.032624013 RMS     0.009561290
 Leave Link  716 at Thu May  3 00:59:59 2018, MaxMem= 14763950080 cpu:         3.6
 (Enter /cm/shared/gaussian/g09.e01/intel64-sandybridge/g09/l122.exe)
 CPIOFr:  IOpCl= 0 IRwI=-1 IRwCP=  731 ICalc= -1 LCPTot=     1005244 Len1MO=     2550559 IndFrg=     1005244
 CPIOFr:  IOpCl= 0 IRwI=-1 IRwCP=  731 ICalc=  0 LCPTot=     1005244 Len1MO=     2550559 IndFrg=     3555803
 Counterpoise: doing DCBS calculation for fragment   1 NewBq=T
 Leave Link  122 at Thu May  3 00:59:59 2018, MaxMem= 14763950080 cpu:         7.0
 (Enter /cm/shared/gaussian/g09.e01/intel64-sandybridge/g09/l301.exe)
 Basis read from rwf:  (5D, 7F)
 No pseudopotential information found on rwf file.
   795 basis functions,  1651 primitive gaussians,   829 cartesian basis functions
    18 alpha electrons       18 beta electrons
       nuclear repulsion energy         0.0000000000 Hartrees.
 IExCor= 1009 DFT=T Ex+Corr=PBE1PBE ExCW=0 ScaHFX=  0.250000
 ScaDFX=  0.750000  0.750000  1.000000  1.000000 ScalE2=  1.000000  1.000000
 IRadAn=      0 IRanWt=     -1 IRanGd=            0 ICorTp=0 IEmpDi=  4
 NAtoms=   97 NActive=   97 NUniq=   97 SFac= 1.00D+00 NAtFMM=   60 NAOKFM=T Big=T
 Integral buffers will be    131072 words long.
 Raffenetti 2 integral format.
 Two-electron integral symmetry is turned off.
 No density basis found on file   718.
 Leave Link  301 at Thu May  3 00:59:59 2018, MaxMem= 14763950080 cpu:         4.7
 (Enter /cm/shared/gaussian/g09.e01/intel64-sandybridge/g09/l302.exe)
 NPDir=0 NMtPBC=     1 NCelOv=     1 NCel=       1 NClECP=     1 NCelD=      1
         NCelK=      1 NCelE2=     1 NClLst=     1 CellRange=     0.0.
 One-electron integrals computed using PRISM.
 NBasis=   795 RedAO= T EigKep=  1.54D-02  NBF=   795
 NBsUse=   795 1.00D-06 EigRej= -1.00D+00 NBFU=   795
 Precomputing XC quadrature grid using
 IXCGrd= 4 IRadAn=           0 IRanWt=          -1 IRanGd=           0 AccXCQ= 0.00D+00.
 Generated NRdTot=       0 NPtTot=           0 NUsed=           0 NTot=          32
 NSgBfM=   733   733   736   750   756 MxSgAt=    97 MxSgA2=    97.
 Leave Link  302 at Thu May  3 01:00:07 2018, MaxMem= 14763950080 cpu:       481.9
 (Enter /cm/shared/gaussian/g09.e01/intel64-sandybridge/g09/l303.exe)
 DipDrv:  MaxL=1.
 Leave Link  303 at Thu May  3 01:00:07 2018, MaxMem= 14763950080 cpu:        28.7
 (Enter /cm/shared/gaussian/g09.e01/intel64-sandybridge/g09/l401.exe)
 ExpMin= 1.22D-01 ExpMax= 6.40D+05 ExpMxC= 6.18D+03 IAcc=2 IRadAn=         4 AccDes= 0.00D+00
 Harris functional with IExCor= 1009 and IRadAn=       4 diagonalized for initial guess.
 HarFok:  IExCor= 1009 AccDes= 0.00D+00 IRadAn=         4 IDoV= 1 UseB2=F ITyADJ=14
 ICtDFT=  3500011 ScaDFX=  1.000000  1.000000  1.000000  1.000000
 FoFCou: FMM=F IPFlag=           0 FMFlag=      100000 FMFlg1=        2001
         NFxFlg=           0 DoJE=T BraDBF=F KetDBF=T FulRan=T
         wScrn=  0.000000 ICntrl=     500 IOpCl=  0 I1Cent=   200000004 NGrid=           0
         NMat0=    1 NMatS0=      1 NMatT0=    0 NMatD0=    1 NMtDS0=    0 NMtDT0=    0
 Symmetry not used in FoFCou.
 Harris En= -2574.01992065979    
 JPrj=0 DoOrth=F DoCkMO=F.
 Leave Link  401 at Thu May  3 01:00:12 2018, MaxMem= 14763950080 cpu:       271.9
 (Enter /cm/shared/gaussian/g09.e01/intel64-sandybridge/g09/l502.exe)
 Closed shell SCF:
 Using DIIS extrapolation, IDIIS=  1040.
 Two-electron integral symmetry not used.
 IVT=     2138497 IEndB=     2138497 NGot= 14763950080 MDV= 14762516294
 LenX= 14762516294 LenY= 14761828224
 Requested convergence on RMS density matrix=1.00D-08 within 128 cycles.
 Requested convergence on MAX density matrix=1.00D-06.
 Requested convergence on             energy=1.00D-06.
 No special actions if energy rises.
 Fock matrices will be formed incrementally for  20 cycles.
 Integral accuracy reduced to 1.0D-05 until final iterations.

 Cycle   1  Pass 0  IDiag  1:
 FoFJK:  IHMeth= 1 ICntrl=       0 DoSepK=F KAlg= 0 I1Cent=   0 FoldK=F
 IRaf= 840000000 NMat=   1 IRICut=       1 DoRegI=T DoRafI=F ISym2E= 0.
 FoFCou: FMM=T IPFlag=           0 FMFlag=      100000 FMFlg1=        2001
         NFxFlg=           0 DoJE=F BraDBF=F KetDBF=F FulRan=T
         wScrn=  0.000000 ICntrl=       0 IOpCl=  0 I1Cent=           0 NGrid=           0
         NMat0=    1 NMatS0=      1 NMatT0=    0 NMatD0=    1 NMtDS0=    0 NMtDT0=    0
 Symmetry not used in FoFCou.
 FMM levels:  10  Number of levels for PrismC:   9
 E= -2573.87981499293    
 DIIS: error= 8.63D-03 at cycle   1 NSaved=   1.
 NSaved= 1 IEnMin= 1 EnMin= -2573.87981499293     IErMin= 1 ErrMin= 8.63D-03
 ErrMax= 8.63D-03  0.00D+00 EMaxC= 1.00D-01 BMatC= 3.82D-02 BMatP= 3.82D-02
 IDIUse=3 WtCom= 9.14D-01 WtEn= 8.63D-02
 Coeff-Com:  0.100D+01
 Coeff-En:   0.100D+01
 Coeff:      0.100D+01
 Gap=     0.177 Goal=   None    Shift=    0.000
 GapD=    0.177 DampG=1.000 DampE=1.000 DampFc=1.0000 IDamp=-1.
 RMSDP=4.64D-04 MaxDP=7.08D-02              OVMax= 1.52D-01

 Cycle   2  Pass 0  IDiag  1:
 RMSU=  4.60D-04    CP:  9.90D-01
 E= -2573.90117128321     Delta-E=       -0.021356290281 Rises=F Damp=F
 DIIS: error= 4.36D-03 at cycle   2 NSaved=   2.
 NSaved= 2 IEnMin= 2 EnMin= -2573.90117128321     IErMin= 2 ErrMin= 4.36D-03
 ErrMax= 4.36D-03  0.00D+00 EMaxC= 1.00D-01 BMatC= 7.79D-03 BMatP= 3.82D-02
 IDIUse=3 WtCom= 9.56D-01 WtEn= 4.36D-02
 Coeff-Com:  0.231D+00 0.769D+00
 Coeff-En:   0.607D-01 0.939D+00
 Coeff:      0.224D+00 0.776D+00
 Gap=     0.196 Goal=   None    Shift=    0.000
 RMSDP=2.23D-04 MaxDP=5.48D-02 DE=-2.14D-02 OVMax= 7.13D-02

 Cycle   3  Pass 0  IDiag  1:
 RMSU=  1.50D-04    CP:  9.95D-01  6.47D-01
 E= -2573.90967439511     Delta-E=       -0.008503111902 Rises=F Damp=F
 DIIS: error= 2.54D-03 at cycle   3 NSaved=   3.
 NSaved= 3 IEnMin= 3 EnMin= -2573.90967439511     IErMin= 3 ErrMin= 2.54D-03
 ErrMax= 2.54D-03  0.00D+00 EMaxC= 1.00D-01 BMatC= 2.88D-03 BMatP= 7.79D-03
 IDIUse=3 WtCom= 9.75D-01 WtEn= 2.54D-02
 Coeff-Com:  0.612D-01 0.365D+00 0.574D+00
 Coeff-En:   0.000D+00 0.181D+00 0.819D+00
 Coeff:      0.596D-01 0.360D+00 0.580D+00
 Gap=     0.175 Goal=   None    Shift=    0.000
 RMSDP=7.72D-05 MaxDP=1.91D-02 DE=-8.50D-03 OVMax= 2.32D-02

 Cycle   4  Pass 0  IDiag  1:
 RMSU=  8.35D-06    CP:  9.93D-01  7.54D-01  6.12D-01
 E= -2573.91292846420     Delta-E=       -0.003254069088 Rises=F Damp=F
 DIIS: error= 6.48D-05 at cycle   4 NSaved=   4.
 NSaved= 4 IEnMin= 4 EnMin= -2573.91292846420     IErMin= 4 ErrMin= 6.48D-05
 ErrMax= 6.48D-05  0.00D+00 EMaxC= 1.00D-01 BMatC= 1.21D-06 BMatP= 2.88D-03
 IDIUse=1 WtCom= 1.00D+00 WtEn= 0.00D+00
 Coeff-Com: -0.847D-03 0.127D-01 0.330D-01 0.955D+00
 Coeff:     -0.847D-03 0.127D-01 0.330D-01 0.955D+00
 Gap=     0.175 Goal=   None    Shift=    0.000
 RMSDP=2.35D-06 MaxDP=5.55D-04 DE=-3.25D-03 OVMax= 6.23D-04

 Initial convergence to 1.0D-05 achieved.  Increase integral accuracy.
 Cycle   5  Pass 1  IDiag  1:
 E= -2573.91327791492     Delta-E=       -0.000349450723 Rises=F Damp=F
 DIIS: error= 5.40D-05 at cycle   1 NSaved=   1.
 NSaved= 1 IEnMin= 1 EnMin= -2573.91327791492     IErMin= 1 ErrMin= 5.40D-05
 ErrMax= 5.40D-05  0.00D+00 EMaxC= 1.00D-01 BMatC= 4.03D-07 BMatP= 4.03D-07
 IDIUse=1 WtCom= 1.00D+00 WtEn= 0.00D+00
 Coeff-Com:  0.100D+01
 Coeff:      0.100D+01
 Gap=     0.175 Goal=   None    Shift=    0.000
 RMSDP=2.35D-06 MaxDP=5.55D-04 DE=-3.49D-04 OVMax= 6.57D-04

 Cycle   6  Pass 1  IDiag  1:
 RMSU=  2.56D-06    CP:  1.00D+00
 E= -2573.91327847292     Delta-E=       -0.000000558004 Rises=F Damp=F
 DIIS: error= 1.69D-05 at cycle   2 NSaved=   2.
 NSaved= 2 IEnMin= 2 EnMin= -2573.91327847292     IErMin= 2 ErrMin= 1.69D-05
 ErrMax= 1.69D-05  0.00D+00 EMaxC= 1.00D-01 BMatC= 1.55D-07 BMatP= 4.03D-07
 IDIUse=1 WtCom= 1.00D+00 WtEn= 0.00D+00
 Coeff-Com:  0.353D+00 0.647D+00
 Coeff:      0.353D+00 0.647D+00
 Gap=     0.175 Goal=   None    Shift=    0.000
 RMSDP=7.46D-07 MaxDP=1.89D-04 DE=-5.58D-07 OVMax= 2.43D-04

 Cycle   7  Pass 1  IDiag  1:
 RMSU=  6.85D-07    CP:  1.00D+00  8.89D-01
 E= -2573.91327865550     Delta-E=       -0.000000182577 Rises=F Damp=F
 DIIS: error= 5.52D-06 at cycle   3 NSaved=   3.
 NSaved= 3 IEnMin= 3 EnMin= -2573.91327865550     IErMin= 3 ErrMin= 5.52D-06
 ErrMax= 5.52D-06  0.00D+00 EMaxC= 1.00D-01 BMatC= 1.33D-08 BMatP= 1.55D-07
 IDIUse=1 WtCom= 1.00D+00 WtEn= 0.00D+00
 Coeff-Com: -0.314D-01 0.205D+00 0.826D+00
 Coeff:     -0.314D-01 0.205D+00 0.826D+00
 Gap=     0.175 Goal=   None    Shift=    0.000
 RMSDP=1.83D-07 MaxDP=5.55D-05 DE=-1.83D-07 OVMax= 6.09D-05

 Cycle   8  Pass 1  IDiag  1:
 RMSU=  6.43D-08    CP:  1.00D+00  9.46D-01  8.66D-01
 E= -2573.91327867089     Delta-E=       -0.000000015385 Rises=F Damp=F
 DIIS: error= 5.57D-07 at cycle   4 NSaved=   4.
 NSaved= 4 IEnMin= 4 EnMin= -2573.91327867089     IErMin= 4 ErrMin= 5.57D-07
 ErrMax= 5.57D-07  0.00D+00 EMaxC= 1.00D-01 BMatC= 7.27D-11 BMatP= 1.33D-08
 IDIUse=1 WtCom= 1.00D+00 WtEn= 0.00D+00
 Coeff-Com: -0.916D-02 0.410D-01 0.142D+00 0.826D+00
 Coeff:     -0.916D-02 0.410D-01 0.142D+00 0.826D+00
 Gap=     0.175 Goal=   None    Shift=    0.000
 RMSDP=1.72D-08 MaxDP=2.92D-06 DE=-1.54D-08 OVMax= 6.55D-06

 Cycle   9  Pass 1  IDiag  1:
 RMSU=  1.41D-08    CP:  1.00D+00  9.49D-01  8.61D-01  1.00D+00
 E= -2573.91327867103     Delta-E=       -0.000000000146 Rises=F Damp=F
 DIIS: error= 1.82D-07 at cycle   5 NSaved=   5.
 NSaved= 5 IEnMin= 5 EnMin= -2573.91327867103     IErMin= 5 ErrMin= 1.82D-07
 ErrMax= 1.82D-07  0.00D+00 EMaxC= 1.00D-01 BMatC= 7.46D-12 BMatP= 7.27D-11
 IDIUse=1 WtCom= 1.00D+00 WtEn= 0.00D+00
 Coeff-Com: -0.580D-03-0.256D-02-0.206D-01 0.251D+00 0.773D+00
 Coeff:     -0.580D-03-0.256D-02-0.206D-01 0.251D+00 0.773D+00
 Gap=     0.175 Goal=   None    Shift=    0.000
 RMSDP=5.17D-09 MaxDP=8.48D-07 DE=-1.46D-10 OVMax= 2.03D-06

 SCF Done:  E(RPBE1PBE) =  -2573.91327867     A.U. after    9 cycles
            NFock=  9  Conv=0.52D-08     -V/T= 2.0013
 KE= 2.570505075398D+03 PE=-6.162847712075D+03 EE= 1.018429358006D+03
 Leave Link  502 at Thu May  3 01:01:42 2018, MaxMem= 14763950080 cpu:      5723.4
 (Enter /cm/shared/gaussian/g09.e01/intel64-sandybridge/g09/l601.exe)
 Copying SCF densities to generalized density rwf, IOpCl= 0 IROHF=0.

 **********************************************************************

            Population analysis using the SCF density.

 **********************************************************************

 Alpha  occ. eigenvalues -- -482.99157 -62.39301 -56.16556 -56.16555 -56.16551
 Alpha  occ. eigenvalues --   -8.49432  -6.29742  -6.29736  -6.29726  -2.38008
 Alpha  occ. eigenvalues --   -2.38008  -2.38000  -2.37995  -2.37993  -0.47433
 Alpha  occ. eigenvalues --   -0.03286  -0.03275  -0.03263
 Alpha virt. eigenvalues --    0.14220   0.15862   0.16382   0.16816   0.18273
 Alpha virt. eigenvalues --    0.18717   0.19323   0.19701   0.20395   0.21515
 Alpha virt. eigenvalues --    0.21614   0.22277   0.23040   0.23425   0.23565
 Alpha virt. eigenvalues --    0.24293   0.24981   0.25523   0.26021   0.26754
 Alpha virt. eigenvalues --    0.27045   0.27282   0.28420   0.28969   0.29260
 Alpha virt. eigenvalues --    0.29407   0.30088   0.30393   0.30774   0.31805
 Alpha virt. eigenvalues --    0.32379   0.32706   0.32805   0.33970   0.34286
 Alpha virt. eigenvalues --    0.35491   0.35899   0.36063   0.36724   0.36958
 Alpha virt. eigenvalues --    0.37662   0.38087   0.38636   0.38705   0.39311
 Alpha virt. eigenvalues --    0.39791   0.40418   0.40827   0.41262   0.41584
 Alpha virt. eigenvalues --    0.41965   0.42249   0.42913   0.43990   0.44987
 Alpha virt. eigenvalues --    0.45798   0.46261   0.46817   0.47229   0.47889
 Alpha virt. eigenvalues --    0.48957   0.50101   0.50984   0.52228   0.60249
 Alpha virt. eigenvalues --    0.61527   0.62718   0.63133   0.64186   0.64371
 Alpha virt. eigenvalues --    0.64895   0.65593   0.65928   0.66694   0.66976
 Alpha virt. eigenvalues --    0.67626   0.67762   0.67910   0.68587   0.68629
 Alpha virt. eigenvalues --    0.69168   0.69674   0.70658   0.70846   0.71129
 Alpha virt. eigenvalues --    0.71674   0.72152   0.72598   0.73181   0.73540
 Alpha virt. eigenvalues --    0.73954   0.74294   0.74549   0.74602   0.74741
 Alpha virt. eigenvalues --    0.74819   0.75455   0.75619   0.76096   0.76329
 Alpha virt. eigenvalues --    0.76502   0.77167   0.77292   0.77567   0.78088
 Alpha virt. eigenvalues --    0.78450   0.78602   0.78786   0.79560   0.79719
 Alpha virt. eigenvalues --    0.80078   0.80554   0.80751   0.81354   0.81777
 Alpha virt. eigenvalues --    0.81957   0.82505   0.82642   0.82745   0.83293
 Alpha virt. eigenvalues --    0.83701   0.83987   0.84772   0.84986   0.85185
 Alpha virt. eigenvalues --    0.85476   0.86066   0.86391   0.86764   0.87228
 Alpha virt. eigenvalues --    0.87637   0.88171   0.88436   0.88874   0.89093
 Alpha virt. eigenvalues --    0.89768   0.90220   0.90606   0.91191   0.91553
 Alpha virt. eigenvalues --    0.91724   0.92039   0.92134   0.92574   0.92659
 Alpha virt. eigenvalues --    0.93019   0.93553   0.93955   0.94414   0.94544
 Alpha virt. eigenvalues --    0.94974   0.95169   0.95613   0.96405   0.96700
 Alpha virt. eigenvalues --    0.96982   0.97149   0.97663   0.98126   0.98541
 Alpha virt. eigenvalues --    0.99176   0.99616   1.00191   1.00736   1.01227
 Alpha virt. eigenvalues --    1.01412   1.01846   1.02421   1.03036   1.03056
 Alpha virt. eigenvalues --    1.04390   1.04593   1.05062   1.05442   1.06613
 Alpha virt. eigenvalues --    1.07106   1.07222   1.07832   1.09039   1.09367
 Alpha virt. eigenvalues --    1.09840   1.10468   1.10615   1.11120   1.11620
 Alpha virt. eigenvalues --    1.12569   1.13328   1.13900   1.13993   1.14523
 Alpha virt. eigenvalues --    1.17152   1.18168   1.18996   1.19860   1.21110
 Alpha virt. eigenvalues --    1.22409   1.23653   1.23940   1.25612   1.26447
 Alpha virt. eigenvalues --    1.30547   1.65314   1.67551   1.67718   1.68280
 Alpha virt. eigenvalues --    1.68919   1.69183   1.69352   1.69767   1.70432
 Alpha virt. eigenvalues --    1.70955   1.71394   1.71842   1.71925   1.72097
 Alpha virt. eigenvalues --    1.72303   1.72511   1.72792   1.73072   1.73263
 Alpha virt. eigenvalues --    1.73383   1.73868   1.74178   1.74718   1.74878
 Alpha virt. eigenvalues --    1.75159   1.75327   1.75577   1.75798   1.76348
 Alpha virt. eigenvalues --    1.76879   1.76987   1.77462   1.77694   1.78018
 Alpha virt. eigenvalues --    1.78575   1.79220   1.79413   1.79627   1.80073
 Alpha virt. eigenvalues --    1.80315   1.81191   1.81854   1.82177   1.82458
 Alpha virt. eigenvalues --    1.82914   1.83413   1.84260   1.84397   1.84559
 Alpha virt. eigenvalues --    1.85629   1.85853   1.87088   1.87965   1.88301
 Alpha virt. eigenvalues --    1.89036   1.89144   1.89409   1.90100   1.90949
 Alpha virt. eigenvalues --    1.91247   1.92065   1.93326   1.94621   1.94778
 Alpha virt. eigenvalues --    1.98023   1.98979   1.99529   1.99658   2.00246
 Alpha virt. eigenvalues --    2.00550   2.00832   2.01114   2.01234   2.01641
 Alpha virt. eigenvalues --    2.01710   2.01909   2.02051   2.02215   2.02424
 Alpha virt. eigenvalues --    2.02932   2.03329   2.03446   2.03764   2.04121
 Alpha virt. eigenvalues --    2.04275   2.04484   2.04936   2.05438   2.05565
 Alpha virt. eigenvalues --    2.06015   2.06334   2.06564   2.06989   2.07035
 Alpha virt. eigenvalues --    2.07136   2.07571   2.08059   2.08234   2.08503
 Alpha virt. eigenvalues --    2.08729   2.08895   2.09592   2.10044   2.10326
 Alpha virt. eigenvalues --    2.10642   2.10961   2.11395   2.11605   2.11729
 Alpha virt. eigenvalues --    2.11977   2.12583   2.12914   2.13395   2.13873
 Alpha virt. eigenvalues --    2.14112   2.14724   2.15270   2.15611   2.16057
 Alpha virt. eigenvalues --    2.16281   2.16973   2.17178   2.17390   2.17782
 Alpha virt. eigenvalues --    2.18203   2.18429   2.18545   2.18607   2.18949
 Alpha virt. eigenvalues --    2.19382   2.19822   2.20433   2.21338   2.21652
 Alpha virt. eigenvalues --    2.21877   2.22433   2.22714   2.23771   2.24109
 Alpha virt. eigenvalues --    2.24540   2.25433   2.25878   2.26768   2.27548
 Alpha virt. eigenvalues --    2.28017   2.28436   2.28828   2.29519   2.30080
 Alpha virt. eigenvalues --    2.30957   2.31548   2.32276   2.32508   2.33286
 Alpha virt. eigenvalues --    2.34386   2.34537   2.36190   2.37589   2.38867
 Alpha virt. eigenvalues --    2.39444   2.40582   2.41274   2.41285   2.41861
 Alpha virt. eigenvalues --    2.42238   2.42627   2.42793   2.43764   2.43998
 Alpha virt. eigenvalues --    2.44985   2.45302   2.45379   2.45784   2.46098
 Alpha virt. eigenvalues --    2.46279   2.47165   2.47469   2.47862   2.48332
 Alpha virt. eigenvalues --    2.49047   2.49632   2.49940   2.50405   2.51644
 Alpha virt. eigenvalues --    2.52296   2.53232   2.53438   2.54859   2.55336
 Alpha virt. eigenvalues --    2.56161   2.57253   2.58957   2.68995   2.69201
 Alpha virt. eigenvalues --    2.69588   2.69719   2.69853   2.70097   2.70210
 Alpha virt. eigenvalues --    2.70968   2.71126   2.71362   2.71861   2.72765
 Alpha virt. eigenvalues --    2.73053   2.73805   2.74134   2.74191   2.74585
 Alpha virt. eigenvalues --    2.75747   2.76162   2.76564   2.77291   2.79212
 Alpha virt. eigenvalues --    2.79606   2.81104   2.81373   2.82177   2.82372
 Alpha virt. eigenvalues --    2.82860   2.83940   2.84424   2.84566   2.84572
 Alpha virt. eigenvalues --    2.85276   2.85784   2.86650   2.87104   2.88059
 Alpha virt. eigenvalues --    2.88197   2.89292   2.89422   2.89694   2.90427
 Alpha virt. eigenvalues --    2.90652   2.91474   2.92156   2.92983   2.93903
 Alpha virt. eigenvalues --    2.94976   2.95443   2.95744   2.96704   2.96911
 Alpha virt. eigenvalues --    2.98743   2.99338   2.99694   3.00247   3.01522
 Alpha virt. eigenvalues --    3.03504   3.03979   3.04805   3.05168   3.07509
 Alpha virt. eigenvalues --    3.08977   3.10639   3.14700   3.14814   3.15889
 Alpha virt. eigenvalues --    3.17565   3.18244   3.19605   3.20943   3.21436
 Alpha virt. eigenvalues --    3.22320   3.22920   3.23250   3.24029   3.25507
 Alpha virt. eigenvalues --    3.26232   3.27170   3.28537   3.30339   3.32375
 Alpha virt. eigenvalues --    3.33929   3.35165   3.37914   3.38987   3.40513
 Alpha virt. eigenvalues --    3.42367   3.43508   3.45005   3.48668   3.52428
 Alpha virt. eigenvalues --    3.56467   3.58692   3.60759   3.64171   4.51150
 Alpha virt. eigenvalues --    4.51442   4.51518   4.52480   4.52522   4.52611
 Alpha virt. eigenvalues --    4.52645   4.52741   4.52792   4.52902   4.52964
 Alpha virt. eigenvalues --    4.53009   4.53115   4.53366   4.53513   4.53593
 Alpha virt. eigenvalues --    4.54119   4.54494   4.54704   4.54793   4.55138
 Alpha virt. eigenvalues --    4.55330   4.55622   4.55787   4.55831   4.55930
 Alpha virt. eigenvalues --    4.56172   4.56221   4.56502   4.56750   4.57144
 Alpha virt. eigenvalues --    4.57304   4.59942   4.59979   4.60045   4.60091
 Alpha virt. eigenvalues --    4.60182   4.60192   4.60278   4.60289   4.60448
 Alpha virt. eigenvalues --    4.60875   4.60920   4.61010   4.61369   4.61474
 Alpha virt. eigenvalues --    4.61527   4.61689   4.62330   4.62375   4.62468
 Alpha virt. eigenvalues --    4.62537   4.62770   4.63632   4.63807   4.64003
 Alpha virt. eigenvalues --    4.64228   4.64342   4.64552   4.64651   4.64769
 Alpha virt. eigenvalues --    4.65232   4.65406   4.65570   4.74812   4.75050
 Alpha virt. eigenvalues --    4.75360   4.75953   4.76039   4.76319   4.76448
 Alpha virt. eigenvalues --    4.76636   4.77117   4.77379   4.77934   4.77949
 Alpha virt. eigenvalues --    4.78812   4.78884   4.80196   4.80882   4.81011
 Alpha virt. eigenvalues --    4.81425   4.81771   4.81924   4.82250   4.82337
 Alpha virt. eigenvalues --    4.82802   4.83330   4.83481   4.83701   4.84096
 Alpha virt. eigenvalues --    4.84421   4.84643   4.84964   4.85482   4.85658
 Alpha virt. eigenvalues --    4.87121   4.87207   4.87236   4.87420   4.87861
 Alpha virt. eigenvalues --    4.87933   4.88040   4.88228   4.88424   4.88736
 Alpha virt. eigenvalues --    4.89011   4.89394   4.89737   4.90072   4.90685
 Alpha virt. eigenvalues --    4.91067   4.91287   4.93431   4.94029   4.94399
 Alpha virt. eigenvalues --    4.94947   4.96006   4.96294   4.96402   4.98013
 Alpha virt. eigenvalues --    4.98496   4.98940   4.99867   5.00245   5.01672
 Alpha virt. eigenvalues --    5.02652   5.03181   5.03699   5.04450   5.05772
[...]
   Z20       34.01507  -0.00286   0.00000  -0.00567  -0.00477  34.01030
   X21       34.61978   0.00913   0.00000   0.01046   0.00753  34.62731
   Y21       40.93147  -0.00181   0.00000  -0.00225  -0.00392  40.92755
   Z21       35.31898   0.01066   0.00000   0.01171   0.01229  35.33127
   X22       34.09066   0.00302   0.00000   0.00389   0.00029  34.09095
   Y22       40.30786  -0.00354   0.00000   0.00080  -0.00077  40.30709
   Z22       32.57888  -0.01009   0.00000  -0.02075  -0.02006  32.55882
   X23       30.17893   0.00630   0.00000   0.00332   0.00090  30.17982
   Y23       37.15202  -0.00798   0.00000  -0.04331  -0.04513  37.10689
   Z23       37.15202   0.00374   0.00000  -0.01609  -0.01458  37.13743
   X24       31.48284   0.00812   0.00000   0.02496   0.02229  31.50513
   Y24       36.45282  -0.00278   0.00000  -0.00727  -0.00902  36.44380
   Z24       36.11267  -0.00524   0.00000  -0.02456  -0.02341  36.08926
   X25       28.72384  -0.01283   0.00000  -0.01319  -0.01587  28.70796
   Y25       37.15202   0.00315   0.00000   0.01427   0.01247  37.16449
   Z25       36.09377  -0.01023   0.00000  -0.02718  -0.02531  36.06846
   X26       37.66224  -0.00285   0.00000  -0.00478  -0.00751  37.65474
   Y26       45.10776  -0.00364   0.00000  -0.02014  -0.02181  45.08595
   Z26       36.39613   0.00527   0.00000   0.03057   0.03058  36.42671
   X27       37.52996  -0.00297   0.00000  -0.00689  -0.00937  37.52059
   Y27       46.50616   0.00448   0.00000   0.01493   0.01321  46.51937
   Z27       37.54886  -0.00062   0.00000  -0.00666  -0.00655  37.54231
   X28       39.23071   0.00625   0.00000   0.02081   0.01821  39.24892
   Y28       44.31408  -0.00281   0.00000  -0.00090  -0.00256  44.31152
   Z28       36.86856  -0.00004   0.00000   0.00119   0.00078  36.86934
   X29       36.43392   0.01109   0.00000   0.00857   0.00664  36.44056
   Y29       31.04820  -0.00466   0.00000   0.00714   0.00536  31.05356
   Z29       38.77718  -0.02948   0.00000  -0.04141  -0.04169  38.73549
   X30       34.80876  -0.01505   0.00000   0.00038  -0.00137  34.80738
   Y30       31.31276   0.00133   0.00000  -0.00954  -0.01138  31.30138
   Z30       39.49528   0.01516   0.00000   0.02529   0.02543  39.52070
   X31       37.58665   0.00567   0.00000   0.00472   0.00312  37.58977
   Y31       31.27497  -0.00314   0.00000  -0.02769  -0.02952  31.24545
   Z31       40.13778   0.01030   0.00000  -0.00481  -0.00536  40.13243
   X32       38.45593   0.00971   0.00000   0.00945   0.00636  38.46228
   Y32       31.50173   0.00804   0.00000  -0.00005  -0.00160  31.50013
   Z32       34.07176  -0.03271   0.00000  -0.03598  -0.03674  34.03503
   X33       39.51417  -0.00078   0.00000  -0.00934  -0.01249  39.50168
   Y33       30.08444  -0.00803   0.00000  -0.03122  -0.03275  30.05169
   Z33       33.67492   0.00087   0.00000   0.00560   0.00454  33.67946
   X34       37.79452  -0.01302   0.00000  -0.01416  -0.01683  37.77769
   Y34       31.12379   0.00012   0.00000   0.03614   0.03450  31.15829
   Z34       35.71582   0.02934   0.00000   0.01920   0.01860  35.73443
   X35       45.69358  -0.00426   0.00000  -0.00442  -0.00672  45.68686
   Y35       36.35833  -0.02145   0.00000  -0.02718  -0.02877  36.32957
   Z35       37.62445   0.00512   0.00000  -0.02219  -0.02450  37.59994
   X36       44.84320  -0.00835   0.00000  -0.01329  -0.01591  44.82729
   Y36       37.32209   0.01939   0.00000   0.05590   0.05435  37.37644
   Z36       36.33943  -0.00946   0.00000   0.00745   0.00539  36.34483
   X37       47.20536   0.00767   0.00000  -0.00303  -0.00526  47.20010
   Y37       37.28430   0.00558   0.00000  -0.00544  -0.00702  37.27728
   Z37       37.94570   0.00285   0.00000   0.01372   0.01108  37.95678
   X38       39.74094   0.01021   0.00000   0.00971   0.00597  39.74691
   Y38       42.99127   0.00572   0.00000   0.01302   0.01156  43.00283
   Z38       32.14424   0.00758   0.00000   0.00628   0.00570  32.14994
   X39       38.19137  -0.00725   0.00000  -0.00168  -0.00522  38.18614
   Y39       43.42591   0.00643   0.00000   0.02283   0.02132  43.44722
   Z39       32.97572   0.00667   0.00000   0.01210   0.01192  32.98764
   X40       39.21182   0.00011   0.00000   0.01871   0.01462  39.22643
   Y40       42.15979  -0.01270   0.00000  -0.03497  -0.03637  42.12342
   Z40       30.63246  -0.01072   0.00000   0.00223   0.00174  30.63420
   X41       33.29697  -0.00360   0.00000  -0.01246  -0.01341  33.28357
   Y41       31.97417  -0.00798   0.00000   0.00494   0.00293  31.97709
   Z41       42.87789  -0.01523   0.00000  -0.01928  -0.01875  42.85913
   X42       33.12690   0.00016   0.00000   0.00444   0.00346  33.13036
   Y42       33.78830   0.01307   0.00000   0.02386   0.02185  33.81015
   Z42       42.82119   0.00400   0.00000   0.01425   0.01490  42.83609
   X43       33.59933   0.00302   0.00000   0.00728   0.00676  33.60609
   Y43       31.61512  -0.00094   0.00000  -0.00092  -0.00300  31.61212
   Z43       44.61643   0.00973   0.00000  -0.00470  -0.00426  44.61217
   X44       38.72049  -0.00288   0.00000  -0.00474  -0.00578  38.71470
   Y44       43.55819  -0.00580   0.00000   0.00687   0.00494  43.56312
   Z44       43.23693  -0.01489   0.00000  -0.02154  -0.02185  43.21509
   X45       39.58976   0.00665   0.00000   0.01472   0.01361  39.60337
   Y45       45.12666   0.01011   0.00000   0.01659   0.01467  45.14133
   Z45       43.04796   0.00068   0.00000   0.00863   0.00817  43.05613
   X46       38.38034   0.00133   0.00000   0.01933   0.01872  38.39906
   Y46       43.44480  -0.00890   0.00000  -0.04294  -0.04496  43.39984
   Z46       45.01328   0.01194   0.00000   0.00167   0.00143  45.01471
   X47       39.55197  -0.00800   0.00000  -0.02078  -0.02519  39.52678
   Y47       38.75828   0.01409   0.00000   0.01599   0.01466  38.77294
   Z47       29.12068  -0.00018   0.00000  -0.00861  -0.00931  29.11137
   X48       39.66535   0.00347   0.00000   0.01402   0.00977  39.67512
   Y48       37.01973  -0.01033   0.00000  -0.00232  -0.00367  37.01606
   Z48       29.64980  -0.00153   0.00000  -0.01471  -0.01553  29.63427
   X49       40.23227   0.00416   0.00000   0.01703   0.01222  40.24448
   Y49       38.75828  -0.00003   0.00000   0.00989   0.00864  38.76693
   Z49       27.43882  -0.00299   0.00000   0.00028  -0.00060  27.43823
   X50       44.16290   0.00092   0.00000   0.01736   0.01450  44.17740
   Y50       31.72850  -0.01338   0.00000  -0.01716  -0.01866  31.70984
   Z50       35.03552  -0.00782   0.00000  -0.03686  -0.03900  34.99653
   X51       42.72671  -0.00591   0.00000  -0.02163  -0.02474  42.70197
   Y51       32.06865   0.00682   0.00000   0.03217   0.03068  32.09933
   Z51       33.97728   0.00325   0.00000   0.02523   0.02347  34.00075
   X52       44.84320   0.00465   0.00000   0.01005   0.00727  44.85047
   Y52       33.37256   0.00653   0.00000  -0.01114  -0.01265  33.35992
   Z52       35.39457   0.00774   0.00000   0.03501   0.03278  35.42735
   X53       45.12666   0.00771   0.00000  -0.00391  -0.00443  45.12223
   Y53       36.47171  -0.00423   0.00000   0.00394   0.00204  36.47376
   Z53       44.86210   0.01274   0.00000   0.01543   0.01326  44.87536
   X54       44.21959  -0.00914   0.00000  -0.01622  -0.01709  44.20250
   Y54       37.24650   0.00824   0.00000   0.01354   0.01168  37.25818
   Z54       43.50150  -0.01016   0.00000  -0.00143  -0.00334  43.49816
   X55       46.50616  -0.00236   0.00000   0.00030  -0.00017  46.50599
   Y55       37.62445  -0.00228   0.00000  -0.00297  -0.00486  37.61959
   Z55       45.18335  -0.00284   0.00000  -0.00880  -0.01125  45.17210
   X56       39.83543   0.00040   0.00000  -0.00243  -0.00675  39.82868
   Y56       33.65602   0.00222   0.00000  -0.00681  -0.00814  33.64789
   Z56       29.13958  -0.00558   0.00000   0.00147   0.00048  29.14005
   X57       38.77718  -0.00215   0.00000   0.00931   0.00533  38.78252
   Y57       33.03241  -0.00507   0.00000  -0.01257  -0.01397  33.01844
   Z57       30.48128   0.00940   0.00000   0.02430   0.02353  30.50482
   X58       41.34721   0.00244   0.00000   0.00850   0.00423  41.35144
   Y58       32.65447  -0.00064   0.00000   0.00407   0.00276  32.65723
   Z58       29.27186   0.00122   0.00000   0.00457   0.00316  29.27502
   X59       41.36611  -0.00475   0.00000  -0.01547  -0.01702  41.34908
   Y59       28.38369  -0.01729   0.00000  -0.01893  -0.02069  28.36299
   Z59       40.11889   0.00956   0.00000   0.01405   0.01246  40.13135
   X60       41.32831   0.00763   0.00000   0.03917   0.03765  41.36596
   Y60       30.17893   0.01043   0.00000   0.00466   0.00289  30.18181
   Z60       40.42124  -0.00571   0.00000  -0.01764  -0.01916  40.40209
   X61       41.68736   0.00260   0.00000   0.00980   0.00781  41.69517
   Y61       28.23251   0.00644   0.00000   0.01673   0.01504  28.24755
   Z61       38.34254  -0.00419   0.00000   0.00648   0.00481  38.34735
   X62       33.33477  -0.01518   0.00000  -0.00712  -0.01167  33.32310
   Y62       37.68114   0.01046   0.00000   0.01264   0.01124  37.69238
   Z62       28.45928  -0.01183   0.00000  -0.00449  -0.00373  28.45555
   X63       33.82610   0.00646   0.00000   0.00348  -0.00068  33.82541
   Y63       36.86856  -0.01020   0.00000  -0.01246  -0.01392  36.85464
   Z63       29.98995   0.01609   0.00000   0.01331   0.01392  30.00387
   X64       34.82765   0.00976   0.00000   0.02176   0.01696  34.84461
   Y64       37.70004   0.00124   0.00000   0.01162   0.01029  37.71032
   Z64       27.43882   0.00096   0.00000   0.01739   0.01778  27.45660
   X65       28.68604  -0.01423   0.00000  -0.01883  -0.02029  28.66576
   Y65       39.45748   0.00388   0.00000   0.00586   0.00385  39.46133
   Z65       41.23382   0.01957   0.00000   0.04499   0.04696  41.28079
   X66       30.23562   0.00344   0.00000  -0.00369  -0.00504  30.23058
   Y66       40.21337   0.00567   0.00000   0.03355   0.03154  40.24491
   Z66       41.78184  -0.00609   0.00000  -0.02005  -0.01843  41.76342
   X67       29.10178   0.00930   0.00000   0.01792   0.01609  29.11787
   Y67       38.64490  -0.00125   0.00000   0.01076   0.00882  38.65372
   Z67       39.66535  -0.00191   0.00000   0.03190   0.03373  39.69909
   X68       28.15692  -0.03215   0.00000  -0.05525  -0.05852  28.09840
   Y68       41.02595  -0.00004   0.00000  -0.04719  -0.04891  40.97705
   Z68       33.90169  -0.00013   0.00000   0.01645   0.01863  33.92032
   X69       29.76319   0.02487   0.00000   0.02760   0.02447  29.78766
   Y69       40.49683  -0.00041   0.00000   0.03809   0.03638  40.53321
   Z69       34.50640   0.00393   0.00000  -0.01424  -0.01249  34.49391
   X70       27.96795   0.00381   0.00000   0.01774   0.01408  27.98203
   Y70       40.21337  -0.00068   0.00000   0.00749   0.00584  40.21921
   Z70       32.29542  -0.00700   0.00000  -0.02576  -0.02359  32.27183
   X71       45.41012   0.00272   0.00000  -0.01223  -0.01329  45.39683
   Y71       43.70937   0.01831   0.00000   0.01641   0.01458  43.72395
   Z71       43.18024   0.00285   0.00000  -0.00158  -0.00351  43.17673
   X72       44.37077  -0.00791   0.00000  -0.00817  -0.00943  44.36134
   Y72       42.55663  -0.01879   0.00000  -0.04265  -0.04446  42.51217
   Z72       42.23538  -0.00186   0.00000   0.02004   0.01832  42.25370
   X73       46.39278   0.00153   0.00000   0.00260   0.00183  46.39460
   Y73       42.65112  -0.00411   0.00000   0.00643   0.00458  42.65570
   Z73       44.27628  -0.00071   0.00000  -0.01103  -0.01325  44.26304
   X74       30.44349   0.00425   0.00000   0.00775   0.00431  30.44780
   Y74       31.12379  -0.01705   0.00000  -0.00997  -0.01159  31.11220
   Z74       32.59778   0.00627   0.00000   0.00534   0.00653  32.60430
   X75       31.29386   0.00565   0.00000   0.01115   0.00783  31.30170
   Y75       32.59778   0.01137   0.00000   0.01275   0.01112  32.60890
   Z75       33.20249   0.00251   0.00000  -0.00089   0.00015  33.20264
   X76       29.21517  -0.00778   0.00000   0.00197  -0.00176  29.21341
   Y76       31.74740   0.00755   0.00000   0.01154   0.00995  31.75734
   Z76       31.44504  -0.00900   0.00000  -0.00938  -0.00786  31.43718
   X77       41.12044  -0.01583   0.00000  -0.01146  -0.01152  41.10892
   Y77       32.12534  -0.00312   0.00000  -0.00804  -0.01008  32.11527
   Z77       46.50616   0.00708   0.00000   0.01255   0.01118  46.51734
   X78       40.23227   0.00516   0.00000   0.01379   0.01336  40.24563
   Y78       31.74740   0.00236   0.00000   0.01162   0.00964  31.75704
   Z78       44.95658  -0.00042   0.00000  -0.00320  -0.00437  44.95221
   X79       42.84009   0.01141   0.00000   0.00108   0.00089  42.84098
   Y79       32.27652   0.00486   0.00000   0.02400   0.02201  32.29853
   Z79       45.99593  -0.00789   0.00000  -0.01173  -0.01351  45.98242
   X80       29.61201   0.00332   0.00000   0.00479   0.00182  29.61383
   Y80       45.78806   0.02217   0.00000   0.03354   0.03178  45.81985
   Z80       35.45126   0.00432   0.00000   0.00767   0.00968  35.46094
   X81       30.95371   0.00226   0.00000  -0.00014  -0.00304  30.95068
   Y81       44.59754  -0.00652   0.00000   0.00572   0.00398  44.60152
   Z81       35.69693  -0.00177   0.00000  -0.01074  -0.00910  35.68782
   X82       28.19471  -0.00188   0.00000   0.02318   0.02011  28.21482
   Y82       44.76761  -0.01269   0.00000  -0.01862  -0.02038  44.74723
   Z82       34.99773  -0.00292   0.00000  -0.00482  -0.00251  34.99521
   X83       31.78519  -0.00011   0.00000   0.02100   0.01954  31.80473
   Y83       47.09198   0.01276   0.00000   0.01617   0.01419  47.10616
   Z83       41.72515  -0.00257   0.00000  -0.00630  -0.00477  41.72039
   X84       32.25763  -0.00028   0.00000  -0.01697  -0.01845  32.23918
   Y84       45.35343  -0.01373   0.00000  -0.01437  -0.01634  45.33708
   Z84       41.57397  -0.00326   0.00000  -0.01408  -0.01273  41.56125
   X85       32.18204   0.00116   0.00000   0.00311   0.00206  32.18409
   Y85       47.50771  -0.00160   0.00000  -0.01028  -0.01233  47.49538
   Z85       43.44480   0.00464   0.00000   0.00959   0.01105  43.45585
   X86       45.52350   0.00004   0.00000  -0.01920  -0.02158  45.50192
   Y86       45.03217  -0.01578   0.00000  -0.01710  -0.01870  45.01347
   Z86       37.87011  -0.00477   0.00000  -0.00729  -0.00919  37.86093
   X87       45.46681   0.00575   0.00000   0.03342   0.03146  45.49827
   Y87       44.27628   0.00369   0.00000   0.01704   0.01537  44.29165
   Z87       39.53307   0.00179   0.00000   0.00982   0.00789  39.54096
   X88       44.95658  -0.00383   0.00000   0.00212  -0.00022  44.95637
   Y88       46.71403   0.01349   0.00000   0.01201   0.01039  46.72442
   Z88       38.13467   0.00211   0.00000  -0.00149  -0.00319  38.13149
   X89       47.22426   0.00651   0.00000   0.01228   0.00884  47.23309
   Y89       42.74561   0.00305   0.00000  -0.00159  -0.00297  42.74263
   Z89       33.35367  -0.01226   0.00000  -0.01251  -0.01493  33.33874
   X90       46.09042  -0.00410   0.00000   0.01282   0.00972  46.10014
   Y90       42.97237   0.00418   0.00000   0.02089   0.01943  42.99180
   Z90       34.75206   0.00926   0.00000   0.00794   0.00580  34.75787
   X91       47.81007  -0.00122   0.00000  -0.00973  -0.01310  47.79697
   Y91       41.04485  -0.00715   0.00000  -0.01514  -0.01652  41.02833
   Z91       33.52374   0.00269   0.00000   0.01013   0.00751  33.53125
   X92       44.12511  -0.00786   0.00000  -0.02041  -0.02506  44.10004
   Y92       42.02751   0.00377   0.00000  -0.01142  -0.01264  42.01487
   Z92       28.36479  -0.00956   0.00000  -0.03343  -0.03512  28.32967
   X93       45.56130   0.00605   0.00000   0.01645   0.01170  45.57300
   Y93       41.06375  -0.00328   0.00000   0.00028  -0.00090  41.06285
   Z93       27.83567   0.00233   0.00000   0.01691   0.01483  27.85049
   X94       43.46370   0.00049   0.00000   0.00955   0.00527  43.46897
   Y94       41.10154  -0.00049   0.00000   0.01437   0.01308  41.11462
   Z94       29.78208   0.00463   0.00000   0.00779   0.00622  29.78831
   X95       39.77874  -0.01597   0.00000  -0.01533  -0.01512  39.76362
   Y95       41.06375   0.00195   0.00000   0.01202   0.00989  41.07364
   Z95       48.22581  -0.00627   0.00000  -0.00480  -0.00546  48.22035
   X96       40.49683   0.00313   0.00000  -0.00488  -0.00467  40.49216
   Y96       39.40079  -0.00519   0.00000   0.00408   0.00197  39.40276
   Z96       48.09353  -0.00316   0.00000  -0.01720  -0.01811  48.07542
   X97       41.06375   0.01253   0.00000   0.01659   0.01698  41.08073
   Y97       42.06530   0.00504   0.00000  -0.00060  -0.00274  42.06256
   Z97       48.98170   0.00611   0.00000   0.00640   0.00546  48.98716
         Item               Value     Threshold  Converged?
 Maximum Force            0.033251     0.000450     NO 
 RMS     Force            0.009596     0.000300     NO 
 Maximum Displacement     0.058521     0.001800     NO 
 RMS     Displacement     0.017476     0.001200     NO 
 Predicted change in Energy=-2.524706D-02
 GradGradGradGradGradGradGradGradGradGradGradGradGradGradGradGradGradGrad

 Leave Link  103 at Thu May  3 01:06:48 2018, MaxMem= 14763950080 cpu:        52.5
 (Enter /cm/shared/gaussian/g09.e01/intel64-sandybridge/g09/l9999.exe)
 1\1\GINC-POPLE03\Force\RPBE1PBE\CC-pVDZ\Br1H64O32(1-)\M.PELUSO\03-May-
 2018\0\\#p PBE1PBE/cc-pvDZ force Counterpoise=2 noSymm\\forces on chlo
 ride comput - NWATER: 32\\-1,1\Br,20.,20.,20.\O,22.61,20.97,18.51\H,22
 .24,21.65,17.95\H,21.86,20.46,18.81\O,21.94,17.74,21.31\H,22.72,18.19,
 20.98\H,21.2,18.23,20.95\O,18.21,18.65,17.53\H,18.66,19.03,18.28\H,18.
 71,17.86,17.32\O,22.42,21.21,21.76\H,21.71,21.74,22.13\H,21.99,20.56,2
 1.21\O,17.95,22.25,21.21\H,18.72,22.78,21.02\H,18.25,21.35,21.08\O,18.
 15,19.66,22.92\H,18.82,19.77,22.24\H,17.71,20.51,22.96\O,17.67,21.78,1
 8.\H,18.32,21.66,18.69\H,18.04,21.33,17.24\O,15.97,19.66,19.66\H,16.66
 ,19.29,19.11\H,15.2,19.66,19.1\O,19.93,23.87,19.26\H,19.86,24.61,19.87
 \H,20.76,23.45,19.51\O,19.28,16.43,20.52\H,18.42,16.57,20.9\H,19.89,16
 .55,21.24\O,20.35,16.67,18.03\H,20.91,15.92,17.82\H,20.,16.47,18.9\O,2
 4.18,19.24,19.91\H,23.73,19.75,19.23\H,24.98,19.73,20.08\O,21.03,22.75
 ,17.01\H,20.21,22.98,17.45\H,20.75,22.31,16.21\O,17.62,16.92,22.69\H,1
 7.53,17.88,22.66\H,17.78,16.73,23.61\O,20.49,23.05,22.88\H,20.95,23.88
 ,22.78\H,20.31,22.99,23.82\O,20.93,20.51,15.41\H,20.99,19.59,15.69\H,2
 1.29,20.51,14.52\O,23.37,16.79,18.54\H,22.61,16.97,17.98\H,23.73,17.66
 ,18.73\O,23.88,19.3,23.74\H,23.4,19.71,23.02\H,24.61,19.91,23.91\O,21.
 08,17.81,15.42\H,20.52,17.48,16.13\H,21.88,17.28,15.49\O,21.89,15.02,2
 1.23\H,21.87,15.97,21.39\H,22.06,14.94,20.29\O,17.64,19.94,15.06\H,17.
 9,19.51,15.87\H,18.43,19.95,14.52\O,15.18,20.88,21.82\H,16.,21.28,22.1
 1\H,15.4,20.45,20.99\O,14.9,21.71,17.94\H,15.75,21.43,18.26\H,14.8,21.
 28,17.09\O,24.03,23.13,22.85\H,23.48,22.52,22.35\H,24.55,22.57,23.43\O
 ,16.11,16.47,17.25\H,16.56,17.25,17.57\H,15.46,16.8,16.64\O,21.76,17.,
 24.61\H,21.29,16.8,23.79\H,22.67,17.08,24.34\O,15.67,24.23,18.76\H,16.
 38,23.6,18.89\H,14.92,23.69,18.52\O,16.82,24.92,22.08\H,17.07,24.,22.\
 H,17.03,25.14,22.99\O,24.09,23.83,20.04\H,24.06,23.43,20.92\H,23.79,24
 .72,20.18\O,24.99,22.62,17.65\H,24.39,22.74,18.39\H,25.3,21.72,17.74\O
 ,23.35,22.24,15.01\H,24.11,21.73,14.73\H,23.,21.75,15.76\O,21.05,21.73
 ,25.52\H,21.43,20.85,25.45\H,21.73,22.26,25.92\\Version=ES64L-G09RevE.
 01\HF=-2443.2007126\RMSD=2.991e-09\RMSF=9.596e-03\Dipole=4.2017258,-0.
 1984144,0.4323724\Quadrupole=184.0347214,-170.999583,-13.0351384,-1283
 .2713964,-1239.1216664,-1374.7227011\PG=C01 [X(Br1H64O32)]\\@


 THE MOST INCOMPREHENSIBLE THING ABOUT THE WORLD
 IS THAT IT IS COMPREHENSIBLE. -- A. EINSTEIN
 Job cpu time:       0 days 10 hours  1 minutes 25.0 seconds.
 File lengths (MBytes):  RWF=    482 Int=      0 D2E=      0 Chk=    160 Scr=      1
 Normal termination of Gaussian 09 at Thu May  3 01:06:48 2018.
