 Entering Gaussian System, Link 0=/cm/shared/gaussian/g09.e01/intel64-sandybridge/g09/g09
 Initial command:
 /cm/shared/gaussian/g09.e01/intel64-sandybridge/g09/l1.exe "/local/scratch/m.peluso/32_wat/Gau-4336.inp" -scrdir="/local/scratch/m.peluso/32_wat/"
 Entering Link 1 = /cm/shared/gaussian/g09.e01/intel64-sandybridge/g09/l1.exe PID=      4337.
  
 Copyright (c) 1988,1990,1992,1993,1995,1998,2003,2009,2015,
            Gaussian, Inc.  All Rights Reserved.
  
 This is part of the Gaussian(R) 09 program.  It is based on
 the Gaussian(R) 03 system (copyright 2003, Gaussian, Inc.),
 the Gaussian(R) 98 system (copyright 1998, Gaussian, Inc.),
 the Gaussian(R) 94 system (copyright 1995, Gaussian, Inc.),
 the Gaussian 92(TM) system (copyright 1992, Gaussian, Inc.),
 the Gaussian 90(TM) system (copyright 1990, Gaussian, Inc.),
 the Gaussian 88(TM) system (copyright 1988, Gaussian, Inc.),
 the Gaussian 86(TM) system (copyright 1986, Carnegie Mellon
 University), and the Gaussian 82(TM) system (copyright 1983,
 Carnegie Mellon University). Gaussian is a federally registered
 trademark of Gaussian, Inc.
  
 This software contains proprietary and confidential information,
 including trade secrets, belonging to Gaussian, Inc.
  
 This software is provided under written license and may be
 used, copied, transmitted, or stored only in accord with that
 written license.
  
 The following legend is applicable only to US Government
 contracts under FAR:
  
                    RESTRICTED RIGHTS LEGEND
  
 Use, reproduction and disclosure by the US Government is
 subject to restrictions as set forth in subparagraphs (a)
 and (c) of the Commercial Computer Software - Restricted
 Rights clause in FAR 52.227-19.
  
 Gaussian, Inc.
 340 Quinnipiac St., Bldg. 40, Wallingford CT 06492
  
  
 ---------------------------------------------------------------
 Warning -- This program may not be used in any manner that
 competes with the business of Gaussian, Inc. or will provide
 assistance to any competitor of Gaussian, Inc.  The licensee
 of this program is prohibited from giving any competitor of
 Gaussian, Inc. access to this program.  By using this program,
 the user acknowledges that Gaussian, Inc. is engaged in the
 business of creating and licensing software in the field of
 computational chemistry and represents and warrants to the
 licensee that it is not a competitor of Gaussian, Inc. and that
 it will not use this program in any manner prohibited above.
 ---------------------------------------------------------------
  

 Cite this work as:
 Gaussian 09, Revision E.01,
 M. J. Frisch, G. W. Trucks, H. B. Schlegel, G. E. Scuseria, 
 M. A. Robb, J. R. Cheeseman, G. Scalmani, V. Barone, B. Mennucci, 
 G. A. Petersson, H. Nakatsuji, M. Caricato, X. Li, H. P. Hratchian, 
 A. F. Izmaylov, J. Bloino, G. Zheng, J. L. Sonnenberg, M. Hada, 
 M. Ehara, K. Toyota, R. Fukuda, J. Hasegawa, M. Ishida, T. Nakajima, 
 Y. Honda, O. Kitao, H. Nakai, T. Vreven, J. A. Montgomery, Jr., 
 J. E. Peralta, F. Ogliaro, M. Bearpark, J. J. Heyd, E. Brothers, 
 K. N. Kudin, V. N. Staroverov, T. Keith, R. Kobayashi, J. Normand, 
 K. Raghavachari, A. Rendell, J. C. Burant, S. S. Iyengar, J. Tomasi, 
 M. Cossi, N. Rega, J. M. Millam, M. Klene, J. E. Knox, J. B. Cross, 
 V. Bakken, C. Adamo, J. Jaramillo, R. Gomperts, R. E. Stratmann, 
 O. Yazyev, A. J. Austin, R. Cammi, C. Pomelli, J. W. Ochterski, 
 R. L. Martin, K. Morokuma, V. G. Zakrzewski, G. A. Voth, 
 P. Salvador, J. J. Dannenberg, S. Dapprich, A. D. Daniels, 
 O. Farkas, J. B. Foresman, J. V. Ortiz, J. Cioslowski, 
 and D. J. Fox, Gaussian, Inc., Wallingford CT, 2013.
 
 ******************************************
 Gaussian 09:  ES64L-G09RevE.01 30-Nov-2015
                 3-May-2018 
 ******************************************
 %Mem=110GB
 %NProcShared=64
 Will use up to   64 processors via shared memory.
 %chk=snap19.chk
 ----------------------------------------------
 #p PBE1PBE/cc-pvDZ force Counterpoise=2 noSymm
 ----------------------------------------------
 1/10=7,30=1,38=1,62=2/1,3;
 2/12=2,15=1,17=6,18=5,40=1/2;
 1/10=7,30=1,38=1,53=2,62=2,63=101/22;
 3/5=16,11=2,16=1,25=1,30=1,71=1,74=-13/1,2,3;
 4//1;
 5/5=2,38=5/2;
 6/7=2,8=2,9=2,10=2,28=1/1;
 7/7=1,29=1,30=1,33=-1/1,2,3,16;
 1/10=7,30=1,53=2,62=2,63=101/22;
 3/5=7,6=11,11=2,16=1,25=1,30=1,71=1,74=-13,82=7/1,2,3;
 4//1;
 5/5=2,38=5/2;
 6/7=2,8=2,9=2,10=2,28=1/1;
 7/7=1,29=1,30=1,33=-1/1,2,3,16;
 1/10=7,30=1,53=2,62=2,63=101/22(-5);
 7/9=1,29=1,44=-1/16;
 1/10=7,30=1,62=2/3;
 99//99;
 Leave Link    1 at Thu May  3 09:22:27 2018, MaxMem= 14763950080 cpu:         7.7
 (Enter /cm/shared/gaussian/g09.e01/intel64-sandybridge/g09/l101.exe)
 --------------------------------------
 forces on chloride comput - NWATER: 32
 --------------------------------------
 Symbolic Z-matrix:
 Charge = -1 Multiplicity = 1 in supermolecule
 Charge = -1 Multiplicity = 1 in fragment      1.
 Charge =  0 Multiplicity = 1 in fragment      2.
 Br(Fragment=1)        20.       20.       20. 
 O(Fragment=2)         20.97     17.41     18.41 
 H(Fragment=2)         21.37     17.78     17.62 
 H(Fragment=2)         20.84     18.17     18.98 
 O(Fragment=2)         20.71     22.66     21.48 
 H(Fragment=2)         20.82     23.2      20.7 
 H(Fragment=2)         20.17     21.93     21.19 
 O(Fragment=2)         17.28     19.96     18.18 
 H(Fragment=2)         18.01     19.88     18.79 
 H(Fragment=2)         17.02     20.88     18.24 
 O(Fragment=2)         22.84     19.11     21.38 
 H(Fragment=2)         23.25     18.93     20.54 
 H(Fragment=2)         22.       19.51     21.16 
 O(Fragment=2)         19.11     17.71     22.51 
 H(Fragment=2)         19.83     17.1      22.65 
 H(Fragment=2)         19.44     18.33     21.86 
 O(Fragment=2)         21.02     21.43     16.95 
 H(Fragment=2)         20.57     20.98     17.65 
 H(Fragment=2)         20.42     21.38     16.2 
 O(Fragment=2)         17.04     20.75     21.84 
 H(Fragment=2)         17.56     20.68     22.64 
 H(Fragment=2)         17.67     20.94     21.16 
 O(Fragment=2)         18.11     23.21     19.93 
 H(Fragment=2)         18.69     23.02     19.19 
 H(Fragment=2)         17.24     22.96     19.63 
 O(Fragment=2)         21.5      23.77     19.05 
 H(Fragment=2)         21.77     22.85     18.97 
 H(Fragment=2)         22.31     24.27     19. 
 O(Fragment=2)         23.59     21.81     19.3 
 H(Fragment=2)         23.52     20.85     19.28 
 H(Fragment=2)         24.02     22.03     18.47 
 O(Fragment=2)         23.74     18.91     18.8 
 H(Fragment=2)         23.13     18.9      18.06 
 H(Fragment=2)         24.55     18.52     18.45 
 O(Fragment=2)         16.88     17.05     18.67 
 H(Fragment=2)         17.73     16.68     18.44 
 H(Fragment=2)         16.93     17.96     18.37 
 O(Fragment=2)         23.56     21.4      22.97 
 H(Fragment=2)         23.22     20.78     22.33 
 H(Fragment=2)         22.78     21.74     23.41 
 O(Fragment=2)         19.09     21.98     24.11 
 H(Fragment=2)         18.32     22.5      23.9 
 H(Fragment=2)         19.72     22.2      23.43 
 O(Fragment=2)         22.91     16.17     21.35 
 H(Fragment=2)         22.24     15.86     21.96 
 H(Fragment=2)         22.59     17.02     21.05 
 O(Fragment=2)         17.53     15.83     21.48 
 H(Fragment=2)         17.12     16.36     20.8 
 H(Fragment=2)         18.24     16.38     21.82 
 O(Fragment=2)         19.06     15.47     17.8 
 H(Fragment=2)         19.09     14.87     18.55 
 H(Fragment=2)         19.87     15.98     17.86 
 O(Fragment=2)         16.57     18.27     23.9 
 H(Fragment=2)         16.15     17.42     23.83 
 H(Fragment=2)         17.39     18.17     23.4 
 O(Fragment=2)         18.44     24.41     22.2 
 H(Fragment=2)         18.17     24.08     21.35 
 H(Fragment=2)         19.08     25.1      22.01 
 O(Fragment=2)         22.36     24.4      22.64 
 H(Fragment=2)         22.17     24.       23.48 
 H(Fragment=2)         21.81     23.93     22.01 
 O(Fragment=2)         17.33     22.61     16.61 
 H(Fragment=2)         16.6      22.95     17.12 
 H(Fragment=2)         18.08     23.14     16.87 
 O(Fragment=2)         15.62     22.23     19.05 
 H(Fragment=2)         15.01     22.81     18.61 
 H(Fragment=2)         15.13     21.87     19.79 
 O(Fragment=2)         22.79     21.12     14.88 
 H(Fragment=2)         21.99     20.97     14.38 
 H(Fragment=2)         22.5      21.21     15.79 
 O(Fragment=2)         22.72     18.01     16.18 
 H(Fragment=2)         22.24     18.66     15.67 
 H(Fragment=2)         23.62     18.07     15.87 
 O(Fragment=2)         19.45     24.71     16.95 
 H(Fragment=2)         19.78     25.41     16.4 
 H(Fragment=2)         20.15     24.53     17.58 
 O(Fragment=2)         15.16     19.43     16.25 
 H(Fragment=2)         15.67     19.78     15.51 
 H(Fragment=2)         15.73     19.54     17.01 
 O(Fragment=2)         24.65     18.6      23.71 
 H(Fragment=2)         25.34     19.25     23.57 
 H(Fragment=2)         24.19     18.56     22.88 
 O(Fragment=2)         14.25     21.5      21.2 
 H(Fragment=2)         13.88     22.17     21.78 
 H(Fragment=2)         15.08     21.27     21.61 
 O(Fragment=2)         14.26     17.31     20.19 
 H(Fragment=2)         15.14     17.19     20.55 
 H(Fragment=2)         14.36     17.18     19.25 
 O(Fragment=2)         19.29     13.89     19.87 
 H(Fragment=2)         19.8      13.24     20.36 
 H(Fragment=2)         18.91     14.45     20.54 
 O(Fragment=2)         23.99     24.97     19.83 
 H(Fragment=2)         24.87     25.25     20.06 
 H(Fragment=2)         23.74     24.35     20.51 
 O(Fragment=2)         20.69     15.74     23.92 
 H(Fragment=2)         21.42     15.89     24.51 
 H(Fragment=2)         19.91     15.79     24.48 
 
 NAtoms=     97 NQM=       97 NQMF=       0 NMMI=      0 NMMIF=      0
                NMic=       0 NMicF=      0.
                    Isotopes and Nuclear Properties:
 (Nuclear quadrupole moments (NQMom) in fm**2, nuclear magnetic moments (NMagM)
  in nuclear magnetons)

  Atom         1           2           3           4           5           6           7           8           9          10
 IAtWgt=          79          16           1           1          16           1           1          16           1           1
 AtmWgt=  78.9183361  15.9949146   1.0078250   1.0078250  15.9949146   1.0078250   1.0078250  15.9949146   1.0078250   1.0078250
 NucSpn=           3           0           1           1           0           1           1           0           1           1
 AtZEff=   0.0000000   0.0000000   0.0000000   0.0000000   0.0000000   0.0000000   0.0000000   0.0000000   0.0000000   0.0000000
 NQMom=   31.3000000   0.0000000   0.0000000   0.0000000   0.0000000   0.0000000   0.0000000   0.0000000   0.0000000   0.0000000
 NMagM=    2.1063990   0.0000000   2.7928460   2.7928460   0.0000000   2.7928460   2.7928460   0.0000000   2.7928460   2.7928460
 AtZNuc=  35.0000000   8.0000000   1.0000000   1.0000000   8.0000000   1.0000000   1.0000000   8.0000000   1.0000000   1.0000000

  Atom        11          12          13          14          15          16          17          18          19          20
 IAtWgt=          16           1           1          16           1           1          16           1           1          16
 AtmWgt=  15.9949146   1.0078250   1.0078250  15.9949146   1.0078250   1.0078250  15.9949146   1.0078250   1.0078250  15.9949146
 NucSpn=           0           1           1           0           1           1           0           1           1           0
 AtZEff=   0.0000000   0.0000000   0.0000000   0.0000000   0.0000000   0.0000000   0.0000000   0.0000000   0.0000000   0.0000000
 NQMom=    0.0000000   0.0000000   0.0000000   0.0000000   0.0000000   0.0000000   0.0000000   0.0000000   0.0000000   0.0000000
 NMagM=    0.0000000   2.7928460   2.7928460   0.0000000   2.7928460   2.7928460   0.0000000   2.7928460   2.7928460   0.0000000
 AtZNuc=   8.0000000   1.0000000   1.0000000   8.0000000   1.0000000   1.0000000   8.0000000   1.0000000   1.0000000   8.0000000

  Atom        21          22          23          24          25          26          27          28          29          30
 IAtWgt=           1           1          16           1           1          16           1           1          16           1
 AtmWgt=   1.0078250   1.0078250  15.9949146   1.0078250   1.0078250  15.9949146   1.0078250   1.0078250  15.9949146   1.0078250
 NucSpn=           1           1           0           1           1           0           1           1           0           1
 AtZEff=   0.0000000   0.0000000   0.0000000   0.0000000   0.0000000   0.0000000   0.0000000   0.0000000   0.0000000   0.0000000
 NQMom=    0.0000000   0.0000000   0.0000000   0.0000000   0.0000000   0.0000000   0.0000000   0.0000000   0.0000000   0.0000000
 NMagM=    2.7928460   2.7928460   0.0000000   2.7928460   2.7928460   0.0000000   2.7928460   2.7928460   0.0000000   2.7928460
 AtZNuc=   1.0000000   1.0000000   8.0000000   1.0000000   1.0000000   8.0000000   1.0000000   1.0000000   8.0000000   1.0000000

  Atom        31          32          33          34          35          36          37          38          39          40
 IAtWgt=           1          16           1           1          16           1           1          16           1           1
 AtmWgt=   1.0078250  15.9949146   1.0078250   1.0078250  15.9949146   1.0078250   1.0078250  15.9949146   1.0078250   1.0078250
 NucSpn=           1           0           1           1           0           1           1           0           1           1
 AtZEff=   0.0000000   0.0000000   0.0000000   0.0000000   0.0000000   0.0000000   0.0000000   0.0000000   0.0000000   0.0000000
 NQMom=    0.0000000   0.0000000   0.0000000   0.0000000   0.0000000   0.0000000   0.0000000   0.0000000   0.0000000   0.0000000
 NMagM=    2.7928460   0.0000000   2.7928460   2.7928460   0.0000000   2.7928460   2.7928460   0.0000000   2.7928460   2.7928460
 AtZNuc=   1.0000000   8.0000000   1.0000000   1.0000000   8.0000000   1.0000000   1.0000000   8.0000000   1.0000000   1.0000000

  Atom        41          42          43          44          45          46          47          48          49          50
 IAtWgt=          16           1           1          16           1           1          16           1           1          16
 AtmWgt=  15.9949146   1.0078250   1.0078250  15.9949146   1.0078250   1.0078250  15.9949146   1.0078250   1.0078250  15.9949146
 NucSpn=           0           1           1           0           1           1           0           1           1           0
 AtZEff=   0.0000000   0.0000000   0.0000000   0.0000000   0.0000000   0.0000000   0.0000000   0.0000000   0.0000000   0.0000000
 NQMom=    0.0000000   0.0000000   0.0000000   0.0000000   0.0000000   0.0000000   0.0000000   0.0000000   0.0000000   0.0000000
 NMagM=    0.0000000   2.7928460   2.7928460   0.0000000   2.7928460   2.7928460   0.0000000   2.7928460   2.7928460   0.0000000
 AtZNuc=   8.0000000   1.0000000   1.0000000   8.0000000   1.0000000   1.0000000   8.0000000   1.0000000   1.0000000   8.0000000

  Atom        51          52          53          54          55          56          57          58          59          60
 IAtWgt=           1           1          16           1           1          16           1           1          16           1
 AtmWgt=   1.0078250   1.0078250  15.9949146   1.0078250   1.0078250  15.9949146   1.0078250   1.0078250  15.9949146   1.0078250
 NucSpn=           1           1           0           1           1           0           1           1           0           1
 AtZEff=   0.0000000   0.0000000   0.0000000   0.0000000   0.0000000   0.0000000   0.0000000   0.0000000   0.0000000   0.0000000
 NQMom=    0.0000000   0.0000000   0.0000000   0.0000000   0.0000000   0.0000000   0.0000000   0.0000000   0.0000000   0.0000000
 NMagM=    2.7928460   2.7928460   0.0000000   2.7928460   2.7928460   0.0000000   2.7928460   2.7928460   0.0000000   2.7928460
 AtZNuc=   1.0000000   1.0000000   8.0000000   1.0000000   1.0000000   8.0000000   1.0000000   1.0000000   8.0000000   1.0000000

  Atom        61          62          63          64          65          66          67          68          69          70
 IAtWgt=           1          16           1           1          16           1           1          16           1           1
 AtmWgt=   1.0078250  15.9949146   1.0078250   1.0078250  15.9949146   1.0078250   1.0078250  15.9949146   1.0078250   1.0078250
 NucSpn=           1           0           1           1           0           1           1           0           1           1
 AtZEff=   0.0000000   0.0000000   0.0000000   0.0000000   0.0000000   0.0000000   0.0000000   0.0000000   0.0000000   0.0000000
 NQMom=    0.0000000   0.0000000   0.0000000   0.0000000   0.0000000   0.0000000   0.0000000   0.0000000   0.0000000   0.0000000
 NMagM=    2.7928460   0.0000000   2.7928460   2.7928460   0.0000000   2.7928460   2.7928460   0.0000000   2.7928460   2.7928460
 AtZNuc=   1.0000000   8.0000000   1.0000000   1.0000000   8.0000000   1.0000000   1.0000000   8.0000000   1.0000000   1.0000000

  Atom        71          72          73          74          75          76          77          78          79          80
 IAtWgt=          16           1           1          16           1           1          16           1           1          16
 AtmWgt=  15.9949146   1.0078250   1.0078250  15.9949146   1.0078250   1.0078250  15.9949146   1.0078250   1.0078250  15.9949146
 NucSpn=           0           1           1           0           1           1           0           1           1           0
 AtZEff=   0.0000000   0.0000000   0.0000000   0.0000000   0.0000000   0.0000000   0.0000000   0.0000000   0.0000000   0.0000000
 NQMom=    0.0000000   0.0000000   0.0000000   0.0000000   0.0000000   0.0000000   0.0000000   0.0000000   0.0000000   0.0000000
 NMagM=    0.0000000   2.7928460   2.7928460   0.0000000   2.7928460   2.7928460   0.0000000   2.7928460   2.7928460   0.0000000
 AtZNuc=   8.0000000   1.0000000   1.0000000   8.0000000   1.0000000   1.0000000   8.0000000   1.0000000   1.0000000   8.0000000

  Atom        81          82          83          84          85          86          87          88          89          90
 IAtWgt=           1           1          16           1           1          16           1           1          16           1
 AtmWgt=   1.0078250   1.0078250  15.9949146   1.0078250   1.0078250  15.9949146   1.0078250   1.0078250  15.9949146   1.0078250
 NucSpn=           1           1           0           1           1           0           1           1           0           1
 AtZEff=   0.0000000   0.0000000   0.0000000   0.0000000   0.0000000   0.0000000   0.0000000   0.0000000   0.0000000   0.0000000
 NQMom=    0.0000000   0.0000000   0.0000000   0.0000000   0.0000000   0.0000000   0.0000000   0.0000000   0.0000000   0.0000000
 NMagM=    2.7928460   2.7928460   0.0000000   2.7928460   2.7928460   0.0000000   2.7928460   2.7928460   0.0000000   2.7928460
 AtZNuc=   1.0000000   1.0000000   8.0000000   1.0000000   1.0000000   8.0000000   1.0000000   1.0000000   8.0000000   1.0000000

  Atom        91          92          93          94          95          96          97
 IAtWgt=           1          16           1           1          16           1           1
 AtmWgt=   1.0078250  15.9949146   1.0078250   1.0078250  15.9949146   1.0078250   1.0078250
 NucSpn=           1           0           1           1           0           1           1
 AtZEff=   0.0000000   0.0000000   0.0000000   0.0000000   0.0000000   0.0000000   0.0000000
 NQMom=    0.0000000   0.0000000   0.0000000   0.0000000   0.0000000   0.0000000   0.0000000
 NMagM=    2.7928460   0.0000000   2.7928460   2.7928460   0.0000000   2.7928460   2.7928460
 AtZNuc=   1.0000000   8.0000000   1.0000000   1.0000000   8.0000000   1.0000000   1.0000000
 Leave Link  101 at Thu May  3 09:22:27 2018, MaxMem= 14763950080 cpu:        15.0
 (Enter /cm/shared/gaussian/g09.e01/intel64-sandybridge/g09/l103.exe)

 GradGradGradGradGradGradGradGradGradGradGradGradGradGradGradGradGradGrad
 Berny optimization.
 Initialization pass.
 Trust Radius=3.00D-01 FncErr=1.00D-07 GrdErr=1.00D-07
 Number of steps in this run=      2 maximum allowed number of steps=      2.
 GradGradGradGradGradGradGradGradGradGradGradGradGradGradGradGradGradGrad

 Leave Link  103 at Thu May  3 09:22:27 2018, MaxMem= 14763950080 cpu:         2.3
 (Enter /cm/shared/gaussian/g09.e01/intel64-sandybridge/g09/l202.exe)
 Symmetry turned off by external request.
 Stoichiometry    BrH64O32(1-)
 Framework group  C1[X(BrH64O32)]
 Deg. of freedom   285
 Full point group                 C1      NOp   1
                          Input orientation:                          
 ---------------------------------------------------------------------
 Center     Atomic      Atomic             Coordinates (Angstroms)
 Number     Number       Type             X           Y           Z
 ---------------------------------------------------------------------
      1         35           0       20.000000   20.000000   20.000000
      2          8           0       20.970000   17.410000   18.410000
      3          1           0       21.370000   17.780000   17.620000
      4          1           0       20.840000   18.170000   18.980000
      5          8           0       20.710000   22.660000   21.480000
      6          1           0       20.820000   23.200000   20.700000
      7          1           0       20.170000   21.930000   21.190000
      8          8           0       17.280000   19.960000   18.180000
      9          1           0       18.010000   19.880000   18.790000
     10          1           0       17.020000   20.880000   18.240000
     11          8           0       22.840000   19.110000   21.380000
     12          1           0       23.250000   18.930000   20.540000
     13          1           0       22.000000   19.510000   21.160000
     14          8           0       19.110000   17.710000   22.510000
     15          1           0       19.830000   17.100000   22.650000
     16          1           0       19.440000   18.330000   21.860000
     17          8           0       21.020000   21.430000   16.950000
     18          1           0       20.570000   20.980000   17.650000
     19          1           0       20.420000   21.380000   16.200000
     20          8           0       17.040000   20.750000   21.840000
     21          1           0       17.560000   20.680000   22.640000
     22          1           0       17.670000   20.940000   21.160000
     23          8           0       18.110000   23.210000   19.930000
     24          1           0       18.690000   23.020000   19.190000
     25          1           0       17.240000   22.960000   19.630000
     26          8           0       21.500000   23.770000   19.050000
     27          1           0       21.770000   22.850000   18.970000
     28          1           0       22.310000   24.270000   19.000000
     29          8           0       23.590000   21.810000   19.300000
     30          1           0       23.520000   20.850000   19.280000
     31          1           0       24.020000   22.030000   18.470000
     32          8           0       23.740000   18.910000   18.800000
     33          1           0       23.130000   18.900000   18.060000
     34          1           0       24.550000   18.520000   18.450000
     35          8           0       16.880000   17.050000   18.670000
     36          1           0       17.730000   16.680000   18.440000
     37          1           0       16.930000   17.960000   18.370000
     38          8           0       23.560000   21.400000   22.970000
     39          1           0       23.220000   20.780000   22.330000
     40          1           0       22.780000   21.740000   23.410000
     41          8           0       19.090000   21.980000   24.110000
     42          1           0       18.320000   22.500000   23.900000
     43          1           0       19.720000   22.200000   23.430000
     44          8           0       22.910000   16.170000   21.350000
     45          1           0       22.240000   15.860000   21.960000
     46          1           0       22.590000   17.020000   21.050000
     47          8           0       17.530000   15.830000   21.480000
     48          1           0       17.120000   16.360000   20.800000
     49          1           0       18.240000   16.380000   21.820000
     50          8           0       19.060000   15.470000   17.800000
     51          1           0       19.090000   14.870000   18.550000
     52          1           0       19.870000   15.980000   17.860000
     53          8           0       16.570000   18.270000   23.900000
     54          1           0       16.150000   17.420000   23.830000
     55          1           0       17.390000   18.170000   23.400000
     56          8           0       18.440000   24.410000   22.200000
     57          1           0       18.170000   24.080000   21.350000
     58          1           0       19.080000   25.100000   22.010000
     59          8           0       22.360000   24.400000   22.640000
     60          1           0       22.170000   24.000000   23.480000
     61          1           0       21.810000   23.930000   22.010000
     62          8           0       17.330000   22.610000   16.610000
     63          1           0       16.600000   22.950000   17.120000
     64          1           0       18.080000   23.140000   16.870000
     65          8           0       15.620000   22.230000   19.050000
     66          1           0       15.010000   22.810000   18.610000
     67          1           0       15.130000   21.870000   19.790000
     68          8           0       22.790000   21.120000   14.880000
     69          1           0       21.990000   20.970000   14.380000
     70          1           0       22.500000   21.210000   15.790000
     71          8           0       22.720000   18.010000   16.180000
     72          1           0       22.240000   18.660000   15.670000
     73          1           0       23.620000   18.070000   15.870000
     74          8           0       19.450000   24.710000   16.950000
     75          1           0       19.780000   25.410000   16.400000
     76          1           0       20.150000   24.530000   17.580000
     77          8           0       15.160000   19.430000   16.250000
     78          1           0       15.670000   19.780000   15.510000
     79          1           0       15.730000   19.540000   17.010000
     80          8           0       24.650000   18.600000   23.710000
     81          1           0       25.340000   19.250000   23.570000
     82          1           0       24.190000   18.560000   22.880000
     83          8           0       14.250000   21.500000   21.200000
     84          1           0       13.880000   22.170000   21.780000
     85          1           0       15.080000   21.270000   21.610000
     86          8           0       14.260000   17.310000   20.190000
     87          1           0       15.140000   17.190000   20.550000
     88          1           0       14.360000   17.180000   19.250000
     89          8           0       19.290000   13.890000   19.870000
     90          1           0       19.800000   13.240000   20.360000
     91          1           0       18.910000   14.450000   20.540000
     92          8           0       23.990000   24.970000   19.830000
     93          1           0       24.870000   25.250000   20.060000
     94          1           0       23.740000   24.350000   20.510000
     95          8           0       20.690000   15.740000   23.920000
     96          1           0       21.420000   15.890000   24.510000
     97          1           0       19.910000   15.790000   24.480000
 ---------------------------------------------------------------------
 Rotational constants (GHZ):      0.0607273      0.0549297      0.0481112
 Leave Link  202 at Thu May  3 09:22:27 2018, MaxMem= 14763950080 cpu:         0.6
 (Enter /cm/shared/gaussian/g09.e01/intel64-sandybridge/g09/l122.exe)
 Counterpoise: doing full dimer calculation.
 Leave Link  122 at Thu May  3 09:22:27 2018, MaxMem= 14763950080 cpu:         0.0
 (Enter /cm/shared/gaussian/g09.e01/intel64-sandybridge/g09/l301.exe)
 Standard basis: CC-pVDZ (5D, 7F)
 Ernie: Thresh=  0.10000D-02 Tol=  0.10000D-05 Strict=F.
 Ernie:  87 primitive shells out of 1114 were deleted.
   795 basis functions,  1651 primitive gaussians,   829 cartesian basis functions
   178 alpha electrons      178 beta electrons
       nuclear repulsion energy      6108.0137920608 Hartrees.
 IExCor= 1009 DFT=T Ex+Corr=PBE1PBE ExCW=0 ScaHFX=  0.250000
 ScaDFX=  0.750000  0.750000  1.000000  1.000000 ScalE2=  1.000000  1.000000
 IRadAn=      0 IRanWt=     -1 IRanGd=            0 ICorTp=0 IEmpDi=  4
 NAtoms=   97 NActive=   97 NUniq=   97 SFac= 1.00D+00 NAtFMM=   60 NAOKFM=T Big=T
 Integral buffers will be    131072 words long.
 Raffenetti 2 integral format.
 Two-electron integral symmetry is turned off.
 Leave Link  301 at Thu May  3 09:22:27 2018, MaxMem= 14763950080 cpu:         6.4
 (Enter /cm/shared/gaussian/g09.e01/intel64-sandybridge/g09/l302.exe)
 NPDir=0 NMtPBC=     1 NCelOv=     1 NCel=       1 NClECP=     1 NCelD=      1
         NCelK=      1 NCelE2=     1 NClLst=     1 CellRange=     0.0.
 One-electron integrals computed using PRISM.
 NBasis=   795 RedAO= T EigKep=  1.48D-02  NBF=   795
 NBsUse=   795 1.00D-06 EigRej= -1.00D+00 NBFU=   795
 Precomputing XC quadrature grid using
 IXCGrd= 4 IRadAn=           0 IRanWt=          -1 IRanGd=           0 AccXCQ= 0.00D+00.
 Generated NRdTot=       0 NPtTot=           0 NUsed=           0 NTot=          32
 NSgBfM=   708   711   714   714   724 MxSgAt=    97 MxSgA2=    97.
 Leave Link  302 at Thu May  3 09:22:35 2018, MaxMem= 14763950080 cpu:       477.7
 (Enter /cm/shared/gaussian/g09.e01/intel64-sandybridge/g09/l303.exe)
 DipDrv:  MaxL=1.
 Leave Link  303 at Thu May  3 09:22:35 2018, MaxMem= 14763950080 cpu:        30.8
 (Enter /cm/shared/gaussian/g09.e01/intel64-sandybridge/g09/l401.exe)
 ExpMin= 1.22D-01 ExpMax= 6.40D+05 ExpMxC= 6.18D+03 IAcc=2 IRadAn=         4 AccDes= 0.00D+00
 Harris functional with IExCor= 1009 and IRadAn=       4 diagonalized for initial guess.
 HarFok:  IExCor= 1009 AccDes= 0.00D+00 IRadAn=         4 IDoV= 1 UseB2=F ITyADJ=14
 ICtDFT=  3500011 ScaDFX=  1.000000  1.000000  1.000000  1.000000
 FoFCou: FMM=F IPFlag=           0 FMFlag=      100000 FMFlg1=        2001
         NFxFlg=           0 DoJE=T BraDBF=F KetDBF=T FulRan=T
         wScrn=  0.000000 ICntrl=     500 IOpCl=  0 I1Cent=   200000004 NGrid=           0
         NMat0=    1 NMatS0=      1 NMatT0=    0 NMatD0=    1 NMtDS0=    0 NMtDT0=    0
 Symmetry not used in FoFCou.
 Harris En= -5018.43077471137    
 JPrj=0 DoOrth=F DoCkMO=F.
 Leave Link  401 at Thu May  3 09:22:41 2018, MaxMem= 14763950080 cpu:       325.7
 (Enter /cm/shared/gaussian/g09.e01/intel64-sandybridge/g09/l502.exe)
 Closed shell SCF:
 Using DIIS extrapolation, IDIIS=  1040.
 Two-electron integral symmetry not used.
 IVT=     2138497 IEndB=     2138497 NGot= 14763950080 MDV= 14762516294
 LenX= 14762516294 LenY= 14761828224
 Requested convergence on RMS density matrix=1.00D-08 within 128 cycles.
 Requested convergence on MAX density matrix=1.00D-06.
 Requested convergence on             energy=1.00D-06.
 No special actions if energy rises.
 Fock matrices will be formed incrementally for  20 cycles.
 Integral accuracy reduced to 1.0D-05 until final iterations.

 Cycle   1  Pass 0  IDiag  1:
 FoFJK:  IHMeth= 1 ICntrl=       0 DoSepK=F KAlg= 0 I1Cent=   0 FoldK=F
 IRaf= 830000000 NMat=   1 IRICut=       1 DoRegI=T DoRafI=F ISym2E= 0.
 FoFCou: FMM=T IPFlag=           0 FMFlag=      100000 FMFlg1=        2001
         NFxFlg=           0 DoJE=F BraDBF=F KetDBF=F FulRan=T
         wScrn=  0.000000 ICntrl=       0 IOpCl=  0 I1Cent=           0 NGrid=           0
         NMat0=    1 NMatS0=      1 NMatT0=    0 NMatD0=    1 NMtDS0=    0 NMtDT0=    0
 Symmetry not used in FoFCou.
 FMM levels:  10  Number of levels for PrismC:   9
 E= -5015.32840955778    
 DIIS: error= 3.45D-02 at cycle   1 NSaved=   1.
 NSaved= 1 IEnMin= 1 EnMin= -5015.32840955778     IErMin= 1 ErrMin= 3.45D-02
 ErrMax= 3.45D-02  0.00D+00 EMaxC= 1.00D-01 BMatC= 2.71D+00 BMatP= 2.71D+00
 IDIUse=3 WtCom= 6.55D-01 WtEn= 3.45D-01
 Coeff-Com:  0.100D+01
 Coeff-En:   0.100D+01
 Coeff:      0.100D+01
 Gap=     0.314 Goal=   None    Shift=    0.000
 GapD=    0.314 DampG=1.000 DampE=0.500 DampFc=0.5000 IDamp=-1.
 Damping current iteration by 5.00D-01
 RMSDP=2.82D-03 MaxDP=1.60D-01              OVMax= 1.72D-01

 Cycle   2  Pass 0  IDiag  1:
 RMSU=  1.40D-03    CP:  9.85D-01
 E= -5016.12124644037     Delta-E=       -0.792836882587 Rises=F Damp=T
 DIIS: error= 7.17D-03 at cycle   2 NSaved=   2.
 NSaved= 2 IEnMin= 2 EnMin= -5016.12124644037     IErMin= 2 ErrMin= 7.17D-03
 ErrMax= 7.17D-03  0.00D+00 EMaxC= 1.00D-01 BMatC= 8.45D-02 BMatP= 2.71D+00
 IDIUse=3 WtCom= 9.28D-01 WtEn= 7.17D-02
 Coeff-Com:  0.118D+00 0.882D+00
 Coeff-En:   0.211D+00 0.789D+00
 Coeff:      0.124D+00 0.876D+00
 Gap=     0.222 Goal=   None    Shift=    0.000
 RMSDP=3.45D-04 MaxDP=1.82D-02 DE=-7.93D-01 OVMax= 9.27D-02

 Cycle   3  Pass 0  IDiag  1:
 RMSU=  2.74D-04    CP:  9.87D-01  8.51D-01
 E= -5017.26148506225     Delta-E=       -1.140238621882 Rises=F Damp=F
 DIIS: error= 1.11D-03 at cycle   3 NSaved=   3.
 NSaved= 3 IEnMin= 3 EnMin= -5017.26148506225     IErMin= 3 ErrMin= 1.11D-03
 ErrMax= 1.11D-03  0.00D+00 EMaxC= 1.00D-01 BMatC= 1.61D-03 BMatP= 8.45D-02
 IDIUse=3 WtCom= 9.89D-01 WtEn= 1.11D-02
 Coeff-Com:  0.800D-02 0.646D-01 0.927D+00
 Coeff-En:   0.000D+00 0.000D+00 0.100D+01
 Coeff:      0.791D-02 0.639D-01 0.928D+00
 Gap=     0.254 Goal=   None    Shift=    0.000
 RMSDP=9.34D-05 MaxDP=1.43D-02 DE=-1.14D+00 OVMax= 1.56D-02

 Cycle   4  Pass 0  IDiag  1:
 RMSU=  8.12D-05    CP:  9.87D-01  8.55D-01  8.33D-01
 E= -5017.26199756640     Delta-E=       -0.000512504144 Rises=F Damp=F
 DIIS: error= 1.05D-03 at cycle   4 NSaved=   4.
 NSaved= 4 IEnMin= 4 EnMin= -5017.26199756640     IErMin= 4 ErrMin= 1.05D-03
 ErrMax= 1.05D-03  0.00D+00 EMaxC= 1.00D-01 BMatC= 1.46D-03 BMatP= 1.61D-03
 IDIUse=3 WtCom= 9.89D-01 WtEn= 1.05D-02
 Coeff-Com:  0.177D-02 0.807D-02 0.485D+00 0.505D+00
 Coeff-En:   0.000D+00 0.000D+00 0.405D+00 0.595D+00
 Coeff:      0.175D-02 0.799D-02 0.485D+00 0.506D+00
 Gap=     0.233 Goal=   None    Shift=    0.000
 RMSDP=3.96D-05 MaxDP=5.77D-03 DE=-5.13D-04 OVMax= 6.01D-03

 Cycle   5  Pass 0  IDiag  1:
 RMSU=  1.63D-05    CP:  9.87D-01  8.53D-01  8.92D-01  6.04D-01
 E= -5017.26318046966     Delta-E=       -0.001182903261 Rises=F Damp=F
 DIIS: error= 1.11D-04 at cycle   5 NSaved=   5.
 NSaved= 5 IEnMin= 5 EnMin= -5017.26318046966     IErMin= 5 ErrMin= 1.11D-04
 ErrMax= 1.11D-04  0.00D+00 EMaxC= 1.00D-01 BMatC= 3.58D-05 BMatP= 1.46D-03
 IDIUse=3 WtCom= 9.99D-01 WtEn= 1.11D-03
 Coeff-Com:  0.598D-03-0.131D-02 0.142D+00 0.189D+00 0.670D+00
 Coeff-En:   0.000D+00 0.000D+00 0.000D+00 0.000D+00 0.100D+01
 Coeff:      0.597D-03-0.130D-02 0.142D+00 0.188D+00 0.671D+00
 Gap=     0.233 Goal=   None    Shift=    0.000
 RMSDP=7.79D-06 MaxDP=1.01D-03 DE=-1.18D-03 OVMax= 1.13D-03

 Cycle   6  Pass 0  IDiag  1:
 RMSU=  5.31D-06    CP:  9.87D-01  8.52D-01  9.02D-01  5.86D-01  7.14D-01
 E= -5017.26320611327     Delta-E=       -0.000025643609 Rises=F Damp=F
 DIIS: error= 1.03D-04 at cycle   6 NSaved=   6.
 NSaved= 6 IEnMin= 6 EnMin= -5017.26320611327     IErMin= 6 ErrMin= 1.03D-04
 ErrMax= 1.03D-04  0.00D+00 EMaxC= 1.00D-01 BMatC= 4.02D-06 BMatP= 3.58D-05
 IDIUse=3 WtCom= 9.99D-01 WtEn= 1.03D-03
 Coeff-Com:  0.119D-03-0.188D-02 0.336D-01 0.469D-01 0.288D+00 0.633D+00
 Coeff-En:   0.000D+00 0.000D+00 0.000D+00 0.000D+00 0.000D+00 0.100D+01
 Coeff:      0.119D-03-0.188D-02 0.336D-01 0.468D-01 0.288D+00 0.634D+00
 Gap=     0.233 Goal=   None    Shift=    0.000
 RMSDP=2.32D-06 MaxDP=4.40D-04 DE=-2.56D-05 OVMax= 3.63D-04

 Initial convergence to 1.0D-05 achieved.  Increase integral accuracy.
 Cycle   7  Pass 1  IDiag  1:
 E= -5017.26386927820     Delta-E=       -0.000663164938 Rises=F Damp=F
 DIIS: error= 2.70D-05 at cycle   1 NSaved=   1.
 NSaved= 1 IEnMin= 1 EnMin= -5017.26386927820     IErMin= 1 ErrMin= 2.70D-05
 ErrMax= 2.70D-05  0.00D+00 EMaxC= 1.00D-01 BMatC= 1.50D-06 BMatP= 1.50D-06
 IDIUse=1 WtCom= 1.00D+00 WtEn= 0.00D+00
 Coeff-Com:  0.100D+01
 Coeff:      0.100D+01
 Gap=     0.233 Goal=   None    Shift=    0.000
 RMSDP=2.32D-06 MaxDP=4.40D-04 DE=-6.63D-04 OVMax= 1.97D-04

 Cycle   8  Pass 1  IDiag  1:
 RMSU=  4.47D-06    CP:  1.00D+00
 E= -5017.26387078297     Delta-E=       -0.000001504766 Rises=F Damp=F
 DIIS: error= 8.73D-06 at cycle   2 NSaved=   2.
 NSaved= 2 IEnMin= 2 EnMin= -5017.26387078297     IErMin= 2 ErrMin= 8.73D-06
 ErrMax= 8.73D-06  0.00D+00 EMaxC= 1.00D-01 BMatC= 2.13D-07 BMatP= 1.50D-06
 IDIUse=1 WtCom= 1.00D+00 WtEn= 0.00D+00
 Coeff-Com:  0.177D+00 0.823D+00
 Coeff:      0.177D+00 0.823D+00
 Gap=     0.233 Goal=   None    Shift=    0.000
 RMSDP=7.21D-07 MaxDP=7.86D-05 DE=-1.50D-06 OVMax= 8.26D-05

 Cycle   9  Pass 1  IDiag  1:
 RMSU=  7.21D-07    CP:  1.00D+00  9.97D-01
 E= -5017.26387081180     Delta-E=       -0.000000028827 Rises=F Damp=F
 DIIS: error= 8.23D-06 at cycle   3 NSaved=   3.
 NSaved= 3 IEnMin= 3 EnMin= -5017.26387081180     IErMin= 3 ErrMin= 8.23D-06
 ErrMax= 8.23D-06  0.00D+00 EMaxC= 1.00D-01 BMatC= 1.81D-07 BMatP= 2.13D-07
 IDIUse=1 WtCom= 1.00D+00 WtEn= 0.00D+00
 Coeff-Com: -0.730D-02 0.480D+00 0.527D+00
 Coeff:     -0.730D-02 0.480D+00 0.527D+00
 Gap=     0.233 Goal=   None    Shift=    0.000
 RMSDP=3.38D-07 MaxDP=4.10D-05 DE=-2.88D-08 OVMax= 4.15D-05

 Cycle  10  Pass 1  IDiag  1:
 RMSU=  1.04D-07    CP:  1.00D+00  1.01D+00  5.67D-01
 E= -5017.26387094123     Delta-E=       -0.000000129436 Rises=F Damp=F
 DIIS: error= 1.51D-06 at cycle   4 NSaved=   4.
 NSaved= 4 IEnMin= 4 EnMin= -5017.26387094123     IErMin= 4 ErrMin= 1.51D-06
 ErrMax= 1.51D-06  0.00D+00 EMaxC= 1.00D-01 BMatC= 1.07D-09 BMatP= 1.81D-07
 IDIUse=1 WtCom= 1.00D+00 WtEn= 0.00D+00
 Coeff-Com: -0.515D-02 0.203D+00 0.232D+00 0.571D+00
 Coeff:     -0.515D-02 0.203D+00 0.232D+00 0.571D+00
 Gap=     0.233 Goal=   None    Shift=    0.000
 RMSDP=4.36D-08 MaxDP=8.40D-06 DE=-1.29D-07 OVMax= 8.13D-06

 Cycle  11  Pass 1  IDiag  1:
 RMSU=  3.12D-08    CP:  1.00D+00  1.02D+00  5.61D-01  7.13D-01
 E= -5017.26387094227     Delta-E=       -0.000000001042 Rises=F Damp=F
 DIIS: error= 1.47D-07 at cycle   5 NSaved=   5.
 NSaved= 5 IEnMin= 5 EnMin= -5017.26387094227     IErMin= 5 ErrMin= 1.47D-07
 ErrMax= 1.47D-07  0.00D+00 EMaxC= 1.00D-01 BMatC= 5.37D-11 BMatP= 1.07D-09
 IDIUse=1 WtCom= 1.00D+00 WtEn= 0.00D+00
 Coeff-Com: -0.154D-02 0.487D-01 0.571D-01 0.223D+00 0.673D+00
 Coeff:     -0.154D-02 0.487D-01 0.571D-01 0.223D+00 0.673D+00
 Gap=     0.233 Goal=   None    Shift=    0.000
 RMSDP=8.47D-09 MaxDP=1.05D-06 DE=-1.04D-09 OVMax= 9.21D-07

 Cycle  12  Pass 1  IDiag  1:
 RMSU=  7.38D-09    CP:  1.00D+00  1.02D+00  5.62D-01  7.49D-01  9.50D-01
 E= -5017.26387094219     Delta-E=        0.000000000087 Rises=F Damp=F
 DIIS: error= 6.29D-08 at cycle   6 NSaved=   6.
 NSaved= 6 IEnMin= 5 EnMin= -5017.26387094227     IErMin= 6 ErrMin= 6.29D-08
 ErrMax= 6.29D-08  0.00D+00 EMaxC= 1.00D-01 BMatC= 8.51D-12 BMatP= 5.37D-11
 IDIUse=1 WtCom= 1.00D+00 WtEn= 0.00D+00
 Coeff-Com:  0.825D-04-0.817D-02-0.878D-02 0.171D-01 0.310D+00 0.690D+00
 Coeff:      0.825D-04-0.817D-02-0.878D-02 0.171D-01 0.310D+00 0.690D+00
 Gap=     0.233 Goal=   None    Shift=    0.000
 RMSDP=3.30D-09 MaxDP=5.15D-07 DE= 8.73D-11 OVMax= 4.21D-07

 SCF Done:  E(RPBE1PBE) =  -5017.26387094     A.U. after   12 cycles
            NFock= 12  Conv=0.33D-08     -V/T= 2.0028
 KE= 5.003313650276D+03 PE=-2.418425729055D+04 EE= 8.055665977269D+03
 Leave Link  502 at Thu May  3 09:25:10 2018, MaxMem= 14763950080 cpu:      9469.0
 (Enter /cm/shared/gaussian/g09.e01/intel64-sandybridge/g09/l601.exe)
 Copying SCF densities to generalized density rwf, IOpCl= 0 IROHF=0.

 **********************************************************************

            Population analysis using the SCF density.

 **********************************************************************

 Alpha  occ. eigenvalues -- -483.15384 -62.55673 -56.32919 -56.32911 -56.32891
 Alpha  occ. eigenvalues --  -19.19576 -19.18854 -19.17069 -19.16803 -19.15385
 Alpha  occ. eigenvalues --  -19.14815 -19.14567 -19.14462 -19.14172 -19.14080
 Alpha  occ. eigenvalues --  -19.13990 -19.13693 -19.13515 -19.13113 -19.12490
 Alpha  occ. eigenvalues --  -19.12251 -19.11337 -19.10970 -19.10402 -19.10374
 Alpha  occ. eigenvalues --  -19.09497 -19.09346 -19.09337 -19.08918 -19.08041
 Alpha  occ. eigenvalues --  -19.07893 -19.07802 -19.07699 -19.07636 -19.06754
 Alpha  occ. eigenvalues --  -19.06701 -19.05967  -8.65976  -6.46329  -6.46301
 Alpha  occ. eigenvalues --   -6.46223  -2.54616  -2.54611  -2.54552  -2.54528
 Alpha  occ. eigenvalues --   -2.54509  -1.02201  -1.00983  -0.99839  -0.99199
 Alpha  occ. eigenvalues --   -0.98165  -0.97769  -0.97682  -0.97064  -0.96949
 Alpha  occ. eigenvalues --   -0.96491  -0.96452  -0.96209  -0.96118  -0.95835
 Alpha  occ. eigenvalues --   -0.95199  -0.95091  -0.94094  -0.94024  -0.93490
 Alpha  occ. eigenvalues --   -0.93199  -0.92019  -0.91925  -0.91715  -0.91451
 Alpha  occ. eigenvalues --   -0.90746  -0.90528  -0.90392  -0.90348  -0.90219
 Alpha  occ. eigenvalues --   -0.89642  -0.89180  -0.88372  -0.65457  -0.52610
 Alpha  occ. eigenvalues --   -0.51410  -0.50418  -0.49822  -0.49251  -0.48885
 Alpha  occ. eigenvalues --   -0.48571  -0.48071  -0.47811  -0.47221  -0.47142
 Alpha  occ. eigenvalues --   -0.46909  -0.46722  -0.46243  -0.45904  -0.45856
 Alpha  occ. eigenvalues --   -0.45463  -0.45047  -0.44243  -0.43966  -0.43038
 Alpha  occ. eigenvalues --   -0.42848  -0.42766  -0.42604  -0.41995  -0.41630
 Alpha  occ. eigenvalues --   -0.41479  -0.41157  -0.41092  -0.40839  -0.40020
 Alpha  occ. eigenvalues --   -0.39617  -0.38848  -0.37581  -0.36866  -0.36287
 Alpha  occ. eigenvalues --   -0.35774  -0.35531  -0.34060  -0.33618  -0.33516
 Alpha  occ. eigenvalues --   -0.33348  -0.33296  -0.32929  -0.32815  -0.32250
 Alpha  occ. eigenvalues --   -0.31995  -0.31625  -0.30856  -0.30499  -0.30347
 Alpha  occ. eigenvalues --   -0.29908  -0.29659  -0.29259  -0.29030  -0.28584
 Alpha  occ. eigenvalues --   -0.28305  -0.27982  -0.27386  -0.27300  -0.27130
 Alpha  occ. eigenvalues --   -0.27100  -0.26544  -0.26513  -0.26386  -0.26154
 Alpha  occ. eigenvalues --   -0.26067  -0.25799  -0.25384  -0.25282  -0.25074
 Alpha  occ. eigenvalues --   -0.24982  -0.24664  -0.24561  -0.24408  -0.24226
 Alpha  occ. eigenvalues --   -0.24097  -0.23818  -0.23636  -0.22856  -0.22643
 Alpha  occ. eigenvalues --   -0.22159  -0.22021  -0.21370  -0.20576  -0.20559
 Alpha  occ. eigenvalues --   -0.20418  -0.20206  -0.20171  -0.19808  -0.19431
 Alpha  occ. eigenvalues --   -0.19310  -0.18945  -0.18488  -0.18153  -0.17957
 Alpha  occ. eigenvalues --   -0.17703  -0.17700  -0.17565
 Alpha virt. eigenvalues --    0.05748   0.08990   0.09676   0.10537   0.11447
 Alpha virt. eigenvalues --    0.13006   0.13550   0.13701   0.14782   0.15323
 Alpha virt. eigenvalues --    0.15580   0.16125   0.16417   0.16841   0.17694
 Alpha virt. eigenvalues --    0.17950   0.18117   0.19059   0.19469   0.19728
 Alpha virt. eigenvalues --    0.20160   0.20498   0.21007   0.21445   0.21852
 Alpha virt. eigenvalues --    0.22193   0.22729   0.22992   0.23679   0.24449
 Alpha virt. eigenvalues --    0.24632   0.25121   0.25324   0.26182   0.26519
 Alpha virt. eigenvalues --    0.27301   0.27690   0.28231   0.28746   0.29287
 Alpha virt. eigenvalues --    0.29527   0.30101   0.30613   0.30840   0.31069
 Alpha virt. eigenvalues --    0.31437   0.31753   0.32549   0.33234   0.33408
 Alpha virt. eigenvalues --    0.33792   0.34197   0.34858   0.35499   0.36136
 Alpha virt. eigenvalues --    0.36407   0.37181   0.37773   0.37910   0.39105
 Alpha virt. eigenvalues --    0.39314   0.39793   0.41970   0.42590   0.57026
 Alpha virt. eigenvalues --    0.58380   0.59161   0.60102   0.60925   0.61974
 Alpha virt. eigenvalues --    0.62217   0.62325   0.62810   0.63130   0.63836
 Alpha virt. eigenvalues --    0.64241   0.64761   0.65083   0.65539   0.65655
 Alpha virt. eigenvalues --    0.65966   0.66272   0.66468   0.66727   0.66907
 Alpha virt. eigenvalues --    0.67388   0.67684   0.68005   0.68243   0.68661
 Alpha virt. eigenvalues --    0.68911   0.69427   0.69513   0.70071   0.70207
 Alpha virt. eigenvalues --    0.70626   0.70772   0.71068   0.71304   0.71670
 Alpha virt. eigenvalues --    0.72178   0.72370   0.72646   0.73001   0.73525
 Alpha virt. eigenvalues --    0.73648   0.74216   0.74242   0.74562   0.75038
 Alpha virt. eigenvalues --    0.75513   0.75904   0.76283   0.76400   0.76906
 Alpha virt. eigenvalues --    0.77307   0.77706   0.78098   0.78317   0.78777
 Alpha virt. eigenvalues --    0.78866   0.79408   0.79578   0.79709   0.80882
 Alpha virt. eigenvalues --    0.81090   0.81403   0.82789   0.83110   0.83754
 Alpha virt. eigenvalues --    0.85298   0.86137   0.87313   0.87924   0.89162
 Alpha virt. eigenvalues --    0.90945   0.92100   0.93015   0.94937   0.95223
 Alpha virt. eigenvalues --    0.95932   0.96474   0.96769   0.97205   0.97522
 Alpha virt. eigenvalues --    0.97600   0.98356   0.99112   0.99576   0.99741
 Alpha virt. eigenvalues --    1.00171   1.00460   1.00674   1.01100   1.01502
 Alpha virt. eigenvalues --    1.01730   1.01934   1.02382   1.02394   1.02901
 Alpha virt. eigenvalues --    1.03155   1.03271   1.03606   1.03873   1.04198
 Alpha virt. eigenvalues --    1.04326   1.04511   1.04978   1.05317   1.05480
 Alpha virt. eigenvalues --    1.05744   1.06176   1.06364   1.06433   1.06732
 Alpha virt. eigenvalues --    1.07162   1.07658   1.07807   1.07954   1.08408
 Alpha virt. eigenvalues --    1.08699   1.09097   1.09426   1.09733   1.10147
 Alpha virt. eigenvalues --    1.10467   1.10661   1.11015   1.11659   1.12062
 Alpha virt. eigenvalues --    1.12280   1.12499   1.12915   1.13451   1.13577
 Alpha virt. eigenvalues --    1.13883   1.14486   1.14632   1.15174   1.15343
 Alpha virt. eigenvalues --    1.15520   1.15946   1.16575   1.16861   1.16972
 Alpha virt. eigenvalues --    1.17794   1.18119   1.18463   1.18754   1.19016
 Alpha virt. eigenvalues --    1.19185   1.19741   1.20071   1.20171   1.20596
 Alpha virt. eigenvalues --    1.21063   1.21845   1.21956   1.22554   1.22786
 Alpha virt. eigenvalues --    1.23080   1.23412   1.24042   1.24306   1.25035
 Alpha virt. eigenvalues --    1.25399   1.25737   1.26252   1.26653   1.27212
 Alpha virt. eigenvalues --    1.27476   1.28169   1.28584   1.28940   1.29275
 Alpha virt. eigenvalues --    1.29533   1.29938   1.30353   1.30487   1.30659
 Alpha virt. eigenvalues --    1.30936   1.31207   1.31505   1.31572   1.31915
 Alpha virt. eigenvalues --    1.32038   1.32178   1.32708   1.33001   1.33133
 Alpha virt. eigenvalues --    1.33432   1.33757   1.34118   1.34212   1.34361
 Alpha virt. eigenvalues --    1.34851   1.35401   1.35504   1.35665   1.36017
 Alpha virt. eigenvalues --    1.36123   1.36319   1.36526   1.36929   1.36961
 Alpha virt. eigenvalues --    1.37310   1.37634   1.38058   1.38207   1.38995
 Alpha virt. eigenvalues --    1.39112   1.39465   1.39664   1.40293   1.40988
 Alpha virt. eigenvalues --    1.41295   1.41533   1.41814   1.42759   1.43198
 Alpha virt. eigenvalues --    1.43339   1.44022   1.44194   1.44740   1.45147
 Alpha virt. eigenvalues --    1.45429   1.45822   1.46095   1.46756   1.47308
 Alpha virt. eigenvalues --    1.47575   1.47958   1.48568   1.48772   1.49270
 Alpha virt. eigenvalues --    1.49963   1.50432   1.50991   1.51001   1.51323
 Alpha virt. eigenvalues --    1.51700   1.51967   1.52376   1.54095   1.54166
 Alpha virt. eigenvalues --    1.54855   1.55502   1.55645   1.56137   1.56461
 Alpha virt. eigenvalues --    1.56708   1.57022   1.57197   1.57805   1.57849
 Alpha virt. eigenvalues --    1.58267   1.58589   1.59956   1.60602   1.60718
 Alpha virt. eigenvalues --    1.61181   1.62188   1.62949   1.63060   1.64075
 Alpha virt. eigenvalues --    1.64538   1.66178   1.66507   1.67318   1.68042
 Alpha virt. eigenvalues --    1.69106   1.69416   1.71025   1.71231   1.72719
 Alpha virt. eigenvalues --    1.72943   1.74067   1.74488   1.74611   1.75334
 Alpha virt. eigenvalues --    1.75740   1.76472   1.76822   1.77455   1.78052
 Alpha virt. eigenvalues --    1.78245   1.78521   1.78842   1.79193   1.79770
 Alpha virt. eigenvalues --    1.79905   1.80089   1.80583   1.81065   1.81481
 Alpha virt. eigenvalues --    1.82010   1.82232   1.82413   1.82635   1.82969
 Alpha virt. eigenvalues --    1.83238   1.83629   1.83717   1.84196   1.85097
 Alpha virt. eigenvalues --    1.85555   1.86059   1.86803   1.87169   1.87324
 Alpha virt. eigenvalues --    1.87528   1.88171   1.88814   1.89243   1.89649
 Alpha virt. eigenvalues --    1.90136   1.91356   1.92195   1.92577   1.93064
 Alpha virt. eigenvalues --    1.93347   1.94076   1.94707   1.95221   1.95649
 Alpha virt. eigenvalues --    1.96723   1.97504   1.99275   2.01131   2.01872
 Alpha virt. eigenvalues --    2.03913   2.05094   2.10931   2.16469   2.16836
 Alpha virt. eigenvalues --    2.18988   2.19363   2.20589   2.20814   2.20962
 Alpha virt. eigenvalues --    2.21202   2.21877   2.22009   2.22569   2.22698
 Alpha virt. eigenvalues --    2.22757   2.24730   2.25412   2.25591   2.25968
 Alpha virt. eigenvalues --    2.26650   2.26841   2.26922   2.27068   2.27176
 Alpha virt. eigenvalues --    2.27605   2.27727   2.28523   2.28660   2.28783
 Alpha virt. eigenvalues --    2.29259   2.29529   2.29929   2.30183   2.30521
 Alpha virt. eigenvalues --    2.31161   2.32473   2.33009   2.33765   2.33872
 Alpha virt. eigenvalues --    2.33938   2.34809   2.35107   2.35496   2.36460
 Alpha virt. eigenvalues --    2.36700   2.36879   2.37039   2.37652   2.38881
 Alpha virt. eigenvalues --    2.39119   2.42783   2.42865   2.43580   2.43880
 Alpha virt. eigenvalues --    2.46259   2.48250   2.51131   2.51266   2.53833
 Alpha virt. eigenvalues --    2.55733   2.56386   2.59113   2.61481   2.62748
 Alpha virt. eigenvalues --    2.64740   2.66889   2.94613   2.95472   2.95758
 Alpha virt. eigenvalues --    2.96345   2.97752   2.98034   2.98259   2.98366
 Alpha virt. eigenvalues --    2.98946   2.99083   2.99367   2.99755   2.99958
 Alpha virt. eigenvalues --    3.00366   3.01123   3.01498   3.01682   3.01781
 Alpha virt. eigenvalues --    3.02184   3.02628   3.02872   3.02989   3.03413
 Alpha virt. eigenvalues --    3.03497   3.03575   3.03764   3.03983   3.04149
 Alpha virt. eigenvalues --    3.04600   3.04660   3.04777   3.04836   3.05002
 Alpha virt. eigenvalues --    3.05122   3.05157   3.05664   3.05792   3.05887
 Alpha virt. eigenvalues --    3.06007   3.06329   3.06481   3.06593   3.07337
 Alpha virt. eigenvalues --    3.07587   3.07787   3.08036   3.08313   3.08780
 Alpha virt. eigenvalues --    3.08986   3.09451   3.09688   3.09888   3.10016
 Alpha virt. eigenvalues --    3.10413   3.10585   3.10994   3.11142   3.11199
 Alpha virt. eigenvalues --    3.11519   3.11928   3.12243   3.12695   3.13357
 Alpha virt. eigenvalues --    3.14309   3.16962   3.19394   3.19447   3.19726
 Alpha virt. eigenvalues --    3.21585   3.21688   3.22148   3.22318   3.22701
 Alpha virt. eigenvalues --    3.22936   3.23520   3.24611   3.25296   3.25391
 Alpha virt. eigenvalues --    3.25545   3.25676   3.25805   3.26378   3.26481
 Alpha virt. eigenvalues --    3.26745   3.26939   3.27247   3.27509   3.27581
 Alpha virt. eigenvalues --    3.27878   3.28361   3.28919   3.29238   3.29707
 Alpha virt. eigenvalues --    3.30304   3.30611   3.32284   3.52541   3.55186
 Alpha virt. eigenvalues --    3.55342   3.57018   3.57319   3.57348   3.58079
 Alpha virt. eigenvalues --    3.58509   3.58564   3.59451   3.60008   3.60491
 Alpha virt. eigenvalues --    3.60832   3.61681   3.61820   3.61896   3.62391
 Alpha virt. eigenvalues --    3.62877   3.63473   3.63868   3.64434   3.64617
 Alpha virt. eigenvalues --    3.66009   3.66118   3.66559   3.68641   3.69140
 Alpha virt. eigenvalues --    3.69410   3.69789   3.71523   3.73159   3.73893
 Alpha virt. eigenvalues --    3.81078   3.81286   3.83706   3.83862   3.84160
 Alpha virt. eigenvalues --    3.86370   3.86424   3.87577   3.88059   3.89313
 Alpha virt. eigenvalues --    3.89580   3.89830   3.90199   3.90886   3.91001
 Alpha virt. eigenvalues --    3.91307   3.91379   3.91487   3.92177   3.92484
 Alpha virt. eigenvalues --    3.92995   3.93218   3.93763   3.94310   3.95242
 Alpha virt. eigenvalues --    3.96196   3.96563   3.97874   3.98416   4.00849
 Alpha virt. eigenvalues --    4.04602   4.05776
          Condensed to atoms (all electrons):
 Mulliken charges:
               1
     1  Br  -0.715362
     2  O   -0.270690
     3  H    0.122549
     4  H    0.142796
     5  O   -0.280928
     6  H    0.120518
     7  H    0.140859
     8  O   -0.286839
     9  H    0.146761
    10  H    0.118742
    11  O   -0.269971
    12  H    0.155827
    13  H    0.149682
    14  O   -0.243098
    15  H    0.121997
    16  H    0.158660
    17  O   -0.256846
    18  H    0.142018
    19  H    0.141022
    20  O   -0.262869
    21  H    0.129879
    22  H    0.126006
    23  O   -0.257332
    24  H    0.127645
    25  H    0.120197
    26  O   -0.278357
    27  H    0.144676
    28  H    0.146426
    29  O   -0.258952
    30  H    0.128559
    31  H    0.128027
    32  O   -0.241424
    33  H    0.120394
    34  H    0.155537
    35  O   -0.311430
    36  H    0.104895
    37  H    0.132514
    38  O   -0.290813
    39  H    0.116295
    40  H    0.112773
    41  O   -0.286257
    42  H    0.138114
    43  H    0.133288
    44  O   -0.294788
    45  H    0.125556
    46  H    0.112260
    47  O   -0.312203
    48  H    0.127744
    49  H    0.120301
    50  O   -0.313116
    51  H    0.149386
    52  H    0.127749
    53  O   -0.303748
    54  H    0.121966
    55  H    0.133968
    56  O   -0.305391
    57  H    0.137395
    58  H    0.117399
    59  O   -0.293338
    60  H    0.130313
    61  H    0.137294
    62  O   -0.274619
    63  H    0.124026
    64  H    0.124828
    65  O   -0.257883
    66  H    0.134521
    67  H    0.150921
    68  O   -0.291031
    69  H    0.130441
    70  H    0.140851
    71  O   -0.219716
    72  H    0.128084
    73  H    0.143949
    74  O   -0.271096
    75  H    0.131750
    76  H    0.136897
    77  O   -0.305435
    78  H    0.122313
    79  H    0.144835
    80  O   -0.294581
    81  H    0.122913
    82  H    0.124863
    83  O   -0.249007
    84  H    0.140771
    85  H    0.150450
    86  O   -0.295229
    87  H    0.140093
    88  H    0.136953
    89  O   -0.238505
    90  H    0.129936
    91  H    0.116555
    92  O   -0.270151
    93  H    0.135934
    94  H    0.150312
    95  O   -0.241559
    96  H    0.154529
    97  H    0.157854
 Sum of Mulliken charges =  -1.00000
 Mulliken charges with hydrogens summed into heavy atoms:
               1
     1  Br  -0.715362
     2  O   -0.005346
     5  O   -0.019551
     8  O   -0.021335
    11  O    0.035539
    14  O    0.037559
    17  O    0.026194
    20  O   -0.006984
    23  O   -0.009490
    26  O    0.012745
    29  O   -0.002366
    32  O    0.034507
    35  O   -0.074021
    38  O   -0.061745
    41  O   -0.014855
    44  O   -0.056973
    47  O   -0.064159
    50  O   -0.035981
    53  O   -0.047815
    56  O   -0.050597
    59  O   -0.025731
    62  O   -0.025765
    65  O    0.027559
    68  O   -0.019739
    71  O    0.052316
    74  O   -0.002449
    77  O   -0.038287
    80  O   -0.046805
    83  O    0.042214
    86  O   -0.018183
    89  O    0.007986
    92  O    0.016094
    95  O    0.070824
         Mulliken charges condensed to fragments:
      1     -0.715362
      2     -0.284638
 Electronic spatial extent (au):  <R**2>=        1548537.1661
 Charge=             -1.0000 electrons
 Dipole moment (field-independent basis, Debye):
    X=            -85.8300    Y=            -89.5087    Z=           -103.3806  Tot=            161.4501
 Quadrupole moment (field-independent basis, Debye-Ang):
   XX=          -1805.2177   YY=          -1929.0504   ZZ=          -2466.9916
   XY=          -1626.7084   XZ=          -1901.3045   YZ=          -1973.3559
 Traceless Quadrupole moment (field-independent basis, Debye-Ang):
   XX=            261.8689   YY=            138.0362   ZZ=           -399.9051
   XY=          -1626.7084   XZ=          -1901.3045   YZ=          -1973.3559
 Octapole moment (field-independent basis, Debye-Ang**2):
  XXX=         -43265.8029  YYY=         -46696.2932  ZZZ=         -62523.2765  XYY=         -36055.9473
  XXY=         -34874.3604  XXZ=         -40658.9534  XZZ=         -46689.5329  YZZ=         -48262.8174
  YYZ=         -42944.0359  XYZ=         -36902.9143
 Hexadecapole moment (field-independent basis, Debye-Ang**3):
 XXXX=       -1119075.2755 YYYY=       -1213410.3089 ZZZZ=       -1628742.4223 XXXY=        -848488.0183
 XXXZ=        -976607.7451 YYYX=        -897583.4790 YYYZ=       -1035314.0898 ZZZX=       -1209550.5655
 ZZZY=       -1246596.3807 XXYY=        -781640.2086 XXZZ=       -1005787.4894 YYZZ=       -1053339.5584
 XXYZ=        -800413.3377 YYXZ=        -821518.3180 ZZXY=        -926649.2529
 N-N= 6.108013792061D+03 E-N=-2.418425735698D+04  KE= 5.003313650276D+03
 No NMR shielding tensors so no spin-rotation constants.
 Leave Link  601 at Thu May  3 09:25:12 2018, MaxMem= 14763950080 cpu:        69.7
 (Enter /cm/shared/gaussian/g09.e01/intel64-sandybridge/g09/l701.exe)
 Compute integral first derivatives.
 ... and contract with generalized density number  0.
 Leave Link  701 at Thu May  3 09:25:14 2018, MaxMem= 14763950080 cpu:       151.8
 (Enter /cm/shared/gaussian/g09.e01/intel64-sandybridge/g09/l702.exe)
 L702 exits ... SP integral derivatives will be done elsewhere.
 Leave Link  702 at Thu May  3 09:25:14 2018, MaxMem= 14763950080 cpu:         2.6
 (Enter /cm/shared/gaussian/g09.e01/intel64-sandybridge/g09/l703.exe)
 Compute integral first derivatives, UseDBF=F ICtDFT=           0.
 Integral derivatives from FoFJK, PRISM(SPDF).
 Calling FoFJK, ICntrl=      2127 FMM=T ISym2X=0 I1Cent= 0 IOpClX= 0 NMat=1 NMatS=1 NMatT=0.
 FoFJK:  IHMeth= 1 ICntrl=    2127 DoSepK=F KAlg= 0 I1Cent=   0 FoldK=F
 IRaf=         0 NMat=   1 IRICut=       1 DoRegI=T DoRafI=F ISym2E= 0.
 FoFCou: FMM=T IPFlag=           0 FMFlag=      100000 FMFlg1=        2001
         NFxFlg=           0 DoJE=F BraDBF=F KetDBF=F FulRan=T
         wScrn=  0.000000 ICntrl=    2127 IOpCl=  0 I1Cent=           0 NGrid=           0
         NMat0=    1 NMatS0=      1 NMatT0=    0 NMatD0=    1 NMtDS0=    0 NMtDT0=    0
 Symmetry not used in FoFCou.
 FMM levels:  10  Number of levels for PrismC:   9
 Leave Link  703 at Thu May  3 09:25:32 2018, MaxMem= 14763950080 cpu:      1125.9
 (Enter /cm/shared/gaussian/g09.e01/intel64-sandybridge/g09/l716.exe)
 Dipole        =-3.37681200D+01-3.52154461D+01-4.06730639D+01
 Cartesian Forces:  Max     0.034304805 RMS     0.010783987
 Leave Link  716 at Thu May  3 09:25:32 2018, MaxMem= 14763950080 cpu:         4.6
 (Enter /cm/shared/gaussian/g09.e01/intel64-sandybridge/g09/l122.exe)
 CPIOFr:  IOpCl= 0 IRwI=-1 IRwCP=  731 ICalc= -1 LCPTot=     1005244 Len1MO=     2550559 IndFrg=     1005244
 CPIOFr:  IOpCl= 0 IRwI=-1 IRwCP=  731 ICalc=  0 LCPTot=     1005244 Len1MO=     2550559 IndFrg=     3555803
 Counterpoise: doing DCBS calculation for fragment   1 NewBq=T
 Leave Link  122 at Thu May  3 09:25:32 2018, MaxMem= 14763950080 cpu:         9.3
 (Enter /cm/shared/gaussian/g09.e01/intel64-sandybridge/g09/l301.exe)
 Basis read from rwf:  (5D, 7F)
 No pseudopotential information found on rwf file.
   795 basis functions,  1651 primitive gaussians,   829 cartesian basis functions
    18 alpha electrons       18 beta electrons
       nuclear repulsion energy         0.0000000000 Hartrees.
 IExCor= 1009 DFT=T Ex+Corr=PBE1PBE ExCW=0 ScaHFX=  0.250000
 ScaDFX=  0.750000  0.750000  1.000000  1.000000 ScalE2=  1.000000  1.000000
 IRadAn=      0 IRanWt=     -1 IRanGd=            0 ICorTp=0 IEmpDi=  4
 NAtoms=   97 NActive=   97 NUniq=   97 SFac= 1.00D+00 NAtFMM=   60 NAOKFM=T Big=T
 Integral buffers will be    131072 words long.
 Raffenetti 2 integral format.
 Two-electron integral symmetry is turned off.
 No density basis found on file   718.
 Leave Link  301 at Thu May  3 09:25:32 2018, MaxMem= 14763950080 cpu:         6.9
 (Enter /cm/shared/gaussian/g09.e01/intel64-sandybridge/g09/l302.exe)
 NPDir=0 NMtPBC=     1 NCelOv=     1 NCel=       1 NClECP=     1 NCelD=      1
         NCelK=      1 NCelE2=     1 NClLst=     1 CellRange=     0.0.
 One-electron integrals computed using PRISM.
 NBasis=   795 RedAO= T EigKep=  1.48D-02  NBF=   795
 NBsUse=   795 1.00D-06 EigRej= -1.00D+00 NBFU=   795
 Precomputing XC quadrature grid using
 IXCGrd= 4 IRadAn=           0 IRanWt=          -1 IRanGd=           0 AccXCQ= 0.00D+00.
 Generated NRdTot=       0 NPtTot=           0 NUsed=           0 NTot=          32
 NSgBfM=   708   711   714   714   724 MxSgAt=    97 MxSgA2=    97.
 Leave Link  302 at Thu May  3 09:25:37 2018, MaxMem= 14763950080 cpu:       269.9
 (Enter /cm/shared/gaussian/g09.e01/intel64-sandybridge/g09/l303.exe)
 DipDrv:  MaxL=1.
 Leave Link  303 at Thu May  3 09:25:39 2018, MaxMem= 14763950080 cpu:       118.8
 (Enter /cm/shared/gaussian/g09.e01/intel64-sandybridge/g09/l401.exe)
 ExpMin= 1.22D-01 ExpMax= 6.40D+05 ExpMxC= 6.18D+03 IAcc=2 IRadAn=         4 AccDes= 0.00D+00
 Harris functional with IExCor= 1009 and IRadAn=       4 diagonalized for initial guess.
 HarFok:  IExCor= 1009 AccDes= 0.00D+00 IRadAn=         4 IDoV= 1 UseB2=F ITyADJ=14
 ICtDFT=  3500011 ScaDFX=  1.000000  1.000000  1.000000  1.000000
 FoFCou: FMM=F IPFlag=           0 FMFlag=      100000 FMFlg1=        2001
         NFxFlg=           0 DoJE=T BraDBF=F KetDBF=T FulRan=T
         wScrn=  0.000000 ICntrl=     500 IOpCl=  0 I1Cent=   200000004 NGrid=           0
         NMat0=    1 NMatS0=      1 NMatT0=    0 NMatD0=    1 NMtDS0=    0 NMtDT0=    0
 Symmetry not used in FoFCou.
 Harris En= -2574.01990888606    
 JPrj=0 DoOrth=F DoCkMO=F.
 Leave Link  401 at Thu May  3 09:25:43 2018, MaxMem= 14763950080 cpu:       283.3
 (Enter /cm/shared/gaussian/g09.e01/intel64-sandybridge/g09/l502.exe)
 Closed shell SCF:
 Using DIIS extrapolation, IDIIS=  1040.
 Two-electron integral symmetry not used.
 IVT=     2138497 IEndB=     2138497 NGot= 14763950080 MDV= 14762516294
 LenX= 14762516294 LenY= 14761828224
 Requested convergence on RMS density matrix=1.00D-08 within 128 cycles.
 Requested convergence on MAX density matrix=1.00D-06.
 Requested convergence on             energy=1.00D-06.
 No special actions if energy rises.
 Fock matrices will be formed incrementally for  20 cycles.
 Integral accuracy reduced to 1.0D-05 until final iterations.

 Cycle   1  Pass 0  IDiag  1:
 FoFJK:  IHMeth= 1 ICntrl=       0 DoSepK=F KAlg= 0 I1Cent=   0 FoldK=F
 IRaf= 830000000 NMat=   1 IRICut=       1 DoRegI=T DoRafI=F ISym2E= 0.
 FoFCou: FMM=T IPFlag=           0 FMFlag=      100000 FMFlg1=        2001
         NFxFlg=           0 DoJE=F BraDBF=F KetDBF=F FulRan=T
         wScrn=  0.000000 ICntrl=       0 IOpCl=  0 I1Cent=           0 NGrid=           0
         NMat0=    1 NMatS0=      1 NMatT0=    0 NMatD0=    1 NMtDS0=    0 NMtDT0=    0
 Symmetry not used in FoFCou.
 FMM levels:  10  Number of levels for PrismC:   9
 E= -2573.87896747374    
 DIIS: error= 1.21D-02 at cycle   1 NSaved=   1.
 NSaved= 1 IEnMin= 1 EnMin= -2573.87896747374     IErMin= 1 ErrMin= 1.21D-02
 ErrMax= 1.21D-02  0.00D+00 EMaxC= 1.00D-01 BMatC= 3.85D-02 BMatP= 3.85D-02
 IDIUse=3 WtCom= 8.79D-01 WtEn= 1.21D-01
 Coeff-Com:  0.100D+01
 Coeff-En:   0.100D+01
 Coeff:      0.100D+01
 Gap=     0.181 Goal=   None    Shift=    0.000
 GapD=    0.181 DampG=1.000 DampE=0.500 DampFc=0.5000 IDamp=-1.
 Damping current iteration by 5.00D-01
 RMSDP=4.88D-04 MaxDP=6.55D-02              OVMax= 1.51D-01

 Cycle   2  Pass 0  IDiag  1:
 RMSU=  2.42D-04    CP:  9.95D-01
 E= -2573.89588751728     Delta-E=       -0.016920043538 Rises=F Damp=T
 DIIS: error= 7.45D-03 at cycle   2 NSaved=   2.
 NSaved= 2 IEnMin= 2 EnMin= -2573.89588751728     IErMin= 2 ErrMin= 7.45D-03
 ErrMax= 7.45D-03  0.00D+00 EMaxC= 1.00D-01 BMatC= 9.12D-03 BMatP= 3.85D-02
 IDIUse=3 WtCom= 9.26D-01 WtEn= 7.45D-02
 Coeff-Com: -0.569D+00 0.157D+01
 Coeff-En:   0.000D+00 0.100D+01
 Coeff:     -0.527D+00 0.153D+01
 Gap=     0.193 Goal=   None    Shift=    0.000
 RMSDP=1.71D-04 MaxDP=4.00D-02 DE=-1.69D-02 OVMax= 6.69D-02

 Cycle   3  Pass 0  IDiag  1:
 RMSU=  1.48D-04    CP:  9.94D-01  1.36D+00
 E= -2573.90952887417     Delta-E=       -0.013641356885 Rises=F Damp=F
 DIIS: error= 3.76D-03 at cycle   3 NSaved=   3.
 NSaved= 3 IEnMin= 3 EnMin= -2573.90952887417     IErMin= 3 ErrMin= 3.76D-03
 ErrMax= 3.76D-03  0.00D+00 EMaxC= 1.00D-01 BMatC= 2.51D-03 BMatP= 9.12D-03
 IDIUse=3 WtCom= 9.62D-01 WtEn= 3.76D-02
 Coeff-Com: -0.301D+00 0.714D+00 0.587D+00
 Coeff-En:   0.000D+00 0.000D+00 0.100D+01
 Coeff:     -0.290D+00 0.688D+00 0.602D+00
 Gap=     0.175 Goal=   None    Shift=    0.000
 RMSDP=7.17D-05 MaxDP=1.75D-02 DE=-1.36D-02 OVMax= 2.15D-02

 Cycle   4  Pass 0  IDiag  1:
 RMSU=  8.30D-06    CP:  9.92D-01  1.54D+00  6.27D-01
 E= -2573.91225113542     Delta-E=       -0.002722261253 Rises=F Damp=F
 DIIS: error= 1.40D-04 at cycle   4 NSaved=   4.
 NSaved= 4 IEnMin= 4 EnMin= -2573.91225113542     IErMin= 4 ErrMin= 1.40D-04
 ErrMax= 1.40D-04  0.00D+00 EMaxC= 1.00D-01 BMatC= 2.11D-06 BMatP= 2.51D-03
 IDIUse=3 WtCom= 9.99D-01 WtEn= 1.40D-03
 Coeff-Com: -0.149D-01 0.282D-01 0.444D-01 0.942D+00
 Coeff-En:   0.000D+00 0.000D+00 0.000D+00 0.100D+01
 Coeff:     -0.149D-01 0.282D-01 0.444D-01 0.942D+00
 Gap=     0.177 Goal=   None    Shift=    0.000
 RMSDP=2.47D-06 MaxDP=5.24D-04 DE=-2.72D-03 OVMax= 7.90D-04

 Initial convergence to 1.0D-05 achieved.  Increase integral accuracy.
 Cycle   5  Pass 1  IDiag  1:
 E= -2573.91301468835     Delta-E=       -0.000763552930 Rises=F Damp=F
 DIIS: error= 9.76D-06 at cycle   1 NSaved=   1.
 NSaved= 1 IEnMin= 1 EnMin= -2573.91301468835     IErMin= 1 ErrMin= 9.76D-06
 ErrMax= 9.76D-06  0.00D+00 EMaxC= 1.00D-01 BMatC= 7.41D-08 BMatP= 7.41D-08
 IDIUse=1 WtCom= 1.00D+00 WtEn= 0.00D+00
 Coeff-Com:  0.100D+01
 Coeff:      0.100D+01
 Gap=     0.177 Goal=   None    Shift=    0.000
 RMSDP=2.47D-06 MaxDP=5.24D-04 DE=-7.64D-04 OVMax= 2.37D-04

 Cycle   6  Pass 1  IDiag  1:
 RMSU=  1.10D-06    CP:  1.00D+00
 E= -2573.91301482193     Delta-E=       -0.000000133585 Rises=F Damp=F
 DIIS: error= 8.20D-06 at cycle   2 NSaved=   2.
 NSaved= 2 IEnMin= 2 EnMin= -2573.91301482193     IErMin= 2 ErrMin= 8.20D-06
 ErrMax= 8.20D-06  0.00D+00 EMaxC= 1.00D-01 BMatC= 1.26D-08 BMatP= 7.41D-08
 IDIUse=1 WtCom= 1.00D+00 WtEn= 0.00D+00
 Coeff-Com:  0.222D+00 0.778D+00
 Coeff:      0.222D+00 0.778D+00
 Gap=     0.177 Goal=   None    Shift=    0.000
 RMSDP=2.53D-07 MaxDP=6.35D-05 DE=-1.34D-07 OVMax= 8.58D-05

 Cycle   7  Pass 1  IDiag  1:
 RMSU=  2.51D-07    CP:  1.00D+00  9.96D-01
 E= -2573.91301483421     Delta-E=       -0.000000012277 Rises=F Damp=F
 DIIS: error= 3.70D-06 at cycle   3 NSaved=   3.
 NSaved= 3 IEnMin= 3 EnMin= -2573.91301483421     IErMin= 3 ErrMin= 3.70D-06
 ErrMax= 3.70D-06  0.00D+00 EMaxC= 1.00D-01 BMatC= 3.30D-09 BMatP= 1.26D-08
 IDIUse=1 WtCom= 1.00D+00 WtEn= 0.00D+00
 Coeff-Com: -0.385D-01 0.318D+00 0.720D+00
 Coeff:     -0.385D-01 0.318D+00 0.720D+00
 Gap=     0.177 Goal=   None    Shift=    0.000
 RMSDP=9.03D-08 MaxDP=2.39D-05 DE=-1.23D-08 OVMax= 2.75D-05

 Cycle   8  Pass 1  IDiag  1:
 RMSU=  3.19D-08    CP:  1.00D+00  1.04D+00  7.26D-01
 E= -2573.91301483814     Delta-E=       -0.000000003934 Rises=F Damp=F
 DIIS: error= 2.50D-07 at cycle   4 NSaved=   4.
 NSaved= 4 IEnMin= 4 EnMin= -2573.91301483814     IErMin= 4 ErrMin= 2.50D-07
 ErrMax= 2.50D-07  0.00D+00 EMaxC= 1.00D-01 BMatC= 1.48D-11 BMatP= 3.30D-09
 IDIUse=1 WtCom= 1.00D+00 WtEn= 0.00D+00
 Coeff-Com: -0.990D-02 0.668D-01 0.171D+00 0.772D+00
 Coeff:     -0.990D-02 0.668D-01 0.171D+00 0.772D+00
 Gap=     0.177 Goal=   None    Shift=    0.000
 RMSDP=7.88D-09 MaxDP=1.23D-06 DE=-3.93D-09 OVMax= 2.97D-06

 Cycle   9  Pass 1  IDiag  1:
 RMSU=  6.99D-09    CP:  1.00D+00  1.04D+00  7.37D-01  9.81D-01
 E= -2573.91301483814     Delta-E=        0.000000000005 Rises=F Damp=F
 DIIS: error= 8.93D-08 at cycle   5 NSaved=   5.
 NSaved= 5 IEnMin= 4 EnMin= -2573.91301483814     IErMin= 5 ErrMin= 8.93D-08
 ErrMax= 8.93D-08  0.00D+00 EMaxC= 1.00D-01 BMatC= 1.59D-12 BMatP= 1.48D-11
 IDIUse=1 WtCom= 1.00D+00 WtEn= 0.00D+00
 Coeff-Com:  0.926D-03-0.141D-01-0.254D-01 0.223D+00 0.815D+00
 Coeff:      0.926D-03-0.141D-01-0.254D-01 0.223D+00 0.815D+00
 Gap=     0.177 Goal=   None    Shift=    0.000
 RMSDP=2.29D-09 MaxDP=3.10D-07 DE= 5.46D-12 OVMax= 8.66D-07

 SCF Done:  E(RPBE1PBE) =  -2573.91301484     A.U. after    9 cycles
            NFock=  9  Conv=0.23D-08     -V/T= 2.0013
 KE= 2.570508527467D+03 PE=-6.162875681485D+03 EE= 1.018454139180D+03
 Leave Link  502 at Thu May  3 09:27:25 2018, MaxMem= 14763950080 cpu:      6441.2
 (Enter /cm/shared/gaussian/g09.e01/intel64-sandybridge/g09/l601.exe)
 Copying SCF densities to generalized density rwf, IOpCl= 0 IROHF=0.

 **********************************************************************

            Population analysis using the SCF density.

 **********************************************************************

 Alpha  occ. eigenvalues -- -482.99077 -62.39223 -56.16479 -56.16475 -56.16472
 Alpha  occ. eigenvalues --   -8.49356  -6.29669  -6.29658  -6.29650  -2.37935
 Alpha  occ. eigenvalues --   -2.37934  -2.37927  -2.37918  -2.37916  -0.47383
 Alpha  occ. eigenvalues --   -0.03234  -0.03227  -0.03220
 Alpha virt. eigenvalues --    0.14522   0.16025   0.16558   0.17269   0.18414
 Alpha virt. eigenvalues --    0.18832   0.18946   0.19597   0.20345   0.21105
 Alpha virt. eigenvalues --    0.21750   0.22387   0.23094   0.23525   0.23761
 Alpha virt. eigenvalues --    0.24011   0.24706   0.25086   0.26175   0.26463
 Alpha virt. eigenvalues --    0.27169   0.27487   0.28145   0.28618   0.29133
 Alpha virt. eigenvalues --    0.29279   0.29708   0.30048   0.31292   0.31644
 Alpha virt. eigenvalues --    0.32474   0.32573   0.32845   0.33992   0.34268
 Alpha virt. eigenvalues --    0.35019   0.35142   0.35875   0.36427   0.36689
 Alpha virt. eigenvalues --    0.37282   0.37794   0.38301   0.38963   0.40038
 Alpha virt. eigenvalues --    0.40509   0.40667   0.41260   0.41789   0.42536
 Alpha virt. eigenvalues --    0.42560   0.43133   0.43565   0.44183   0.45465
 Alpha virt. eigenvalues --    0.45707   0.46130   0.46614   0.47200   0.48095
 Alpha virt. eigenvalues --    0.49021   0.49606   0.50885   0.52374   0.61700
 Alpha virt. eigenvalues --    0.62439   0.63390   0.63756   0.63982   0.64492
 Alpha virt. eigenvalues --    0.65168   0.65548   0.65922   0.66493   0.66698
 Alpha virt. eigenvalues --    0.66971   0.67376   0.68593   0.68741   0.69079
 Alpha virt. eigenvalues --    0.69603   0.69959   0.70635   0.71231   0.71620
 Alpha virt. eigenvalues --    0.71781   0.72049   0.72853   0.72903   0.73497
 Alpha virt. eigenvalues --    0.73673   0.74128   0.74498   0.74856   0.74967
 Alpha virt. eigenvalues --    0.75211   0.75592   0.75760   0.76038   0.76374
 Alpha virt. eigenvalues --    0.76631   0.76781   0.76976   0.77282   0.77712
 Alpha virt. eigenvalues --    0.78229   0.78773   0.79464   0.79587   0.79992
 Alpha virt. eigenvalues --    0.80055   0.80955   0.81170   0.81472   0.81590
 Alpha virt. eigenvalues --    0.81943   0.82556   0.82834   0.83228   0.83918
 Alpha virt. eigenvalues --    0.84126   0.84659   0.85104   0.85226   0.85522
 Alpha virt. eigenvalues --    0.85856   0.86105   0.86495   0.86879   0.87215
 Alpha virt. eigenvalues --    0.88084   0.88493   0.88905   0.89228   0.89530
 Alpha virt. eigenvalues --    0.89762   0.89984   0.90301   0.90876   0.90961
 Alpha virt. eigenvalues --    0.91376   0.91946   0.92368   0.92617   0.93198
 Alpha virt. eigenvalues --    0.93239   0.93569   0.93756   0.94445   0.95361
 Alpha virt. eigenvalues --    0.95508   0.96517   0.96743   0.96870   0.97100
 Alpha virt. eigenvalues --    0.98012   0.98236   0.98333   0.98836   0.99174
 Alpha virt. eigenvalues --    0.99771   0.99904   1.00766   1.00881   1.01180
 Alpha virt. eigenvalues --    1.01903   1.02366   1.02836   1.03408   1.03798
 Alpha virt. eigenvalues --    1.04949   1.05252   1.06271   1.07100   1.07367
 Alpha virt. eigenvalues --    1.08090   1.08702   1.09257   1.09821   1.10319
 Alpha virt. eigenvalues --    1.10984   1.11597   1.11828   1.12241   1.12994
 Alpha virt. eigenvalues --    1.13990   1.14283   1.14575   1.15614   1.16824
 Alpha virt. eigenvalues --    1.17437   1.18446   1.19490   1.19805   1.21169
 Alpha virt. eigenvalues --    1.21681   1.23689   1.25064   1.26134   1.28365
 Alpha virt. eigenvalues --    1.28902   1.65498   1.66247   1.67860   1.68069
 Alpha virt. eigenvalues --    1.68575   1.69204   1.69608   1.70265   1.70447
 Alpha virt. eigenvalues --    1.70932   1.71151   1.71817   1.71987   1.72331
 Alpha virt. eigenvalues --    1.72655   1.72776   1.73087   1.73592   1.74172
 Alpha virt. eigenvalues --    1.74350   1.74613   1.74939   1.75151   1.75333
 Alpha virt. eigenvalues --    1.75583   1.75722   1.75837   1.76149   1.76504
 Alpha virt. eigenvalues --    1.76647   1.77167   1.77326   1.77723   1.77982
 Alpha virt. eigenvalues --    1.78400   1.79330   1.79590   1.79944   1.80264
 Alpha virt. eigenvalues --    1.80726   1.81395   1.81542   1.81954   1.82525
 Alpha virt. eigenvalues --    1.82858   1.83231   1.83675   1.84089   1.84725
 Alpha virt. eigenvalues --    1.84925   1.86198   1.86667   1.86847   1.87007
 Alpha virt. eigenvalues --    1.88086   1.88588   1.88879   1.89575   1.90433
 Alpha virt. eigenvalues --    1.91439   1.92930   1.93979   1.94814   1.96903
 Alpha virt. eigenvalues --    1.97119   1.97923   1.99258   1.99617   2.00047
 Alpha virt. eigenvalues --    2.00312   2.00402   2.00667   2.01230   2.01444
 Alpha virt. eigenvalues --    2.01745   2.01879   2.02040   2.02173   2.02510
 Alpha virt. eigenvalues --    2.02856   2.02922   2.03309   2.03520   2.03611
 Alpha virt. eigenvalues --    2.03657   2.03981   2.04184   2.04446   2.04913
 Alpha virt. eigenvalues --    2.05337   2.05777   2.05894   2.06193   2.06251
 Alpha virt. eigenvalues --    2.06739   2.06962   2.07094   2.07262   2.08073
 Alpha virt. eigenvalues --    2.08453   2.08726   2.08919   2.09501   2.09763
 Alpha virt. eigenvalues --    2.10029   2.10522   2.10967   2.11352   2.11476
 Alpha virt. eigenvalues --    2.11773   2.12449   2.12620   2.13416   2.13867
 Alpha virt. eigenvalues --    2.14109   2.14671   2.14970   2.15357   2.15680
 Alpha virt. eigenvalues --    2.15949   2.16663   2.17069   2.17177   2.17605
 Alpha virt. eigenvalues --    2.17946   2.18214   2.18373   2.18717   2.18786
 Alpha virt. eigenvalues --    2.18947   2.19748   2.20613   2.20810   2.21473
 Alpha virt. eigenvalues --    2.21742   2.22487   2.22884   2.23413   2.24199
 Alpha virt. eigenvalues --    2.24419   2.25683   2.26280   2.26688   2.27202
 Alpha virt. eigenvalues --    2.27785   2.28037   2.29074   2.29314   2.30136
 Alpha virt. eigenvalues --    2.31348   2.32243   2.32505   2.33145   2.34465
 Alpha virt. eigenvalues --    2.34847   2.35680   2.36741   2.37685   2.38783
 Alpha virt. eigenvalues --    2.39597   2.39793   2.41352   2.41987   2.42156
 Alpha virt. eigenvalues --    2.42239   2.42543   2.42898   2.43205   2.43508
 Alpha virt. eigenvalues --    2.44003   2.44307   2.44865   2.45109   2.45409
 Alpha virt. eigenvalues --    2.45599   2.46226   2.46797   2.47586   2.47757
 Alpha virt. eigenvalues --    2.48371   2.49314   2.49842   2.50848   2.51519
 Alpha virt. eigenvalues --    2.52082   2.53075   2.53654   2.54076   2.54526
 Alpha virt. eigenvalues --    2.54862   2.56380   2.57403   2.67724   2.68605
 Alpha virt. eigenvalues --    2.69060   2.69318   2.70031   2.70197   2.70484
 Alpha virt. eigenvalues --    2.70743   2.71293   2.71367   2.71726   2.72720
 Alpha virt. eigenvalues --    2.73087   2.73501   2.73620   2.74354   2.74883
 Alpha virt. eigenvalues --    2.75186   2.75737   2.77119   2.79290   2.79495
 Alpha virt. eigenvalues --    2.79757   2.81111   2.82446   2.82805   2.84115
 Alpha virt. eigenvalues --    2.84482   2.84685   2.84989   2.85498   2.86354
 Alpha virt. eigenvalues --    2.86431   2.86609   2.87321   2.87883   2.88150
 Alpha virt. eigenvalues --    2.88558   2.89090   2.89950   2.90962   2.91082
 Alpha virt. eigenvalues --    2.91840   2.92156   2.92670   2.92782   2.93575
 Alpha virt. eigenvalues --    2.93885   2.94224   2.94417   2.96107   2.96920
 Alpha virt. eigenvalues --    2.97950   2.99304   3.00422   3.00964   3.02407
 Alpha virt. eigenvalues --    3.02645   3.04864   3.06267   3.07001   3.07922
 Alpha virt. eigenvalues --    3.09492   3.10453   3.13133   3.14849   3.16700
 Alpha virt. eigenvalues --    3.17820   3.19727   3.20541   3.21491   3.22757
 Alpha virt. eigenvalues --    3.24920   3.25627   3.26798   3.27482   3.28543
 Alpha virt. eigenvalues --    3.29730   3.30298   3.32373   3.32517   3.36094
 Alpha virt. eigenvalues --    3.37783   3.38125   3.40149   3.41542   3.43356
 Alpha virt. eigenvalues --    3.46105   3.46796   3.48276   3.50931   3.53259
 Alpha virt. eigenvalues --    3.56329   3.58137   3.60209   3.61777   4.51526
 Alpha virt. eigenvalues --    4.51939   4.51976   4.52066   4.52348   4.52404
 Alpha virt. eigenvalues --    4.52492   4.52542   4.52685   4.52808   4.52881
 Alpha virt. eigenvalues --    4.53046   4.53133   4.53505   4.53913   4.53937
 Alpha virt. eigenvalues --    4.54167   4.54201   4.54343   4.54463   4.54719
 Alpha virt. eigenvalues --    4.54997   4.55244   4.55334   4.55734   4.55863
 Alpha virt. eigenvalues --    4.56299   4.56663   4.56986   4.57170   4.57273
 Alpha virt. eigenvalues --    4.57938   4.60139   4.60424   4.60701   4.60757
 Alpha virt. eigenvalues --    4.60776   4.60805   4.60981   4.61051   4.61057
 Alpha virt. eigenvalues --    4.61400   4.61488   4.61740   4.61786   4.61877
 Alpha virt. eigenvalues --    4.61996   4.62160   4.62183   4.62334   4.62364
 Alpha virt. eigenvalues --    4.62519   4.62584   4.63030   4.63861   4.64092
 Alpha virt. eigenvalues --    4.64113   4.64291   4.64361   4.64633   4.65184
 Alpha virt. eigenvalues --    4.65263   4.65647   4.67439   4.74822   4.75679
 Alpha virt. eigenvalues --    4.75915   4.75965   4.76021   4.76761   4.77109
 Alpha virt. eigenvalues --    4.77327   4.77489   4.77537   4.77736   4.78261
 Alpha virt. eigenvalues --    4.78483   4.78691   4.78742   4.79666   4.79922
 Alpha virt. eigenvalues --    4.80665   4.80711   4.80968   4.81767   4.81925
 Alpha virt. eigenvalues --    4.81985   4.83042   4.83666   4.84535   4.84912
 Alpha virt. eigenvalues --    4.85243   4.85304   4.85390   4.86266   4.86785
 Alpha virt. eigenvalues --    4.87452   4.87733   4.87981   4.88088   4.88425
 Alpha virt. eigenvalues --    4.88594   4.89055   4.89159   4.89248   4.89507
 Alpha virt. eigenvalues --    4.89927   4.90044   4.90233   4.90506   4.90948
 Alpha virt. eigenvalues --    4.91248   4.92108   4.92156   4.93509   4.94292
 Alpha virt. eigenvalues --    4.94747   4.96117   4.96473   4.96859   4.97850
[...]
   Z20       41.27162   0.00659   0.00000   0.00731   0.00793  41.27955
   X21       33.18359   0.00725   0.00000  -0.00036  -0.00023  33.18336
   Y21       39.07954   0.00038   0.00000   0.00442   0.00427  39.08380
   Z21       42.78340   0.01022   0.00000   0.01090   0.01145  42.79485
   X22       33.39146   0.01590   0.00000   0.00742   0.00731  33.39877
   Y22       39.57087   0.00498   0.00000   0.00569   0.00529  39.57615
   Z22       39.98660  -0.01465   0.00000  -0.00879  -0.00830  39.97831
   X23       34.22294   0.01288   0.00000  -0.00838  -0.00882  34.21412
   Y23       43.86054   0.00202   0.00000  -0.01006  -0.01066  43.84989
   Z23       37.66224   0.00126   0.00000  -0.01877  -0.01874  37.64350
   X24       35.31898   0.00346   0.00000   0.00887   0.00834  35.32732
   Y24       43.50150  -0.00019   0.00000  -0.00133  -0.00202  43.49948
   Z24       36.26384  -0.00245   0.00000  -0.01074  -0.01077  36.25307
   X25       32.57888  -0.02373   0.00000  -0.03802  -0.03848  32.54040
   Y25       43.38811  -0.00803   0.00000  -0.01953  -0.02023  43.36788
   Z25       37.09532  -0.00868   0.00000  -0.02272  -0.02252  37.07280
   X26       40.62911  -0.02897   0.00000  -0.02983  -0.03044  40.59867
   Y26       44.91879   0.00452   0.00000   0.00934   0.00881  44.92760
   Z26       35.99928  -0.00307   0.00000  -0.02799  -0.02857  35.97072
   X27       41.13934   0.01146   0.00000   0.02810   0.02755  41.16689
   Y27       43.18024  -0.00880   0.00000   0.00381   0.00329  43.18353
   Z27       35.84810  -0.00252   0.00000  -0.00692  -0.00738  35.84072
   X28       42.15979   0.01869   0.00000   0.00967   0.00903  42.16882
   Y28       45.86365   0.00843   0.00000   0.00993   0.00945  45.87310
   Z28       35.90480   0.00219   0.00000   0.01860   0.01781  35.92260
   X29       44.57864  -0.00625   0.00000  -0.02559  -0.02603  44.55261
   Y29       41.21493   0.01016   0.00000   0.01399   0.01364  41.22857
   Z29       36.47171   0.00178   0.00000  -0.00971  -0.01025  36.46146
   X30       44.44636   0.00273   0.00000   0.01541   0.01504  44.46140
   Y30       39.40079  -0.00804   0.00000  -0.00291  -0.00326  39.39753
   Z30       36.43392  -0.00024   0.00000   0.00376   0.00340  36.43732
   X31       45.39122   0.00308   0.00000   0.00911   0.00853  45.39975
   Y31       41.63067   0.00012   0.00000   0.00156   0.00109  41.63176
   Z31       34.90324  -0.00320   0.00000  -0.00144  -0.00209  34.90116
   X32       44.86210   0.00947   0.00000   0.01506   0.01474  44.87683
   Y32       35.73472   0.00799   0.00000   0.04152   0.04110  35.77582
   Z32       35.52685   0.00673   0.00000  -0.00891  -0.00897  35.51788
   X33       43.70937  -0.00746   0.00000  -0.00842  -0.00885  43.70052
   Y33       35.71582  -0.00792   0.00000  -0.03920  -0.03980  35.67603
   Z33       34.12845  -0.01024   0.00000  -0.01155  -0.01150  34.11695
   X34       46.39278  -0.00104   0.00000  -0.00067  -0.00102  46.39176
   Y34       34.99773  -0.00082   0.00000  -0.00511  -0.00554  34.99219
   Z34       34.86545   0.00155   0.00000   0.01010   0.01000  34.87544
   X35       31.89858  -0.02057   0.00000  -0.00343  -0.00364  31.89494
   Y35       32.21983   0.00309   0.00000   0.01079   0.00990  32.22973
   Z35       35.28119   0.01676   0.00000   0.04557   0.04687  35.32805
   X36       33.50484   0.01933   0.00000  -0.00180  -0.00203  33.50281
   Y36       31.52063  -0.01608   0.00000  -0.03758  -0.03847  31.48216
   Z36       34.84655  -0.01153   0.00000  -0.03381  -0.03257  34.81398
   X37       31.99306  -0.00157   0.00000  -0.00892  -0.00924  31.98382
   Y37       33.93948   0.01011   0.00000   0.01408   0.01313  33.95261
   Z37       34.71427  -0.00050   0.00000   0.00917   0.01030  34.72457
   X38       44.52195   0.01380   0.00000   0.01826   0.01839  44.54034
   Y38       40.44014   0.01208   0.00000   0.01813   0.01843  40.45857
   Z38       43.40701   0.00934   0.00000   0.00637   0.00590  43.41291
   X39       43.87944  -0.00376   0.00000   0.01396   0.01404  43.89348
   Y39       39.26851  -0.01129   0.00000  -0.01233  -0.01216  39.25634
   Z39       42.19758  -0.00900   0.00000   0.00079   0.00049  42.19807
   X40       43.04796  -0.00499   0.00000  -0.00620  -0.00602  43.04194
   Y40       41.08265   0.00050   0.00000  -0.00016   0.00017  41.08282
   Z40       44.23849  -0.00078   0.00000  -0.00848  -0.00889  44.22960
   X41       36.07487  -0.00080   0.00000  -0.01046  -0.01019  36.06468
   Y41       41.53618  -0.02045   0.00000  -0.03603  -0.03582  41.50036
   Z41       45.56130   0.01617   0.00000  -0.00669  -0.00659  45.55470
   X42       34.61978  -0.00534   0.00000   0.01162   0.01182  34.63160
   Y42       42.51884   0.01392   0.00000   0.03120   0.03132  42.55016
   Z42       45.16445  -0.00856   0.00000  -0.01454  -0.01443  45.15003
   X43       37.26540   0.00539   0.00000  -0.00591  -0.00576  37.25964
   Y43       41.95192   0.01076   0.00000   0.02628   0.02641  41.97833
   Z43       44.27628  -0.01469   0.00000  -0.01639  -0.01643  44.25985
   X44       43.29363   0.01102   0.00000   0.00559   0.00582  43.29945
   Y44       30.55687  -0.01168   0.00000  -0.01871  -0.01874  30.53814
   Z44       40.34565  -0.00236   0.00000  -0.00589  -0.00533  40.34032
   X45       42.02751  -0.00689   0.00000  -0.00989  -0.00954  42.01797
   Y45       29.97106   0.00053   0.00000   0.00380   0.00384  29.97490
   Z45       41.49839   0.00430   0.00000   0.00460   0.00531  41.50370
   X46       42.68891  -0.00521   0.00000  -0.00213  -0.00199  42.68692
   Y46       32.16314   0.00920   0.00000   0.00447   0.00438  32.16751
   Z46       39.77874   0.00075   0.00000   0.01347   0.01393  39.79267
   X47       33.12690  -0.00263   0.00000   0.00339   0.00367  33.13057
   Y47       29.91436  -0.02982   0.00000  -0.04346  -0.04382  29.87055
   Z47       40.59132   0.00692   0.00000  -0.01420  -0.01278  40.57854
   X48       32.35211  -0.00155   0.00000   0.01498   0.01512  32.36723
   Y48       30.91592   0.00851   0.00000  -0.01734  -0.01784  30.89808
   Z48       39.30630  -0.01847   0.00000  -0.04100  -0.03962  39.26669
   X49       34.46860   0.00108   0.00000  -0.03552  -0.03523  34.43338
   Y49       30.95371   0.01631   0.00000   0.03539   0.03514  30.98885
   Z49       41.23382   0.00185   0.00000  -0.00002   0.00119  41.23502
   X50       36.01818  -0.01579   0.00000  -0.02108  -0.02132  35.99686
   Y50       29.23406   0.00753   0.00000   0.02472   0.02381  29.25787
   Z50       33.63713  -0.01829   0.00000  -0.02736  -0.02611  33.61102
   X51       36.07487   0.00594   0.00000   0.01532   0.01522  36.09010
   Y51       28.10023  -0.00968   0.00000  -0.01598  -0.01675  28.08348
   Z51       35.05442   0.00440   0.00000  -0.03273  -0.03137  35.02305
   X52       37.54886   0.00795   0.00000  -0.00371  -0.00398  37.54488
   Y52       30.19782   0.00773   0.00000   0.02289   0.02204  30.21987
   Z52       33.75051   0.00753   0.00000   0.02279   0.02383  33.77434
   X53       31.31276   0.00320   0.00000   0.00666   0.00714  31.31990
   Y53       34.52530   0.01503   0.00000   0.00872   0.00874  34.53403
   Z53       45.16445   0.00665   0.00000   0.01271   0.01384  45.17829
   X54       30.51908  -0.00426   0.00000  -0.00161  -0.00108  30.51799
   Y54       32.91903  -0.01292   0.00000  -0.00804  -0.00807  32.91096
   Z54       45.03217  -0.00544   0.00000  -0.01973  -0.01838  45.01379
   X55       32.86234   0.00284   0.00000   0.00279   0.00320  32.86554
   Y55       34.33632  -0.00315   0.00000  -0.00633  -0.00635  34.32997
   Z55       44.21959  -0.00220   0.00000  -0.00181  -0.00079  44.21881
   X56       34.84655  -0.00409   0.00000  -0.03833  -0.03850  34.80805
   Y56       46.12821   0.01279   0.00000   0.04332   0.04315  46.17137
   Z56       41.95192   0.03428   0.00000   0.05153   0.05129  42.00321
   X57       34.33632   0.00237   0.00000   0.03391   0.03363  34.36995
   Y57       45.50461  -0.00816   0.00000  -0.01494  -0.01528  45.48933
   Z57       40.34565  -0.01915   0.00000   0.00907   0.00892  40.35458
   X58       36.05597   0.00334   0.00000   0.01346   0.01321  36.06919
   Y58       47.43213  -0.00151   0.00000  -0.01170  -0.01185  47.42027
   Z58       41.59287  -0.00180   0.00000   0.01003   0.00957  41.60244
   X59       42.25428   0.01632   0.00000   0.02180   0.02168  42.27596
   Y59       46.10932   0.02413   0.00000   0.04430   0.04447  46.15379
   Z59       42.78340  -0.01053   0.00000  -0.00616  -0.00699  42.77641
   X60       41.89523  -0.00516   0.00000   0.00628   0.00632  41.90155
   Y60       45.35343  -0.00899   0.00000   0.00069   0.00099  45.35442
   Z60       44.37077   0.00837   0.00000  -0.00435  -0.00507  44.36570
   X61       41.21493  -0.00565   0.00000   0.00104   0.00087  41.21580
   Y61       45.22115  -0.01025   0.00000  -0.02001  -0.01999  45.20116
   Z61       41.59287   0.00774   0.00000   0.04185   0.04120  41.63407
   X62       32.74895  -0.00102   0.00000   0.01460   0.01371  32.76266
   Y62       42.72671  -0.01579   0.00000  -0.01636  -0.01759  42.70912
   Z62       31.38835  -0.01029   0.00000  -0.00223  -0.00199  31.38636
   X63       31.36945  -0.00523   0.00000   0.00508   0.00425  31.37370
   Y63       43.36921   0.00337   0.00000  -0.00363  -0.00482  43.36439
   Z63       32.35211   0.00655   0.00000   0.00550   0.00579  32.35790
   X64       34.16625   0.01125   0.00000   0.00909   0.00820  34.17445
   Y64       43.72826   0.01602   0.00000   0.04220   0.04105  43.76932
   Z64       31.87968   0.00078   0.00000  -0.01962  -0.01958  31.86010
   X65       29.51752   0.03182   0.00000   0.03249   0.03198  29.54950
   Y65       42.00861   0.00631   0.00000   0.02235   0.02144  42.03005
   Z65       35.99928  -0.01934   0.00000  -0.01370  -0.01313  35.98615
   X66       28.36479  -0.01278   0.00000  -0.01713  -0.01773  28.34706
   Y66       43.10465   0.00736   0.00000   0.00686   0.00583  43.11048
   Z66       35.16780  -0.00444   0.00000  -0.00748  -0.00692  35.16088
   X67       28.59156  -0.01946   0.00000  -0.01620  -0.01657  28.57499
   Y67       41.32831  -0.00888   0.00000  -0.00154  -0.00236  41.32595
   Z67       37.39768   0.02107   0.00000   0.00497   0.00567  37.40335
   X68       43.06686   0.01862   0.00000   0.02525   0.02420  43.09106
   Y68       39.91102  -0.00805   0.00000  -0.04213  -0.04332  39.86770
   Z68       28.11912  -0.00861   0.00000   0.00063   0.00033  28.11945
   X69       41.55508  -0.00816   0.00000   0.00012  -0.00100  41.55408
   Y69       39.62756   0.00098   0.00000   0.01170   0.01037  39.63793
   Z69       27.17426  -0.00238   0.00000  -0.00217  -0.00233  27.17193
   X70       42.51884  -0.01088   0.00000  -0.02463  -0.02555  42.49328
   Y70       40.08109   0.00306   0.00000   0.01262   0.01158  40.09267
   Z70       29.83878   0.01098   0.00000   0.00203   0.00176  29.84053
   X71       42.93458  -0.00739   0.00000  -0.00752  -0.00817  42.92640
   Y71       34.03397  -0.00499   0.00000   0.02136   0.02041  34.05437
   Z71       30.57577   0.01403   0.00000   0.01907   0.01933  30.59509
   X72       42.02751  -0.00048   0.00000   0.01314   0.01237  42.03988
   Y72       35.26229   0.01217   0.00000   0.02931   0.02823  35.29052
   Z72       29.61201  -0.00971   0.00000  -0.02056  -0.02034  29.59167
   X73       44.63533   0.00879   0.00000   0.00111   0.00041  44.63574
   Y73       34.14735   0.00193   0.00000  -0.00017  -0.00112  34.14623
   Z73       29.98995  -0.00686   0.00000  -0.01279  -0.01267  29.97728
   X74       36.75517  -0.01719   0.00000  -0.00983  -0.01080  36.74437
   Y74       46.69513  -0.01275   0.00000  -0.01995  -0.02099  46.67414
   Z74       32.03086   0.00247   0.00000   0.01377   0.01333  32.04419
   X75       37.37878   0.00537   0.00000  -0.00089  -0.00200  37.37679
   Y75       48.01794   0.00938   0.00000  -0.00341  -0.00452  48.01342
   Z75       30.99151  -0.00767   0.00000  -0.00091  -0.00152  30.98999
   X76       38.07798   0.01306   0.00000   0.02006   0.01919  38.09717
   Y76       46.35498  -0.00412   0.00000  -0.01315  -0.01402  46.34096
   Z76       33.22139   0.01031   0.00000   0.01528   0.01477  33.23615
   X77       28.64825  -0.01387   0.00000  -0.01839  -0.01913  28.62912
   Y77       36.71738  -0.00138   0.00000   0.00805   0.00661  36.72398
   Z77       30.70805  -0.01181   0.00000  -0.00788  -0.00674  30.70131
   X78       29.61201   0.00356   0.00000   0.01307   0.01220  29.62421
   Y78       37.37878   0.00024   0.00000   0.00174   0.00021  37.37899
   Z78       29.30965   0.00514   0.00000   0.01370   0.01469  29.32434
   X79       29.72539   0.01133   0.00000   0.01270   0.01208  29.73747
   Y79       36.92525   0.00155   0.00000  -0.00365  -0.00492  36.92033
   Z79       32.14424   0.00802   0.00000  -0.00217  -0.00114  32.14310
   X80       46.58175   0.00937   0.00000   0.02427   0.02470  46.60645
   Y80       35.14891  -0.01034   0.00000  -0.03640  -0.03589  35.11301
   Z80       44.80541   0.01965   0.00000   0.01035   0.01022  44.81562
   X81       47.88566  -0.00151   0.00000  -0.02093  -0.02057  47.86509
   Y81       36.37723   0.00688   0.00000   0.01970   0.02023  36.39746
   Z81       44.54084  -0.00290   0.00000  -0.00297  -0.00332  44.53753
   X82       45.71248  -0.01200   0.00000  -0.02633  -0.02602  45.68645
   Y82       35.07332   0.00232   0.00000   0.00905   0.00938  35.08269
   Z82       43.23693  -0.01485   0.00000   0.00283   0.00278  43.23971
   X83       26.92860  -0.01532   0.00000   0.00818   0.00804  26.93664
   Y83       40.62911   0.00305   0.00000   0.00107   0.00045  40.62956
   Z83       40.06219  -0.01091   0.00000  -0.00369  -0.00279  40.05941
   X84       26.22940  -0.00021   0.00000   0.00711   0.00701  26.23641
   Y84       41.89523   0.00347   0.00000   0.00645   0.00590  41.90113
   Z84       41.15824   0.00170   0.00000  -0.00083   0.00000  41.15824
   X85       28.49707   0.02366   0.00000   0.02766   0.02760  28.52467
   Y85       40.19447  -0.01207   0.00000  -0.03521  -0.03570  40.15878
   Z85       40.83698   0.01322   0.00000   0.02280   0.02362  40.86060
   X86       26.94749  -0.01465   0.00000  -0.02195  -0.02196  26.92554
   Y86       32.71116   0.00236   0.00000  -0.00300  -0.00380  32.70736
   Z86       38.15357   0.01278   0.00000   0.00977   0.01142  38.16499
   X87       28.61045   0.00587   0.00000   0.00019   0.00025  28.61070
   Y87       32.48439   0.00061   0.00000   0.01023   0.00955  32.49394
   Z87       38.83387  -0.00457   0.00000  -0.01657  -0.01503  38.81884
   X88       27.13647   0.00994   0.00000   0.02776   0.02762  27.16409
   Y88       32.46549  -0.00235   0.00000  -0.00183  -0.00279  32.46270
   Z88       36.37723  -0.00890   0.00000  -0.00186  -0.00021  36.37702
   X89       36.45282   0.00766   0.00000  -0.00519  -0.00502  36.44780
   Y89       26.24830  -0.01480   0.00000  -0.01302  -0.01354  26.23475
   Z89       37.54886  -0.00415   0.00000   0.02110   0.02261  37.57146
   X90       37.41658   0.00213   0.00000   0.01290   0.01318  37.42976
   Y90       25.01997  -0.00038   0.00000  -0.00329  -0.00369  25.01628
   Z90       38.47482  -0.00077   0.00000   0.00900   0.01055  38.48537
   X91       35.73472  -0.01646   0.00000  -0.04344  -0.04321  35.69151
   Y91       27.30654   0.01457   0.00000   0.01432   0.01389  27.32043
   Z91       38.81497   0.01573   0.00000   0.02198   0.02345  38.83842
   X92       45.33453  -0.01156   0.00000  -0.01594  -0.01651  45.31802
   Y92       47.18646   0.00382   0.00000  -0.01509  -0.01532  47.17114
   Z92       37.47327  -0.01853   0.00000  -0.01591  -0.01707  37.45619
   X93       46.99749   0.00917   0.00000  -0.00417  -0.00472  46.99277
   Y93       47.71558   0.00190   0.00000  -0.00004  -0.00016  47.71542
   Z93       37.90791   0.00412   0.00000  -0.00064  -0.00198  37.90592
   X94       44.86210  -0.00087   0.00000   0.00443   0.00401  44.86611
   Y94       46.01483  -0.00985   0.00000  -0.00630  -0.00642  46.00841
   Z94       38.75828   0.01701   0.00000   0.03345   0.03243  38.79071
   X95       39.09843  -0.00885   0.00000  -0.00593  -0.00528  39.09315
   Y95       29.74429  -0.00460   0.00000  -0.00993  -0.00965  29.73464
   Z95       45.20225  -0.01669   0.00000  -0.02000  -0.01903  45.18322
   X96       40.47793   0.01212   0.00000   0.00805   0.00878  40.48671
   Y96       30.02775   0.00561   0.00000   0.01642   0.01685  30.04460
   Z96       46.31719   0.00953   0.00000  -0.00300  -0.00218  46.31501
   X97       37.62445  -0.00287   0.00000  -0.00218  -0.00145  37.62299
   Y97       29.83878   0.00084   0.00000   0.00199   0.00232  29.84110
   Z97       46.26050   0.00271   0.00000  -0.00348  -0.00241  46.25809
         Item               Value     Threshold  Converged?
 Maximum Force            0.034283     0.000450     NO 
 RMS     Force            0.010805     0.000300     NO 
 Maximum Displacement     0.051290     0.001800     NO 
 RMS     Displacement     0.017582     0.001200     NO 
 Predicted change in Energy=-2.815286D-02
 GradGradGradGradGradGradGradGradGradGradGradGradGradGradGradGradGradGrad

 Leave Link  103 at Thu May  3 09:33:12 2018, MaxMem= 14763950080 cpu:        66.2
 (Enter /cm/shared/gaussian/g09.e01/intel64-sandybridge/g09/l9999.exe)
 1\1\GINC-POPLE03\Force\RPBE1PBE\CC-pVDZ\Br1H64O32(1-)\M.PELUSO\03-May-
 2018\0\\#p PBE1PBE/cc-pvDZ force Counterpoise=2 noSymm\\forces on chlo
 ride comput - NWATER: 32\\-1,1\Br,20.,20.,20.\O,20.97,17.41,18.41\H,21
 .37,17.78,17.62\H,20.84,18.17,18.98\O,20.71,22.66,21.48\H,20.82,23.2,2
 0.7\H,20.17,21.93,21.19\O,17.28,19.96,18.18\H,18.01,19.88,18.79\H,17.0
 2,20.88,18.24\O,22.84,19.11,21.38\H,23.25,18.93,20.54\H,22.,19.51,21.1
 6\O,19.11,17.71,22.51\H,19.83,17.1,22.65\H,19.44,18.33,21.86\O,21.02,2
 1.43,16.95\H,20.57,20.98,17.65\H,20.42,21.38,16.2\O,17.04,20.75,21.84\
 H,17.56,20.68,22.64\H,17.67,20.94,21.16\O,18.11,23.21,19.93\H,18.69,23
 .02,19.19\H,17.24,22.96,19.63\O,21.5,23.77,19.05\H,21.77,22.85,18.97\H
 ,22.31,24.27,19.\O,23.59,21.81,19.3\H,23.52,20.85,19.28\H,24.02,22.03,
 18.47\O,23.74,18.91,18.8\H,23.13,18.9,18.06\H,24.55,18.52,18.45\O,16.8
 8,17.05,18.67\H,17.73,16.68,18.44\H,16.93,17.96,18.37\O,23.56,21.4,22.
 97\H,23.22,20.78,22.33\H,22.78,21.74,23.41\O,19.09,21.98,24.11\H,18.32
 ,22.5,23.9\H,19.72,22.2,23.43\O,22.91,16.17,21.35\H,22.24,15.86,21.96\
 H,22.59,17.02,21.05\O,17.53,15.83,21.48\H,17.12,16.36,20.8\H,18.24,16.
 38,21.82\O,19.06,15.47,17.8\H,19.09,14.87,18.55\H,19.87,15.98,17.86\O,
 16.57,18.27,23.9\H,16.15,17.42,23.83\H,17.39,18.17,23.4\O,18.44,24.41,
 22.2\H,18.17,24.08,21.35\H,19.08,25.1,22.01\O,22.36,24.4,22.64\H,22.17
 ,24.,23.48\H,21.81,23.93,22.01\O,17.33,22.61,16.61\H,16.6,22.95,17.12\
 H,18.08,23.14,16.87\O,15.62,22.23,19.05\H,15.01,22.81,18.61\H,15.13,21
 .87,19.79\O,22.79,21.12,14.88\H,21.99,20.97,14.38\H,22.5,21.21,15.79\O
 ,22.72,18.01,16.18\H,22.24,18.66,15.67\H,23.62,18.07,15.87\O,19.45,24.
 71,16.95\H,19.78,25.41,16.4\H,20.15,24.53,17.58\O,15.16,19.43,16.25\H,
 15.67,19.78,15.51\H,15.73,19.54,17.01\O,24.65,18.6,23.71\H,25.34,19.25
 ,23.57\H,24.19,18.56,22.88\O,14.25,21.5,21.2\H,13.88,22.17,21.78\H,15.
 08,21.27,21.61\O,14.26,17.31,20.19\H,15.14,17.19,20.55\H,14.36,17.18,1
 9.25\O,19.29,13.89,19.87\H,19.8,13.24,20.36\H,18.91,14.45,20.54\O,23.9
 9,24.97,19.83\H,24.87,25.25,20.06\H,23.74,24.35,20.51\O,20.69,15.74,23
 .92\H,21.42,15.89,24.51\H,19.91,15.79,24.48\\Version=ES64L-G09RevE.01\
 HF=-2443.2158383\RMSD=2.776e-09\RMSF=1.081e-02\Dipole=3.6800008,2.7356
 043,-2.8294179\Quadrupole=195.4946035,104.2764915,-299.771095,-1207.13
 76398,-1413.1775363,-1466.3265456\PG=C01 [X(Br1H64O32)]\\@


 You don't have to suffer to be a poet.
 Adolescence is enough suffering for anyone.
                             -- John Ciardi
 Job cpu time:       0 days 11 hours 16 minutes 35.0 seconds.
 File lengths (MBytes):  RWF=    482 Int=      0 D2E=      0 Chk=    160 Scr=      1
 Normal termination of Gaussian 09 at Thu May  3 09:33:12 2018.
