 Entering Gaussian System, Link 0=/cm/shared/gaussian/g09.e01/intel64-sandybridge/g09/g09
 Initial command:
 /cm/shared/gaussian/g09.e01/intel64-sandybridge/g09/l1.exe "/local/scratch/m.peluso/32_wat/Gau-13328.inp" -scrdir="/local/scratch/m.peluso/32_wat/"
 Entering Link 1 = /cm/shared/gaussian/g09.e01/intel64-sandybridge/g09/l1.exe PID=     13329.
  
 Copyright (c) 1988,1990,1992,1993,1995,1998,2003,2009,2015,
            Gaussian, Inc.  All Rights Reserved.
  
 This is part of the Gaussian(R) 09 program.  It is based on
 the Gaussian(R) 03 system (copyright 2003, Gaussian, Inc.),
 the Gaussian(R) 98 system (copyright 1998, Gaussian, Inc.),
 the Gaussian(R) 94 system (copyright 1995, Gaussian, Inc.),
 the Gaussian 92(TM) system (copyright 1992, Gaussian, Inc.),
 the Gaussian 90(TM) system (copyright 1990, Gaussian, Inc.),
 the Gaussian 88(TM) system (copyright 1988, Gaussian, Inc.),
 the Gaussian 86(TM) system (copyright 1986, Carnegie Mellon
 University), and the Gaussian 82(TM) system (copyright 1983,
 Carnegie Mellon University). Gaussian is a federally registered
 trademark of Gaussian, Inc.
  
 This software contains proprietary and confidential information,
 including trade secrets, belonging to Gaussian, Inc.
  
 This software is provided under written license and may be
 used, copied, transmitted, or stored only in accord with that
 written license.
  
 The following legend is applicable only to US Government
 contracts under FAR:
  
                    RESTRICTED RIGHTS LEGEND
  
 Use, reproduction and disclosure by the US Government is
 subject to restrictions as set forth in subparagraphs (a)
 and (c) of the Commercial Computer Software - Restricted
 Rights clause in FAR 52.227-19.
  
 Gaussian, Inc.
 340 Quinnipiac St., Bldg. 40, Wallingford CT 06492
  
  
 ---------------------------------------------------------------
 Warning -- This program may not be used in any manner that
 competes with the business of Gaussian, Inc. or will provide
 assistance to any competitor of Gaussian, Inc.  The licensee
 of this program is prohibited from giving any competitor of
 Gaussian, Inc. access to this program.  By using this program,
 the user acknowledges that Gaussian, Inc. is engaged in the
 business of creating and licensing software in the field of
 computational chemistry and represents and warrants to the
 licensee that it is not a competitor of Gaussian, Inc. and that
 it will not use this program in any manner prohibited above.
 ---------------------------------------------------------------
  

 Cite this work as:
 Gaussian 09, Revision E.01,
 M. J. Frisch, G. W. Trucks, H. B. Schlegel, G. E. Scuseria, 
 M. A. Robb, J. R. Cheeseman, G. Scalmani, V. Barone, B. Mennucci, 
 G. A. Petersson, H. Nakatsuji, M. Caricato, X. Li, H. P. Hratchian, 
 A. F. Izmaylov, J. Bloino, G. Zheng, J. L. Sonnenberg, M. Hada, 
 M. Ehara, K. Toyota, R. Fukuda, J. Hasegawa, M. Ishida, T. Nakajima, 
 Y. Honda, O. Kitao, H. Nakai, T. Vreven, J. A. Montgomery, Jr., 
 J. E. Peralta, F. Ogliaro, M. Bearpark, J. J. Heyd, E. Brothers, 
 K. N. Kudin, V. N. Staroverov, T. Keith, R. Kobayashi, J. Normand, 
 K. Raghavachari, A. Rendell, J. C. Burant, S. S. Iyengar, J. Tomasi, 
 M. Cossi, N. Rega, J. M. Millam, M. Klene, J. E. Knox, J. B. Cross, 
 V. Bakken, C. Adamo, J. Jaramillo, R. Gomperts, R. E. Stratmann, 
 O. Yazyev, A. J. Austin, R. Cammi, C. Pomelli, J. W. Ochterski, 
 R. L. Martin, K. Morokuma, V. G. Zakrzewski, G. A. Voth, 
 P. Salvador, J. J. Dannenberg, S. Dapprich, A. D. Daniels, 
 O. Farkas, J. B. Foresman, J. V. Ortiz, J. Cioslowski, 
 and D. J. Fox, Gaussian, Inc., Wallingford CT, 2013.
 
 ******************************************
 Gaussian 09:  ES64L-G09RevE.01 30-Nov-2015
                 2-May-2018 
 ******************************************
 %Mem=110GB
 %NProcShared=64
 Will use up to   64 processors via shared memory.
 %chk=snap110.chk
 ----------------------------------------------
 #p PBE1PBE/cc-pvDZ force Counterpoise=2 noSymm
 ----------------------------------------------
 1/10=7,30=1,38=1,62=2/1,3;
 2/12=2,15=1,17=6,18=5,40=1/2;
 1/10=7,30=1,38=1,53=2,62=2,63=101/22;
 3/5=16,11=2,16=1,25=1,30=1,71=1,74=-13/1,2,3;
 4//1;
 5/5=2,38=5/2;
 6/7=2,8=2,9=2,10=2,28=1/1;
 7/7=1,29=1,30=1,33=-1/1,2,3,16;
 1/10=7,30=1,53=2,62=2,63=101/22;
 3/5=7,6=11,11=2,16=1,25=1,30=1,71=1,74=-13,82=7/1,2,3;
 4//1;
 5/5=2,38=5/2;
 6/7=2,8=2,9=2,10=2,28=1/1;
 7/7=1,29=1,30=1,33=-1/1,2,3,16;
 1/10=7,30=1,53=2,62=2,63=101/22(-5);
 7/9=1,29=1,44=-1/16;
 1/10=7,30=1,62=2/3;
 99//99;
 Leave Link    1 at Wed May  2 21:54:57 2018, MaxMem= 14763950080 cpu:         4.3
 (Enter /cm/shared/gaussian/g09.e01/intel64-sandybridge/g09/l101.exe)
 --------------------------------------
 forces on chloride comput - NWATER: 32
 --------------------------------------
 Symbolic Z-matrix:
 Charge = -1 Multiplicity = 1 in supermolecule
 Charge = -1 Multiplicity = 1 in fragment      1.
 Charge =  0 Multiplicity = 1 in fragment      2.
 Br(Fragment=1)        20.       20.       20. 
 O(Fragment=2)         21.57     22.16     21.84 
 H(Fragment=2)         21.18     21.46     21.33 
 H(Fragment=2)         20.88     22.44     22.44 
 O(Fragment=2)         19.36     21.4      17.13 
 H(Fragment=2)         19.49     21.03     18. 
 H(Fragment=2)         19.57     22.33     17.23 
 O(Fragment=2)         23.2      19.43     19.42 
 H(Fragment=2)         23.22     19.3      18.47 
 H(Fragment=2)         22.28     19.64     19.61 
 O(Fragment=2)         19.36     16.89     19.46 
 H(Fragment=2)         18.49     16.52     19.36 
 H(Fragment=2)         19.22     17.75     19.85 
 O(Fragment=2)         19.28     19.65     23.52 
 H(Fragment=2)         19.56     20.56     23.65 
 H(Fragment=2)         19.26     19.54     22.57 
 O(Fragment=2)         21.53     19.09     16.28 
 H(Fragment=2)         20.8      18.92     16.86 
 H(Fragment=2)         22.18     18.42     16.51 
 O(Fragment=2)         15.77     21.49     19.61 
 H(Fragment=2)         16.34     22.25     19.54 
 H(Fragment=2)         16.37     20.75     19.71 
 O(Fragment=2)         23.98     21.9      20.77 
 H(Fragment=2)         23.08     21.94     21.09 
 H(Fragment=2)         24.05     21.04     20.35 
 O(Fragment=2)         21.22     15.79     21.44 
 H(Fragment=2)         22.08     16.13     21.18 
 H(Fragment=2)         20.59     16.38     21.02 
 O(Fragment=2)         23.3      20.06     23.66 
 H(Fragment=2)         23.57     19.16     23.48 
 H(Fragment=2)         22.53     20.19     23.12 
 O(Fragment=2)         23.55     17.27     21.03 
 H(Fragment=2)         23.95     17.53     21.86 
 H(Fragment=2)         23.52     18.08     20.51 
 O(Fragment=2)         20.42     16.43     16.99 
 H(Fragment=2)         21.       15.68     17.11 
 H(Fragment=2)         20.       16.55     17.85 
 O(Fragment=2)         19.78     24.1      17.87 
 H(Fragment=2)         19.4      24.98     17.83 
 H(Fragment=2)         20.06     24.       18.78 
 O(Fragment=2)         18.78     16.48     23.2 
 H(Fragment=2)         18.86     16.01     24.03 
 H(Fragment=2)         19.54     17.07     23.18 
 O(Fragment=2)         22.78     21.58     16.1 
 H(Fragment=2)         22.32     22.34     15.75 
 H(Fragment=2)         22.12     20.89     16.14 
 O(Fragment=2)         17.06     23.96     19.25 
 H(Fragment=2)         16.6      24.59     19.79 
 H(Fragment=2)         17.98     24.03     19.52 
 O(Fragment=2)         17.79     20.21     15.3 
 H(Fragment=2)         17.98     19.27     15.28 
 H(Fragment=2)         18.54     20.6      15.75 
 O(Fragment=2)         16.22     17.98     18.24 
 H(Fragment=2)         16.6      18.38     17.46 
 H(Fragment=2)         16.5      17.06     18.2 
 O(Fragment=2)         16.36     19.48     23.67 
 H(Fragment=2)         17.31     19.62     23.76 
 H(Fragment=2)         15.97     20.22     24.12 
 O(Fragment=2)         19.49     24.6      20.66 
 H(Fragment=2)         18.84     24.61     21.37 
 H(Fragment=2)         20.3      24.9      21.07 
 O(Fragment=2)         18.47     17.65     15.53 
 H(Fragment=2)         19.29     17.43     15.96 
 H(Fragment=2)         18.08     16.81     15.29 
 O(Fragment=2)         19.63     22.62     24.08 
 H(Fragment=2)         18.91     23.21     23.87 
 H(Fragment=2)         19.82     22.79     25. 
 O(Fragment=2)         14.94     17.97     21.94 
 H(Fragment=2)         15.4      18.46     22.62 
 H(Fragment=2)         15.63     17.68     21.35 
 O(Fragment=2)         20.76     20.19     13.88 
 H(Fragment=2)         21.49     19.71     13.5 
 H(Fragment=2)         20.7      19.87     14.78 
 O(Fragment=2)         23.42     17.15     17.08 
 H(Fragment=2)         23.03     16.29     17.26 
 H(Fragment=2)         23.89     17.02     16.25 
 O(Fragment=2)         20.67     18.55     26.2 
 H(Fragment=2)         20.12     18.66     25.42 
 H(Fragment=2)         20.06     18.59     26.93 
 O(Fragment=2)         21.73     15.95     24.49 
 H(Fragment=2)         21.61     15.01     24.59 
 H(Fragment=2)         21.82     16.09     23.55 
 O(Fragment=2)         25.       21.91     23.18 
 H(Fragment=2)         24.79     21.8      22.25 
 H(Fragment=2)         24.43     21.29     23.63 
 O(Fragment=2)         17.96     23.76     15.53 
 H(Fragment=2)         18.59     23.96     16.22 
 H(Fragment=2)         18.29     24.24     14.77 
 O(Fragment=2)         26.47     19.61     18.64 
 H(Fragment=2)         26.87     19.08     19.32 
 H(Fragment=2)         25.53     19.51     18.78 
 O(Fragment=2)         17.01     15.24     19.13 
 H(Fragment=2)         17.58     14.5      18.91 
 H(Fragment=2)         16.55     14.96     19.92 
 O(Fragment=2)         18.97     14.09     21.63 
 H(Fragment=2)         19.83     14.43     21.39 
 H(Fragment=2)         18.55     14.81     22.1 
 
 NAtoms=     97 NQM=       97 NQMF=       0 NMMI=      0 NMMIF=      0
                NMic=       0 NMicF=      0.
                    Isotopes and Nuclear Properties:
 (Nuclear quadrupole moments (NQMom) in fm**2, nuclear magnetic moments (NMagM)
  in nuclear magnetons)

  Atom         1           2           3           4           5           6           7           8           9          10
 IAtWgt=          79          16           1           1          16           1           1          16           1           1
 AtmWgt=  78.9183361  15.9949146   1.0078250   1.0078250  15.9949146   1.0078250   1.0078250  15.9949146   1.0078250   1.0078250
 NucSpn=           3           0           1           1           0           1           1           0           1           1
 AtZEff=   0.0000000   0.0000000   0.0000000   0.0000000   0.0000000   0.0000000   0.0000000   0.0000000   0.0000000   0.0000000
 NQMom=   31.3000000   0.0000000   0.0000000   0.0000000   0.0000000   0.0000000   0.0000000   0.0000000   0.0000000   0.0000000
 NMagM=    2.1063990   0.0000000   2.7928460   2.7928460   0.0000000   2.7928460   2.7928460   0.0000000   2.7928460   2.7928460
 AtZNuc=  35.0000000   8.0000000   1.0000000   1.0000000   8.0000000   1.0000000   1.0000000   8.0000000   1.0000000   1.0000000

  Atom        11          12          13          14          15          16          17          18          19          20
 IAtWgt=          16           1           1          16           1           1          16           1           1          16
 AtmWgt=  15.9949146   1.0078250   1.0078250  15.9949146   1.0078250   1.0078250  15.9949146   1.0078250   1.0078250  15.9949146
 NucSpn=           0           1           1           0           1           1           0           1           1           0
 AtZEff=   0.0000000   0.0000000   0.0000000   0.0000000   0.0000000   0.0000000   0.0000000   0.0000000   0.0000000   0.0000000
 NQMom=    0.0000000   0.0000000   0.0000000   0.0000000   0.0000000   0.0000000   0.0000000   0.0000000   0.0000000   0.0000000
 NMagM=    0.0000000   2.7928460   2.7928460   0.0000000   2.7928460   2.7928460   0.0000000   2.7928460   2.7928460   0.0000000
 AtZNuc=   8.0000000   1.0000000   1.0000000   8.0000000   1.0000000   1.0000000   8.0000000   1.0000000   1.0000000   8.0000000

  Atom        21          22          23          24          25          26          27          28          29          30
 IAtWgt=           1           1          16           1           1          16           1           1          16           1
 AtmWgt=   1.0078250   1.0078250  15.9949146   1.0078250   1.0078250  15.9949146   1.0078250   1.0078250  15.9949146   1.0078250
 NucSpn=           1           1           0           1           1           0           1           1           0           1
 AtZEff=   0.0000000   0.0000000   0.0000000   0.0000000   0.0000000   0.0000000   0.0000000   0.0000000   0.0000000   0.0000000
 NQMom=    0.0000000   0.0000000   0.0000000   0.0000000   0.0000000   0.0000000   0.0000000   0.0000000   0.0000000   0.0000000
 NMagM=    2.7928460   2.7928460   0.0000000   2.7928460   2.7928460   0.0000000   2.7928460   2.7928460   0.0000000   2.7928460
 AtZNuc=   1.0000000   1.0000000   8.0000000   1.0000000   1.0000000   8.0000000   1.0000000   1.0000000   8.0000000   1.0000000

  Atom        31          32          33          34          35          36          37          38          39          40
 IAtWgt=           1          16           1           1          16           1           1          16           1           1
 AtmWgt=   1.0078250  15.9949146   1.0078250   1.0078250  15.9949146   1.0078250   1.0078250  15.9949146   1.0078250   1.0078250
 NucSpn=           1           0           1           1           0           1           1           0           1           1
 AtZEff=   0.0000000   0.0000000   0.0000000   0.0000000   0.0000000   0.0000000   0.0000000   0.0000000   0.0000000   0.0000000
 NQMom=    0.0000000   0.0000000   0.0000000   0.0000000   0.0000000   0.0000000   0.0000000   0.0000000   0.0000000   0.0000000
 NMagM=    2.7928460   0.0000000   2.7928460   2.7928460   0.0000000   2.7928460   2.7928460   0.0000000   2.7928460   2.7928460
 AtZNuc=   1.0000000   8.0000000   1.0000000   1.0000000   8.0000000   1.0000000   1.0000000   8.0000000   1.0000000   1.0000000

  Atom        41          42          43          44          45          46          47          48          49          50
 IAtWgt=          16           1           1          16           1           1          16           1           1          16
 AtmWgt=  15.9949146   1.0078250   1.0078250  15.9949146   1.0078250   1.0078250  15.9949146   1.0078250   1.0078250  15.9949146
 NucSpn=           0           1           1           0           1           1           0           1           1           0
 AtZEff=   0.0000000   0.0000000   0.0000000   0.0000000   0.0000000   0.0000000   0.0000000   0.0000000   0.0000000   0.0000000
 NQMom=    0.0000000   0.0000000   0.0000000   0.0000000   0.0000000   0.0000000   0.0000000   0.0000000   0.0000000   0.0000000
 NMagM=    0.0000000   2.7928460   2.7928460   0.0000000   2.7928460   2.7928460   0.0000000   2.7928460   2.7928460   0.0000000
 AtZNuc=   8.0000000   1.0000000   1.0000000   8.0000000   1.0000000   1.0000000   8.0000000   1.0000000   1.0000000   8.0000000

  Atom        51          52          53          54          55          56          57          58          59          60
 IAtWgt=           1           1          16           1           1          16           1           1          16           1
 AtmWgt=   1.0078250   1.0078250  15.9949146   1.0078250   1.0078250  15.9949146   1.0078250   1.0078250  15.9949146   1.0078250
 NucSpn=           1           1           0           1           1           0           1           1           0           1
 AtZEff=   0.0000000   0.0000000   0.0000000   0.0000000   0.0000000   0.0000000   0.0000000   0.0000000   0.0000000   0.0000000
 NQMom=    0.0000000   0.0000000   0.0000000   0.0000000   0.0000000   0.0000000   0.0000000   0.0000000   0.0000000   0.0000000
 NMagM=    2.7928460   2.7928460   0.0000000   2.7928460   2.7928460   0.0000000   2.7928460   2.7928460   0.0000000   2.7928460
 AtZNuc=   1.0000000   1.0000000   8.0000000   1.0000000   1.0000000   8.0000000   1.0000000   1.0000000   8.0000000   1.0000000

  Atom        61          62          63          64          65          66          67          68          69          70
 IAtWgt=           1          16           1           1          16           1           1          16           1           1
 AtmWgt=   1.0078250  15.9949146   1.0078250   1.0078250  15.9949146   1.0078250   1.0078250  15.9949146   1.0078250   1.0078250
 NucSpn=           1           0           1           1           0           1           1           0           1           1
 AtZEff=   0.0000000   0.0000000   0.0000000   0.0000000   0.0000000   0.0000000   0.0000000   0.0000000   0.0000000   0.0000000
 NQMom=    0.0000000   0.0000000   0.0000000   0.0000000   0.0000000   0.0000000   0.0000000   0.0000000   0.0000000   0.0000000
 NMagM=    2.7928460   0.0000000   2.7928460   2.7928460   0.0000000   2.7928460   2.7928460   0.0000000   2.7928460   2.7928460
 AtZNuc=   1.0000000   8.0000000   1.0000000   1.0000000   8.0000000   1.0000000   1.0000000   8.0000000   1.0000000   1.0000000

  Atom        71          72          73          74          75          76          77          78          79          80
 IAtWgt=          16           1           1          16           1           1          16           1           1          16
 AtmWgt=  15.9949146   1.0078250   1.0078250  15.9949146   1.0078250   1.0078250  15.9949146   1.0078250   1.0078250  15.9949146
 NucSpn=           0           1           1           0           1           1           0           1           1           0
 AtZEff=   0.0000000   0.0000000   0.0000000   0.0000000   0.0000000   0.0000000   0.0000000   0.0000000   0.0000000   0.0000000
 NQMom=    0.0000000   0.0000000   0.0000000   0.0000000   0.0000000   0.0000000   0.0000000   0.0000000   0.0000000   0.0000000
 NMagM=    0.0000000   2.7928460   2.7928460   0.0000000   2.7928460   2.7928460   0.0000000   2.7928460   2.7928460   0.0000000
 AtZNuc=   8.0000000   1.0000000   1.0000000   8.0000000   1.0000000   1.0000000   8.0000000   1.0000000   1.0000000   8.0000000

  Atom        81          82          83          84          85          86          87          88          89          90
 IAtWgt=           1           1          16           1           1          16           1           1          16           1
 AtmWgt=   1.0078250   1.0078250  15.9949146   1.0078250   1.0078250  15.9949146   1.0078250   1.0078250  15.9949146   1.0078250
 NucSpn=           1           1           0           1           1           0           1           1           0           1
 AtZEff=   0.0000000   0.0000000   0.0000000   0.0000000   0.0000000   0.0000000   0.0000000   0.0000000   0.0000000   0.0000000
 NQMom=    0.0000000   0.0000000   0.0000000   0.0000000   0.0000000   0.0000000   0.0000000   0.0000000   0.0000000   0.0000000
 NMagM=    2.7928460   2.7928460   0.0000000   2.7928460   2.7928460   0.0000000   2.7928460   2.7928460   0.0000000   2.7928460
 AtZNuc=   1.0000000   1.0000000   8.0000000   1.0000000   1.0000000   8.0000000   1.0000000   1.0000000   8.0000000   1.0000000

  Atom        91          92          93          94          95          96          97
 IAtWgt=           1          16           1           1          16           1           1
 AtmWgt=   1.0078250  15.9949146   1.0078250   1.0078250  15.9949146   1.0078250   1.0078250
 NucSpn=           1           0           1           1           0           1           1
 AtZEff=   0.0000000   0.0000000   0.0000000   0.0000000   0.0000000   0.0000000   0.0000000
 NQMom=    0.0000000   0.0000000   0.0000000   0.0000000   0.0000000   0.0000000   0.0000000
 NMagM=    2.7928460   0.0000000   2.7928460   2.7928460   0.0000000   2.7928460   2.7928460
 AtZNuc=   1.0000000   8.0000000   1.0000000   1.0000000   8.0000000   1.0000000   1.0000000
 Leave Link  101 at Wed May  2 21:54:57 2018, MaxMem= 14763950080 cpu:        12.6
 (Enter /cm/shared/gaussian/g09.e01/intel64-sandybridge/g09/l103.exe)

 GradGradGradGradGradGradGradGradGradGradGradGradGradGradGradGradGradGrad
 Berny optimization.
 Initialization pass.
 Trust Radius=3.00D-01 FncErr=1.00D-07 GrdErr=1.00D-07
 Number of steps in this run=      2 maximum allowed number of steps=      2.
 GradGradGradGradGradGradGradGradGradGradGradGradGradGradGradGradGradGrad

 Leave Link  103 at Wed May  2 21:54:57 2018, MaxMem= 14763950080 cpu:         1.7
 (Enter /cm/shared/gaussian/g09.e01/intel64-sandybridge/g09/l202.exe)
 Symmetry turned off by external request.
 Stoichiometry    BrH64O32(1-)
 Framework group  C1[X(BrH64O32)]
 Deg. of freedom   285
 Full point group                 C1      NOp   1
                          Input orientation:                          
 ---------------------------------------------------------------------
 Center     Atomic      Atomic             Coordinates (Angstroms)
 Number     Number       Type             X           Y           Z
 ---------------------------------------------------------------------
      1         35           0       20.000000   20.000000   20.000000
      2          8           0       21.570000   22.160000   21.840000
      3          1           0       21.180000   21.460000   21.330000
      4          1           0       20.880000   22.440000   22.440000
      5          8           0       19.360000   21.400000   17.130000
      6          1           0       19.490000   21.030000   18.000000
      7          1           0       19.570000   22.330000   17.230000
      8          8           0       23.200000   19.430000   19.420000
      9          1           0       23.220000   19.300000   18.470000
     10          1           0       22.280000   19.640000   19.610000
     11          8           0       19.360000   16.890000   19.460000
     12          1           0       18.490000   16.520000   19.360000
     13          1           0       19.220000   17.750000   19.850000
     14          8           0       19.280000   19.650000   23.520000
     15          1           0       19.560000   20.560000   23.650000
     16          1           0       19.260000   19.540000   22.570000
     17          8           0       21.530000   19.090000   16.280000
     18          1           0       20.800000   18.920000   16.860000
     19          1           0       22.180000   18.420000   16.510000
     20          8           0       15.770000   21.490000   19.610000
     21          1           0       16.340000   22.250000   19.540000
     22          1           0       16.370000   20.750000   19.710000
     23          8           0       23.980000   21.900000   20.770000
     24          1           0       23.080000   21.940000   21.090000
     25          1           0       24.050000   21.040000   20.350000
     26          8           0       21.220000   15.790000   21.440000
     27          1           0       22.080000   16.130000   21.180000
     28          1           0       20.590000   16.380000   21.020000
     29          8           0       23.300000   20.060000   23.660000
     30          1           0       23.570000   19.160000   23.480000
     31          1           0       22.530000   20.190000   23.120000
     32          8           0       23.550000   17.270000   21.030000
     33          1           0       23.950000   17.530000   21.860000
     34          1           0       23.520000   18.080000   20.510000
     35          8           0       20.420000   16.430000   16.990000
     36          1           0       21.000000   15.680000   17.110000
     37          1           0       20.000000   16.550000   17.850000
     38          8           0       19.780000   24.100000   17.870000
     39          1           0       19.400000   24.980000   17.830000
     40          1           0       20.060000   24.000000   18.780000
     41          8           0       18.780000   16.480000   23.200000
     42          1           0       18.860000   16.010000   24.030000
     43          1           0       19.540000   17.070000   23.180000
     44          8           0       22.780000   21.580000   16.100000
     45          1           0       22.320000   22.340000   15.750000
     46          1           0       22.120000   20.890000   16.140000
     47          8           0       17.060000   23.960000   19.250000
     48          1           0       16.600000   24.590000   19.790000
     49          1           0       17.980000   24.030000   19.520000
     50          8           0       17.790000   20.210000   15.300000
     51          1           0       17.980000   19.270000   15.280000
     52          1           0       18.540000   20.600000   15.750000
     53          8           0       16.220000   17.980000   18.240000
     54          1           0       16.600000   18.380000   17.460000
     55          1           0       16.500000   17.060000   18.200000
     56          8           0       16.360000   19.480000   23.670000
     57          1           0       17.310000   19.620000   23.760000
     58          1           0       15.970000   20.220000   24.120000
     59          8           0       19.490000   24.600000   20.660000
     60          1           0       18.840000   24.610000   21.370000
     61          1           0       20.300000   24.900000   21.070000
     62          8           0       18.470000   17.650000   15.530000
     63          1           0       19.290000   17.430000   15.960000
     64          1           0       18.080000   16.810000   15.290000
     65          8           0       19.630000   22.620000   24.080000
     66          1           0       18.910000   23.210000   23.870000
     67          1           0       19.820000   22.790000   25.000000
     68          8           0       14.940000   17.970000   21.940000
     69          1           0       15.400000   18.460000   22.620000
     70          1           0       15.630000   17.680000   21.350000
     71          8           0       20.760000   20.190000   13.880000
     72          1           0       21.490000   19.710000   13.500000
     73          1           0       20.700000   19.870000   14.780000
     74          8           0       23.420000   17.150000   17.080000
     75          1           0       23.030000   16.290000   17.260000
     76          1           0       23.890000   17.020000   16.250000
     77          8           0       20.670000   18.550000   26.200000
     78          1           0       20.120000   18.660000   25.420000
     79          1           0       20.060000   18.590000   26.930000
     80          8           0       21.730000   15.950000   24.490000
     81          1           0       21.610000   15.010000   24.590000
     82          1           0       21.820000   16.090000   23.550000
     83          8           0       25.000000   21.910000   23.180000
     84          1           0       24.790000   21.800000   22.250000
     85          1           0       24.430000   21.290000   23.630000
     86          8           0       17.960000   23.760000   15.530000
     87          1           0       18.590000   23.960000   16.220000
     88          1           0       18.290000   24.240000   14.770000
     89          8           0       26.470000   19.610000   18.640000
     90          1           0       26.870000   19.080000   19.320000
     91          1           0       25.530000   19.510000   18.780000
     92          8           0       17.010000   15.240000   19.130000
     93          1           0       17.580000   14.500000   18.910000
     94          1           0       16.550000   14.960000   19.920000
     95          8           0       18.970000   14.090000   21.630000
     96          1           0       19.830000   14.430000   21.390000
     97          1           0       18.550000   14.810000   22.100000
 ---------------------------------------------------------------------
 Rotational constants (GHZ):      0.0588477      0.0503462      0.0481283
 Leave Link  202 at Wed May  2 21:54:57 2018, MaxMem= 14763950080 cpu:         0.5
 (Enter /cm/shared/gaussian/g09.e01/intel64-sandybridge/g09/l122.exe)
 Counterpoise: doing full dimer calculation.
 Leave Link  122 at Wed May  2 21:54:57 2018, MaxMem= 14763950080 cpu:         0.1
 (Enter /cm/shared/gaussian/g09.e01/intel64-sandybridge/g09/l301.exe)
 Standard basis: CC-pVDZ (5D, 7F)
 Ernie: Thresh=  0.10000D-02 Tol=  0.10000D-05 Strict=F.
 Ernie:  87 primitive shells out of 1114 were deleted.
   795 basis functions,  1651 primitive gaussians,   829 cartesian basis functions
   178 alpha electrons      178 beta electrons
       nuclear repulsion energy      5974.6556235124 Hartrees.
 IExCor= 1009 DFT=T Ex+Corr=PBE1PBE ExCW=0 ScaHFX=  0.250000
 ScaDFX=  0.750000  0.750000  1.000000  1.000000 ScalE2=  1.000000  1.000000
 IRadAn=      0 IRanWt=     -1 IRanGd=            0 ICorTp=0 IEmpDi=  4
 NAtoms=   97 NActive=   97 NUniq=   97 SFac= 1.00D+00 NAtFMM=   60 NAOKFM=T Big=T
 Integral buffers will be    131072 words long.
 Raffenetti 2 integral format.
 Two-electron integral symmetry is turned off.
 Leave Link  301 at Wed May  2 21:54:57 2018, MaxMem= 14763950080 cpu:         4.3
 (Enter /cm/shared/gaussian/g09.e01/intel64-sandybridge/g09/l302.exe)
 NPDir=0 NMtPBC=     1 NCelOv=     1 NCel=       1 NClECP=     1 NCelD=      1
         NCelK=      1 NCelE2=     1 NClLst=     1 CellRange=     0.0.
 One-electron integrals computed using PRISM.
 NBasis=   795 RedAO= T EigKep=  1.71D-02  NBF=   795
 NBsUse=   795 1.00D-06 EigRej= -1.00D+00 NBFU=   795
 Precomputing XC quadrature grid using
 IXCGrd= 4 IRadAn=           0 IRanWt=          -1 IRanGd=           0 AccXCQ= 0.00D+00.
 Generated NRdTot=       0 NPtTot=           0 NUsed=           0 NTot=          32
 NSgBfM=   708   709   709   709   709 MxSgAt=    97 MxSgA2=    97.
 Leave Link  302 at Wed May  2 21:55:04 2018, MaxMem= 14763950080 cpu:       406.4
 (Enter /cm/shared/gaussian/g09.e01/intel64-sandybridge/g09/l303.exe)
 DipDrv:  MaxL=1.
 Leave Link  303 at Wed May  2 21:55:04 2018, MaxMem= 14763950080 cpu:        28.7
 (Enter /cm/shared/gaussian/g09.e01/intel64-sandybridge/g09/l401.exe)
 ExpMin= 1.22D-01 ExpMax= 6.40D+05 ExpMxC= 6.18D+03 IAcc=2 IRadAn=         4 AccDes= 0.00D+00
 Harris functional with IExCor= 1009 and IRadAn=       4 diagonalized for initial guess.
 HarFok:  IExCor= 1009 AccDes= 0.00D+00 IRadAn=         4 IDoV= 1 UseB2=F ITyADJ=14
 ICtDFT=  3500011 ScaDFX=  1.000000  1.000000  1.000000  1.000000
 FoFCou: FMM=F IPFlag=           0 FMFlag=      100000 FMFlg1=        2001
         NFxFlg=           0 DoJE=T BraDBF=F KetDBF=T FulRan=T
         wScrn=  0.000000 ICntrl=     500 IOpCl=  0 I1Cent=   200000004 NGrid=           0
         NMat0=    1 NMatS0=      1 NMatT0=    0 NMatD0=    1 NMtDS0=    0 NMtDT0=    0
 Symmetry not used in FoFCou.
 Harris En= -5018.45821240979    
 JPrj=0 DoOrth=F DoCkMO=F.
 Leave Link  401 at Wed May  2 21:55:09 2018, MaxMem= 14763950080 cpu:       305.1
 (Enter /cm/shared/gaussian/g09.e01/intel64-sandybridge/g09/l502.exe)
 Closed shell SCF:
 Using DIIS extrapolation, IDIIS=  1040.
 Two-electron integral symmetry not used.
 IVT=     2138497 IEndB=     2138497 NGot= 14763950080 MDV= 14762516294
 LenX= 14762516294 LenY= 14761828224
 Requested convergence on RMS density matrix=1.00D-08 within 128 cycles.
 Requested convergence on MAX density matrix=1.00D-06.
 Requested convergence on             energy=1.00D-06.
 No special actions if energy rises.
 Fock matrices will be formed incrementally for  20 cycles.
 Integral accuracy reduced to 1.0D-05 until final iterations.

 Cycle   1  Pass 0  IDiag  1:
 FoFJK:  IHMeth= 1 ICntrl=       0 DoSepK=F KAlg= 0 I1Cent=   0 FoldK=F
 IRaf= 780000000 NMat=   1 IRICut=       1 DoRegI=T DoRafI=F ISym2E= 0.
 FoFCou: FMM=T IPFlag=           0 FMFlag=      100000 FMFlg1=        2001
         NFxFlg=           0 DoJE=F BraDBF=F KetDBF=F FulRan=T
         wScrn=  0.000000 ICntrl=       0 IOpCl=  0 I1Cent=           0 NGrid=           0
         NMat0=    1 NMatS0=      1 NMatT0=    0 NMatD0=    1 NMtDS0=    0 NMtDT0=    0
 Symmetry not used in FoFCou.
 FMM levels:  10  Number of levels for PrismC:   9
 E= -5015.22167541606    
 DIIS: error= 4.25D-02 at cycle   1 NSaved=   1.
 NSaved= 1 IEnMin= 1 EnMin= -5015.22167541606     IErMin= 1 ErrMin= 4.25D-02
 ErrMax= 4.25D-02  0.00D+00 EMaxC= 1.00D-01 BMatC= 2.75D+00 BMatP= 2.75D+00
 IDIUse=3 WtCom= 5.75D-01 WtEn= 4.25D-01
 Coeff-Com:  0.100D+01
 Coeff-En:   0.100D+01
 Coeff:      0.100D+01
 Gap=     0.290 Goal=   None    Shift=    0.000
 GapD=    0.290 DampG=1.000 DampE=0.500 DampFc=0.5000 IDamp=-1.
 Damping current iteration by 5.00D-01
 RMSDP=3.92D-03 MaxDP=5.69D-01              OVMax= 9.87D-01

 Cycle   2  Pass 0  IDiag  1:
 RMSU=  1.95D-03    CP:  9.84D-01
 E= -5015.57860262007     Delta-E=       -0.356927204006 Rises=F Damp=T
 DIIS: error= 1.11D-02 at cycle   2 NSaved=   2.
 NSaved= 2 IEnMin= 2 EnMin= -5015.57860262007     IErMin= 2 ErrMin= 1.11D-02
 ErrMax= 1.11D-02  0.00D+00 EMaxC= 1.00D-01 BMatC= 1.93D-01 BMatP= 2.75D+00
 IDIUse=3 WtCom= 8.89D-01 WtEn= 1.11D-01
 Coeff-Com:  0.158D+00 0.842D+00
 Coeff-En:   0.405D+00 0.595D+00
 Coeff:      0.186D+00 0.814D+00
 Gap=    -0.595 Goal=   None    Shift=    0.000
 RMSDP=1.47D-03 MaxDP=2.71D-01 DE=-3.57D-01 OVMax= 9.72D-01

 Cycle   3  Pass 0  IDiag  1:
 RMSU=  1.01D-03    CP:  9.86D-01  4.57D-01
 E= -5016.93592441281     Delta-E=       -1.357321792741 Rises=F Damp=F
 DIIS: error= 3.09D-02 at cycle   3 NSaved=   3.
 NSaved= 3 IEnMin= 3 EnMin= -5016.93592441281     IErMin= 2 ErrMin= 1.11D-02
 ErrMax= 3.09D-02  0.00D+00 EMaxC= 1.00D-01 BMatC= 3.26D-01 BMatP= 1.93D-01
 IDIUse=2 WtCom= 0.00D+00 WtEn= 1.00D+00
 Coeff-En:   0.000D+00 0.000D+00 0.100D+01
 Coeff:      0.000D+00 0.000D+00 0.100D+01
 Gap=     0.303 Goal=   None    Shift=    0.000
 RMSDP=3.58D-03 MaxDP=5.96D-01 DE=-1.36D+00 OVMax= 9.99D-01

 Cycle   4  Pass 0  IDiag  1:
 RMSU=  2.59D-03    CP:  9.83D-01  1.27D+00 -8.64D-01
 E= -5010.26082579418     Delta-E=        6.675098618625 Rises=F Damp=F
 DIIS: error= 5.30D-02 at cycle   4 NSaved=   4.
 NSaved= 4 IEnMin= 3 EnMin= -5016.93592441281     IErMin= 2 ErrMin= 1.11D-02
 ErrMax= 5.30D-02  0.00D+00 EMaxC= 1.00D-01 BMatC= 2.15D+00 BMatP= 1.93D-01
 IDIUse=2 WtCom= 0.00D+00 WtEn= 1.00D+00
 Coeff-En:   0.000D+00 0.000D+00 0.939D+00 0.613D-01
 Coeff:      0.000D+00 0.000D+00 0.939D+00 0.613D-01
 Gap=    -0.011 Goal=   None    Shift=    0.000
 RMSDP=3.50D-03 MaxDP=5.97D-01 DE= 6.68D+00 OVMax= 9.98D-01

 Cycle   5  Pass 0  IDiag  1:
 RMSU=  8.00D-04    CP:  9.88D-01  4.32D-01  5.38D-01 -1.35D-02
 E= -5017.02272896486     Delta-E=       -6.761903170673 Rises=F Damp=F
 DIIS: error= 2.64D-02 at cycle   5 NSaved=   5.
 NSaved= 5 IEnMin= 5 EnMin= -5017.02272896486     IErMin= 2 ErrMin= 1.11D-02
 ErrMax= 2.64D-02  0.00D+00 EMaxC= 1.00D-01 BMatC= 2.42D-01 BMatP= 1.93D-01
 IDIUse=2 WtCom= 0.00D+00 WtEn= 1.00D+00
 Coeff-En:   0.000D+00 0.000D+00 0.406D+00 0.000D+00 0.594D+00
 Coeff:      0.000D+00 0.000D+00 0.406D+00 0.000D+00 0.594D+00
 Gap=     0.145 Goal=   None    Shift=    0.000
 RMSDP=4.95D-04 MaxDP=1.11D-01 DE=-6.76D+00 OVMax= 1.40D-01

 Cycle   6  Pass 0  IDiag  1:
 RMSU=  2.23D-04    CP:  9.87D-01  4.62D-01  7.53D-01 -9.75D-03  5.25D-01
 E= -5017.19065602679     Delta-E=       -0.167927061935 Rises=F Damp=F
 DIIS: error= 4.91D-03 at cycle   6 NSaved=   6.
 NSaved= 6 IEnMin= 6 EnMin= -5017.19065602679     IErMin= 6 ErrMin= 4.91D-03
 ErrMax= 4.91D-03  0.00D+00 EMaxC= 1.00D-01 BMatC= 1.03D-02 BMatP= 1.93D-01
 IDIUse=3 WtCom= 9.51D-01 WtEn= 4.91D-02
 Coeff-Com:  0.575D-02-0.212D-02 0.863D-01 0.636D-03 0.223D+00 0.687D+00
 Coeff-En:   0.000D+00 0.000D+00 0.000D+00 0.000D+00 0.000D+00 0.100D+01
 Coeff:      0.546D-02-0.201D-02 0.821D-01 0.605D-03 0.212D+00 0.702D+00
 Gap=     0.151 Goal=   None    Shift=    0.000
 RMSDP=9.41D-05 MaxDP=1.70D-02 DE=-1.68D-01 OVMax= 1.66D-02

 Cycle   7  Pass 0  IDiag  1:
 RMSU=  5.38D-05    CP:  9.87D-01  4.51D-01  7.16D-01 -9.25D-03  5.82D-01
                    CP:  8.00D-01
 E= -5017.19777887832     Delta-E=       -0.007122851530 Rises=F Damp=F
 DIIS: error= 8.71D-04 at cycle   7 NSaved=   7.
 NSaved= 7 IEnMin= 7 EnMin= -5017.19777887832     IErMin= 7 ErrMin= 8.71D-04
 ErrMax= 8.71D-04  0.00D+00 EMaxC= 1.00D-01 BMatC= 4.73D-04 BMatP= 1.03D-02
 IDIUse=3 WtCom= 9.91D-01 WtEn= 8.71D-03
 Coeff-Com:  0.220D-02-0.629D-02 0.127D-02 0.458D-03 0.552D-01 0.327D+00
 Coeff-Com:  0.620D+00
 Coeff-En:   0.000D+00 0.000D+00 0.000D+00 0.000D+00 0.000D+00 0.000D+00
 Coeff-En:   0.100D+01
 Coeff:      0.219D-02-0.623D-02 0.126D-02 0.454D-03 0.548D-01 0.325D+00
 Coeff:      0.623D+00
 Gap=     0.152 Goal=   None    Shift=    0.000
 RMSDP=2.23D-05 MaxDP=4.15D-03 DE=-7.12D-03 OVMax= 3.79D-03

 Cycle   8  Pass 0  IDiag  1:
 RMSU=  1.47D-05    CP:  9.87D-01  4.52D-01  7.16D-01 -9.42D-03  5.81D-01
                    CP:  8.51D-01  7.73D-01
 E= -5017.19810543557     Delta-E=       -0.000326557245 Rises=F Damp=F
 DIIS: error= 2.37D-04 at cycle   8 NSaved=   8.
 NSaved= 8 IEnMin= 8 EnMin= -5017.19810543557     IErMin= 8 ErrMin= 2.37D-04
 ErrMax= 2.37D-04  0.00D+00 EMaxC= 1.00D-01 BMatC= 3.98D-05 BMatP= 4.73D-04
 IDIUse=3 WtCom= 9.98D-01 WtEn= 2.37D-03
 Coeff-Com:  0.675D-03-0.155D-02-0.344D-02 0.354D-03 0.533D-02 0.781D-01
 Coeff-Com:  0.283D+00 0.638D+00
 Coeff-En:   0.000D+00 0.000D+00 0.000D+00 0.000D+00 0.000D+00 0.000D+00
 Coeff-En:   0.000D+00 0.100D+01
 Coeff:      0.673D-03-0.154D-02-0.343D-02 0.353D-03 0.532D-02 0.780D-01
 Coeff:      0.282D+00 0.639D+00
 Gap=     0.153 Goal=   None    Shift=    0.000
 RMSDP=5.85D-06 MaxDP=9.38D-04 DE=-3.27D-04 OVMax= 9.51D-04

 Initial convergence to 1.0D-05 achieved.  Increase integral accuracy.
 Cycle   9  Pass 1  IDiag  1:
 E= -5017.19857220801     Delta-E=       -0.000466772446 Rises=F Damp=F
 DIIS: error= 3.68D-05 at cycle   1 NSaved=   1.
 NSaved= 1 IEnMin= 1 EnMin= -5017.19857220801     IErMin= 1 ErrMin= 3.68D-05
 ErrMax= 3.68D-05  0.00D+00 EMaxC= 1.00D-01 BMatC= 2.04D-06 BMatP= 2.04D-06
 IDIUse=1 WtCom= 1.00D+00 WtEn= 0.00D+00
 Coeff-Com:  0.100D+01
 Coeff:      0.100D+01
 Gap=     0.153 Goal=   None    Shift=    0.000
 RMSDP=5.85D-06 MaxDP=9.38D-04 DE=-4.67D-04 OVMax= 3.01D-04

 Cycle  10  Pass 1  IDiag  1:
 RMSU=  4.30D-06    CP:  1.00D+00
 E= -5017.19857345985     Delta-E=       -0.000001251836 Rises=F Damp=F
 DIIS: error= 3.40D-05 at cycle   2 NSaved=   2.
 NSaved= 2 IEnMin= 2 EnMin= -5017.19857345985     IErMin= 2 ErrMin= 3.40D-05
 ErrMax= 3.40D-05  0.00D+00 EMaxC= 1.00D-01 BMatC= 1.10D-06 BMatP= 2.04D-06
 IDIUse=1 WtCom= 1.00D+00 WtEn= 0.00D+00
 Coeff-Com:  0.406D+00 0.594D+00
 Coeff:      0.406D+00 0.594D+00
 Gap=     0.153 Goal=   None    Shift=    0.000
 RMSDP=1.19D-06 MaxDP=1.55D-04 DE=-1.25D-06 OVMax= 1.65D-04

 Cycle  11  Pass 1  IDiag  1:
 RMSU=  1.14D-06    CP:  1.00D+00  9.23D-01
 E= -5017.19857421518     Delta-E=       -0.000000755330 Rises=F Damp=F
 DIIS: error= 1.19D-05 at cycle   3 NSaved=   3.
 NSaved= 3 IEnMin= 3 EnMin= -5017.19857421518     IErMin= 3 ErrMin= 1.19D-05
 ErrMax= 1.19D-05  0.00D+00 EMaxC= 1.00D-01 BMatC= 1.38D-07 BMatP= 1.10D-06
 IDIUse=1 WtCom= 1.00D+00 WtEn= 0.00D+00
 Coeff-Com:  0.250D-01 0.264D+00 0.711D+00
 Coeff:      0.250D-01 0.264D+00 0.711D+00
 Gap=     0.153 Goal=   None    Shift=    0.000
 RMSDP=3.31D-07 MaxDP=4.77D-05 DE=-7.55D-07 OVMax= 3.75D-05

 Cycle  12  Pass 1  IDiag  1:
 RMSU=  2.25D-07    CP:  1.00D+00  9.53D-01  8.20D-01
 E= -5017.19857430746     Delta-E=       -0.000000092286 Rises=F Damp=F
 DIIS: error= 3.79D-06 at cycle   4 NSaved=   4.
 NSaved= 4 IEnMin= 4 EnMin= -5017.19857430746     IErMin= 4 ErrMin= 3.79D-06
 ErrMax= 3.79D-06  0.00D+00 EMaxC= 1.00D-01 BMatC= 6.39D-09 BMatP= 1.38D-07
 IDIUse=1 WtCom= 1.00D+00 WtEn= 0.00D+00
 Coeff-Com: -0.459D-02 0.976D-01 0.323D+00 0.584D+00
 Coeff:     -0.459D-02 0.976D-01 0.323D+00 0.584D+00
 Gap=     0.153 Goal=   None    Shift=    0.000
 RMSDP=9.89D-08 MaxDP=9.61D-06 DE=-9.23D-08 OVMax= 1.69D-05

 Cycle  13  Pass 1  IDiag  1:
 RMSU=  4.22D-08    CP:  1.00D+00  9.56D-01  8.11D-01  6.08D-01
 E= -5017.19857431366     Delta-E=       -0.000000006195 Rises=F Damp=F
 DIIS: error= 4.56D-07 at cycle   5 NSaved=   5.
 NSaved= 5 IEnMin= 5 EnMin= -5017.19857431366     IErMin= 5 ErrMin= 4.56D-07
 ErrMax= 4.56D-07  0.00D+00 EMaxC= 1.00D-01 BMatC= 1.58D-10 BMatP= 6.39D-09
 IDIUse=1 WtCom= 1.00D+00 WtEn= 0.00D+00
 Coeff-Com: -0.247D-02 0.356D-01 0.121D+00 0.251D+00 0.595D+00
 Coeff:     -0.247D-02 0.356D-01 0.121D+00 0.251D+00 0.595D+00
 Gap=     0.153 Goal=   None    Shift=    0.000
 RMSDP=1.38D-08 MaxDP=2.29D-06 DE=-6.20D-09 OVMax= 2.85D-06

 Cycle  14  Pass 1  IDiag  1:
 RMSU=  1.29D-08    CP:  1.00D+00  9.56D-01  8.12D-01  6.26D-01  9.51D-01
 E= -5017.19857431390     Delta-E=       -0.000000000240 Rises=F Damp=F
 DIIS: error= 1.37D-07 at cycle   6 NSaved=   6.
 NSaved= 6 IEnMin= 6 EnMin= -5017.19857431390     IErMin= 6 ErrMin= 1.37D-07
 ErrMax= 1.37D-07  0.00D+00 EMaxC= 1.00D-01 BMatC= 1.80D-11 BMatP= 1.58D-10
 IDIUse=1 WtCom= 1.00D+00 WtEn= 0.00D+00
 Coeff-Com: -0.391D-03 0.135D-02 0.524D-02 0.255D-01 0.263D+00 0.706D+00
 Coeff:     -0.391D-03 0.135D-02 0.524D-02 0.255D-01 0.263D+00 0.706D+00
 Gap=     0.153 Goal=   None    Shift=    0.000
 RMSDP=4.73D-09 MaxDP=6.59D-07 DE=-2.40D-10 OVMax= 7.01D-07

 SCF Done:  E(RPBE1PBE) =  -5017.19857431     A.U. after   14 cycles
            NFock= 14  Conv=0.47D-08     -V/T= 2.0028
 KE= 5.003425925841D+03 PE=-2.391824848542D+04 EE= 7.922968361750D+03
 Leave Link  502 at Wed May  2 21:57:23 2018, MaxMem= 14763950080 cpu:      8428.0
 (Enter /cm/shared/gaussian/g09.e01/intel64-sandybridge/g09/l601.exe)
 Copying SCF densities to generalized density rwf, IOpCl= 0 IROHF=0.

 **********************************************************************

            Population analysis using the SCF density.

 **********************************************************************

 Alpha  occ. eigenvalues -- -483.14008 -62.54280 -56.31523 -56.31520 -56.31505
 Alpha  occ. eigenvalues --  -19.21791 -19.20523 -19.19058 -19.17254 -19.16068
 Alpha  occ. eigenvalues --  -19.15702 -19.15536 -19.15238 -19.14328 -19.14314
 Alpha  occ. eigenvalues --  -19.14233 -19.14130 -19.13824 -19.13462 -19.13247
 Alpha  occ. eigenvalues --  -19.12935 -19.12534 -19.11964 -19.11751 -19.11519
 Alpha  occ. eigenvalues --  -19.11386 -19.09016 -19.08389 -19.08385 -19.07981
 Alpha  occ. eigenvalues --  -19.07109 -19.06415 -19.06333 -19.05477 -19.04536
 Alpha  occ. eigenvalues --  -19.01206 -18.99893  -8.64561  -6.44901  -6.44882
 Alpha  occ. eigenvalues --   -6.44821  -2.53184  -2.53180  -2.53134  -2.53116
 Alpha  occ. eigenvalues --   -2.53102  -1.04165  -1.02866  -1.01202  -0.99513
 Alpha  occ. eigenvalues --   -0.98367  -0.98312  -0.98235  -0.98220  -0.97150
 Alpha  occ. eigenvalues --   -0.96921  -0.96842  -0.96671  -0.96562  -0.96078
 Alpha  occ. eigenvalues --   -0.95984  -0.95723  -0.94947  -0.94607  -0.94484
 Alpha  occ. eigenvalues --   -0.94277  -0.94028  -0.91634  -0.91576  -0.91084
 Alpha  occ. eigenvalues --   -0.90316  -0.90017  -0.89285  -0.89011  -0.88509
 Alpha  occ. eigenvalues --   -0.87455  -0.84697  -0.82900  -0.63785  -0.54435
 Alpha  occ. eigenvalues --   -0.53505  -0.51414  -0.49886  -0.49204  -0.49168
 Alpha  occ. eigenvalues --   -0.48968  -0.48524  -0.48091  -0.47703  -0.47517
 Alpha  occ. eigenvalues --   -0.47439  -0.47157  -0.46853  -0.46473  -0.46463
 Alpha  occ. eigenvalues --   -0.46084  -0.45361  -0.45152  -0.44792  -0.44692
 Alpha  occ. eigenvalues --   -0.42739  -0.42627  -0.42605  -0.41506  -0.41332
 Alpha  occ. eigenvalues --   -0.40656  -0.40607  -0.40569  -0.39893  -0.39740
 Alpha  occ. eigenvalues --   -0.38913  -0.38849  -0.37911  -0.37691  -0.36674
 Alpha  occ. eigenvalues --   -0.36191  -0.35319  -0.35149  -0.34326  -0.33986
 Alpha  occ. eigenvalues --   -0.33293  -0.33157  -0.32852  -0.32694  -0.32496
 Alpha  occ. eigenvalues --   -0.32326  -0.32001  -0.31787  -0.31498  -0.30928
 Alpha  occ. eigenvalues --   -0.30293  -0.30135  -0.29951  -0.29583  -0.29093
 Alpha  occ. eigenvalues --   -0.28072  -0.27820  -0.27589  -0.27025  -0.26974
 Alpha  occ. eigenvalues --   -0.26640  -0.26543  -0.26487  -0.26378  -0.25908
 Alpha  occ. eigenvalues --   -0.25882  -0.25549  -0.25498  -0.25319  -0.24888
 Alpha  occ. eigenvalues --   -0.24769  -0.24598  -0.24489  -0.24463  -0.23506
 Alpha  occ. eigenvalues --   -0.23103  -0.23086  -0.22844  -0.22819  -0.22704
 Alpha  occ. eigenvalues --   -0.22228  -0.21950  -0.21104  -0.20449  -0.19265
 Alpha  occ. eigenvalues --   -0.19013  -0.18921  -0.18668  -0.18622  -0.18150
 Alpha  occ. eigenvalues --   -0.18079  -0.17756  -0.17698  -0.16933  -0.16787
 Alpha  occ. eigenvalues --   -0.15734  -0.13650  -0.11479
 Alpha virt. eigenvalues --    0.03838   0.06641   0.08203   0.09094   0.09969
 Alpha virt. eigenvalues --    0.11849   0.12624   0.13113   0.13928   0.14076
 Alpha virt. eigenvalues --    0.14585   0.15170   0.15287   0.15760   0.16139
 Alpha virt. eigenvalues --    0.17573   0.17648   0.18236   0.18696   0.19353
 Alpha virt. eigenvalues --    0.19985   0.20037   0.20350   0.20646   0.21297
 Alpha virt. eigenvalues --    0.21743   0.22374   0.23158   0.23308   0.23738
 Alpha virt. eigenvalues --    0.24258   0.24409   0.25070   0.25373   0.25833
 Alpha virt. eigenvalues --    0.26468   0.26854   0.28115   0.28232   0.28688
 Alpha virt. eigenvalues --    0.29009   0.29206   0.29511   0.30062   0.30754
 Alpha virt. eigenvalues --    0.31388   0.31598   0.31846   0.32973   0.33353
 Alpha virt. eigenvalues --    0.33626   0.33855   0.34374   0.35171   0.35716
 Alpha virt. eigenvalues --    0.36177   0.37070   0.37232   0.37459   0.38054
 Alpha virt. eigenvalues --    0.39241   0.41380   0.42484   0.46025   0.56399
 Alpha virt. eigenvalues --    0.57278   0.59339   0.59732   0.60265   0.60838
 Alpha virt. eigenvalues --    0.61439   0.61900   0.62891   0.63014   0.63354
 Alpha virt. eigenvalues --    0.63507   0.63856   0.64332   0.64941   0.65067
 Alpha virt. eigenvalues --    0.65184   0.65393   0.65573   0.65981   0.66680
 Alpha virt. eigenvalues --    0.66856   0.67161   0.67314   0.67563   0.68002
 Alpha virt. eigenvalues --    0.68251   0.68501   0.68591   0.68951   0.69040
 Alpha virt. eigenvalues --    0.69175   0.69460   0.69740   0.70045   0.70485
 Alpha virt. eigenvalues --    0.70709   0.70940   0.71480   0.71666   0.71801
 Alpha virt. eigenvalues --    0.72124   0.72409   0.72790   0.73109   0.73421
 Alpha virt. eigenvalues --    0.74003   0.74388   0.75011   0.75149   0.75672
 Alpha virt. eigenvalues --    0.76013   0.76028   0.76254   0.77032   0.77409
 Alpha virt. eigenvalues --    0.78410   0.78457   0.78849   0.79698   0.79925
 Alpha virt. eigenvalues --    0.80095   0.80931   0.81238   0.82681   0.82720
 Alpha virt. eigenvalues --    0.84901   0.85432   0.86087   0.86904   0.87536
 Alpha virt. eigenvalues --    0.91232   0.92644   0.92855   0.93450   0.94511
 Alpha virt. eigenvalues --    0.95357   0.95659   0.96447   0.96696   0.97652
 Alpha virt. eigenvalues --    0.97795   0.98188   0.98782   0.99014   0.99557
 Alpha virt. eigenvalues --    0.99975   0.99999   1.00399   1.00610   1.01033
 Alpha virt. eigenvalues --    1.01242   1.01435   1.02339   1.02567   1.02741
 Alpha virt. eigenvalues --    1.03075   1.03172   1.03223   1.03941   1.04350
 Alpha virt. eigenvalues --    1.04764   1.04940   1.05063   1.05287   1.05495
 Alpha virt. eigenvalues --    1.05706   1.06189   1.06490   1.06721   1.07291
 Alpha virt. eigenvalues --    1.07478   1.07876   1.08164   1.08499   1.08660
 Alpha virt. eigenvalues --    1.08756   1.09058   1.09333   1.09688   1.09795
 Alpha virt. eigenvalues --    1.10216   1.10459   1.10854   1.11282   1.11560
 Alpha virt. eigenvalues --    1.11706   1.11934   1.12198   1.12583   1.12817
 Alpha virt. eigenvalues --    1.13079   1.13321   1.13641   1.14498   1.14969
 Alpha virt. eigenvalues --    1.15041   1.15427   1.15863   1.16030   1.16447
 Alpha virt. eigenvalues --    1.16862   1.17263   1.17665   1.17856   1.18028
 Alpha virt. eigenvalues --    1.18404   1.18765   1.19064   1.19376   1.19842
 Alpha virt. eigenvalues --    1.20383   1.20584   1.20804   1.21581   1.21642
 Alpha virt. eigenvalues --    1.22095   1.22879   1.23277   1.23531   1.24040
 Alpha virt. eigenvalues --    1.24483   1.24700   1.25019   1.25383   1.25628
 Alpha virt. eigenvalues --    1.26236   1.26526   1.27008   1.27613   1.28050
 Alpha virt. eigenvalues --    1.28462   1.28621   1.29046   1.29299   1.29575
 Alpha virt. eigenvalues --    1.29774   1.30169   1.30812   1.31110   1.31585
 Alpha virt. eigenvalues --    1.31788   1.32021   1.32265   1.32524   1.32895
 Alpha virt. eigenvalues --    1.32948   1.33270   1.33592   1.34069   1.34260
 Alpha virt. eigenvalues --    1.34375   1.34891   1.35189   1.35648   1.35786
 Alpha virt. eigenvalues --    1.35940   1.36266   1.36570   1.36904   1.37399
 Alpha virt. eigenvalues --    1.37548   1.37934   1.38244   1.38283   1.38567
 Alpha virt. eigenvalues --    1.38914   1.39313   1.39577   1.40328   1.40636
 Alpha virt. eigenvalues --    1.40725   1.41185   1.41330   1.41753   1.42178
 Alpha virt. eigenvalues --    1.42477   1.42900   1.43603   1.43759   1.44048
 Alpha virt. eigenvalues --    1.44711   1.44999   1.45214   1.45698   1.46816
 Alpha virt. eigenvalues --    1.47892   1.48082   1.48302   1.48826   1.49571
 Alpha virt. eigenvalues --    1.50013   1.50658   1.51004   1.51207   1.51788
 Alpha virt. eigenvalues --    1.52327   1.52531   1.52842   1.53075   1.53462
 Alpha virt. eigenvalues --    1.53778   1.53907   1.54742   1.54936   1.55995
 Alpha virt. eigenvalues --    1.56916   1.57619   1.57939   1.58249   1.58913
 Alpha virt. eigenvalues --    1.59228   1.60065   1.60134   1.60289   1.61483
 Alpha virt. eigenvalues --    1.61803   1.62115   1.62699   1.63303   1.63528
 Alpha virt. eigenvalues --    1.64018   1.64851   1.65488   1.66590   1.66989
 Alpha virt. eigenvalues --    1.67284   1.67983   1.68674   1.68877   1.69926
 Alpha virt. eigenvalues --    1.70295   1.71251   1.71675   1.72366   1.72499
 Alpha virt. eigenvalues --    1.73887   1.74595   1.74917   1.75291   1.75749
 Alpha virt. eigenvalues --    1.75887   1.77035   1.77484   1.77794   1.78353
 Alpha virt. eigenvalues --    1.78508   1.78803   1.79179   1.79271   1.79856
 Alpha virt. eigenvalues --    1.80402   1.80664   1.81555   1.81812   1.82118
 Alpha virt. eigenvalues --    1.82467   1.82996   1.83309   1.83578   1.83734
 Alpha virt. eigenvalues --    1.84659   1.84771   1.85322   1.86408   1.87144
 Alpha virt. eigenvalues --    1.87393   1.87906   1.89016   1.89533   1.90100
 Alpha virt. eigenvalues --    1.90531   1.90749   1.91307   1.92013   1.92507
 Alpha virt. eigenvalues --    1.93502   1.93951   1.94253   1.94839   1.95188
 Alpha virt. eigenvalues --    1.98001   1.98175   1.99313   2.01706   2.03897
 Alpha virt. eigenvalues --    2.04864   2.07210   2.08676   2.14533   2.15695
 Alpha virt. eigenvalues --    2.16097   2.17852   2.18254   2.18901   2.19040
 Alpha virt. eigenvalues --    2.19585   2.20630   2.21600   2.21861   2.22383
 Alpha virt. eigenvalues --    2.23165   2.23282   2.23654   2.23870   2.24445
 Alpha virt. eigenvalues --    2.24646   2.24817   2.25014   2.25718   2.26159
 Alpha virt. eigenvalues --    2.26259   2.27015   2.27564   2.28147   2.28352
 Alpha virt. eigenvalues --    2.28423   2.28603   2.28730   2.29176   2.29323
 Alpha virt. eigenvalues --    2.30197   2.30458   2.30779   2.31880   2.32533
 Alpha virt. eigenvalues --    2.33245   2.34219   2.34426   2.35278   2.36455
 Alpha virt. eigenvalues --    2.37567   2.38154   2.38397   2.39599   2.42157
 Alpha virt. eigenvalues --    2.43551   2.44688   2.45319   2.46436   2.50468
 Alpha virt. eigenvalues --    2.51712   2.53640   2.54948   2.55517   2.55899
 Alpha virt. eigenvalues --    2.57624   2.58243   2.60797   2.61413   2.67278
 Alpha virt. eigenvalues --    2.70347   2.75731   2.91598   2.92472   2.93712
 Alpha virt. eigenvalues --    2.95812   2.96591   2.97174   2.97834   2.97897
 Alpha virt. eigenvalues --    2.98247   2.98302   2.98599   2.99342   2.99546
 Alpha virt. eigenvalues --    2.99771   3.00036   3.00372   3.00801   3.00829
 Alpha virt. eigenvalues --    3.00982   3.01089   3.01609   3.01960   3.02010
 Alpha virt. eigenvalues --    3.02085   3.02387   3.02734   3.02894   3.03265
 Alpha virt. eigenvalues --    3.03568   3.03805   3.04116   3.04131   3.04727
 Alpha virt. eigenvalues --    3.04855   3.05100   3.05272   3.05316   3.05715
 Alpha virt. eigenvalues --    3.06252   3.06472   3.06740   3.06817   3.06841
 Alpha virt. eigenvalues --    3.06968   3.07335   3.07376   3.07536   3.08110
 Alpha virt. eigenvalues --    3.08574   3.08690   3.09009   3.09338   3.09377
 Alpha virt. eigenvalues --    3.10203   3.10387   3.11441   3.11511   3.13065
 Alpha virt. eigenvalues --    3.13348   3.13525   3.14465   3.14924   3.15851
 Alpha virt. eigenvalues --    3.16480   3.17804   3.19715   3.20637   3.20950
 Alpha virt. eigenvalues --    3.21066   3.21237   3.21714   3.21828   3.21939
 Alpha virt. eigenvalues --    3.22510   3.22852   3.22915   3.23341   3.23515
 Alpha virt. eigenvalues --    3.23541   3.23873   3.24121   3.24204   3.25229
 Alpha virt. eigenvalues --    3.25569   3.27009   3.27351   3.28403   3.29349
 Alpha virt. eigenvalues --    3.29607   3.30014   3.30738   3.31008   3.31219
 Alpha virt. eigenvalues --    3.31917   3.36404   3.37404   3.51083   3.52917
 Alpha virt. eigenvalues --    3.53662   3.55496   3.55593   3.57218   3.57329
 Alpha virt. eigenvalues --    3.57731   3.58580   3.58806   3.59347   3.59383
 Alpha virt. eigenvalues --    3.60294   3.60410   3.61038   3.62256   3.62925
 Alpha virt. eigenvalues --    3.62996   3.63011   3.63525   3.64694   3.64847
 Alpha virt. eigenvalues --    3.65198   3.65455   3.66686   3.67084   3.67602
 Alpha virt. eigenvalues --    3.68372   3.71433   3.72768   3.73939   3.74761
 Alpha virt. eigenvalues --    3.77266   3.79538   3.81425   3.84777   3.85289
 Alpha virt. eigenvalues --    3.85637   3.85930   3.86573   3.86835   3.87546
 Alpha virt. eigenvalues --    3.87649   3.87899   3.88207   3.88723   3.89544
 Alpha virt. eigenvalues --    3.89866   3.90061   3.90267   3.91126   3.91665
 Alpha virt. eigenvalues --    3.93043   3.93662   3.94165   3.94348   3.94646
 Alpha virt. eigenvalues --    3.95741   3.96764   3.96902   3.97816   3.99052
 Alpha virt. eigenvalues --    4.02562   4.02671
          Condensed to atoms (all electrons):
 Mulliken charges:
               1
     1  Br  -0.702954
     2  O   -0.247277
     3  H    0.132630
     4  H    0.103543
     5  O   -0.265681
     6  H    0.143693
     7  H    0.128156
     8  O   -0.271587
     9  H    0.157749
    10  H    0.158935
    11  O   -0.265449
    12  H    0.121567
    13  H    0.163461
    14  O   -0.264204
    15  H    0.133633
    16  H    0.153292
    17  O   -0.260381
    18  H    0.147186
    19  H    0.124912
    20  O   -0.310845
    21  H    0.109832
    22  H    0.127543
    23  O   -0.279566
    24  H    0.129852
    25  H    0.120100
    26  O   -0.297167
    27  H    0.141239
    28  H    0.126709
    29  O   -0.219142
    30  H    0.126491
    31  H    0.108720
    32  O   -0.285942
    33  H    0.132483
    34  H    0.136180
    35  O   -0.273884
    36  H    0.118953
    37  H    0.138140
    38  O   -0.234617
    39  H    0.134258
    40  H    0.157027
    41  O   -0.265201
    42  H    0.139199
    43  H    0.144847
    44  O   -0.314817
    45  H    0.124728
    46  H    0.125112
    47  O   -0.224599
    48  H    0.120754
    49  H    0.117760
    50  O   -0.345220
    51  H    0.123817
    52  H    0.136079
    53  O   -0.288671
    54  H    0.132820
    55  H    0.117504
    56  O   -0.245766
    57  H    0.113002
    58  H    0.123285
    59  O   -0.238021
    60  H    0.134408
    61  H    0.156480
    62  O   -0.241647
    63  H    0.125877
    64  H    0.122970
    65  O   -0.214752
    66  H    0.142843
    67  H    0.161856
    68  O   -0.318663
    69  H    0.131460
    70  H    0.115102
    71  O   -0.283282
    72  H    0.103410
    73  H    0.129790
    74  O   -0.223524
    75  H    0.137736
    76  H    0.158387
    77  O   -0.273291
    78  H    0.124478
    79  H    0.115210
    80  O   -0.272884
    81  H    0.127861
    82  H    0.114453
    83  O   -0.377592
    84  H    0.114530
    85  H    0.120742
    86  O   -0.245698
    87  H    0.111337
    88  H    0.114009
    89  O   -0.269116
    90  H    0.124178
    91  H    0.133731
    92  O   -0.224544
    93  H    0.148588
    94  H    0.163701
    95  O   -0.333135
    96  H    0.127175
    97  H    0.123615
 Sum of Mulliken charges =  -1.00000
 Mulliken charges with hydrogens summed into heavy atoms:
               1
     1  Br  -0.702954
     2  O   -0.011105
     5  O    0.006169
     8  O    0.045097
    11  O    0.019580
    14  O    0.022720
    17  O    0.011716
    20  O   -0.073470
    23  O   -0.029615
    26  O   -0.029219
    29  O    0.016069
    32  O   -0.017279
    35  O   -0.016791
    38  O    0.056668
    41  O    0.018846
    44  O   -0.064977
    47  O    0.013915
    50  O   -0.085323
    53  O   -0.038348
    56  O   -0.009479
    59  O    0.052867
    62  O    0.007201
    65  O    0.089948
    68  O   -0.072100
    71  O   -0.050081
    74  O    0.072598
    77  O   -0.033603
    80  O   -0.030570
    83  O   -0.142320
    86  O   -0.020352
    89  O   -0.011207
    92  O    0.087745
    95  O   -0.082344
         Mulliken charges condensed to fragments:
      1     -0.702954
      2     -0.297046
 Electronic spatial extent (au):  <R**2>=        1537457.7906
 Charge=             -1.0000 electrons
 Dipole moment (field-independent basis, Debye):
    X=            -94.8072    Y=            -95.7527    Z=            -87.3226  Tot=            160.5684
 Quadrupole moment (field-independent basis, Debye-Ang):
   XX=          -2237.2435   YY=          -2082.7081   ZZ=          -1853.3442
   XY=          -1945.0645   XZ=          -1784.2275   YZ=          -1677.3875
 Traceless Quadrupole moment (field-independent basis, Debye-Ang):
   XX=           -179.4783   YY=            -24.9428   ZZ=            204.4211
   XY=          -1945.0645   XZ=          -1784.2275   YZ=          -1677.3875
 Octapole moment (field-independent basis, Debye-Ang**2):
  XXX=         -58994.2462  YYY=         -47939.6890  ZZZ=         -44475.5842  XYY=         -43466.6121
  XXY=         -46930.2179  XXZ=         -43793.1048  XZZ=         -39199.7226  YZZ=         -34355.7728
  YYZ=         -35748.0393  XYZ=         -35516.7976
 Hexadecapole moment (field-independent basis, Debye-Ang**3):
 XXXX=       -1629246.5409 YYYY=       -1140942.1668 ZZZZ=       -1149088.4460 XXXY=       -1251324.7524
 XXXZ=       -1187816.3278 YYYX=       -1022005.8816 YYYZ=        -818289.4141 ZZZX=        -964127.2025
 ZZZY=        -805679.4800 XXYY=       -1059625.2084 XXZZ=        -978882.5461 YYZZ=        -709406.2674
 XXYZ=        -898366.1404 YYXZ=        -781243.6905 ZZXY=        -756676.3250
 N-N= 5.974655623512D+03 E-N=-2.391824849167D+04  KE= 5.003425925841D+03
 No NMR shielding tensors so no spin-rotation constants.
 Leave Link  601 at Wed May  2 21:57:25 2018, MaxMem= 14763950080 cpu:        68.8
 (Enter /cm/shared/gaussian/g09.e01/intel64-sandybridge/g09/l701.exe)
 Compute integral first derivatives.
 ... and contract with generalized density number  0.
 Leave Link  701 at Wed May  2 21:57:27 2018, MaxMem= 14763950080 cpu:       122.5
 (Enter /cm/shared/gaussian/g09.e01/intel64-sandybridge/g09/l702.exe)
 L702 exits ... SP integral derivatives will be done elsewhere.
 Leave Link  702 at Wed May  2 21:57:27 2018, MaxMem= 14763950080 cpu:         1.7
 (Enter /cm/shared/gaussian/g09.e01/intel64-sandybridge/g09/l703.exe)
 Compute integral first derivatives, UseDBF=F ICtDFT=           0.
 Integral derivatives from FoFJK, PRISM(SPDF).
 Calling FoFJK, ICntrl=      2127 FMM=T ISym2X=0 I1Cent= 0 IOpClX= 0 NMat=1 NMatS=1 NMatT=0.
 FoFJK:  IHMeth= 1 ICntrl=    2127 DoSepK=F KAlg= 0 I1Cent=   0 FoldK=F
 IRaf=         0 NMat=   1 IRICut=       1 DoRegI=T DoRafI=F ISym2E= 0.
 FoFCou: FMM=T IPFlag=           0 FMFlag=      100000 FMFlg1=        2001
         NFxFlg=           0 DoJE=F BraDBF=F KetDBF=F FulRan=T
         wScrn=  0.000000 ICntrl=    2127 IOpCl=  0 I1Cent=           0 NGrid=           0
         NMat0=    1 NMatS0=      1 NMatT0=    0 NMatD0=    1 NMtDS0=    0 NMtDT0=    0
 Symmetry not used in FoFCou.
 FMM levels:  10  Number of levels for PrismC:   9
 Leave Link  703 at Wed May  2 21:57:42 2018, MaxMem= 14763950080 cpu:       919.8
 (Enter /cm/shared/gaussian/g09.e01/intel64-sandybridge/g09/l716.exe)
 Dipole        =-3.73000232D+01-3.76719967D+01-3.43553633D+01
 Cartesian Forces:  Max     0.027263277 RMS     0.009178113
 Leave Link  716 at Wed May  2 21:57:42 2018, MaxMem= 14763950080 cpu:         3.5
 (Enter /cm/shared/gaussian/g09.e01/intel64-sandybridge/g09/l122.exe)
 CPIOFr:  IOpCl= 0 IRwI=-1 IRwCP=  731 ICalc= -1 LCPTot=     1005244 Len1MO=     2550559 IndFrg=     1005244
 CPIOFr:  IOpCl= 0 IRwI=-1 IRwCP=  731 ICalc=  0 LCPTot=     1005244 Len1MO=     2550559 IndFrg=     3555803
 Counterpoise: doing DCBS calculation for fragment   1 NewBq=T
 Leave Link  122 at Wed May  2 21:57:42 2018, MaxMem= 14763950080 cpu:         6.7
 (Enter /cm/shared/gaussian/g09.e01/intel64-sandybridge/g09/l301.exe)
 Basis read from rwf:  (5D, 7F)
 No pseudopotential information found on rwf file.
   795 basis functions,  1651 primitive gaussians,   829 cartesian basis functions
    18 alpha electrons       18 beta electrons
       nuclear repulsion energy         0.0000000000 Hartrees.
 IExCor= 1009 DFT=T Ex+Corr=PBE1PBE ExCW=0 ScaHFX=  0.250000
 ScaDFX=  0.750000  0.750000  1.000000  1.000000 ScalE2=  1.000000  1.000000
 IRadAn=      0 IRanWt=     -1 IRanGd=            0 ICorTp=0 IEmpDi=  4
 NAtoms=   97 NActive=   97 NUniq=   97 SFac= 1.00D+00 NAtFMM=   60 NAOKFM=T Big=T
 Integral buffers will be    131072 words long.
 Raffenetti 2 integral format.
 Two-electron integral symmetry is turned off.
 No density basis found on file   718.
 Leave Link  301 at Wed May  2 21:57:42 2018, MaxMem= 14763950080 cpu:         4.6
 (Enter /cm/shared/gaussian/g09.e01/intel64-sandybridge/g09/l302.exe)
 NPDir=0 NMtPBC=     1 NCelOv=     1 NCel=       1 NClECP=     1 NCelD=      1
         NCelK=      1 NCelE2=     1 NClLst=     1 CellRange=     0.0.
 One-electron integrals computed using PRISM.
 NBasis=   795 RedAO= T EigKep=  1.71D-02  NBF=   795
 NBsUse=   795 1.00D-06 EigRej= -1.00D+00 NBFU=   795
 Precomputing XC quadrature grid using
 IXCGrd= 4 IRadAn=           0 IRanWt=          -1 IRanGd=           0 AccXCQ= 0.00D+00.
 Generated NRdTot=       0 NPtTot=           0 NUsed=           0 NTot=          32
 NSgBfM=   708   709   709   709   709 MxSgAt=    97 MxSgA2=    97.
 Leave Link  302 at Wed May  2 21:57:50 2018, MaxMem= 14763950080 cpu:       467.8
 (Enter /cm/shared/gaussian/g09.e01/intel64-sandybridge/g09/l303.exe)
 DipDrv:  MaxL=1.
 Leave Link  303 at Wed May  2 21:57:50 2018, MaxMem= 14763950080 cpu:        28.2
 (Enter /cm/shared/gaussian/g09.e01/intel64-sandybridge/g09/l401.exe)
 ExpMin= 1.22D-01 ExpMax= 6.40D+05 ExpMxC= 6.18D+03 IAcc=2 IRadAn=         4 AccDes= 0.00D+00
 Harris functional with IExCor= 1009 and IRadAn=       4 diagonalized for initial guess.
 HarFok:  IExCor= 1009 AccDes= 0.00D+00 IRadAn=         4 IDoV= 1 UseB2=F ITyADJ=14
 ICtDFT=  3500011 ScaDFX=  1.000000  1.000000  1.000000  1.000000
 FoFCou: FMM=F IPFlag=           0 FMFlag=      100000 FMFlg1=        2001
         NFxFlg=           0 DoJE=T BraDBF=F KetDBF=T FulRan=T
         wScrn=  0.000000 ICntrl=     500 IOpCl=  0 I1Cent=   200000004 NGrid=           0
         NMat0=    1 NMatS0=      1 NMatT0=    0 NMatD0=    1 NMtDS0=    0 NMtDT0=    0
 Symmetry not used in FoFCou.
 Harris En= -2574.01944303189    
 JPrj=0 DoOrth=F DoCkMO=F.
 Leave Link  401 at Wed May  2 21:57:54 2018, MaxMem= 14763950080 cpu:       263.9
 (Enter /cm/shared/gaussian/g09.e01/intel64-sandybridge/g09/l502.exe)
 Closed shell SCF:
 Using DIIS extrapolation, IDIIS=  1040.
 Two-electron integral symmetry not used.
 IVT=     2138497 IEndB=     2138497 NGot= 14763950080 MDV= 14762516294
 LenX= 14762516294 LenY= 14761828224
 Requested convergence on RMS density matrix=1.00D-08 within 128 cycles.
 Requested convergence on MAX density matrix=1.00D-06.
 Requested convergence on             energy=1.00D-06.
 No special actions if energy rises.
 Fock matrices will be formed incrementally for  20 cycles.
 Integral accuracy reduced to 1.0D-05 until final iterations.

 Cycle   1  Pass 0  IDiag  1:
 FoFJK:  IHMeth= 1 ICntrl=       0 DoSepK=F KAlg= 0 I1Cent=   0 FoldK=F
 IRaf= 780000000 NMat=   1 IRICut=       1 DoRegI=T DoRafI=F ISym2E= 0.
 FoFCou: FMM=T IPFlag=           0 FMFlag=      100000 FMFlg1=        2001
         NFxFlg=           0 DoJE=F BraDBF=F KetDBF=F FulRan=T
         wScrn=  0.000000 ICntrl=       0 IOpCl=  0 I1Cent=           0 NGrid=           0
         NMat0=    1 NMatS0=      1 NMatT0=    0 NMatD0=    1 NMtDS0=    0 NMtDT0=    0
 Symmetry not used in FoFCou.
 FMM levels:  10  Number of levels for PrismC:   9
 E= -2573.87887639641    
 DIIS: error= 1.21D-02 at cycle   1 NSaved=   1.
 NSaved= 1 IEnMin= 1 EnMin= -2573.87887639641     IErMin= 1 ErrMin= 1.21D-02
 ErrMax= 1.21D-02  0.00D+00 EMaxC= 1.00D-01 BMatC= 3.71D-02 BMatP= 3.71D-02
 IDIUse=3 WtCom= 8.79D-01 WtEn= 1.21D-01
 Coeff-Com:  0.100D+01
 Coeff-En:   0.100D+01
 Coeff:      0.100D+01
 Gap=     0.181 Goal=   None    Shift=    0.000
 GapD=    0.181 DampG=1.000 DampE=0.500 DampFc=0.5000 IDamp=-1.
 Damping current iteration by 5.00D-01
 RMSDP=4.53D-04 MaxDP=6.82D-02              OVMax= 1.42D-01

 Cycle   2  Pass 0  IDiag  1:
 RMSU=  2.25D-04    CP:  9.96D-01
 E= -2573.89456268786     Delta-E=       -0.015686291455 Rises=F Damp=T
 DIIS: error= 7.39D-03 at cycle   2 NSaved=   2.
 NSaved= 2 IEnMin= 2 EnMin= -2573.89456268786     IErMin= 2 ErrMin= 7.39D-03
 ErrMax= 7.39D-03  0.00D+00 EMaxC= 1.00D-01 BMatC= 8.67D-03 BMatP= 3.71D-02
 IDIUse=3 WtCom= 9.26D-01 WtEn= 7.39D-02
 Coeff-Com: -0.602D+00 0.160D+01
 Coeff-En:   0.000D+00 0.100D+01
 Coeff:     -0.557D+00 0.156D+01
 Gap=     0.183 Goal=   None    Shift=    0.000
 RMSDP=1.56D-04 MaxDP=3.65D-02 DE=-1.57D-02 OVMax= 5.98D-02

 Cycle   3  Pass 0  IDiag  1:
 RMSU=  1.37D-04    CP:  9.95D-01  1.34D+00
 E= -2573.90730660855     Delta-E=       -0.012743920687 Rises=F Damp=F
 DIIS: error= 3.49D-03 at cycle   3 NSaved=   3.
 NSaved= 3 IEnMin= 3 EnMin= -2573.90730660855     IErMin= 3 ErrMin= 3.49D-03
 ErrMax= 3.49D-03  0.00D+00 EMaxC= 1.00D-01 BMatC= 2.03D-03 BMatP= 8.67D-03
 IDIUse=3 WtCom= 9.65D-01 WtEn= 3.49D-02
 Coeff-Com: -0.302D+00 0.710D+00 0.593D+00
 Coeff-En:   0.000D+00 0.000D+00 0.100D+01
 Coeff:     -0.292D+00 0.685D+00 0.607D+00
 Gap=     0.167 Goal=   None    Shift=    0.000
 RMSDP=6.69D-05 MaxDP=1.60D-02 DE=-1.27D-02 OVMax= 1.92D-02

 Cycle   4  Pass 0  IDiag  1:
 RMSU=  8.09D-06    CP:  9.94D-01  1.53D+00  6.40D-01
 E= -2573.90945906290     Delta-E=       -0.002152454349 Rises=F Damp=F
 DIIS: error= 1.31D-04 at cycle   4 NSaved=   4.
 NSaved= 4 IEnMin= 4 EnMin= -2573.90945906290     IErMin= 4 ErrMin= 1.31D-04
 ErrMax= 1.31D-04  0.00D+00 EMaxC= 1.00D-01 BMatC= 1.92D-06 BMatP= 2.03D-03
 IDIUse=3 WtCom= 9.99D-01 WtEn= 1.31D-03
 Coeff-Com: -0.116D-01 0.218D-01 0.427D-01 0.947D+00
 Coeff-En:   0.000D+00 0.000D+00 0.000D+00 0.100D+01
 Coeff:     -0.116D-01 0.218D-01 0.427D-01 0.947D+00
 Gap=     0.169 Goal=   None    Shift=    0.000
 RMSDP=2.62D-06 MaxDP=4.98D-04 DE=-2.15D-03 OVMax= 8.23D-04

 Initial convergence to 1.0D-05 achieved.  Increase integral accuracy.
 Cycle   5  Pass 1  IDiag  1:
 E= -2573.91001241841     Delta-E=       -0.000553355508 Rises=F Damp=F
 DIIS: error= 1.33D-05 at cycle   1 NSaved=   1.
 NSaved= 1 IEnMin= 1 EnMin= -2573.91001241841     IErMin= 1 ErrMin= 1.33D-05
 ErrMax= 1.33D-05  0.00D+00 EMaxC= 1.00D-01 BMatC= 7.46D-08 BMatP= 7.46D-08
 IDIUse=1 WtCom= 1.00D+00 WtEn= 0.00D+00
 Coeff-Com:  0.100D+01
 Coeff:      0.100D+01
 Gap=     0.169 Goal=   None    Shift=    0.000
 RMSDP=2.62D-06 MaxDP=4.98D-04 DE=-5.53D-04 OVMax= 2.24D-04

 Cycle   6  Pass 1  IDiag  1:
 RMSU=  1.32D-06    CP:  1.00D+00
 E= -2573.91001257340     Delta-E=       -0.000000154992 Rises=F Damp=F
 DIIS: error= 4.51D-06 at cycle   2 NSaved=   2.
 NSaved= 2 IEnMin= 2 EnMin= -2573.91001257340     IErMin= 2 ErrMin= 4.51D-06
 ErrMax= 4.51D-06  0.00D+00 EMaxC= 1.00D-01 BMatC= 4.05D-09 BMatP= 7.46D-08
 IDIUse=1 WtCom= 1.00D+00 WtEn= 0.00D+00
 Coeff-Com:  0.511D-01 0.949D+00
 Coeff:      0.511D-01 0.949D+00
 Gap=     0.169 Goal=   None    Shift=    0.000
 RMSDP=1.66D-07 MaxDP=2.14D-05 DE=-1.55D-07 OVMax= 5.16D-05

 Cycle   7  Pass 1  IDiag  1:
 RMSU=  1.64D-07    CP:  1.00D+00  1.02D+00
 E= -2573.91001257795     Delta-E=       -0.000000004547 Rises=F Damp=F
 DIIS: error= 2.82D-06 at cycle   3 NSaved=   3.
 NSaved= 3 IEnMin= 3 EnMin= -2573.91001257795     IErMin= 3 ErrMin= 2.82D-06
 ErrMax= 2.82D-06  0.00D+00 EMaxC= 1.00D-01 BMatC= 1.49D-09 BMatP= 4.05D-09
 IDIUse=1 WtCom= 1.00D+00 WtEn= 0.00D+00
 Coeff-Com: -0.263D-01 0.373D+00 0.654D+00
 Coeff:     -0.263D-01 0.373D+00 0.654D+00
 Gap=     0.169 Goal=   None    Shift=    0.000
 RMSDP=5.82D-08 MaxDP=7.01D-06 DE=-4.55D-09 OVMax= 1.73D-05

 Cycle   8  Pass 1  IDiag  1:
 RMSU=  2.88D-08    CP:  1.00D+00  1.04D+00  7.53D-01
 E= -2573.91001258005     Delta-E=       -0.000000002105 Rises=F Damp=F
 DIIS: error= 1.50D-07 at cycle   4 NSaved=   4.
 NSaved= 4 IEnMin= 4 EnMin= -2573.91001258005     IErMin= 4 ErrMin= 1.50D-07
 ErrMax= 1.50D-07  0.00D+00 EMaxC= 1.00D-01 BMatC= 5.89D-12 BMatP= 1.49D-09
 IDIUse=1 WtCom= 1.00D+00 WtEn= 0.00D+00
 Coeff-Com: -0.323D-02 0.158D-01 0.455D-01 0.942D+00
 Coeff:     -0.323D-02 0.158D-01 0.455D-01 0.942D+00
 Gap=     0.169 Goal=   None    Shift=    0.000
 RMSDP=8.22D-09 MaxDP=1.62D-06 DE=-2.11D-09 OVMax= 2.81D-06

 Cycle   9  Pass 1  IDiag  1:
 RMSU=  6.50D-09    CP:  1.00D+00  1.04D+00  7.76D-01  1.07D+00
 E= -2573.91001258006     Delta-E=       -0.000000000014 Rises=F Damp=F
 DIIS: error= 1.21D-07 at cycle   5 NSaved=   5.
 NSaved= 5 IEnMin= 5 EnMin= -2573.91001258006     IErMin= 5 ErrMin= 1.21D-07
 ErrMax= 1.21D-07  0.00D+00 EMaxC= 1.00D-01 BMatC= 2.83D-12 BMatP= 5.89D-12
 IDIUse=1 WtCom= 1.00D+00 WtEn= 0.00D+00
 Coeff-Com:  0.498D-03-0.195D-01-0.273D-01 0.426D+00 0.620D+00
 Coeff:      0.498D-03-0.195D-01-0.273D-01 0.426D+00 0.620D+00
 Gap=     0.169 Goal=   None    Shift=    0.000
 RMSDP=2.61D-09 MaxDP=6.23D-07 DE=-1.36D-11 OVMax= 8.61D-07

 SCF Done:  E(RPBE1PBE) =  -2573.91001258     A.U. after    9 cycles
            NFock=  9  Conv=0.26D-08     -V/T= 2.0013
 KE= 2.570517383491D+03 PE=-6.163080927115D+03 EE= 1.018653531044D+03
 Leave Link  502 at Wed May  2 21:59:17 2018, MaxMem= 14763950080 cpu:      5227.0
 (Enter /cm/shared/gaussian/g09.e01/intel64-sandybridge/g09/l601.exe)
 Copying SCF densities to generalized density rwf, IOpCl= 0 IROHF=0.

 **********************************************************************

            Population analysis using the SCF density.

 **********************************************************************

 Alpha  occ. eigenvalues -- -482.98488 -62.38634 -56.15891 -56.15886 -56.15884
 Alpha  occ. eigenvalues --   -8.48760  -6.29076  -6.29062  -6.29052  -2.37340
 Alpha  occ. eigenvalues --   -2.37337  -2.37330  -2.37318  -2.37317  -0.46843
 Alpha  occ. eigenvalues --   -0.02744  -0.02731  -0.02718
 Alpha virt. eigenvalues --    0.14192   0.15718   0.16358   0.16780   0.18022
 Alpha virt. eigenvalues --    0.18253   0.19290   0.19470   0.20431   0.21244
 Alpha virt. eigenvalues --    0.21493   0.21965   0.22731   0.23453   0.23628
 Alpha virt. eigenvalues --    0.23745   0.24946   0.25534   0.25610   0.25927
 Alpha virt. eigenvalues --    0.26483   0.26578   0.27141   0.27639   0.28094
 Alpha virt. eigenvalues --    0.28319   0.29476   0.30289   0.30474   0.31170
 Alpha virt. eigenvalues --    0.31489   0.31869   0.32563   0.33019   0.34353
 Alpha virt. eigenvalues --    0.34777   0.35439   0.36055   0.36229   0.36584
 Alpha virt. eigenvalues --    0.36924   0.37635   0.37781   0.38334   0.38893
 Alpha virt. eigenvalues --    0.39189   0.39484   0.40461   0.40832   0.41410
 Alpha virt. eigenvalues --    0.41874   0.42572   0.43013   0.43349   0.43439
 Alpha virt. eigenvalues --    0.43792   0.44604   0.44915   0.45857   0.47107
 Alpha virt. eigenvalues --    0.47835   0.48874   0.49077   0.51411   0.60788
 Alpha virt. eigenvalues --    0.61956   0.62768   0.62887   0.63615   0.64490
 Alpha virt. eigenvalues --    0.64658   0.65166   0.65627   0.65975   0.66392
 Alpha virt. eigenvalues --    0.67061   0.67690   0.68057   0.68607   0.69452
 Alpha virt. eigenvalues --    0.69622   0.69963   0.70500   0.71249   0.71519
 Alpha virt. eigenvalues --    0.72124   0.72455   0.72577   0.73125   0.73149
 Alpha virt. eigenvalues --    0.73576   0.74053   0.74278   0.74606   0.74831
 Alpha virt. eigenvalues --    0.74892   0.75060   0.75411   0.75552   0.76604
 Alpha virt. eigenvalues --    0.76777   0.77000   0.77337   0.77402   0.77738
 Alpha virt. eigenvalues --    0.78158   0.78454   0.78652   0.79038   0.79226
 Alpha virt. eigenvalues --    0.79502   0.79823   0.80046   0.80559   0.80995
 Alpha virt. eigenvalues --    0.81183   0.81307   0.81799   0.82145   0.82438
 Alpha virt. eigenvalues --    0.82803   0.83329   0.83732   0.84321   0.84516
 Alpha virt. eigenvalues --    0.84839   0.85004   0.86063   0.86545   0.86674
 Alpha virt. eigenvalues --    0.86928   0.87251   0.87555   0.87984   0.88650
 Alpha virt. eigenvalues --    0.88840   0.89238   0.89887   0.90049   0.90106
 Alpha virt. eigenvalues --    0.91141   0.91690   0.91852   0.92072   0.92279
 Alpha virt. eigenvalues --    0.93087   0.93180   0.93324   0.93969   0.94510
 Alpha virt. eigenvalues --    0.94913   0.95116   0.95547   0.95670   0.96550
 Alpha virt. eigenvalues --    0.96721   0.97093   0.97276   0.97595   0.97811
 Alpha virt. eigenvalues --    0.98488   0.99186   0.99282   1.00277   1.01519
 Alpha virt. eigenvalues --    1.01686   1.01976   1.02145   1.02834   1.03563
 Alpha virt. eigenvalues --    1.03825   1.04354   1.04412   1.04923   1.05357
 Alpha virt. eigenvalues --    1.05691   1.06243   1.06785   1.07688   1.07913
 Alpha virt. eigenvalues --    1.08150   1.09261   1.09723   1.10241   1.10558
 Alpha virt. eigenvalues --    1.11683   1.12223   1.13188   1.13573   1.14688
 Alpha virt. eigenvalues --    1.14820   1.15302   1.15752   1.17169   1.18181
 Alpha virt. eigenvalues --    1.18361   1.18644   1.21581   1.24654   1.27629
 Alpha virt. eigenvalues --    1.28857   1.64995   1.66116   1.66883   1.67519
 Alpha virt. eigenvalues --    1.68152   1.68501   1.68992   1.70029   1.70748
 Alpha virt. eigenvalues --    1.71036   1.71204   1.71429   1.71789   1.71834
 Alpha virt. eigenvalues --    1.72239   1.72333   1.72664   1.72802   1.72885
 Alpha virt. eigenvalues --    1.73120   1.73335   1.73670   1.74128   1.74352
 Alpha virt. eigenvalues --    1.74737   1.75300   1.75349   1.75441   1.76018
 Alpha virt. eigenvalues --    1.76301   1.76608   1.76695   1.76837   1.77280
 Alpha virt. eigenvalues --    1.77654   1.78048   1.78288   1.78744   1.78909
 Alpha virt. eigenvalues --    1.78940   1.79416   1.79912   1.80326   1.80824
 Alpha virt. eigenvalues --    1.81502   1.81992   1.82065   1.82519   1.83347
 Alpha virt. eigenvalues --    1.83503   1.83978   1.84362   1.84840   1.85868
 Alpha virt. eigenvalues --    1.86180   1.86796   1.87759   1.88091   1.88841
 Alpha virt. eigenvalues --    1.89642   1.90436   1.91635   1.94584   1.95861
 Alpha virt. eigenvalues --    1.97240   1.97750   1.98415   1.99374   1.99475
 Alpha virt. eigenvalues --    1.99863   2.00123   2.00394   2.00488   2.00571
 Alpha virt. eigenvalues --    2.01119   2.01338   2.01596   2.01718   2.01844
 Alpha virt. eigenvalues --    2.02018   2.02260   2.02507   2.02673   2.02814
 Alpha virt. eigenvalues --    2.02997   2.03242   2.03622   2.03741   2.03947
 Alpha virt. eigenvalues --    2.04225   2.04418   2.04869   2.05040   2.05133
 Alpha virt. eigenvalues --    2.05373   2.06013   2.06203   2.07231   2.07329
 Alpha virt. eigenvalues --    2.07539   2.08628   2.08743   2.09065   2.09359
 Alpha virt. eigenvalues --    2.09784   2.10331   2.10750   2.10931   2.11405
 Alpha virt. eigenvalues --    2.11595   2.12095   2.12437   2.12849   2.13022
 Alpha virt. eigenvalues --    2.13917   2.14226   2.14633   2.14748   2.15060
 Alpha virt. eigenvalues --    2.15354   2.16186   2.16384   2.16704   2.17602
 Alpha virt. eigenvalues --    2.18038   2.18597   2.18844   2.18993   2.19257
 Alpha virt. eigenvalues --    2.19789   2.19915   2.20243   2.20896   2.21259
 Alpha virt. eigenvalues --    2.21766   2.22204   2.23221   2.23679   2.24601
 Alpha virt. eigenvalues --    2.24955   2.25451   2.25949   2.26503   2.27744
 Alpha virt. eigenvalues --    2.27864   2.28539   2.28927   2.29664   2.29765
 Alpha virt. eigenvalues --    2.30612   2.31574   2.32060   2.32948   2.34032
 Alpha virt. eigenvalues --    2.35862   2.36538   2.37390   2.37736   2.37913
 Alpha virt. eigenvalues --    2.38607   2.39837   2.40067   2.40453   2.41307
 Alpha virt. eigenvalues --    2.41535   2.42244   2.42521   2.42740   2.43454
 Alpha virt. eigenvalues --    2.44140   2.44327   2.45779   2.46400   2.47181
 Alpha virt. eigenvalues --    2.47321   2.47798   2.48165   2.48415   2.48570
 Alpha virt. eigenvalues --    2.48818   2.49395   2.49772   2.50153   2.51249
 Alpha virt. eigenvalues --    2.52463   2.53088   2.53234   2.54440   2.54960
 Alpha virt. eigenvalues --    2.55474   2.57102   2.58739   2.66838   2.68083
 Alpha virt. eigenvalues --    2.68338   2.68666   2.69365   2.69792   2.70062
 Alpha virt. eigenvalues --    2.70295   2.70830   2.71487   2.72255   2.72724
 Alpha virt. eigenvalues --    2.72816   2.73202   2.73823   2.74606   2.75224
 Alpha virt. eigenvalues --    2.75443   2.75889   2.76450   2.77777   2.78593
 Alpha virt. eigenvalues --    2.79074   2.79551   2.80658   2.81849   2.82735
 Alpha virt. eigenvalues --    2.82910   2.83306   2.83683   2.84506   2.84818
 Alpha virt. eigenvalues --    2.85626   2.85786   2.86232   2.86513   2.86895
 Alpha virt. eigenvalues --    2.88300   2.88687   2.88950   2.89371   2.90313
 Alpha virt. eigenvalues --    2.90696   2.91216   2.91866   2.92156   2.92834
 Alpha virt. eigenvalues --    2.93549   2.94149   2.94483   2.95008   2.96585
 Alpha virt. eigenvalues --    2.97375   2.97857   2.98777   2.99456   3.01322
 Alpha virt. eigenvalues --    3.02151   3.03102   3.05497   3.06093   3.07431
 Alpha virt. eigenvalues --    3.09497   3.12203   3.12921   3.13563   3.14080
 Alpha virt. eigenvalues --    3.15376   3.17055   3.19254   3.20293   3.21538
 Alpha virt. eigenvalues --    3.22207   3.22784   3.23553   3.25057   3.26630
 Alpha virt. eigenvalues --    3.27862   3.29473   3.29829   3.31806   3.32718
 Alpha virt. eigenvalues --    3.33807   3.35125   3.38773   3.41215   3.44406
 Alpha virt. eigenvalues --    3.49018   3.49432   3.50508   3.51568   3.52576
 Alpha virt. eigenvalues --    3.55345   3.56703   3.63998   3.72066   4.50656
 Alpha virt. eigenvalues --    4.51581   4.51854   4.52088   4.52113   4.52246
 Alpha virt. eigenvalues --    4.52295   4.52392   4.52419   4.52465   4.52739
 Alpha virt. eigenvalues --    4.52864   4.53051   4.53303   4.53497   4.53576
 Alpha virt. eigenvalues --    4.53671   4.53742   4.54047   4.54200   4.54509
[...]
   Y21       42.04641   0.01279   0.00000   0.00524   0.00571  42.05212
   Z21       36.92525  -0.00648   0.00000  -0.03111  -0.02933  36.89591
   X22       30.93482   0.00283   0.00000  -0.00521  -0.00466  30.93015
   Y22       39.21182  -0.00643   0.00000  -0.01539  -0.01495  39.19686
   Z22       37.24650  -0.00226   0.00000  -0.01619  -0.01472  37.23179
   X23       45.31563   0.01806   0.00000   0.02564   0.02645  45.34209
   Y23       41.38500   0.00159   0.00000  -0.00011  -0.00129  41.38371
   Z23       39.24961  -0.01217   0.00000  -0.04984  -0.04851  39.20110
   X24       43.61488  -0.00971   0.00000   0.02299   0.02384  43.63872
   Y24       41.46059   0.00713   0.00000   0.03485   0.03376  41.49435
   Z24       39.85432   0.00828   0.00000   0.01711   0.01850  39.87282
   X25       45.44791  -0.00242   0.00000  -0.01764  -0.01701  45.43090
   Y25       39.75984  -0.00601   0.00000  -0.01652  -0.01763  39.74221
   Z25       38.45593  -0.00818   0.00000  -0.03740  -0.03624  38.41969
   X26       40.09999  -0.00289   0.00000   0.00843   0.00815  40.10814
   Y26       29.83878  -0.01285   0.00000   0.00459   0.00378  29.84256
   Z26       40.51573   0.01525   0.00000   0.03050   0.03076  40.54649
   X27       41.72515   0.01377   0.00000   0.01559   0.01536  41.74051
   Y27       30.48128   0.00918   0.00000   0.02081   0.01989  30.50118
   Z27       40.02440  -0.00621   0.00000  -0.01121  -0.01092  40.01348
   X28       38.90946  -0.00827   0.00000  -0.00857  -0.00876  38.90070
   Y28       30.95371   0.00490   0.00000  -0.01664  -0.01724  30.93647
   Z28       39.72204  -0.00964   0.00000  -0.02225  -0.02185  39.70020
   X29       44.03062   0.00031   0.00000  -0.05061  -0.04999  43.98063
   Y29       37.90791  -0.01121   0.00000  -0.04751  -0.04914  37.85877
   Z29       44.71092   0.01422   0.00000   0.04463   0.04563  44.75655
   X30       44.54084   0.00025   0.00000  -0.00986  -0.00942  44.53142
   Y30       36.20715  -0.00677   0.00000  -0.02928  -0.03092  36.17623
   Z30       44.37077   0.00071   0.00000  -0.00140  -0.00059  44.37018
   X31       42.57553  -0.01480   0.00000  -0.02102  -0.02041  42.55512
   Y31       38.15357   0.00673   0.00000   0.01785   0.01647  38.17004
   Z31       43.69047  -0.01103   0.00000  -0.02289  -0.02183  43.66864
   X32       44.50305  -0.00021   0.00000   0.00367   0.00364  44.50669
   Y32       32.63557  -0.01838   0.00000  -0.01716  -0.01832  32.61725
   Z32       39.74094   0.00800   0.00000   0.00999   0.01043  39.75137
   X33       45.25894   0.00380   0.00000   0.01231   0.01237  45.27131
   Y33       33.12690   0.00055   0.00000   0.00051  -0.00088  33.12602
   Z33       41.30941   0.00508   0.00000   0.00839   0.00886  41.31827
   X34       44.44636  -0.00316   0.00000  -0.01351  -0.01342  44.43294
   Y34       34.16625   0.01367   0.00000  -0.00367  -0.00471  34.16153
   Z34       38.75828  -0.01459   0.00000  -0.02693  -0.02634  38.73195
   X35       38.58821   0.00386   0.00000  -0.00446  -0.00484  38.58337
   Y35       31.04820  -0.00029   0.00000  -0.00739  -0.00716  31.04104
   Z35       32.10645  -0.01508   0.00000  -0.00100  -0.00057  32.10587
   X36       39.68425   0.00094   0.00000  -0.00794  -0.00846  39.67579
   Y36       29.63091  -0.00647   0.00000  -0.01923  -0.01914  29.61177
   Z36       32.33321  -0.00018   0.00000  -0.00293  -0.00269  32.33053
   X37       37.79452  -0.00471   0.00000   0.01409   0.01378  37.80830
   Y37       31.27497   0.00682   0.00000   0.02610   0.02622  31.30119
   Z37       33.73161   0.02114   0.00000   0.03704   0.03751  33.76913
   X38       37.37878   0.00455   0.00000   0.03102   0.03210  37.41088
   Y38       45.54240   0.00036   0.00000   0.01746   0.01763  45.56003
   Z38       33.76941  -0.01272   0.00000  -0.02019  -0.01821  33.75119
   X39       36.66069  -0.00277   0.00000  -0.01070  -0.00946  36.65123
   Y39       47.20536   0.00414   0.00000   0.00686   0.00711  47.21247
   Z39       33.69382   0.00340   0.00000   0.01349   0.01566  33.70947
   X40       37.90791   0.00098   0.00000  -0.00807  -0.00696  37.90094
   Y40       45.35343  -0.00106   0.00000  -0.00576  -0.00582  45.34761
   Z40       35.48906   0.01000   0.00000   0.00617   0.00810  35.49716
   X41       35.48906  -0.01180   0.00000  -0.02775  -0.02781  35.46124
   Y41       31.14269   0.00285   0.00000   0.01387   0.01317  31.15586
   Z41       43.84165  -0.00859   0.00000   0.00188   0.00240  43.84404
   X42       35.64023   0.00675   0.00000   0.02095   0.02084  35.66107
   Y42       30.25452  -0.00070   0.00000   0.00659   0.00570  30.26022
   Z42       45.41012   0.00762   0.00000   0.00682   0.00724  45.41736
   X43       36.92525   0.00454   0.00000   0.00421   0.00425  36.92950
   Y43       32.25763  -0.00170   0.00000  -0.01618  -0.01702  32.24060
   Z43       43.80385   0.00339   0.00000   0.00471   0.00530  43.80916
   X44       43.04796   0.01906   0.00000   0.01836   0.01889  43.06685
   Y44       40.78029   0.00556   0.00000   0.00817   0.00813  40.78842
   Z44       30.42459   0.00424   0.00000   0.00672   0.00804  30.43263
   X45       42.17869  -0.00759   0.00000  -0.01494  -0.01429  42.16440
   Y45       42.21648   0.00378   0.00000  -0.00258  -0.00246  42.21402
   Z45       29.76319  -0.00339   0.00000  -0.00520  -0.00370  29.75949
   X46       41.80074  -0.01087   0.00000  -0.00157  -0.00117  41.79957
   Y46       39.47638  -0.00936   0.00000  -0.00603  -0.00596  39.47042
   Z46       30.50018  -0.00061   0.00000  -0.00271  -0.00149  30.49869
   X47       32.23873   0.00347   0.00000  -0.00103   0.00009  32.23882
   Y47       45.27784  -0.00888   0.00000  -0.00313  -0.00274  45.27510
   Z47       36.37723  -0.00808   0.00000  -0.00371  -0.00163  36.37560
   X48       31.36945  -0.00841   0.00000  -0.00962  -0.00835  31.36110
   Y48       46.46837   0.01126   0.00000   0.01461   0.01498  46.48335
   Z48       37.39768   0.00888   0.00000   0.00813   0.01035  37.40803
   X49       33.97728   0.00557   0.00000   0.01078   0.01193  33.98921
   Y49       45.41012  -0.00020   0.00000  -0.00067  -0.00049  45.40963
   Z49       36.88745  -0.00307   0.00000  -0.02175  -0.01970  36.86775
   X50       33.61823  -0.01669   0.00000  -0.03031  -0.03008  33.58815
   Y50       38.19137   0.00135   0.00000   0.00445   0.00550  38.19686
   Z50       28.91281  -0.01034   0.00000  -0.02559  -0.02428  28.88853
   X51       33.97728   0.00309   0.00000   0.00764   0.00770  33.98498
   Y51       36.41502  -0.00328   0.00000   0.00392   0.00493  36.41995
   Z51       28.87502  -0.00227   0.00000  -0.01527  -0.01416  28.86085
   X52       35.03552   0.00267   0.00000  -0.03925  -0.03892  34.99661
   Y52       38.92836   0.00828   0.00000   0.02402   0.02484  38.95320
   Z52       29.76319   0.00879   0.00000   0.01714   0.01848  29.78167
   X53       30.65136  -0.00387   0.00000   0.00961   0.00957  30.66093
   Y53       33.97728  -0.00258   0.00000  -0.00083  -0.00008  33.97719
   Z53       34.46860   0.01226   0.00000   0.01162   0.01256  34.48116
   X54       31.36945   0.00690   0.00000   0.01160   0.01161  31.38106
   Y54       34.73317   0.00730   0.00000   0.01250   0.01333  34.74650
   Z54       32.99462  -0.01101   0.00000  -0.00673  -0.00573  32.98888
   X55       31.18048   0.00037   0.00000  -0.00193  -0.00213  31.17835
   Y55       32.23873  -0.00363   0.00000  -0.00813  -0.00742  32.23131
   Z55       34.39302  -0.00122   0.00000  -0.00603  -0.00529  34.38772
   X56       30.91592   0.00096   0.00000   0.00971   0.01023  30.92615
   Y56       36.81187  -0.00672   0.00000  -0.00233  -0.00269  36.80918
   Z56       44.72982   0.00091   0.00000   0.02522   0.02645  44.75626
   X57       32.71116   0.01181   0.00000   0.02723   0.02776  32.73892
   Y57       37.07643  -0.00338   0.00000  -0.01447  -0.01502  37.06141
   Z57       44.89989  -0.00217   0.00000  -0.01019  -0.00898  44.89091
   X58       30.17893  -0.00721   0.00000  -0.00732  -0.00665  30.17228
   Y58       38.21026   0.01126   0.00000   0.02397   0.02360  38.23386
   Z58       45.58019   0.00498   0.00000   0.00353   0.00493  45.58512
   X59       36.83076  -0.00743   0.00000  -0.00685  -0.00554  36.82522
   Y59       46.48726   0.00046   0.00000   0.01599   0.01565  46.50292
   Z59       39.04174  -0.00217   0.00000   0.00113   0.00322  39.04496
   X60       35.60244   0.00039   0.00000   0.00233   0.00368  35.60612
   Y60       46.50616  -0.00105   0.00000  -0.00521  -0.00556  46.50060
   Z60       40.38345   0.00166   0.00000   0.00968   0.01180  40.39525
   X61       38.36144   0.01013   0.00000   0.01798   0.01937  38.38081
   Y61       47.05418   0.00024   0.00000  -0.01200  -0.01256  47.04162
   Z61       39.81653   0.00415   0.00000   0.00497   0.00707  39.82360
   X62       34.90324  -0.01667   0.00000  -0.01709  -0.01732  34.88592
   Y62       33.35367   0.00448   0.00000  -0.01518  -0.01431  33.33936
   Z62       29.34745  -0.00504   0.00000   0.01038   0.01114  29.35859
   X63       36.45282   0.01710   0.00000   0.02084   0.02059  36.47340
   Y63       32.93793  -0.01055   0.00000  -0.03293  -0.03230  32.90563
   Z63       30.16003   0.00524   0.00000  -0.00994  -0.00926  30.15077
   X64       34.16625  -0.00020   0.00000  -0.00163  -0.00203  34.16422
   Y64       31.76630  -0.00597   0.00000  -0.02217  -0.02118  31.74511
   Z64       28.89391  -0.00056   0.00000  -0.00321  -0.00260  28.89131
   X65       37.09532   0.00552   0.00000   0.00203   0.00314  37.09847
   Y65       42.74561  -0.00983   0.00000  -0.00859  -0.00962  42.73598
   Z65       45.50461  -0.01230   0.00000  -0.01808  -0.01639  45.48821
   X66       35.73472  -0.01001   0.00000  -0.01988  -0.01867  35.71606
   Y66       43.86054   0.00489   0.00000  -0.00369  -0.00455  43.85599
   Z66       45.10776  -0.00109   0.00000   0.00065   0.00249  45.11026
   X67       37.45437   0.00493   0.00000   0.01696   0.01814  37.47252
   Y67       43.06686   0.00178   0.00000  -0.00289  -0.00415  43.06271
   Z67       47.24315   0.01061   0.00000  -0.00173  -0.00002  47.24313
   X68       28.23251  -0.02129   0.00000  -0.02261  -0.02247  28.21004
   Y68       33.95838  -0.01140   0.00000  -0.03602  -0.03577  33.92261
   Z68       41.46059  -0.00419   0.00000   0.00167   0.00267  41.46326
   X69       29.10178   0.01018   0.00000   0.00671   0.00698  29.10877
   Y69       34.88434   0.00744   0.00000   0.00364   0.00367  34.88802
   Z69       42.74561   0.00688   0.00000  -0.01157  -0.01050  42.73511
   X70       29.53642   0.00866   0.00000   0.00176   0.00183  29.53825
   Y70       33.41036   0.00094   0.00000   0.01434   0.01458  33.42494
   Z70       40.34565  -0.00784   0.00000  -0.02053  -0.01963  40.32603
   X71       39.23071  -0.01131   0.00000  -0.01194  -0.01177  39.21894
   Y71       38.15357   0.01578   0.00000   0.02221   0.02299  38.17656
   Z71       26.22940  -0.01327   0.00000  -0.02816  -0.02700  26.20239
   X72       40.61021   0.00911   0.00000   0.01174   0.01179  40.62201
   Y72       37.24650  -0.00644   0.00000  -0.00271  -0.00199  37.24451
   Z72       25.51130   0.00191   0.00000   0.01148   0.01250  25.52380
   X73       39.11733   0.00250   0.00000   0.00146   0.00161  39.11894
   Y73       37.54886  -0.00627   0.00000  -0.00461  -0.00400  37.54486
   Z73       27.93015   0.00549   0.00000  -0.01814  -0.01705  27.91311
   X74       44.25739   0.00321   0.00000   0.01538   0.01514  44.27253
   Y74       32.40880   0.00558   0.00000   0.01299   0.01264  32.42144
   Z74       32.27652   0.00053   0.00000  -0.00184  -0.00142  32.27510
   X75       43.52039  -0.00248   0.00000  -0.00488  -0.00527  43.51512
   Y75       30.78364  -0.00022   0.00000   0.01707   0.01676  30.80040
   Z75       32.61667   0.00252   0.00000   0.00951   0.00978  32.62645
   X76       45.14556   0.00333   0.00000   0.01314   0.01283  45.15839
   Y76       32.16314  -0.00058   0.00000  -0.00258  -0.00286  32.16028
   Z76       30.70805  -0.00258   0.00000  -0.00486  -0.00449  30.70356
   X77       39.06064   0.01230   0.00000   0.00778   0.00824  39.06888
   Y77       35.05442   0.00084   0.00000   0.01411   0.01246  35.06688
   Z77       49.51082  -0.00301   0.00000  -0.00262  -0.00179  49.50904
   X78       38.02129  -0.00364   0.00000   0.00155   0.00199  38.02328
   Y78       35.26229   0.00073   0.00000   0.00069  -0.00070  35.26159
   Z78       48.03684  -0.00689   0.00000  -0.01353  -0.01265  48.02419
   X79       37.90791  -0.00982   0.00000  -0.01709  -0.01659  37.89132
   Y79       35.13001   0.00018   0.00000  -0.00088  -0.00256  35.12745
   Z79       50.89032   0.00721   0.00000  -0.00003   0.00084  50.89117
   X80       41.06375   0.00041   0.00000   0.00108   0.00098  41.06473
   Y80       30.14113   0.01503   0.00000   0.01903   0.01753  30.15866
   Z80       46.27939   0.01604   0.00000   0.00567   0.00594  46.28533
   X81       40.83698  -0.00158   0.00000  -0.00238  -0.00265  40.83433
   Y81       28.36479  -0.01112   0.00000  -0.00120  -0.00271  28.36208
   Z81       46.46837  -0.00435   0.00000  -0.01258  -0.01250  46.45587
   X82       41.23382  -0.00378   0.00000  -0.02596  -0.02608  41.20774
   Y82       30.40569  -0.00477   0.00000  -0.01887  -0.02020  30.38549
   Z82       44.50305  -0.01754   0.00000  -0.02534  -0.02505  44.47800
   X83       47.24315   0.02730   0.00000   0.07037   0.07131  47.31447
   Y83       41.40390   0.01840   0.00000   0.03285   0.03099  41.43489
   Z83       43.80385   0.01916   0.00000   0.03151   0.03279  43.83664
   X84       46.84631  -0.00627   0.00000   0.00147   0.00234  46.84865
   Y84       41.19603   0.00139   0.00000   0.03765   0.03602  41.23205
   Z84       42.04641  -0.01044   0.00000   0.01797   0.01924  42.06565
   X85       46.16601  -0.00480   0.00000   0.01655   0.01740  46.18341
   Y85       40.23227  -0.00368   0.00000   0.02471   0.02287  40.25514
   Z85       44.65423  -0.00132   0.00000  -0.01030  -0.00911  44.64512
   X86       33.93948  -0.01112   0.00000  -0.02824  -0.02734  33.91214
   Y86       44.89989   0.00127   0.00000   0.02531   0.02628  44.92617
   Z86       29.34745  -0.00255   0.00000  -0.00383  -0.00183  29.34561
   X87       35.13001   0.00484   0.00000  -0.00171  -0.00074  35.12927
   Y87       45.27784  -0.00311   0.00000  -0.02661  -0.02590  45.25194
   Z87       30.65136   0.00691   0.00000   0.00600   0.00800  30.65936
   X88       34.56309   0.00448   0.00000   0.01713   0.01808  34.58117
   Y88       45.80696   0.00118   0.00000  -0.00550  -0.00444  45.80252
   Z88       27.91125  -0.00550   0.00000  -0.01292  -0.01084  27.90041
   X89       50.02105   0.00472   0.00000   0.00335   0.00364  50.02469
   Y89       37.05753   0.00843   0.00000  -0.00046  -0.00168  37.05585
   Z89       35.22450  -0.01452   0.00000  -0.01753  -0.01678  35.20772
   X90       50.77694   0.00295   0.00000  -0.00414  -0.00391  50.77303
   Y90       36.05597  -0.00770   0.00000  -0.00265  -0.00408  36.05189
   Z90       36.50951   0.01169   0.00000   0.01433   0.01496  36.52447
   X91       48.24471  -0.00916   0.00000  -0.00832  -0.00804  48.23667
   Y91       36.86856  -0.00065   0.00000   0.00687   0.00580  36.87435
   Z91       35.48906   0.00374   0.00000   0.00748   0.00826  35.49732
   X92       32.14424   0.00263   0.00000   0.00368   0.00319  32.14743
   Y92       28.79943   0.01004   0.00000   0.00618   0.00661  28.80604
   Z92       36.15046  -0.01242   0.00000  -0.01972  -0.01936  36.13110
   X93       33.22139   0.00362   0.00000   0.00933   0.00869  33.23008
   Y93       27.40103  -0.00609   0.00000  -0.01072  -0.01035  27.39068
   Z93       35.73472   0.00339   0.00000   0.01726   0.01744  35.75217
   X94       31.27497  -0.00211   0.00000   0.01181   0.01131  31.28627
   Y94       28.27030  -0.00248   0.00000   0.01117   0.01153  28.28183
   Z94       37.64334   0.01015   0.00000   0.00909   0.00941  37.65276
   X95       35.84810  -0.01615   0.00000  -0.02722  -0.02781  35.82029
   Y95       26.62624  -0.02377   0.00000  -0.02033  -0.02076  26.60548
   Z95       40.87478  -0.00870   0.00000  -0.03051  -0.03048  40.84430
   X96       37.47327   0.01263   0.00000   0.00428   0.00374  37.47701
   Y96       27.26875   0.01015   0.00000   0.00504   0.00450  27.27325
   Z96       40.42124   0.00142   0.00000   0.01665   0.01670  40.43795
   X97       35.05442   0.00389   0.00000   0.02673   0.02631  35.08073
   Y97       27.98684   0.01388   0.00000   0.01760   0.01715  28.00400
   Z97       41.76295   0.00437   0.00000  -0.00141  -0.00122  41.76173
         Item               Value     Threshold  Converged?
 Maximum Force            0.027299     0.000450     NO 
 RMS     Force            0.009186     0.000300     NO 
 Maximum Displacement     0.071312     0.001800     NO 
 RMS     Displacement     0.017565     0.001200     NO 
 Predicted change in Energy=-2.408185D-02
 GradGradGradGradGradGradGradGradGradGradGradGradGradGradGradGradGradGrad

 Leave Link  103 at Wed May  2 22:04:40 2018, MaxMem= 14763950080 cpu:        52.6
 (Enter /cm/shared/gaussian/g09.e01/intel64-sandybridge/g09/l9999.exe)
 1\1\GINC-POPLE03\Force\RPBE1PBE\CC-pVDZ\Br1H64O32(1-)\M.PELUSO\02-May-
 2018\0\\#p PBE1PBE/cc-pvDZ force Counterpoise=2 noSymm\\forces on chlo
 ride comput - NWATER: 32\\-1,1\Br,20.,20.,20.\O,21.57,22.16,21.84\H,21
 .18,21.46,21.33\H,20.88,22.44,22.44\O,19.36,21.4,17.13\H,19.49,21.03,1
 8.\H,19.57,22.33,17.23\O,23.2,19.43,19.42\H,23.22,19.3,18.47\H,22.28,1
 9.64,19.61\O,19.36,16.89,19.46\H,18.49,16.52,19.36\H,19.22,17.75,19.85
 \O,19.28,19.65,23.52\H,19.56,20.56,23.65\H,19.26,19.54,22.57\O,21.53,1
 9.09,16.28\H,20.8,18.92,16.86\H,22.18,18.42,16.51\O,15.77,21.49,19.61\
 H,16.34,22.25,19.54\H,16.37,20.75,19.71\O,23.98,21.9,20.77\H,23.08,21.
 94,21.09\H,24.05,21.04,20.35\O,21.22,15.79,21.44\H,22.08,16.13,21.18\H
 ,20.59,16.38,21.02\O,23.3,20.06,23.66\H,23.57,19.16,23.48\H,22.53,20.1
 9,23.12\O,23.55,17.27,21.03\H,23.95,17.53,21.86\H,23.52,18.08,20.51\O,
 20.42,16.43,16.99\H,21.,15.68,17.11\H,20.,16.55,17.85\O,19.78,24.1,17.
 87\H,19.4,24.98,17.83\H,20.06,24.,18.78\O,18.78,16.48,23.2\H,18.86,16.
 01,24.03\H,19.54,17.07,23.18\O,22.78,21.58,16.1\H,22.32,22.34,15.75\H,
 22.12,20.89,16.14\O,17.06,23.96,19.25\H,16.6,24.59,19.79\H,17.98,24.03
 ,19.52\O,17.79,20.21,15.3\H,17.98,19.27,15.28\H,18.54,20.6,15.75\O,16.
 22,17.98,18.24\H,16.6,18.38,17.46\H,16.5,17.06,18.2\O,16.36,19.48,23.6
 7\H,17.31,19.62,23.76\H,15.97,20.22,24.12\O,19.49,24.6,20.66\H,18.84,2
 4.61,21.37\H,20.3,24.9,21.07\O,18.47,17.65,15.53\H,19.29,17.43,15.96\H
 ,18.08,16.81,15.29\O,19.63,22.62,24.08\H,18.91,23.21,23.87\H,19.82,22.
 79,25.\O,14.94,17.97,21.94\H,15.4,18.46,22.62\H,15.63,17.68,21.35\O,20
 .76,20.19,13.88\H,21.49,19.71,13.5\H,20.7,19.87,14.78\O,23.42,17.15,17
 .08\H,23.03,16.29,17.26\H,23.89,17.02,16.25\O,20.67,18.55,26.2\H,20.12
 ,18.66,25.42\H,20.06,18.59,26.93\O,21.73,15.95,24.49\H,21.61,15.01,24.
 59\H,21.82,16.09,23.55\O,25.,21.91,23.18\H,24.79,21.8,22.25\H,24.43,21
 .29,23.63\O,17.96,23.76,15.53\H,18.59,23.96,16.22\H,18.29,24.24,14.77\
 O,26.47,19.61,18.64\H,26.87,19.08,19.32\H,25.53,19.51,18.78\O,17.01,15
 .24,19.13\H,17.58,14.5,18.91\H,16.55,14.96,19.92\O,18.97,14.09,21.63\H
 ,19.83,14.43,21.39\H,18.55,14.81,22.1\\Version=ES64L-G09RevE.01\HF=-24
 43.1537708\RMSD=7.729e-09\RMSF=9.186e-03\Dipole=0.8958134,-0.7523649,3
 .296458\Quadrupole=-128.0788199,-23.5062352,151.5850551,-1444.8619008,
 -1323.1365725,-1248.8735444\PG=C01 [X(Br1H64O32)]\\@


 IT IS WELL TO REMEMBER THAT MAN IS A PART OF NATURE AND THAT HIS WORKS,
 WHATEVER THEY MAY BE, ARE NO MORE "UNNATURAL" THAN 
 THE FLIGHT OF AN EAGLE OR THE PASSAGE OF A TORNADO.

                                    -- CHARLES MCCARRY IN "THE GREAT SOUTHWEST"
 Job cpu time:       0 days 10 hours  7 minutes  5.3 seconds.
 File lengths (MBytes):  RWF=    482 Int=      0 D2E=      0 Chk=    160 Scr=      1
 Normal termination of Gaussian 09 at Wed May  2 22:04:40 2018.
