 Entering Gaussian System, Link 0=/cm/shared/gaussian/g09.e01/intel64-sandybridge/g09/g09
 Initial command:
 /cm/shared/gaussian/g09.e01/intel64-sandybridge/g09/l1.exe "/local/scratch/m.peluso/32_wat/Gau-54356.inp" -scrdir="/local/scratch/m.peluso/32_wat/"
 Entering Link 1 = /cm/shared/gaussian/g09.e01/intel64-sandybridge/g09/l1.exe PID=     54357.
  
 Copyright (c) 1988,1990,1992,1993,1995,1998,2003,2009,2015,
            Gaussian, Inc.  All Rights Reserved.
  
 This is part of the Gaussian(R) 09 program.  It is based on
 the Gaussian(R) 03 system (copyright 2003, Gaussian, Inc.),
 the Gaussian(R) 98 system (copyright 1998, Gaussian, Inc.),
 the Gaussian(R) 94 system (copyright 1995, Gaussian, Inc.),
 the Gaussian 92(TM) system (copyright 1992, Gaussian, Inc.),
 the Gaussian 90(TM) system (copyright 1990, Gaussian, Inc.),
 the Gaussian 88(TM) system (copyright 1988, Gaussian, Inc.),
 the Gaussian 86(TM) system (copyright 1986, Carnegie Mellon
 University), and the Gaussian 82(TM) system (copyright 1983,
 Carnegie Mellon University). Gaussian is a federally registered
 trademark of Gaussian, Inc.
  
 This software contains proprietary and confidential information,
 including trade secrets, belonging to Gaussian, Inc.
  
 This software is provided under written license and may be
 used, copied, transmitted, or stored only in accord with that
 written license.
  
 The following legend is applicable only to US Government
 contracts under FAR:
  
                    RESTRICTED RIGHTS LEGEND
  
 Use, reproduction and disclosure by the US Government is
 subject to restrictions as set forth in subparagraphs (a)
 and (c) of the Commercial Computer Software - Restricted
 Rights clause in FAR 52.227-19.
  
 Gaussian, Inc.
 340 Quinnipiac St., Bldg. 40, Wallingford CT 06492
  
  
 ---------------------------------------------------------------
 Warning -- This program may not be used in any manner that
 competes with the business of Gaussian, Inc. or will provide
 assistance to any competitor of Gaussian, Inc.  The licensee
 of this program is prohibited from giving any competitor of
 Gaussian, Inc. access to this program.  By using this program,
 the user acknowledges that Gaussian, Inc. is engaged in the
 business of creating and licensing software in the field of
 computational chemistry and represents and warrants to the
 licensee that it is not a competitor of Gaussian, Inc. and that
 it will not use this program in any manner prohibited above.
 ---------------------------------------------------------------
  

 Cite this work as:
 Gaussian 09, Revision E.01,
 M. J. Frisch, G. W. Trucks, H. B. Schlegel, G. E. Scuseria, 
 M. A. Robb, J. R. Cheeseman, G. Scalmani, V. Barone, B. Mennucci, 
 G. A. Petersson, H. Nakatsuji, M. Caricato, X. Li, H. P. Hratchian, 
 A. F. Izmaylov, J. Bloino, G. Zheng, J. L. Sonnenberg, M. Hada, 
 M. Ehara, K. Toyota, R. Fukuda, J. Hasegawa, M. Ishida, T. Nakajima, 
 Y. Honda, O. Kitao, H. Nakai, T. Vreven, J. A. Montgomery, Jr., 
 J. E. Peralta, F. Ogliaro, M. Bearpark, J. J. Heyd, E. Brothers, 
 K. N. Kudin, V. N. Staroverov, T. Keith, R. Kobayashi, J. Normand, 
 K. Raghavachari, A. Rendell, J. C. Burant, S. S. Iyengar, J. Tomasi, 
 M. Cossi, N. Rega, J. M. Millam, M. Klene, J. E. Knox, J. B. Cross, 
 V. Bakken, C. Adamo, J. Jaramillo, R. Gomperts, R. E. Stratmann, 
 O. Yazyev, A. J. Austin, R. Cammi, C. Pomelli, J. W. Ochterski, 
 R. L. Martin, K. Morokuma, V. G. Zakrzewski, G. A. Voth, 
 P. Salvador, J. J. Dannenberg, S. Dapprich, A. D. Daniels, 
 O. Farkas, J. B. Foresman, J. V. Ortiz, J. Cioslowski, 
 and D. J. Fox, Gaussian, Inc., Wallingford CT, 2013.
 
 ******************************************
 Gaussian 09:  ES64L-G09RevE.01 30-Nov-2015
                 3-May-2018 
 ******************************************
 %Mem=110GB
 %NProcShared=64
 Will use up to   64 processors via shared memory.
 %chk=snap107.chk
 ----------------------------------------------
 #p PBE1PBE/cc-pvDZ force Counterpoise=2 noSymm
 ----------------------------------------------
 1/10=7,30=1,38=1,62=2/1,3;
 2/12=2,15=1,17=6,18=5,40=1/2;
 1/10=7,30=1,38=1,53=2,62=2,63=101/22;
 3/5=16,11=2,16=1,25=1,30=1,71=1,74=-13/1,2,3;
 4//1;
 5/5=2,38=5/2;
 6/7=2,8=2,9=2,10=2,28=1/1;
 7/7=1,29=1,30=1,33=-1/1,2,3,16;
 1/10=7,30=1,53=2,62=2,63=101/22;
 3/5=7,6=11,11=2,16=1,25=1,30=1,71=1,74=-13,82=7/1,2,3;
 4//1;
 5/5=2,38=5/2;
 6/7=2,8=2,9=2,10=2,28=1/1;
 7/7=1,29=1,30=1,33=-1/1,2,3,16;
 1/10=7,30=1,53=2,62=2,63=101/22(-5);
 7/9=1,29=1,44=-1/16;
 1/10=7,30=1,62=2/3;
 99//99;
 Leave Link    1 at Thu May  3 11:21:01 2018, MaxMem= 14763950080 cpu:         8.4
 (Enter /cm/shared/gaussian/g09.e01/intel64-sandybridge/g09/l101.exe)
 --------------------------------------
 forces on chloride comput - NWATER: 32
 --------------------------------------
 Symbolic Z-matrix:
 Charge = -1 Multiplicity = 1 in supermolecule
 Charge = -1 Multiplicity = 1 in fragment      1.
 Charge =  0 Multiplicity = 1 in fragment      2.
 Br(Fragment=1)        20.       20.       20. 
 O(Fragment=2)         22.81     21.35     19.16 
 H(Fragment=2)         22.14     20.68     19.33 
 H(Fragment=2)         23.32     21.       18.43 
 O(Fragment=2)         17.32     19.92     18.38 
 H(Fragment=2)         18.06     20.41     18.73 
 H(Fragment=2)         17.62     19.02     18.35 
 O(Fragment=2)         19.32     20.83     23.02 
 H(Fragment=2)         19.71     20.95     22.15 
 H(Fragment=2)         19.76     21.47     23.57 
 O(Fragment=2)         20.3      21.21     16.69 
 H(Fragment=2)         20.45     20.94     17.59 
 H(Fragment=2)         20.17     22.16     16.74 
 O(Fragment=2)         18.85     16.91     20.7 
 H(Fragment=2)         18.78     17.78     21.1 
 H(Fragment=2)         18.86     17.08     19.75 
 O(Fragment=2)         23.09     17.68     20.44 
 H(Fragment=2)         22.46     17.05     20.79 
 H(Fragment=2)         22.56     18.4      20.1 
 O(Fragment=2)         19.68     23.81     19.24 
 H(Fragment=2)         20.35     23.15     19.44 
 H(Fragment=2)         19.09     23.79     20. 
 O(Fragment=2)         18.21     18.41     23.4 
 H(Fragment=2)         17.31     18.57     23.68 
 H(Fragment=2)         18.58     19.28     23.23 
 O(Fragment=2)         17.59     23.33     20.86 
 H(Fragment=2)         16.84     22.99     20.37 
 H(Fragment=2)         17.72     22.7      21.57 
 O(Fragment=2)         22.02     22.38     22.91 
 H(Fragment=2)         22.55     22.7      23.63 
 H(Fragment=2)         22.23     21.44     22.86 
 O(Fragment=2)         21.03     16.14     22.02 
 H(Fragment=2)         21.07     15.19     22.13 
 H(Fragment=2)         20.32     16.27     21.39 
 O(Fragment=2)         18.       17.21     17.68 
 H(Fragment=2)         17.42     16.44     17.71 
 H(Fragment=2)         18.88     16.84     17.71 
 O(Fragment=2)         16.51     21.47     22.87 
 H(Fragment=2)         17.2      20.8      22.86 
 H(Fragment=2)         16.97     22.28     23.09 
 O(Fragment=2)         19.02     18.5      15.64 
 H(Fragment=2)         19.38     19.37     15.79 
 H(Fragment=2)         18.92     18.12     16.51 
 O(Fragment=2)         20.48     16.21     17.81 
 H(Fragment=2)         21.33     16.58     18.04 
 H(Fragment=2)         20.66     15.63     17.07 
 O(Fragment=2)         23.47     19.59     22.84 
 H(Fragment=2)         24.23     19.39     23.38 
 H(Fragment=2)         23.54     19.       22.09 
 O(Fragment=2)         17.88     23.23     16.88 
 H(Fragment=2)         17.42     24.07     16.93 
 H(Fragment=2)         18.44     23.21     17.66 
 O(Fragment=2)         20.85     17.79     24.14 
 H(Fragment=2)         21.05     17.19     23.41 
 H(Fragment=2)         19.98     18.12     23.94 
 O(Fragment=2)         15.86     17.25     20.95 
 H(Fragment=2)         16.81     17.2      21.1 
 H(Fragment=2)         15.47     16.9      21.75 
 O(Fragment=2)         24.67     21.72     21.6 
 H(Fragment=2)         23.77     21.9      21.31 
 H(Fragment=2)         24.58     21.08     22.3 
 O(Fragment=2)         22.94     20.33     16. 
 H(Fragment=2)         23.26     20.57     15.13 
 H(Fragment=2)         22.05     20.68     16.03 
 O(Fragment=2)         14.92     20.3      20.24 
 H(Fragment=2)         15.5      19.54     20.26 
 H(Fragment=2)         15.48     21.03     19.96 
 O(Fragment=2)         22.38     23.95     17.2 
 H(Fragment=2)         22.56     23.15     17.7 
 H(Fragment=2)         23.07     23.99     16.55 
 O(Fragment=2)         20.8      24.96     21.71 
 H(Fragment=2)         21.26     24.14     21.9 
 H(Fragment=2)         21.27     25.33     20.96 
 O(Fragment=2)         15.77     22.69     19.08 
 H(Fragment=2)         16.31     22.58     18.3 
 H(Fragment=2)         15.06     23.27     18.79 
 O(Fragment=2)         15.87     19.94     15.62 
 H(Fragment=2)         15.95     18.99     15.57 
 H(Fragment=2)         16.4      20.2      16.37 
 O(Fragment=2)         14.85     18.27     18.18 
 H(Fragment=2)         15.23     17.92     18.98 
 H(Fragment=2)         15.34     19.07     18. 
 O(Fragment=2)         24.48     18.53     17.49 
 H(Fragment=2)         24.08     19.17     16.9 
 H(Fragment=2)         25.3      18.28     17.05 
 O(Fragment=2)         23.5      15.75     17.68 
 H(Fragment=2)         23.84     16.59     17.98 
 H(Fragment=2)         23.88     15.63     16.81 
 O(Fragment=2)         22.27     25.71     19.58 
 H(Fragment=2)         21.81     25.12     18.99 
 H(Fragment=2)         23.19     25.65     19.32 
 O(Fragment=2)         26.34     20.03     20.21 
 H(Fragment=2)         25.49     20.39     20.47 
 H(Fragment=2)         26.12     19.22     19.75 
 O(Fragment=2)         17.5      21.88     14.42 
 H(Fragment=2)         16.64     21.5      14.58 
 H(Fragment=2)         17.84     22.07     15.29 
 
 NAtoms=     97 NQM=       97 NQMF=       0 NMMI=      0 NMMIF=      0
                NMic=       0 NMicF=      0.
                    Isotopes and Nuclear Properties:
 (Nuclear quadrupole moments (NQMom) in fm**2, nuclear magnetic moments (NMagM)
  in nuclear magnetons)

  Atom         1           2           3           4           5           6           7           8           9          10
 IAtWgt=          79          16           1           1          16           1           1          16           1           1
 AtmWgt=  78.9183361  15.9949146   1.0078250   1.0078250  15.9949146   1.0078250   1.0078250  15.9949146   1.0078250   1.0078250
 NucSpn=           3           0           1           1           0           1           1           0           1           1
 AtZEff=   0.0000000   0.0000000   0.0000000   0.0000000   0.0000000   0.0000000   0.0000000   0.0000000   0.0000000   0.0000000
 NQMom=   31.3000000   0.0000000   0.0000000   0.0000000   0.0000000   0.0000000   0.0000000   0.0000000   0.0000000   0.0000000
 NMagM=    2.1063990   0.0000000   2.7928460   2.7928460   0.0000000   2.7928460   2.7928460   0.0000000   2.7928460   2.7928460
 AtZNuc=  35.0000000   8.0000000   1.0000000   1.0000000   8.0000000   1.0000000   1.0000000   8.0000000   1.0000000   1.0000000

  Atom        11          12          13          14          15          16          17          18          19          20
 IAtWgt=          16           1           1          16           1           1          16           1           1          16
 AtmWgt=  15.9949146   1.0078250   1.0078250  15.9949146   1.0078250   1.0078250  15.9949146   1.0078250   1.0078250  15.9949146
 NucSpn=           0           1           1           0           1           1           0           1           1           0
 AtZEff=   0.0000000   0.0000000   0.0000000   0.0000000   0.0000000   0.0000000   0.0000000   0.0000000   0.0000000   0.0000000
 NQMom=    0.0000000   0.0000000   0.0000000   0.0000000   0.0000000   0.0000000   0.0000000   0.0000000   0.0000000   0.0000000
 NMagM=    0.0000000   2.7928460   2.7928460   0.0000000   2.7928460   2.7928460   0.0000000   2.7928460   2.7928460   0.0000000
 AtZNuc=   8.0000000   1.0000000   1.0000000   8.0000000   1.0000000   1.0000000   8.0000000   1.0000000   1.0000000   8.0000000

  Atom        21          22          23          24          25          26          27          28          29          30
 IAtWgt=           1           1          16           1           1          16           1           1          16           1
 AtmWgt=   1.0078250   1.0078250  15.9949146   1.0078250   1.0078250  15.9949146   1.0078250   1.0078250  15.9949146   1.0078250
 NucSpn=           1           1           0           1           1           0           1           1           0           1
 AtZEff=   0.0000000   0.0000000   0.0000000   0.0000000   0.0000000   0.0000000   0.0000000   0.0000000   0.0000000   0.0000000
 NQMom=    0.0000000   0.0000000   0.0000000   0.0000000   0.0000000   0.0000000   0.0000000   0.0000000   0.0000000   0.0000000
 NMagM=    2.7928460   2.7928460   0.0000000   2.7928460   2.7928460   0.0000000   2.7928460   2.7928460   0.0000000   2.7928460
 AtZNuc=   1.0000000   1.0000000   8.0000000   1.0000000   1.0000000   8.0000000   1.0000000   1.0000000   8.0000000   1.0000000

  Atom        31          32          33          34          35          36          37          38          39          40
 IAtWgt=           1          16           1           1          16           1           1          16           1           1
 AtmWgt=   1.0078250  15.9949146   1.0078250   1.0078250  15.9949146   1.0078250   1.0078250  15.9949146   1.0078250   1.0078250
 NucSpn=           1           0           1           1           0           1           1           0           1           1
 AtZEff=   0.0000000   0.0000000   0.0000000   0.0000000   0.0000000   0.0000000   0.0000000   0.0000000   0.0000000   0.0000000
 NQMom=    0.0000000   0.0000000   0.0000000   0.0000000   0.0000000   0.0000000   0.0000000   0.0000000   0.0000000   0.0000000
 NMagM=    2.7928460   0.0000000   2.7928460   2.7928460   0.0000000   2.7928460   2.7928460   0.0000000   2.7928460   2.7928460
 AtZNuc=   1.0000000   8.0000000   1.0000000   1.0000000   8.0000000   1.0000000   1.0000000   8.0000000   1.0000000   1.0000000

  Atom        41          42          43          44          45          46          47          48          49          50
 IAtWgt=          16           1           1          16           1           1          16           1           1          16
 AtmWgt=  15.9949146   1.0078250   1.0078250  15.9949146   1.0078250   1.0078250  15.9949146   1.0078250   1.0078250  15.9949146
 NucSpn=           0           1           1           0           1           1           0           1           1           0
 AtZEff=   0.0000000   0.0000000   0.0000000   0.0000000   0.0000000   0.0000000   0.0000000   0.0000000   0.0000000   0.0000000
 NQMom=    0.0000000   0.0000000   0.0000000   0.0000000   0.0000000   0.0000000   0.0000000   0.0000000   0.0000000   0.0000000
 NMagM=    0.0000000   2.7928460   2.7928460   0.0000000   2.7928460   2.7928460   0.0000000   2.7928460   2.7928460   0.0000000
 AtZNuc=   8.0000000   1.0000000   1.0000000   8.0000000   1.0000000   1.0000000   8.0000000   1.0000000   1.0000000   8.0000000

  Atom        51          52          53          54          55          56          57          58          59          60
 IAtWgt=           1           1          16           1           1          16           1           1          16           1
 AtmWgt=   1.0078250   1.0078250  15.9949146   1.0078250   1.0078250  15.9949146   1.0078250   1.0078250  15.9949146   1.0078250
 NucSpn=           1           1           0           1           1           0           1           1           0           1
 AtZEff=   0.0000000   0.0000000   0.0000000   0.0000000   0.0000000   0.0000000   0.0000000   0.0000000   0.0000000   0.0000000
 NQMom=    0.0000000   0.0000000   0.0000000   0.0000000   0.0000000   0.0000000   0.0000000   0.0000000   0.0000000   0.0000000
 NMagM=    2.7928460   2.7928460   0.0000000   2.7928460   2.7928460   0.0000000   2.7928460   2.7928460   0.0000000   2.7928460
 AtZNuc=   1.0000000   1.0000000   8.0000000   1.0000000   1.0000000   8.0000000   1.0000000   1.0000000   8.0000000   1.0000000

  Atom        61          62          63          64          65          66          67          68          69          70
 IAtWgt=           1          16           1           1          16           1           1          16           1           1
 AtmWgt=   1.0078250  15.9949146   1.0078250   1.0078250  15.9949146   1.0078250   1.0078250  15.9949146   1.0078250   1.0078250
 NucSpn=           1           0           1           1           0           1           1           0           1           1
 AtZEff=   0.0000000   0.0000000   0.0000000   0.0000000   0.0000000   0.0000000   0.0000000   0.0000000   0.0000000   0.0000000
 NQMom=    0.0000000   0.0000000   0.0000000   0.0000000   0.0000000   0.0000000   0.0000000   0.0000000   0.0000000   0.0000000
 NMagM=    2.7928460   0.0000000   2.7928460   2.7928460   0.0000000   2.7928460   2.7928460   0.0000000   2.7928460   2.7928460
 AtZNuc=   1.0000000   8.0000000   1.0000000   1.0000000   8.0000000   1.0000000   1.0000000   8.0000000   1.0000000   1.0000000

  Atom        71          72          73          74          75          76          77          78          79          80
 IAtWgt=          16           1           1          16           1           1          16           1           1          16
 AtmWgt=  15.9949146   1.0078250   1.0078250  15.9949146   1.0078250   1.0078250  15.9949146   1.0078250   1.0078250  15.9949146
 NucSpn=           0           1           1           0           1           1           0           1           1           0
 AtZEff=   0.0000000   0.0000000   0.0000000   0.0000000   0.0000000   0.0000000   0.0000000   0.0000000   0.0000000   0.0000000
 NQMom=    0.0000000   0.0000000   0.0000000   0.0000000   0.0000000   0.0000000   0.0000000   0.0000000   0.0000000   0.0000000
 NMagM=    0.0000000   2.7928460   2.7928460   0.0000000   2.7928460   2.7928460   0.0000000   2.7928460   2.7928460   0.0000000
 AtZNuc=   8.0000000   1.0000000   1.0000000   8.0000000   1.0000000   1.0000000   8.0000000   1.0000000   1.0000000   8.0000000

  Atom        81          82          83          84          85          86          87          88          89          90
 IAtWgt=           1           1          16           1           1          16           1           1          16           1
 AtmWgt=   1.0078250   1.0078250  15.9949146   1.0078250   1.0078250  15.9949146   1.0078250   1.0078250  15.9949146   1.0078250
 NucSpn=           1           1           0           1           1           0           1           1           0           1
 AtZEff=   0.0000000   0.0000000   0.0000000   0.0000000   0.0000000   0.0000000   0.0000000   0.0000000   0.0000000   0.0000000
 NQMom=    0.0000000   0.0000000   0.0000000   0.0000000   0.0000000   0.0000000   0.0000000   0.0000000   0.0000000   0.0000000
 NMagM=    2.7928460   2.7928460   0.0000000   2.7928460   2.7928460   0.0000000   2.7928460   2.7928460   0.0000000   2.7928460
 AtZNuc=   1.0000000   1.0000000   8.0000000   1.0000000   1.0000000   8.0000000   1.0000000   1.0000000   8.0000000   1.0000000

  Atom        91          92          93          94          95          96          97
 IAtWgt=           1          16           1           1          16           1           1
 AtmWgt=   1.0078250  15.9949146   1.0078250   1.0078250  15.9949146   1.0078250   1.0078250
 NucSpn=           1           0           1           1           0           1           1
 AtZEff=   0.0000000   0.0000000   0.0000000   0.0000000   0.0000000   0.0000000   0.0000000
 NQMom=    0.0000000   0.0000000   0.0000000   0.0000000   0.0000000   0.0000000   0.0000000
 NMagM=    2.7928460   0.0000000   2.7928460   2.7928460   0.0000000   2.7928460   2.7928460
 AtZNuc=   1.0000000   8.0000000   1.0000000   1.0000000   8.0000000   1.0000000   1.0000000
 Leave Link  101 at Thu May  3 11:21:01 2018, MaxMem= 14763950080 cpu:        15.1
 (Enter /cm/shared/gaussian/g09.e01/intel64-sandybridge/g09/l103.exe)

 GradGradGradGradGradGradGradGradGradGradGradGradGradGradGradGradGradGrad
 Berny optimization.
 Initialization pass.
 Trust Radius=3.00D-01 FncErr=1.00D-07 GrdErr=1.00D-07
 Number of steps in this run=      2 maximum allowed number of steps=      2.
 GradGradGradGradGradGradGradGradGradGradGradGradGradGradGradGradGradGrad

 Leave Link  103 at Thu May  3 11:21:02 2018, MaxMem= 14763950080 cpu:         2.2
 (Enter /cm/shared/gaussian/g09.e01/intel64-sandybridge/g09/l202.exe)
 Symmetry turned off by external request.
 Stoichiometry    BrH64O32(1-)
 Framework group  C1[X(BrH64O32)]
 Deg. of freedom   285
 Full point group                 C1      NOp   1
                          Input orientation:                          
 ---------------------------------------------------------------------
 Center     Atomic      Atomic             Coordinates (Angstroms)
 Number     Number       Type             X           Y           Z
 ---------------------------------------------------------------------
      1         35           0       20.000000   20.000000   20.000000
      2          8           0       22.810000   21.350000   19.160000
      3          1           0       22.140000   20.680000   19.330000
      4          1           0       23.320000   21.000000   18.430000
      5          8           0       17.320000   19.920000   18.380000
      6          1           0       18.060000   20.410000   18.730000
      7          1           0       17.620000   19.020000   18.350000
      8          8           0       19.320000   20.830000   23.020000
      9          1           0       19.710000   20.950000   22.150000
     10          1           0       19.760000   21.470000   23.570000
     11          8           0       20.300000   21.210000   16.690000
     12          1           0       20.450000   20.940000   17.590000
     13          1           0       20.170000   22.160000   16.740000
     14          8           0       18.850000   16.910000   20.700000
     15          1           0       18.780000   17.780000   21.100000
     16          1           0       18.860000   17.080000   19.750000
     17          8           0       23.090000   17.680000   20.440000
     18          1           0       22.460000   17.050000   20.790000
     19          1           0       22.560000   18.400000   20.100000
     20          8           0       19.680000   23.810000   19.240000
     21          1           0       20.350000   23.150000   19.440000
     22          1           0       19.090000   23.790000   20.000000
     23          8           0       18.210000   18.410000   23.400000
     24          1           0       17.310000   18.570000   23.680000
     25          1           0       18.580000   19.280000   23.230000
     26          8           0       17.590000   23.330000   20.860000
     27          1           0       16.840000   22.990000   20.370000
     28          1           0       17.720000   22.700000   21.570000
     29          8           0       22.020000   22.380000   22.910000
     30          1           0       22.550000   22.700000   23.630000
     31          1           0       22.230000   21.440000   22.860000
     32          8           0       21.030000   16.140000   22.020000
     33          1           0       21.070000   15.190000   22.130000
     34          1           0       20.320000   16.270000   21.390000
     35          8           0       18.000000   17.210000   17.680000
     36          1           0       17.420000   16.440000   17.710000
     37          1           0       18.880000   16.840000   17.710000
     38          8           0       16.510000   21.470000   22.870000
     39          1           0       17.200000   20.800000   22.860000
     40          1           0       16.970000   22.280000   23.090000
     41          8           0       19.020000   18.500000   15.640000
     42          1           0       19.380000   19.370000   15.790000
     43          1           0       18.920000   18.120000   16.510000
     44          8           0       20.480000   16.210000   17.810000
     45          1           0       21.330000   16.580000   18.040000
     46          1           0       20.660000   15.630000   17.070000
     47          8           0       23.470000   19.590000   22.840000
     48          1           0       24.230000   19.390000   23.380000
     49          1           0       23.540000   19.000000   22.090000
     50          8           0       17.880000   23.230000   16.880000
     51          1           0       17.420000   24.070000   16.930000
     52          1           0       18.440000   23.210000   17.660000
     53          8           0       20.850000   17.790000   24.140000
     54          1           0       21.050000   17.190000   23.410000
     55          1           0       19.980000   18.120000   23.940000
     56          8           0       15.860000   17.250000   20.950000
     57          1           0       16.810000   17.200000   21.100000
     58          1           0       15.470000   16.900000   21.750000
     59          8           0       24.670000   21.720000   21.600000
     60          1           0       23.770000   21.900000   21.310000
     61          1           0       24.580000   21.080000   22.300000
     62          8           0       22.940000   20.330000   16.000000
     63          1           0       23.260000   20.570000   15.130000
     64          1           0       22.050000   20.680000   16.030000
     65          8           0       14.920000   20.300000   20.240000
     66          1           0       15.500000   19.540000   20.260000
     67          1           0       15.480000   21.030000   19.960000
     68          8           0       22.380000   23.950000   17.200000
     69          1           0       22.560000   23.150000   17.700000
     70          1           0       23.070000   23.990000   16.550000
     71          8           0       20.800000   24.960000   21.710000
     72          1           0       21.260000   24.140000   21.900000
     73          1           0       21.270000   25.330000   20.960000
     74          8           0       15.770000   22.690000   19.080000
     75          1           0       16.310000   22.580000   18.300000
     76          1           0       15.060000   23.270000   18.790000
     77          8           0       15.870000   19.940000   15.620000
     78          1           0       15.950000   18.990000   15.570000
     79          1           0       16.400000   20.200000   16.370000
     80          8           0       14.850000   18.270000   18.180000
     81          1           0       15.230000   17.920000   18.980000
     82          1           0       15.340000   19.070000   18.000000
     83          8           0       24.480000   18.530000   17.490000
     84          1           0       24.080000   19.170000   16.900000
     85          1           0       25.300000   18.280000   17.050000
     86          8           0       23.500000   15.750000   17.680000
     87          1           0       23.840000   16.590000   17.980000
     88          1           0       23.880000   15.630000   16.810000
     89          8           0       22.270000   25.710000   19.580000
     90          1           0       21.810000   25.120000   18.990000
     91          1           0       23.190000   25.650000   19.320000
     92          8           0       26.340000   20.030000   20.210000
     93          1           0       25.490000   20.390000   20.470000
     94          1           0       26.120000   19.220000   19.750000
     95          8           0       17.500000   21.880000   14.420000
     96          1           0       16.640000   21.500000   14.580000
     97          1           0       17.840000   22.070000   15.290000
 ---------------------------------------------------------------------
 Rotational constants (GHZ):      0.0653572      0.0551573      0.0526095
 Leave Link  202 at Thu May  3 11:21:02 2018, MaxMem= 14763950080 cpu:         0.6
 (Enter /cm/shared/gaussian/g09.e01/intel64-sandybridge/g09/l122.exe)
 Counterpoise: doing full dimer calculation.
 Leave Link  122 at Thu May  3 11:21:02 2018, MaxMem= 14763950080 cpu:         0.0
 (Enter /cm/shared/gaussian/g09.e01/intel64-sandybridge/g09/l301.exe)
 Standard basis: CC-pVDZ (5D, 7F)
 Ernie: Thresh=  0.10000D-02 Tol=  0.10000D-05 Strict=F.
 Ernie:  87 primitive shells out of 1114 were deleted.
   795 basis functions,  1651 primitive gaussians,   829 cartesian basis functions
   178 alpha electrons      178 beta electrons
       nuclear repulsion energy      6224.0076656038 Hartrees.
 IExCor= 1009 DFT=T Ex+Corr=PBE1PBE ExCW=0 ScaHFX=  0.250000
 ScaDFX=  0.750000  0.750000  1.000000  1.000000 ScalE2=  1.000000  1.000000
 IRadAn=      0 IRanWt=     -1 IRanGd=            0 ICorTp=0 IEmpDi=  4
 NAtoms=   97 NActive=   97 NUniq=   97 SFac= 1.00D+00 NAtFMM=   60 NAOKFM=T Big=T
 Integral buffers will be    131072 words long.
 Raffenetti 2 integral format.
 Two-electron integral symmetry is turned off.
 Leave Link  301 at Thu May  3 11:21:02 2018, MaxMem= 14763950080 cpu:         6.5
 (Enter /cm/shared/gaussian/g09.e01/intel64-sandybridge/g09/l302.exe)
 NPDir=0 NMtPBC=     1 NCelOv=     1 NCel=       1 NClECP=     1 NCelD=      1
         NCelK=      1 NCelE2=     1 NClLst=     1 CellRange=     0.0.
 One-electron integrals computed using PRISM.
 NBasis=   795 RedAO= T EigKep=  1.44D-02  NBF=   795
 NBsUse=   795 1.00D-06 EigRej= -1.00D+00 NBFU=   795
 Precomputing XC quadrature grid using
 IXCGrd= 4 IRadAn=           0 IRanWt=          -1 IRanGd=           0 AccXCQ= 0.00D+00.
 Generated NRdTot=       0 NPtTot=           0 NUsed=           0 NTot=          32
 NSgBfM=   742   752   752   752   752 MxSgAt=    97 MxSgA2=    97.
 Leave Link  302 at Thu May  3 11:21:08 2018, MaxMem= 14763950080 cpu:       420.1
 (Enter /cm/shared/gaussian/g09.e01/intel64-sandybridge/g09/l303.exe)
 DipDrv:  MaxL=1.
 Leave Link  303 at Thu May  3 11:21:09 2018, MaxMem= 14763950080 cpu:        31.2
 (Enter /cm/shared/gaussian/g09.e01/intel64-sandybridge/g09/l401.exe)
 ExpMin= 1.22D-01 ExpMax= 6.40D+05 ExpMxC= 6.18D+03 IAcc=2 IRadAn=         4 AccDes= 0.00D+00
 Harris functional with IExCor= 1009 and IRadAn=       4 diagonalized for initial guess.
 HarFok:  IExCor= 1009 AccDes= 0.00D+00 IRadAn=         4 IDoV= 1 UseB2=F ITyADJ=14
 ICtDFT=  3500011 ScaDFX=  1.000000  1.000000  1.000000  1.000000
 FoFCou: FMM=F IPFlag=           0 FMFlag=      100000 FMFlg1=        2001
         NFxFlg=           0 DoJE=T BraDBF=F KetDBF=T FulRan=T
         wScrn=  0.000000 ICntrl=     500 IOpCl=  0 I1Cent=   200000004 NGrid=           0
         NMat0=    1 NMatS0=      1 NMatT0=    0 NMatD0=    1 NMtDS0=    0 NMtDT0=    0
 Symmetry not used in FoFCou.
 Harris En= -5018.44572450951    
 JPrj=0 DoOrth=F DoCkMO=F.
 Leave Link  401 at Thu May  3 11:21:14 2018, MaxMem= 14763950080 cpu:       334.9
 (Enter /cm/shared/gaussian/g09.e01/intel64-sandybridge/g09/l502.exe)
 Closed shell SCF:
 Using DIIS extrapolation, IDIIS=  1040.
 Two-electron integral symmetry not used.
 IVT=     2138497 IEndB=     2138497 NGot= 14763950080 MDV= 14762516294
 LenX= 14762516294 LenY= 14761828224
 Requested convergence on RMS density matrix=1.00D-08 within 128 cycles.
 Requested convergence on MAX density matrix=1.00D-06.
 Requested convergence on             energy=1.00D-06.
 No special actions if energy rises.
 Fock matrices will be formed incrementally for  20 cycles.
 Integral accuracy reduced to 1.0D-05 until final iterations.

 Cycle   1  Pass 0  IDiag  1:
 FoFJK:  IHMeth= 1 ICntrl=       0 DoSepK=F KAlg= 0 I1Cent=   0 FoldK=F
 IRaf= 840000000 NMat=   1 IRICut=       1 DoRegI=T DoRafI=F ISym2E= 0.
 FoFCou: FMM=T IPFlag=           0 FMFlag=      100000 FMFlg1=        2001
         NFxFlg=           0 DoJE=F BraDBF=F KetDBF=F FulRan=T
         wScrn=  0.000000 ICntrl=       0 IOpCl=  0 I1Cent=           0 NGrid=           0
         NMat0=    1 NMatS0=      1 NMatT0=    0 NMatD0=    1 NMtDS0=    0 NMtDT0=    0
 Symmetry not used in FoFCou.
 FMM levels:  10  Number of levels for PrismC:   9
 E= -5015.39722070731    
 DIIS: error= 2.81D-02 at cycle   1 NSaved=   1.
 NSaved= 1 IEnMin= 1 EnMin= -5015.39722070731     IErMin= 1 ErrMin= 2.81D-02
 ErrMax= 2.81D-02  0.00D+00 EMaxC= 1.00D-01 BMatC= 2.65D+00 BMatP= 2.65D+00
 IDIUse=3 WtCom= 7.19D-01 WtEn= 2.81D-01
 Coeff-Com:  0.100D+01
 Coeff-En:   0.100D+01
 Coeff:      0.100D+01
 Gap=     0.293 Goal=   None    Shift=    0.000
 GapD=    0.293 DampG=1.000 DampE=0.500 DampFc=0.5000 IDamp=-1.
 Damping current iteration by 5.00D-01
 RMSDP=2.81D-03 MaxDP=1.58D-01              OVMax= 1.73D-01

 Cycle   2  Pass 0  IDiag  1:
 RMSU=  1.39D-03    CP:  9.85D-01
 E= -5016.17428324290     Delta-E=       -0.777062535593 Rises=F Damp=T
 DIIS: error= 7.15D-03 at cycle   2 NSaved=   2.
 NSaved= 2 IEnMin= 2 EnMin= -5016.17428324290     IErMin= 2 ErrMin= 7.15D-03
 ErrMax= 7.15D-03  0.00D+00 EMaxC= 1.00D-01 BMatC= 8.37D-02 BMatP= 2.65D+00
 IDIUse=3 WtCom= 9.29D-01 WtEn= 7.15D-02
 Coeff-Com:  0.118D+00 0.882D+00
 Coeff-En:   0.211D+00 0.789D+00
 Coeff:      0.125D+00 0.875D+00
 Gap=     0.214 Goal=   None    Shift=    0.000
 RMSDP=3.45D-04 MaxDP=1.84D-02 DE=-7.77D-01 OVMax= 1.00D-01

 Cycle   3  Pass 0  IDiag  1:
 RMSU=  2.76D-04    CP:  9.87D-01  8.53D-01
 E= -5017.29269672919     Delta-E=       -1.118413486287 Rises=F Damp=F
 DIIS: error= 1.23D-03 at cycle   3 NSaved=   3.
 NSaved= 3 IEnMin= 3 EnMin= -5017.29269672919     IErMin= 3 ErrMin= 1.23D-03
 ErrMax= 1.23D-03  0.00D+00 EMaxC= 1.00D-01 BMatC= 2.03D-03 BMatP= 8.37D-02
 IDIUse=3 WtCom= 9.88D-01 WtEn= 1.23D-02
 Coeff-Com:  0.915D-02 0.768D-01 0.914D+00
 Coeff-En:   0.000D+00 0.000D+00 0.100D+01
 Coeff:      0.904D-02 0.758D-01 0.915D+00
 Gap=     0.223 Goal=   None    Shift=    0.000
 RMSDP=1.00D-04 MaxDP=1.50D-02 DE=-1.12D+00 OVMax= 1.91D-02

 Cycle   4  Pass 0  IDiag  1:
 RMSU=  8.83D-05    CP:  9.87D-01  8.54D-01  8.29D-01
 E= -5017.29300633011     Delta-E=       -0.000309600922 Rises=F Damp=F
 DIIS: error= 1.03D-03 at cycle   4 NSaved=   4.
 NSaved= 4 IEnMin= 4 EnMin= -5017.29300633011     IErMin= 4 ErrMin= 1.03D-03
 ErrMax= 1.03D-03  0.00D+00 EMaxC= 1.00D-01 BMatC= 2.14D-03 BMatP= 2.03D-03
 IDIUse=3 WtCom= 9.90D-01 WtEn= 1.03D-02
 Coeff-Com:  0.153D-02 0.943D-02 0.504D+00 0.485D+00
 Coeff-En:   0.000D+00 0.000D+00 0.458D+00 0.542D+00
 Coeff:      0.151D-02 0.934D-02 0.504D+00 0.485D+00
 Gap=     0.224 Goal=   None    Shift=    0.000
 RMSDP=4.47D-05 MaxDP=5.52D-03 DE=-3.10D-04 OVMax= 6.91D-03

 Cycle   5  Pass 0  IDiag  1:
 RMSU=  1.73D-05    CP:  9.87D-01  8.53D-01  8.96D-01  5.83D-01
 E= -5017.29467434038     Delta-E=       -0.001668010264 Rises=F Damp=F
 DIIS: error= 1.12D-04 at cycle   5 NSaved=   5.
 NSaved= 5 IEnMin= 5 EnMin= -5017.29467434038     IErMin= 5 ErrMin= 1.12D-04
 ErrMax= 1.12D-04  0.00D+00 EMaxC= 1.00D-01 BMatC= 3.51D-05 BMatP= 2.03D-03
 IDIUse=3 WtCom= 9.99D-01 WtEn= 1.12D-03
 Coeff-Com:  0.496D-03-0.764D-03 0.145D+00 0.172D+00 0.683D+00
 Coeff-En:   0.000D+00 0.000D+00 0.000D+00 0.000D+00 0.100D+01
 Coeff:      0.495D-03-0.763D-03 0.145D+00 0.172D+00 0.683D+00
 Gap=     0.224 Goal=   None    Shift=    0.000
 RMSDP=8.45D-06 MaxDP=1.31D-03 DE=-1.67D-03 OVMax= 1.46D-03

 Cycle   6  Pass 0  IDiag  1:
 RMSU=  5.48D-06    CP:  9.87D-01  8.52D-01  9.07D-01  5.65D-01  6.88D-01
 E= -5017.29470364710     Delta-E=       -0.000029306724 Rises=F Damp=F
 DIIS: error= 9.19D-05 at cycle   6 NSaved=   6.
 NSaved= 6 IEnMin= 6 EnMin= -5017.29470364710     IErMin= 6 ErrMin= 9.19D-05
 ErrMax= 9.19D-05  0.00D+00 EMaxC= 1.00D-01 BMatC= 3.89D-06 BMatP= 3.51D-05
 IDIUse=1 WtCom= 1.00D+00 WtEn= 0.00D+00
 Coeff-Com:  0.675D-04-0.178D-02 0.322D-01 0.405D-01 0.282D+00 0.647D+00
 Coeff:      0.675D-04-0.178D-02 0.322D-01 0.405D-01 0.282D+00 0.647D+00
 Gap=     0.224 Goal=   None    Shift=    0.000
 RMSDP=2.43D-06 MaxDP=4.77D-04 DE=-2.93D-05 OVMax= 4.35D-04

 Initial convergence to 1.0D-05 achieved.  Increase integral accuracy.
 Cycle   7  Pass 1  IDiag  1:
 E= -5017.29562241320     Delta-E=       -0.000918766096 Rises=F Damp=F
 DIIS: error= 3.46D-05 at cycle   1 NSaved=   1.
 NSaved= 1 IEnMin= 1 EnMin= -5017.29562241320     IErMin= 1 ErrMin= 3.46D-05
 ErrMax= 3.46D-05  0.00D+00 EMaxC= 1.00D-01 BMatC= 1.73D-06 BMatP= 1.73D-06
 IDIUse=1 WtCom= 1.00D+00 WtEn= 0.00D+00
 Coeff-Com:  0.100D+01
 Coeff:      0.100D+01
 Gap=     0.224 Goal=   None    Shift=    0.000
 RMSDP=2.43D-06 MaxDP=4.77D-04 DE=-9.19D-04 OVMax= 2.81D-04

 Cycle   8  Pass 1  IDiag  1:
 RMSU=  4.70D-06    CP:  1.00D+00
 E= -5017.29562408928     Delta-E=       -0.000001676084 Rises=F Damp=F
 DIIS: error= 1.45D-05 at cycle   2 NSaved=   2.
 NSaved= 2 IEnMin= 2 EnMin= -5017.29562408928     IErMin= 2 ErrMin= 1.45D-05
 ErrMax= 1.45D-05  0.00D+00 EMaxC= 1.00D-01 BMatC= 3.05D-07 BMatP= 1.73D-06
 IDIUse=1 WtCom= 1.00D+00 WtEn= 0.00D+00
 Coeff-Com:  0.212D+00 0.788D+00
 Coeff:      0.212D+00 0.788D+00
 Gap=     0.224 Goal=   None    Shift=    0.000
 RMSDP=9.01D-07 MaxDP=1.32D-04 DE=-1.68D-06 OVMax= 1.37D-04

 Cycle   9  Pass 1  IDiag  1:
 RMSU=  8.97D-07    CP:  1.00D+00  9.81D-01
 E= -5017.29562418778     Delta-E=       -0.000000098495 Rises=F Damp=F
 DIIS: error= 1.08D-05 at cycle   3 NSaved=   3.
 NSaved= 3 IEnMin= 3 EnMin= -5017.29562418778     IErMin= 3 ErrMin= 1.08D-05
 ErrMax= 1.08D-05  0.00D+00 EMaxC= 1.00D-01 BMatC= 1.96D-07 BMatP= 3.05D-07
 IDIUse=1 WtCom= 1.00D+00 WtEn= 0.00D+00
 Coeff-Com: -0.305D-02 0.444D+00 0.559D+00
 Coeff:     -0.305D-02 0.444D+00 0.559D+00
 Gap=     0.224 Goal=   None    Shift=    0.000
 RMSDP=3.68D-07 MaxDP=3.48D-05 DE=-9.85D-08 OVMax= 3.48D-05

 Cycle  10  Pass 1  IDiag  1:
 RMSU=  1.52D-07    CP:  1.00D+00  1.00D+00  6.45D-01
 E= -5017.29562432833     Delta-E=       -0.000000140557 Rises=F Damp=F
 DIIS: error= 2.34D-06 at cycle   4 NSaved=   4.
 NSaved= 4 IEnMin= 4 EnMin= -5017.29562432833     IErMin= 4 ErrMin= 2.34D-06
 ErrMax= 2.34D-06  0.00D+00 EMaxC= 1.00D-01 BMatC= 2.94D-09 BMatP= 1.96D-07
 IDIUse=1 WtCom= 1.00D+00 WtEn= 0.00D+00
 Coeff-Com: -0.514D-02 0.202D+00 0.271D+00 0.531D+00
 Coeff:     -0.514D-02 0.202D+00 0.271D+00 0.531D+00
 Gap=     0.224 Goal=   None    Shift=    0.000
 RMSDP=7.18D-08 MaxDP=1.49D-05 DE=-1.41D-07 OVMax= 1.44D-05

 Cycle  11  Pass 1  IDiag  1:
 RMSU=  3.69D-08    CP:  1.00D+00  1.00D+00  6.22D-01  6.26D-01
 E= -5017.29562433119     Delta-E=       -0.000000002856 Rises=F Damp=F
 DIIS: error= 1.72D-07 at cycle   5 NSaved=   5.
 NSaved= 5 IEnMin= 5 EnMin= -5017.29562433119     IErMin= 5 ErrMin= 1.72D-07
 ErrMax= 1.72D-07  0.00D+00 EMaxC= 1.00D-01 BMatC= 5.40D-11 BMatP= 2.94D-09
 IDIUse=1 WtCom= 1.00D+00 WtEn= 0.00D+00
 Coeff-Com: -0.169D-02 0.559D-01 0.754D-01 0.180D+00 0.690D+00
 Coeff:     -0.169D-02 0.559D-01 0.754D-01 0.180D+00 0.690D+00
 Gap=     0.224 Goal=   None    Shift=    0.000
 RMSDP=9.38D-09 MaxDP=9.59D-07 DE=-2.86D-09 OVMax= 1.14D-06

 SCF Done:  E(RPBE1PBE) =  -5017.29562433     A.U. after   11 cycles
            NFock= 11  Conv=0.94D-08     -V/T= 2.0028
 KE= 5.003078880730D+03 PE=-2.441708689416D+04 EE= 8.172704723493D+03
 Leave Link  502 at Thu May  3 11:23:39 2018, MaxMem= 14763950080 cpu:      9186.7
 (Enter /cm/shared/gaussian/g09.e01/intel64-sandybridge/g09/l601.exe)
 Copying SCF densities to generalized density rwf, IOpCl= 0 IROHF=0.

 **********************************************************************

            Population analysis using the SCF density.

 **********************************************************************

 Alpha  occ. eigenvalues -- -483.13530 -62.53795 -56.31046 -56.31028 -56.31023
 Alpha  occ. eigenvalues --  -19.16434 -19.16256 -19.15496 -19.15166 -19.15129
 Alpha  occ. eigenvalues --  -19.15053 -19.14983 -19.14823 -19.14692 -19.14594
 Alpha  occ. eigenvalues --  -19.14590 -19.14451 -19.14170 -19.13733 -19.13727
 Alpha  occ. eigenvalues --  -19.13127 -19.13067 -19.12846 -19.12010 -19.11606
 Alpha  occ. eigenvalues --  -19.10559 -19.10144 -19.09971 -19.09780 -19.08977
 Alpha  occ. eigenvalues --  -19.08361 -19.06794 -19.06393 -19.05545 -19.05221
 Alpha  occ. eigenvalues --  -19.04733 -19.04266  -8.64064  -6.44429  -6.44362
 Alpha  occ. eigenvalues --   -6.44327  -2.52696  -2.52685  -2.52656  -2.52600
 Alpha  occ. eigenvalues --   -2.52598  -0.99312  -0.99033  -0.98277  -0.97978
 Alpha  occ. eigenvalues --   -0.97615  -0.97550  -0.97479  -0.97398  -0.97379
 Alpha  occ. eigenvalues --   -0.97121  -0.96731  -0.96536  -0.96423  -0.96137
 Alpha  occ. eigenvalues --   -0.95859  -0.95330  -0.95239  -0.95180  -0.94762
 Alpha  occ. eigenvalues --   -0.94223  -0.93253  -0.92953  -0.92923  -0.91664
 Alpha  occ. eigenvalues --   -0.91556  -0.90919  -0.89709  -0.89158  -0.88246
 Alpha  occ. eigenvalues --   -0.88146  -0.87277  -0.87227  -0.63218  -0.49715
 Alpha  occ. eigenvalues --   -0.49524  -0.49034  -0.48450  -0.48202  -0.48142
 Alpha  occ. eigenvalues --   -0.48029  -0.47855  -0.47715  -0.47690  -0.47230
 Alpha  occ. eigenvalues --   -0.47113  -0.46781  -0.46729  -0.46577  -0.46237
 Alpha  occ. eigenvalues --   -0.45794  -0.45630  -0.45464  -0.45399  -0.44170
 Alpha  occ. eigenvalues --   -0.44114  -0.43845  -0.43103  -0.42472  -0.41734
 Alpha  occ. eigenvalues --   -0.41142  -0.40417  -0.40043  -0.39916  -0.39706
 Alpha  occ. eigenvalues --   -0.39266  -0.37116  -0.36820  -0.36250  -0.35104
 Alpha  occ. eigenvalues --   -0.34789  -0.34455  -0.34241  -0.33865  -0.33651
 Alpha  occ. eigenvalues --   -0.33237  -0.33009  -0.32639  -0.32577  -0.32473
 Alpha  occ. eigenvalues --   -0.31993  -0.31747  -0.31487  -0.30813  -0.30667
 Alpha  occ. eigenvalues --   -0.30447  -0.30201  -0.30110  -0.29810  -0.28157
 Alpha  occ. eigenvalues --   -0.27773  -0.27771  -0.27489  -0.27389  -0.26916
 Alpha  occ. eigenvalues --   -0.26583  -0.26217  -0.25978  -0.25901  -0.25788
 Alpha  occ. eigenvalues --   -0.25668  -0.25470  -0.25298  -0.25149  -0.25020
 Alpha  occ. eigenvalues --   -0.24947  -0.24821  -0.24601  -0.24497  -0.24430
 Alpha  occ. eigenvalues --   -0.24253  -0.24236  -0.23986  -0.23753  -0.23303
 Alpha  occ. eigenvalues --   -0.22487  -0.22183  -0.22091  -0.21809  -0.21341
 Alpha  occ. eigenvalues --   -0.21008  -0.20493  -0.19939  -0.19548  -0.18575
 Alpha  occ. eigenvalues --   -0.18083  -0.17932  -0.17897  -0.17798  -0.16588
 Alpha  occ. eigenvalues --   -0.16289  -0.15886  -0.15043
 Alpha virt. eigenvalues --    0.07315   0.09885   0.10088   0.11174   0.11944
 Alpha virt. eigenvalues --    0.12365   0.13533   0.14036   0.14500   0.15093
 Alpha virt. eigenvalues --    0.15690   0.15937   0.16761   0.17680   0.18103
 Alpha virt. eigenvalues --    0.18520   0.18938   0.19076   0.19124   0.20175
 Alpha virt. eigenvalues --    0.20648   0.21009   0.21171   0.21923   0.23187
 Alpha virt. eigenvalues --    0.23443   0.24146   0.24687   0.25322   0.25696
 Alpha virt. eigenvalues --    0.25814   0.26207   0.26590   0.26899   0.27614
 Alpha virt. eigenvalues --    0.27684   0.28461   0.28555   0.28877   0.29241
 Alpha virt. eigenvalues --    0.29435   0.29674   0.29917   0.30491   0.31213
 Alpha virt. eigenvalues --    0.31476   0.31766   0.32278   0.33044   0.33320
 Alpha virt. eigenvalues --    0.33840   0.34365   0.34881   0.35014   0.35627
 Alpha virt. eigenvalues --    0.36101   0.36861   0.37788   0.38159   0.38752
 Alpha virt. eigenvalues --    0.39420   0.40668   0.42599   0.43372   0.58864
 Alpha virt. eigenvalues --    0.59435   0.60297   0.60625   0.61249   0.61489
 Alpha virt. eigenvalues --    0.61768   0.62450   0.62695   0.63245   0.63700
 Alpha virt. eigenvalues --    0.63823   0.64202   0.64508   0.64626   0.65027
 Alpha virt. eigenvalues --    0.65477   0.65742   0.66097   0.66307   0.66502
 Alpha virt. eigenvalues --    0.66909   0.67340   0.67510   0.67824   0.67994
 Alpha virt. eigenvalues --    0.68344   0.68793   0.69160   0.69289   0.69506
 Alpha virt. eigenvalues --    0.69609   0.70068   0.70669   0.71016   0.71663
 Alpha virt. eigenvalues --    0.71857   0.71880   0.72100   0.72445   0.72611
 Alpha virt. eigenvalues --    0.73150   0.73552   0.73862   0.74211   0.74796
 Alpha virt. eigenvalues --    0.75359   0.75916   0.76005   0.76303   0.76965
 Alpha virt. eigenvalues --    0.77062   0.77591   0.77661   0.78552   0.79150
 Alpha virt. eigenvalues --    0.79475   0.79562   0.80333   0.80441   0.80979
 Alpha virt. eigenvalues --    0.81461   0.82397   0.83186   0.83281   0.83999
 Alpha virt. eigenvalues --    0.84698   0.85110   0.86802   0.87124   0.88809
 Alpha virt. eigenvalues --    0.89730   0.91607   0.92926   0.94694   0.95238
 Alpha virt. eigenvalues --    0.95990   0.96261   0.96838   0.97324   0.97891
 Alpha virt. eigenvalues --    0.97916   0.98441   0.98627   0.99152   0.99821
 Alpha virt. eigenvalues --    0.99982   1.00503   1.01045   1.01204   1.01472
 Alpha virt. eigenvalues --    1.01749   1.01865   1.02382   1.02522   1.02851
 Alpha virt. eigenvalues --    1.02973   1.03600   1.03932   1.04383   1.04638
 Alpha virt. eigenvalues --    1.04818   1.05124   1.05575   1.05708   1.06106
 Alpha virt. eigenvalues --    1.06561   1.07045   1.07293   1.07584   1.07765
 Alpha virt. eigenvalues --    1.08173   1.08377   1.08810   1.09345   1.09709
 Alpha virt. eigenvalues --    1.09886   1.10054   1.10566   1.10935   1.11204
 Alpha virt. eigenvalues --    1.11695   1.11884   1.12054   1.12366   1.12431
 Alpha virt. eigenvalues --    1.12790   1.13383   1.13676   1.13707   1.14178
 Alpha virt. eigenvalues --    1.14426   1.14793   1.14824   1.15337   1.15456
 Alpha virt. eigenvalues --    1.16233   1.16516   1.17148   1.17336   1.17391
 Alpha virt. eigenvalues --    1.17678   1.18289   1.18420   1.18996   1.19587
 Alpha virt. eigenvalues --    1.19756   1.20149   1.20251   1.20854   1.21090
 Alpha virt. eigenvalues --    1.21621   1.21846   1.21897   1.22407   1.23166
 Alpha virt. eigenvalues --    1.23276   1.23738   1.24405   1.24725   1.25250
 Alpha virt. eigenvalues --    1.25708   1.26155   1.26420   1.26690   1.27377
 Alpha virt. eigenvalues --    1.27432   1.27903   1.28115   1.28692   1.29216
 Alpha virt. eigenvalues --    1.29495   1.29973   1.30080   1.30226   1.30425
 Alpha virt. eigenvalues --    1.30848   1.31151   1.31511   1.32025   1.32272
 Alpha virt. eigenvalues --    1.32397   1.32655   1.32853   1.33374   1.33510
 Alpha virt. eigenvalues --    1.34010   1.34079   1.34273   1.34636   1.35043
 Alpha virt. eigenvalues --    1.35190   1.35248   1.35503   1.36193   1.36441
 Alpha virt. eigenvalues --    1.36722   1.37242   1.37352   1.37713   1.37806
 Alpha virt. eigenvalues --    1.38399   1.38661   1.38771   1.39257   1.39441
 Alpha virt. eigenvalues --    1.40204   1.40378   1.40865   1.41389   1.42105
 Alpha virt. eigenvalues --    1.42631   1.42684   1.43008   1.43577   1.43709
 Alpha virt. eigenvalues --    1.44153   1.44637   1.45311   1.45373   1.45810
 Alpha virt. eigenvalues --    1.46146   1.46436   1.46660   1.47206   1.47410
 Alpha virt. eigenvalues --    1.47868   1.48439   1.49465   1.50116   1.50723
 Alpha virt. eigenvalues --    1.51507   1.51732   1.52314   1.52919   1.53108
 Alpha virt. eigenvalues --    1.53688   1.53881   1.54432   1.54573   1.54937
 Alpha virt. eigenvalues --    1.55210   1.56334   1.56426   1.56601   1.57369
 Alpha virt. eigenvalues --    1.57764   1.58243   1.58642   1.58981   1.59257
 Alpha virt. eigenvalues --    1.59438   1.59963   1.60590   1.61785   1.62196
 Alpha virt. eigenvalues --    1.62681   1.62922   1.64301   1.65544   1.65997
 Alpha virt. eigenvalues --    1.66563   1.67464   1.67652   1.69769   1.70000
 Alpha virt. eigenvalues --    1.70694   1.71345   1.71641   1.72157   1.72403
 Alpha virt. eigenvalues --    1.72572   1.73465   1.73744   1.74232   1.74330
 Alpha virt. eigenvalues --    1.75049   1.75287   1.75867   1.76060   1.76390
 Alpha virt. eigenvalues --    1.77260   1.77507   1.77900   1.78424   1.78852
 Alpha virt. eigenvalues --    1.79619   1.80067   1.80531   1.80696   1.81185
 Alpha virt. eigenvalues --    1.81496   1.82465   1.82715   1.83586   1.83790
 Alpha virt. eigenvalues --    1.84492   1.84884   1.85112   1.86238   1.87135
 Alpha virt. eigenvalues --    1.87641   1.87904   1.88270   1.88622   1.89015
 Alpha virt. eigenvalues --    1.89862   1.90052   1.90532   1.91346   1.91827
 Alpha virt. eigenvalues --    1.92307   1.92848   1.93431   1.94592   1.94636
 Alpha virt. eigenvalues --    1.95229   1.96338   1.96507   1.97067   1.97770
 Alpha virt. eigenvalues --    1.98514   1.99270   2.00322   2.01124   2.02330
 Alpha virt. eigenvalues --    2.02827   2.07765   2.09355   2.18967   2.19494
 Alpha virt. eigenvalues --    2.20374   2.20533   2.20640   2.21025   2.21461
 Alpha virt. eigenvalues --    2.22076   2.22371   2.22412   2.22578   2.23062
 Alpha virt. eigenvalues --    2.23277   2.23359   2.23767   2.24256   2.24497
 Alpha virt. eigenvalues --    2.25123   2.25388   2.25882   2.26051   2.26709
 Alpha virt. eigenvalues --    2.27144   2.27379   2.27753   2.28096   2.28300
 Alpha virt. eigenvalues --    2.28444   2.28679   2.28874   2.29452   2.30181
 Alpha virt. eigenvalues --    2.30516   2.30744   2.31677   2.31918   2.32408
 Alpha virt. eigenvalues --    2.32811   2.33092   2.33753   2.34343   2.36389
 Alpha virt. eigenvalues --    2.36810   2.37183   2.37432   2.37572   2.37834
 Alpha virt. eigenvalues --    2.38436   2.39454   2.41746   2.41886   2.44187
 Alpha virt. eigenvalues --    2.46353   2.46636   2.48751   2.49668   2.50988
 Alpha virt. eigenvalues --    2.51336   2.56049   2.56804   2.60656   2.61891
 Alpha virt. eigenvalues --    2.63860   2.65569   2.96277   2.96548   2.98038
 Alpha virt. eigenvalues --    2.98463   2.98606   2.98610   2.98639   2.99301
 Alpha virt. eigenvalues --    2.99508   2.99574   2.99584   2.99746   3.00115
 Alpha virt. eigenvalues --    3.00272   3.01216   3.01485   3.01703   3.01966
 Alpha virt. eigenvalues --    3.02128   3.02511   3.02911   3.03205   3.03267
 Alpha virt. eigenvalues --    3.03328   3.03379   3.03456   3.03522   3.03922
 Alpha virt. eigenvalues --    3.04116   3.04276   3.04357   3.04395   3.04507
 Alpha virt. eigenvalues --    3.04599   3.04626   3.04758   3.04823   3.05087
 Alpha virt. eigenvalues --    3.05141   3.05384   3.05468   3.06134   3.06395
 Alpha virt. eigenvalues --    3.06971   3.07673   3.08199   3.08461   3.08999
 Alpha virt. eigenvalues --    3.09357   3.09613   3.09780   3.09985   3.10238
 Alpha virt. eigenvalues --    3.10439   3.11302   3.11428   3.12585   3.13216
 Alpha virt. eigenvalues --    3.14064   3.14442   3.14456   3.14698   3.15117
 Alpha virt. eigenvalues --    3.16411   3.19623   3.20224   3.20513   3.20696
 Alpha virt. eigenvalues --    3.20928   3.21209   3.21313   3.21830   3.22345
 Alpha virt. eigenvalues --    3.22794   3.22961   3.23231   3.23374   3.23634
 Alpha virt. eigenvalues --    3.23993   3.24345   3.25062   3.26010   3.26268
 Alpha virt. eigenvalues --    3.26284   3.26453   3.26837   3.27027   3.28937
 Alpha virt. eigenvalues --    3.30059   3.30413   3.30600   3.30736   3.31417
 Alpha virt. eigenvalues --    3.32289   3.32367   3.32747   3.54558   3.55731
 Alpha virt. eigenvalues --    3.56706   3.57109   3.57469   3.57790   3.58457
 Alpha virt. eigenvalues --    3.59187   3.59529   3.59934   3.60561   3.61368
 Alpha virt. eigenvalues --    3.61879   3.62202   3.62493   3.62553   3.62954
 Alpha virt. eigenvalues --    3.63831   3.64216   3.64542   3.64915   3.65344
 Alpha virt. eigenvalues --    3.66307   3.67545   3.68066   3.68490   3.68729
 Alpha virt. eigenvalues --    3.69133   3.69713   3.70251   3.71005   3.72039
 Alpha virt. eigenvalues --    3.82622   3.83670   3.84095   3.84562   3.85313
 Alpha virt. eigenvalues --    3.85479   3.86078   3.86526   3.86566   3.87411
 Alpha virt. eigenvalues --    3.87664   3.88477   3.88767   3.89173   3.89688
 Alpha virt. eigenvalues --    3.90010   3.90286   3.90690   3.92227   3.92513
 Alpha virt. eigenvalues --    3.93352   3.93461   3.93925   3.94667   3.95247
 Alpha virt. eigenvalues --    3.95689   3.96339   3.96487   3.96865   3.97848
 Alpha virt. eigenvalues --    3.98582   4.03046
          Condensed to atoms (all electrons):
 Mulliken charges:
               1
     1  Br  -0.727116
     2  O   -0.270460
     3  H    0.147776
     4  H    0.131470
     5  O   -0.280227
     6  H    0.140143
     7  H    0.118696
     8  O   -0.264591
     9  H    0.178164
    10  H    0.137758
    11  O   -0.248162
    12  H    0.132317
    13  H    0.155747
    14  O   -0.277295
    15  H    0.173959
    16  H    0.141652
    17  O   -0.273241
    18  H    0.135100
    19  H    0.139735
    20  O   -0.295566
    21  H    0.126528
    22  H    0.160504
    23  O   -0.283652
    24  H    0.134839
    25  H    0.168563
    26  O   -0.292783
    27  H    0.140880
    28  H    0.097689
    29  O   -0.246402
    30  H    0.137873
    31  H    0.144474
    32  O   -0.247377
    33  H    0.139477
    34  H    0.138710
    35  O   -0.249341
    36  H    0.147806
    37  H    0.162353
    38  O   -0.251338
    39  H    0.119337
    40  H    0.127688
    41  O   -0.313528
    42  H    0.124758
    43  H    0.104960
    44  O   -0.247020
    45  H    0.144171
    46  H    0.150020
    47  O   -0.235250
    48  H    0.142458
    49  H    0.122908
    50  O   -0.251113
    51  H    0.142885
    52  H    0.129935
    53  O   -0.351028
    54  H    0.129183
    55  H    0.106588
    56  O   -0.252399
    57  H    0.117023
    58  H    0.136520
    59  O   -0.274470
    60  H    0.138781
    61  H    0.104142
    62  O   -0.267133
    63  H    0.141132
    64  H    0.131724
    65  O   -0.308467
    66  H    0.097505
    67  H    0.130236
    68  O   -0.257569
    69  H    0.123829
    70  H    0.129571
    71  O   -0.328086
    72  H    0.103853
    73  H    0.138654
    74  O   -0.223966
    75  H    0.131511
    76  H    0.152932
    77  O   -0.276472
    78  H    0.139835
    79  H    0.132281
    80  O   -0.301465
    81  H    0.122514
    82  H    0.120067
    83  O   -0.268412
    84  H    0.136325
    85  H    0.131100
    86  O   -0.288024
    87  H    0.142030
    88  H    0.123440
    89  O   -0.258861
    90  H    0.143090
    91  H    0.126054
    92  O   -0.313682
    93  H    0.113715
    94  H    0.112188
    95  O   -0.321671
    96  H    0.125191
    97  H    0.123819
 Sum of Mulliken charges =  -1.00000
 Mulliken charges with hydrogens summed into heavy atoms:
               1
     1  Br  -0.727116
     2  O    0.008786
     5  O   -0.021388
     8  O    0.051331
    11  O    0.039902
    14  O    0.038315
    17  O    0.001594
    20  O   -0.008534
    23  O    0.019749
    26  O   -0.054214
    29  O    0.035945
    32  O    0.030810
    35  O    0.060818
    38  O   -0.004313
    41  O   -0.083809
    44  O    0.047171
    47  O    0.030116
    50  O    0.021707
    53  O   -0.115257
    56  O    0.001144
    59  O   -0.031548
    62  O    0.005723
    65  O   -0.080727
    68  O   -0.004169
    71  O   -0.085579
    74  O    0.060477
    77  O   -0.004356
    80  O   -0.058884
    83  O   -0.000987
    86  O   -0.022553
    89  O    0.010283
    92  O   -0.087780
    95  O   -0.072660
         Mulliken charges condensed to fragments:
      1     -0.727116
      2     -0.272884
 Electronic spatial extent (au):  <R**2>=        1539338.3764
 Charge=             -1.0000 electrons
 Dipole moment (field-independent basis, Debye):
    X=            -87.1955    Y=           -102.5030    Z=            -95.7071  Tot=            165.1356
 Quadrupole moment (field-independent basis, Debye-Ang):
   XX=          -1871.3893   YY=          -2426.6628   ZZ=          -2176.5149
   XY=          -1882.3171   XZ=          -1792.6185   YZ=          -2041.0081
 Traceless Quadrupole moment (field-independent basis, Debye-Ang):
   XX=            286.7997   YY=           -268.4738   ZZ=            -18.3259
   XY=          -1882.3171   XZ=          -1792.6185   YZ=          -2041.0081
 Octapole moment (field-independent basis, Debye-Ang**2):
  XXX=         -45902.0281  YYY=         -61481.7280  ZZZ=         -53669.8904  XYY=         -45427.4457
  XXY=         -40407.2345  XXZ=         -39462.9308  XZZ=         -41913.6776  YZZ=         -46079.8314
  YYZ=         -48337.0303  XYZ=         -38535.1832
 Hexadecapole moment (field-independent basis, Debye-Ang**3):
 XXXX=       -1218001.1628 YYYY=       -1615909.7295 ZZZZ=       -1374519.7340 XXXY=        -983049.2169
 XXXZ=        -980366.1736 YYYX=       -1173780.8973 YYYZ=       -1226046.2679 ZZZX=       -1053236.9958
 ZZZY=       -1124686.9164 XXYY=        -972044.5989 XXZZ=        -928578.5309 YYZZ=       -1075459.6620
 XXYZ=        -846483.8033 YYXZ=        -925413.8043 ZZXY=        -891016.2254
 N-N= 6.224007665604D+03 E-N=-2.441708690230D+04  KE= 5.003078880730D+03
 No NMR shielding tensors so no spin-rotation constants.
 Leave Link  601 at Thu May  3 11:23:41 2018, MaxMem= 14763950080 cpu:        71.1
 (Enter /cm/shared/gaussian/g09.e01/intel64-sandybridge/g09/l701.exe)
 Compute integral first derivatives.
 ... and contract with generalized density number  0.
 Leave Link  701 at Thu May  3 11:23:43 2018, MaxMem= 14763950080 cpu:       154.0
 (Enter /cm/shared/gaussian/g09.e01/intel64-sandybridge/g09/l702.exe)
 L702 exits ... SP integral derivatives will be done elsewhere.
 Leave Link  702 at Thu May  3 11:23:43 2018, MaxMem= 14763950080 cpu:         2.5
 (Enter /cm/shared/gaussian/g09.e01/intel64-sandybridge/g09/l703.exe)
 Compute integral first derivatives, UseDBF=F ICtDFT=           0.
 Integral derivatives from FoFJK, PRISM(SPDF).
 Calling FoFJK, ICntrl=      2127 FMM=T ISym2X=0 I1Cent= 0 IOpClX= 0 NMat=1 NMatS=1 NMatT=0.
 FoFJK:  IHMeth= 1 ICntrl=    2127 DoSepK=F KAlg= 0 I1Cent=   0 FoldK=F
 IRaf=         0 NMat=   1 IRICut=       1 DoRegI=T DoRafI=F ISym2E= 0.
 FoFCou: FMM=T IPFlag=           0 FMFlag=      100000 FMFlg1=        2001
         NFxFlg=           0 DoJE=F BraDBF=F KetDBF=F FulRan=T
         wScrn=  0.000000 ICntrl=    2127 IOpCl=  0 I1Cent=           0 NGrid=           0
         NMat0=    1 NMatS0=      1 NMatT0=    0 NMatD0=    1 NMtDS0=    0 NMtDT0=    0
 Symmetry not used in FoFCou.
 FMM levels:  10  Number of levels for PrismC:   9
 Leave Link  703 at Thu May  3 11:24:02 2018, MaxMem= 14763950080 cpu:      1173.4
 (Enter /cm/shared/gaussian/g09.e01/intel64-sandybridge/g09/l716.exe)
 Dipole        =-3.43053452D+01-4.03278034D+01-3.76540726D+01
 Cartesian Forces:  Max     0.030820394 RMS     0.010008775
 Leave Link  716 at Thu May  3 11:24:02 2018, MaxMem= 14763950080 cpu:         4.7
 (Enter /cm/shared/gaussian/g09.e01/intel64-sandybridge/g09/l122.exe)
 CPIOFr:  IOpCl= 0 IRwI=-1 IRwCP=  731 ICalc= -1 LCPTot=     1005244 Len1MO=     2550559 IndFrg=     1005244
 CPIOFr:  IOpCl= 0 IRwI=-1 IRwCP=  731 ICalc=  0 LCPTot=     1005244 Len1MO=     2550559 IndFrg=     3555803
 Counterpoise: doing DCBS calculation for fragment   1 NewBq=T
 Leave Link  122 at Thu May  3 11:24:02 2018, MaxMem= 14763950080 cpu:         9.4
 (Enter /cm/shared/gaussian/g09.e01/intel64-sandybridge/g09/l301.exe)
 Basis read from rwf:  (5D, 7F)
 No pseudopotential information found on rwf file.
   795 basis functions,  1651 primitive gaussians,   829 cartesian basis functions
    18 alpha electrons       18 beta electrons
       nuclear repulsion energy         0.0000000000 Hartrees.
 IExCor= 1009 DFT=T Ex+Corr=PBE1PBE ExCW=0 ScaHFX=  0.250000
 ScaDFX=  0.750000  0.750000  1.000000  1.000000 ScalE2=  1.000000  1.000000
 IRadAn=      0 IRanWt=     -1 IRanGd=            0 ICorTp=0 IEmpDi=  4
 NAtoms=   97 NActive=   97 NUniq=   97 SFac= 1.00D+00 NAtFMM=   60 NAOKFM=T Big=T
 Integral buffers will be    131072 words long.
 Raffenetti 2 integral format.
 Two-electron integral symmetry is turned off.
 No density basis found on file   718.
 Leave Link  301 at Thu May  3 11:24:03 2018, MaxMem= 14763950080 cpu:         7.0
 (Enter /cm/shared/gaussian/g09.e01/intel64-sandybridge/g09/l302.exe)
 NPDir=0 NMtPBC=     1 NCelOv=     1 NCel=       1 NClECP=     1 NCelD=      1
         NCelK=      1 NCelE2=     1 NClLst=     1 CellRange=     0.0.
 One-electron integrals computed using PRISM.
 NBasis=   795 RedAO= T EigKep=  1.44D-02  NBF=   795
 NBsUse=   795 1.00D-06 EigRej= -1.00D+00 NBFU=   795
 Precomputing XC quadrature grid using
 IXCGrd= 4 IRadAn=           0 IRanWt=          -1 IRanGd=           0 AccXCQ= 0.00D+00.
 Generated NRdTot=       0 NPtTot=           0 NUsed=           0 NTot=          32
 NSgBfM=   742   752   752   752   752 MxSgAt=    97 MxSgA2=    97.
 Leave Link  302 at Thu May  3 11:24:07 2018, MaxMem= 14763950080 cpu:       272.8
 (Enter /cm/shared/gaussian/g09.e01/intel64-sandybridge/g09/l303.exe)
 DipDrv:  MaxL=1.
 Leave Link  303 at Thu May  3 11:24:09 2018, MaxMem= 14763950080 cpu:       105.0
 (Enter /cm/shared/gaussian/g09.e01/intel64-sandybridge/g09/l401.exe)
 ExpMin= 1.22D-01 ExpMax= 6.40D+05 ExpMxC= 6.18D+03 IAcc=2 IRadAn=         4 AccDes= 0.00D+00
 Harris functional with IExCor= 1009 and IRadAn=       4 diagonalized for initial guess.
 HarFok:  IExCor= 1009 AccDes= 0.00D+00 IRadAn=         4 IDoV= 1 UseB2=F ITyADJ=14
 ICtDFT=  3500011 ScaDFX=  1.000000  1.000000  1.000000  1.000000
 FoFCou: FMM=F IPFlag=           0 FMFlag=      100000 FMFlg1=        2001
         NFxFlg=           0 DoJE=T BraDBF=F KetDBF=T FulRan=T
         wScrn=  0.000000 ICntrl=     500 IOpCl=  0 I1Cent=   200000004 NGrid=           0
         NMat0=    1 NMatS0=      1 NMatT0=    0 NMatD0=    1 NMtDS0=    0 NMtDT0=    0
 Symmetry not used in FoFCou.
 Harris En= -2574.01945461133    
 JPrj=0 DoOrth=F DoCkMO=F.
 Leave Link  401 at Thu May  3 11:24:13 2018, MaxMem= 14763950080 cpu:       290.9
 (Enter /cm/shared/gaussian/g09.e01/intel64-sandybridge/g09/l502.exe)
 Closed shell SCF:
 Using DIIS extrapolation, IDIIS=  1040.
 Two-electron integral symmetry not used.
 IVT=     2138497 IEndB=     2138497 NGot= 14763950080 MDV= 14762516294
 LenX= 14762516294 LenY= 14761828224
 Requested convergence on RMS density matrix=1.00D-08 within 128 cycles.
 Requested convergence on MAX density matrix=1.00D-06.
 Requested convergence on             energy=1.00D-06.
 No special actions if energy rises.
 Fock matrices will be formed incrementally for  20 cycles.
 Integral accuracy reduced to 1.0D-05 until final iterations.

 Cycle   1  Pass 0  IDiag  1:
 FoFJK:  IHMeth= 1 ICntrl=       0 DoSepK=F KAlg= 0 I1Cent=   0 FoldK=F
 IRaf= 840000000 NMat=   1 IRICut=       1 DoRegI=T DoRafI=F ISym2E= 0.
 FoFCou: FMM=T IPFlag=           0 FMFlag=      100000 FMFlg1=        2001
         NFxFlg=           0 DoJE=F BraDBF=F KetDBF=F FulRan=T
         wScrn=  0.000000 ICntrl=       0 IOpCl=  0 I1Cent=           0 NGrid=           0
         NMat0=    1 NMatS0=      1 NMatT0=    0 NMatD0=    1 NMtDS0=    0 NMtDT0=    0
 Symmetry not used in FoFCou.
 FMM levels:  10  Number of levels for PrismC:   9
 E= -2573.87935558715    
 DIIS: error= 1.02D-02 at cycle   1 NSaved=   1.
 NSaved= 1 IEnMin= 1 EnMin= -2573.87935558715     IErMin= 1 ErrMin= 1.02D-02
 ErrMax= 1.02D-02  0.00D+00 EMaxC= 1.00D-01 BMatC= 3.70D-02 BMatP= 3.70D-02
 IDIUse=3 WtCom= 8.98D-01 WtEn= 1.02D-01
 Coeff-Com:  0.100D+01
 Coeff-En:   0.100D+01
 Coeff:      0.100D+01
 Gap=     0.172 Goal=   None    Shift=    0.000
 GapD=    0.172 DampG=1.000 DampE=0.500 DampFc=0.5000 IDamp=-1.
 Damping current iteration by 5.00D-01
 RMSDP=4.36D-04 MaxDP=7.14D-02              OVMax= 1.47D-01

 Cycle   2  Pass 0  IDiag  1:
 RMSU=  2.17D-04    CP:  9.96D-01
 E= -2573.89552383848     Delta-E=       -0.016168251325 Rises=F Damp=T
 DIIS: error= 6.25D-03 at cycle   2 NSaved=   2.
 NSaved= 2 IEnMin= 2 EnMin= -2573.89552383848     IErMin= 2 ErrMin= 6.25D-03
 ErrMax= 6.25D-03  0.00D+00 EMaxC= 1.00D-01 BMatC= 8.75D-03 BMatP= 3.70D-02
 IDIUse=3 WtCom= 9.37D-01 WtEn= 6.25D-02
 Coeff-Com: -0.571D+00 0.157D+01
 Coeff-En:   0.000D+00 0.100D+01
 Coeff:     -0.536D+00 0.154D+01
 Gap=     0.187 Goal=   None    Shift=    0.000
 RMSDP=1.50D-04 MaxDP=3.64D-02 DE=-1.62D-02 OVMax= 6.54D-02

 Cycle   3  Pass 0  IDiag  1:
 RMSU=  1.40D-04    CP:  9.96D-01  1.26D+00
 E= -2573.90854741452     Delta-E=       -0.013023576037 Rises=F Damp=F
 DIIS: error= 3.06D-03 at cycle   3 NSaved=   3.
 NSaved= 3 IEnMin= 3 EnMin= -2573.90854741452     IErMin= 3 ErrMin= 3.06D-03
 ErrMax= 3.06D-03  0.00D+00 EMaxC= 1.00D-01 BMatC= 2.38D-03 BMatP= 8.75D-03
 IDIUse=3 WtCom= 9.69D-01 WtEn= 3.06D-02
 Coeff-Com: -0.303D+00 0.715D+00 0.588D+00
 Coeff-En:   0.000D+00 0.000D+00 0.100D+01
 Coeff:     -0.294D+00 0.693D+00 0.601D+00
 Gap=     0.170 Goal=   None    Shift=    0.000
 RMSDP=7.10D-05 MaxDP=1.74D-02 DE=-1.30D-02 OVMax= 2.05D-02

 Cycle   4  Pass 0  IDiag  1:
 RMSU=  7.93D-06    CP:  9.95D-01  1.48D+00  6.33D-01
 E= -2573.91113590196     Delta-E=       -0.002588487449 Rises=F Damp=F
 DIIS: error= 9.61D-05 at cycle   4 NSaved=   4.
 NSaved= 4 IEnMin= 4 EnMin= -2573.91113590196     IErMin= 4 ErrMin= 9.61D-05
 ErrMax= 9.61D-05  0.00D+00 EMaxC= 1.00D-01 BMatC= 1.39D-06 BMatP= 2.38D-03
 IDIUse=1 WtCom= 1.00D+00 WtEn= 0.00D+00
 Coeff-Com: -0.153D-01 0.294D-01 0.407D-01 0.945D+00
 Coeff:     -0.153D-01 0.294D-01 0.407D-01 0.945D+00
 Gap=     0.172 Goal=   None    Shift=    0.000
 RMSDP=2.13D-06 MaxDP=3.91D-04 DE=-2.59D-03 OVMax= 7.65D-04

 Initial convergence to 1.0D-05 achieved.  Increase integral accuracy.
 Cycle   5  Pass 1  IDiag  1:
 E= -2573.91217501098     Delta-E=       -0.001039109015 Rises=F Damp=F
 DIIS: error= 1.35D-05 at cycle   1 NSaved=   1.
 NSaved= 1 IEnMin= 1 EnMin= -2573.91217501098     IErMin= 1 ErrMin= 1.35D-05
 ErrMax= 1.35D-05  0.00D+00 EMaxC= 1.00D-01 BMatC= 1.82D-07 BMatP= 1.82D-07
 IDIUse=1 WtCom= 1.00D+00 WtEn= 0.00D+00
 Coeff-Com:  0.100D+01
 Coeff:      0.100D+01
 Gap=     0.172 Goal=   None    Shift=    0.000
 RMSDP=2.13D-06 MaxDP=3.91D-04 DE=-1.04D-03 OVMax= 3.82D-04

 Cycle   6  Pass 1  IDiag  1:
 RMSU=  1.70D-06    CP:  1.00D+00
 E= -2573.91217523691     Delta-E=       -0.000000225925 Rises=F Damp=F
 DIIS: error= 1.67D-05 at cycle   2 NSaved=   2.
 NSaved= 2 IEnMin= 2 EnMin= -2573.91217523691     IErMin= 1 ErrMin= 1.35D-05
 ErrMax= 1.67D-05  0.00D+00 EMaxC= 1.00D-01 BMatC= 8.30D-08 BMatP= 1.82D-07
 IDIUse=1 WtCom= 1.00D+00 WtEn= 0.00D+00
 Coeff-Com:  0.385D+00 0.615D+00
 Coeff:      0.385D+00 0.615D+00
 Gap=     0.172 Goal=   None    Shift=    0.000
 RMSDP=5.31D-07 MaxDP=1.27D-04 DE=-2.26D-07 OVMax= 1.71D-04

 Cycle   7  Pass 1  IDiag  1:
 RMSU=  4.70D-07    CP:  1.00D+00  8.58D-01
 E= -2573.91217533717     Delta-E=       -0.000000100265 Rises=F Damp=F
 DIIS: error= 3.58D-06 at cycle   3 NSaved=   3.
 NSaved= 3 IEnMin= 3 EnMin= -2573.91217533717     IErMin= 3 ErrMin= 3.58D-06
 ErrMax= 3.58D-06  0.00D+00 EMaxC= 1.00D-01 BMatC= 4.22D-09 BMatP= 8.30D-08
 IDIUse=1 WtCom= 1.00D+00 WtEn= 0.00D+00
 Coeff-Com: -0.253D-01 0.164D+00 0.861D+00
 Coeff:     -0.253D-01 0.164D+00 0.861D+00
 Gap=     0.172 Goal=   None    Shift=    0.000
 RMSDP=1.07D-07 MaxDP=2.55D-05 DE=-1.00D-07 OVMax= 3.19D-05

 Cycle   8  Pass 1  IDiag  1:
 RMSU=  3.71D-08    CP:  1.00D+00  9.11D-01  9.10D-01
 E= -2573.91217534209     Delta-E=       -0.000000004919 Rises=F Damp=F
 DIIS: error= 2.19D-07 at cycle   4 NSaved=   4.
 NSaved= 4 IEnMin= 4 EnMin= -2573.91217534209     IErMin= 4 ErrMin= 2.19D-07
 ErrMax= 2.19D-07  0.00D+00 EMaxC= 1.00D-01 BMatC= 2.00D-11 BMatP= 4.22D-09
 IDIUse=1 WtCom= 1.00D+00 WtEn= 0.00D+00
 Coeff-Com: -0.495D-02 0.170D-01 0.475D-01 0.941D+00
 Coeff:     -0.495D-02 0.170D-01 0.475D-01 0.941D+00
 Gap=     0.172 Goal=   None    Shift=    0.000
 RMSDP=1.03D-08 MaxDP=2.05D-06 DE=-4.92D-09 OVMax= 4.11D-06

 Cycle   9  Pass 1  IDiag  1:
 RMSU=  5.51D-09    CP:  1.00D+00  9.15D-01  9.04D-01  1.09D+00
 E= -2573.91217534212     Delta-E=       -0.000000000034 Rises=F Damp=F
 DIIS: error= 1.33D-07 at cycle   5 NSaved=   5.
 NSaved= 5 IEnMin= 5 EnMin= -2573.91217534212     IErMin= 5 ErrMin= 1.33D-07
 ErrMax= 1.33D-07  0.00D+00 EMaxC= 1.00D-01 BMatC= 1.41D-12 BMatP= 2.00D-11
 IDIUse=1 WtCom= 1.00D+00 WtEn= 0.00D+00
 Coeff-Com: -0.452D-03-0.224D-02-0.232D-01 0.286D+00 0.740D+00
 Coeff:     -0.452D-03-0.224D-02-0.232D-01 0.286D+00 0.740D+00
 Gap=     0.172 Goal=   None    Shift=    0.000
 RMSDP=2.30D-09 MaxDP=2.94D-07 DE=-3.41D-11 OVMax= 8.22D-07

 SCF Done:  E(RPBE1PBE) =  -2573.91217534     A.U. after    9 cycles
            NFock=  9  Conv=0.23D-08     -V/T= 2.0013
 KE= 2.570511246431D+03 PE=-6.162912675373D+03 EE= 1.018489253600D+03
 Leave Link  502 at Thu May  3 11:25:59 2018, MaxMem= 14763950080 cpu:      6677.4
 (Enter /cm/shared/gaussian/g09.e01/intel64-sandybridge/g09/l601.exe)
 Copying SCF densities to generalized density rwf, IOpCl= 0 IROHF=0.

 **********************************************************************

            Population analysis using the SCF density.

 **********************************************************************

 Alpha  occ. eigenvalues -- -482.98974 -62.39124 -56.16378 -56.16375 -56.16374
 Alpha  occ. eigenvalues --   -8.49254  -6.29565  -6.29555  -6.29553  -2.37829
 Alpha  occ. eigenvalues --   -2.37827  -2.37825  -2.37816  -2.37816  -0.47267
 Alpha  occ. eigenvalues --   -0.03129  -0.03119  -0.03115
 Alpha virt. eigenvalues --    0.14120   0.15643   0.16575   0.16942   0.18153
 Alpha virt. eigenvalues --    0.18454   0.19041   0.19341   0.20243   0.21349
 Alpha virt. eigenvalues --    0.21924   0.22601   0.22952   0.24054   0.24544
 Alpha virt. eigenvalues --    0.24805   0.25033   0.25808   0.26266   0.27044
 Alpha virt. eigenvalues --    0.27206   0.27766   0.28107   0.28879   0.29092
 Alpha virt. eigenvalues --    0.29671   0.30285   0.30979   0.31238   0.31737
 Alpha virt. eigenvalues --    0.32244   0.32751   0.33367   0.34513   0.35273
 Alpha virt. eigenvalues --    0.35563   0.35930   0.36099   0.36769   0.37128
 Alpha virt. eigenvalues --    0.37366   0.38151   0.38640   0.39241   0.39282
 Alpha virt. eigenvalues --    0.40401   0.40873   0.41256   0.41879   0.41940
 Alpha virt. eigenvalues --    0.42425   0.42816   0.42940   0.43471   0.44527
 Alpha virt. eigenvalues --    0.45177   0.45347   0.46576   0.46886   0.47187
 Alpha virt. eigenvalues --    0.48437   0.48847   0.51121   0.52007   0.61874
 Alpha virt. eigenvalues --    0.62235   0.62914   0.63248   0.64070   0.64268
 Alpha virt. eigenvalues --    0.64859   0.65210   0.65834   0.66119   0.66999
 Alpha virt. eigenvalues --    0.67531   0.68162   0.68309   0.68567   0.69393
 Alpha virt. eigenvalues --    0.69684   0.69806   0.70235   0.70649   0.71057
 Alpha virt. eigenvalues --    0.71959   0.72006   0.72337   0.72845   0.73217
 Alpha virt. eigenvalues --    0.73757   0.74056   0.74514   0.75081   0.75578
 Alpha virt. eigenvalues --    0.75834   0.76214   0.76283   0.76663   0.77119
 Alpha virt. eigenvalues --    0.77472   0.77994   0.78384   0.79052   0.79284
 Alpha virt. eigenvalues --    0.79595   0.79721   0.80464   0.80862   0.81087
 Alpha virt. eigenvalues --    0.81346   0.81469   0.82036   0.82457   0.82790
 Alpha virt. eigenvalues --    0.82938   0.83222   0.83791   0.84180   0.84795
 Alpha virt. eigenvalues --    0.85196   0.85404   0.85953   0.86277   0.86780
 Alpha virt. eigenvalues --    0.87219   0.87447   0.87748   0.87911   0.88528
 Alpha virt. eigenvalues --    0.88809   0.88921   0.89512   0.90136   0.90342
 Alpha virt. eigenvalues --    0.90470   0.90875   0.91125   0.91230   0.91693
 Alpha virt. eigenvalues --    0.91951   0.92357   0.93202   0.93456   0.93697
 Alpha virt. eigenvalues --    0.94181   0.94566   0.95090   0.95258   0.95617
 Alpha virt. eigenvalues --    0.96070   0.96278   0.96957   0.97424   0.98112
 Alpha virt. eigenvalues --    0.98521   0.98751   0.99411   0.99867   1.00059
 Alpha virt. eigenvalues --    1.00336   1.01384   1.01695   1.02147   1.02373
 Alpha virt. eigenvalues --    1.02969   1.03607   1.04284   1.04557   1.04770
 Alpha virt. eigenvalues --    1.05374   1.06071   1.06150   1.06682   1.07152
 Alpha virt. eigenvalues --    1.07988   1.08613   1.08915   1.09459   1.10305
 Alpha virt. eigenvalues --    1.10491   1.11378   1.12307   1.12785   1.12965
 Alpha virt. eigenvalues --    1.13207   1.14065   1.15065   1.15142   1.15827
 Alpha virt. eigenvalues --    1.16831   1.17081   1.17460   1.18294   1.18907
 Alpha virt. eigenvalues --    1.20458   1.21371   1.21853   1.23095   1.25348
 Alpha virt. eigenvalues --    1.26967   1.65843   1.66643   1.67135   1.67261
 Alpha virt. eigenvalues --    1.68045   1.68854   1.68972   1.69586   1.70160
 Alpha virt. eigenvalues --    1.70404   1.70810   1.71537   1.71811   1.72163
 Alpha virt. eigenvalues --    1.72612   1.73165   1.73205   1.73385   1.73672
 Alpha virt. eigenvalues --    1.74016   1.74356   1.74628   1.74925   1.75173
 Alpha virt. eigenvalues --    1.75289   1.75715   1.76082   1.76486   1.76952
 Alpha virt. eigenvalues --    1.77015   1.77336   1.77686   1.77809   1.78075
 Alpha virt. eigenvalues --    1.78552   1.78794   1.79329   1.79811   1.79993
 Alpha virt. eigenvalues --    1.80433   1.80787   1.81198   1.81441   1.82104
 Alpha virt. eigenvalues --    1.82242   1.82514   1.83618   1.83893   1.84646
 Alpha virt. eigenvalues --    1.85086   1.85621   1.86307   1.86524   1.87028
 Alpha virt. eigenvalues --    1.88025   1.88626   1.88755   1.89410   1.89887
 Alpha virt. eigenvalues --    1.91076   1.91563   1.93643   1.94046   1.94503
 Alpha virt. eigenvalues --    1.97259   1.98179   1.98802   1.99064   1.99153
 Alpha virt. eigenvalues --    1.99596   2.00131   2.00624   2.00852   2.01183
 Alpha virt. eigenvalues --    2.01469   2.01755   2.01910   2.02035   2.02429
 Alpha virt. eigenvalues --    2.02606   2.02910   2.03048   2.03342   2.03555
 Alpha virt. eigenvalues --    2.03684   2.04013   2.04618   2.05200   2.05324
 Alpha virt. eigenvalues --    2.06018   2.06223   2.06441   2.06872   2.07170
 Alpha virt. eigenvalues --    2.07422   2.07657   2.08085   2.08227   2.08320
 Alpha virt. eigenvalues --    2.08745   2.09050   2.09355   2.09674   2.10016
 Alpha virt. eigenvalues --    2.10039   2.10721   2.10883   2.11457   2.12243
 Alpha virt. eigenvalues --    2.12476   2.12563   2.13195   2.13586   2.14637
 Alpha virt. eigenvalues --    2.14817   2.15577   2.15773   2.16370   2.16549
 Alpha virt. eigenvalues --    2.16887   2.17642   2.17815   2.18160   2.18505
 Alpha virt. eigenvalues --    2.18732   2.19242   2.19405   2.20044   2.20932
 Alpha virt. eigenvalues --    2.21011   2.21476   2.22022   2.22766   2.23364
 Alpha virt. eigenvalues --    2.24098   2.25028   2.25349   2.25670   2.26120
 Alpha virt. eigenvalues --    2.26512   2.26696   2.27790   2.28349   2.28968
 Alpha virt. eigenvalues --    2.29270   2.29765   2.30560   2.30673   2.30880
 Alpha virt. eigenvalues --    2.31747   2.32166   2.32451   2.32856   2.33114
 Alpha virt. eigenvalues --    2.34882   2.35887   2.36877   2.37630   2.38174
 Alpha virt. eigenvalues --    2.41155   2.41323   2.42223   2.42459   2.43168
 Alpha virt. eigenvalues --    2.43328   2.43899   2.44049   2.44263   2.44376
 Alpha virt. eigenvalues --    2.44833   2.44939   2.45899   2.47015   2.47139
 Alpha virt. eigenvalues --    2.47315   2.47939   2.48227   2.48464   2.49213
 Alpha virt. eigenvalues --    2.49577   2.49847   2.50428   2.50795   2.51215
 Alpha virt. eigenvalues --    2.51866   2.53012   2.53951   2.54622   2.55704
 Alpha virt. eigenvalues --    2.56791   2.57375   2.58464   2.68035   2.68438
 Alpha virt. eigenvalues --    2.68778   2.69115   2.69876   2.70374   2.70820
 Alpha virt. eigenvalues --    2.71727   2.72008   2.72655   2.73182   2.73404
 Alpha virt. eigenvalues --    2.73672   2.74280   2.74912   2.75403   2.76170
 Alpha virt. eigenvalues --    2.76449   2.76882   2.77258   2.77639   2.77943
 Alpha virt. eigenvalues --    2.78763   2.79900   2.80816   2.81293   2.81663
 Alpha virt. eigenvalues --    2.82242   2.82608   2.82979   2.83691   2.84278
 Alpha virt. eigenvalues --    2.84945   2.86311   2.86527   2.87025   2.87986
 Alpha virt. eigenvalues --    2.88901   2.89378   2.89745   2.90797   2.91192
 Alpha virt. eigenvalues --    2.91872   2.92348   2.93333   2.93626   2.94054
 Alpha virt. eigenvalues --    2.94326   2.95206   2.95983   2.96944   2.97524
 Alpha virt. eigenvalues --    2.98117   2.99453   2.99507   3.00361   3.00698
 Alpha virt. eigenvalues --    3.01682   3.02898   3.03855   3.04197   3.05285
 Alpha virt. eigenvalues --    3.09066   3.09992   3.13764   3.14427   3.14690
 Alpha virt. eigenvalues --    3.17313   3.18523   3.19787   3.21326   3.23217
 Alpha virt. eigenvalues --    3.24516   3.24978   3.26111   3.27189   3.27800
 Alpha virt. eigenvalues --    3.30202   3.31218   3.32399   3.33641   3.34155
 Alpha virt. eigenvalues --    3.36630   3.38036   3.39887   3.40065   3.40747
 Alpha virt. eigenvalues --    3.42994   3.43896   3.45177   3.47854   3.50822
 Alpha virt. eigenvalues --    3.55054   3.56669   3.59666   3.60045   4.52099
 Alpha virt. eigenvalues --    4.52201   4.52220   4.52229   4.52536   4.52598
 Alpha virt. eigenvalues --    4.52871   4.53008   4.53130   4.53219   4.53337
 Alpha virt. eigenvalues --    4.53407   4.53602   4.53735   4.53780   4.53849
 Alpha virt. eigenvalues --    4.54025   4.54171   4.54413   4.54797   4.54916
 Alpha virt. eigenvalues --    4.54953   4.55793   4.55950   4.56111   4.56329
 Alpha virt. eigenvalues --    4.56653   4.56846   4.57144   4.57402   4.57911
 Alpha virt. eigenvalues --    4.58212   4.59364   4.59814   4.60189   4.60401
 Alpha virt. eigenvalues --    4.60441   4.60446   4.60673   4.60939   4.60995
 Alpha virt. eigenvalues --    4.61202   4.61413   4.61939   4.61956   4.62228
 Alpha virt. eigenvalues --    4.62400   4.62501   4.62537   4.62712   4.63054
 Alpha virt. eigenvalues --    4.63129   4.63176   4.63252   4.63380   4.63632
 Alpha virt. eigenvalues --    4.63685   4.64345   4.64813   4.65067   4.65439
 Alpha virt. eigenvalues --    4.66756   4.67326   4.68650   4.74483   4.74566
 Alpha virt. eigenvalues --    4.75211   4.75497   4.75629   4.76301   4.76907
 Alpha virt. eigenvalues --    4.77081   4.77713   4.77932   4.78292   4.78744
 Alpha virt. eigenvalues --    4.79384   4.79803   4.79993   4.80504   4.81015
 Alpha virt. eigenvalues --    4.81349   4.81544   4.81963   4.82268   4.82445
 Alpha virt. eigenvalues --    4.82581   4.82953   4.83176   4.83468   4.83679
 Alpha virt. eigenvalues --    4.83807   4.84258   4.84800   4.85732   4.85860
 Alpha virt. eigenvalues --    4.87144   4.87256   4.87526   4.88128   4.89046
 Alpha virt. eigenvalues --    4.89073   4.89266   4.89597   4.89977   4.90589
 Alpha virt. eigenvalues --    4.90766   4.91070   4.91617   4.92080   4.92562
 Alpha virt. eigenvalues --    4.93059   4.93722   4.94108   4.94466   4.95093
 Alpha virt. eigenvalues --    4.95844   4.96183   4.96746   4.97350   4.97629
 Alpha virt. eigenvalues --    4.98250   4.98772   4.98987   5.01622   5.01726
 Alpha virt. eigenvalues --    5.03082   5.04168   5.04414   5.05877   5.06401
 Alpha virt. eigenvalues --    5.07260   5.07823   5.08138   5.08782   5.09175
 Alpha virt. eigenvalues --    5.09680   5.09854   5.10522   5.11538   5.11770
 Alpha virt. eigenvalues --    5.12466   5.12973   5.13784   5.14060   5.14733
 Alpha virt. eigenvalues --    5.15238   5.15955   5.16407   5.16892   5.17883
 Alpha virt. eigenvalues --    5.19399   5.20443   5.20963   5.21914   5.23252
 Alpha virt. eigenvalues --    5.23620   5.24946   5.26101   5.28303   5.34956
 Alpha virt. eigenvalues --    5.36672   5.38418   5.38873   5.40125   5.42326
 Alpha virt. eigenvalues --    5.43362   5.44927   5.45920   5.46625   5.48622
[...]
   Y20       44.99438   0.00175   0.00000  -0.01493  -0.01468  44.97970
   Z20       36.35833  -0.03088   0.00000  -0.04972  -0.05062  36.30772
   X21       38.45593   0.00078   0.00000  -0.00077  -0.00120  38.45472
   Y21       43.74716  -0.00450   0.00000  -0.00927  -0.00881  43.73835
   Z21       36.73628   0.00496   0.00000   0.01090   0.01003  36.74631
   X22       36.07487  -0.01261   0.00000  -0.00556  -0.00625  36.06862
   Y22       44.95658  -0.00091   0.00000   0.00600   0.00604  44.96263
   Z22       37.79452   0.01539   0.00000  -0.00872  -0.00967  37.78485
   X23       34.41191  -0.00383   0.00000  -0.01693  -0.01617  34.39574
   Y23       34.78986  -0.01907   0.00000  -0.01319  -0.01351  34.77634
   Z23       44.21959  -0.00763   0.00000  -0.03943  -0.04059  44.17900
   X24       32.71116  -0.00723   0.00000  -0.00958  -0.00891  32.70225
   Y24       35.09221   0.00226   0.00000   0.00392   0.00330  35.09551
   Z24       44.74871   0.00326   0.00000   0.00870   0.00747  44.75618
   X25       35.11111   0.00842   0.00000   0.01327   0.01375  35.12487
   Y25       36.43392   0.01794   0.00000   0.01575   0.01556  36.44948
   Z25       43.89834  -0.00030   0.00000   0.01195   0.01084  43.90918
   X26       33.24028   0.01812   0.00000   0.02044   0.01983  33.26011
   Y26       44.08731   0.01410   0.00000   0.02312   0.02267  44.10998
   Z26       39.41969   0.01225   0.00000   0.02884   0.02776  39.44744
   X27       31.82299  -0.01252   0.00000   0.00404   0.00358  31.82656
   Y27       43.44480  -0.00295   0.00000   0.02059   0.01991  43.46471
   Z27       38.49372  -0.00840   0.00000  -0.00314  -0.00429  38.48943
   X28       33.48595   0.00003   0.00000   0.00520   0.00474  33.49069
   Y28       42.89678  -0.00763   0.00000  -0.02550  -0.02593  42.87085
   Z28       40.76139  -0.00050   0.00000  -0.00650  -0.00759  40.75380
   X29       41.61177  -0.01607   0.00000  -0.02539  -0.02587  41.58590
   Y29       42.29207  -0.00115   0.00000  -0.01383  -0.01293  42.27914
   Z29       43.29363  -0.01205   0.00000  -0.00049  -0.00123  43.29240
   X30       42.61332   0.01052   0.00000   0.01023   0.00959  42.62291
   Y30       42.89678   0.00482   0.00000   0.00363   0.00469  42.90147
   Z30       44.65423   0.01084   0.00000  -0.00125  -0.00194  44.65229
   X31       42.00861   0.00399   0.00000   0.01039   0.01022  42.01883
   Y31       40.51573  -0.00871   0.00000  -0.01657  -0.01559  40.50014
   Z31       43.19914   0.00107   0.00000   0.00303   0.00228  43.20142
   X32       39.74094   0.02641   0.00000   0.05601   0.05760  39.79855
   Y32       30.50018  -0.00435   0.00000  -0.01801  -0.01738  30.48280
   Z32       41.61177   0.00164   0.00000  -0.04997  -0.05095  41.56082
   X33       39.81653   0.00144   0.00000   0.00129   0.00317  39.81970
   Y33       28.70494  -0.00720   0.00000  -0.01966  -0.01904  28.68590
   Z33       41.81964   0.00241   0.00000   0.00677   0.00577  41.82540
   X34       38.39924  -0.02364   0.00000  -0.04078  -0.03918  38.36005
   Y34       30.74584   0.00843   0.00000   0.02114   0.02153  30.76738
   Z34       40.42124  -0.01148   0.00000   0.01072   0.00967  40.43092
   X35       34.01507  -0.02267   0.00000  -0.01027  -0.00867  34.00641
   Y35       32.52219   0.00253   0.00000  -0.00968  -0.00992  32.51226
   Z35       33.41036   0.01515   0.00000   0.07664   0.07543  33.48579
   X36       32.91903  -0.00494   0.00000  -0.02629  -0.02443  32.89460
   Y36       31.06710   0.00355   0.00000   0.00467   0.00423  31.07133
   Z36       33.46705  -0.00079   0.00000  -0.00240  -0.00368  33.46337
   X37       35.67803   0.02634   0.00000   0.02673   0.02846  35.70649
   Y37       31.82299  -0.01283   0.00000  -0.02653  -0.02649  31.79650
   Z37       33.46705   0.00243   0.00000   0.00927   0.00813  33.47518
   X38       31.19938  -0.01288   0.00000  -0.01748  -0.01767  31.18171
   Y38       40.57242  -0.00403   0.00000  -0.00166  -0.00251  40.56991
   Z38       43.21804  -0.00184   0.00000   0.00315   0.00192  43.21996
   X39       32.50329   0.00673   0.00000   0.01341   0.01344  32.51673
   Y39       39.30630   0.00386   0.00000   0.02177   0.02114  39.32744
   Z39       43.19914  -0.00105   0.00000  -0.00676  -0.00794  43.19120
   X40       32.06865   0.00417   0.00000  -0.00345  -0.00391  32.06474
   Y40       42.10310   0.00323   0.00000  -0.00321  -0.00392  42.09918
   Z40       43.63378   0.00709   0.00000   0.02719   0.02602  43.65980
   X41       35.94259   0.00462   0.00000   0.03595   0.03732  35.97991
   Y41       34.95993  -0.00612   0.00000   0.00227   0.00241  34.96235
   Z41       29.55532  -0.01863   0.00000  -0.03917  -0.04026  29.51506
   X42       36.62289   0.00180   0.00000  -0.00855  -0.00748  36.61541
   Y42       36.60400   0.01502   0.00000   0.03208   0.03233  36.63632
   Z42       29.83878   0.00252   0.00000  -0.00125  -0.00229  29.83649
   X43       35.75362  -0.00607   0.00000  -0.02854  -0.02712  35.72650
   Y43       34.24184   0.00260   0.00000   0.01993   0.02001  34.26185
   Z43       31.19938   0.00168   0.00000  -0.02507  -0.02618  31.17320
   X44       38.70159  -0.01727   0.00000  -0.01308  -0.01116  38.69043
   Y44       30.63246  -0.00170   0.00000  -0.00617  -0.00562  30.62684
   Z44       33.65602   0.00475   0.00000   0.00979   0.00876  33.66478
   X45       40.30786   0.01515   0.00000   0.01528   0.01707  40.32493
   Y45       31.33166   0.00184   0.00000  -0.00828  -0.00746  31.32420
   Z45       34.09066   0.00053   0.00000  -0.00270  -0.00364  34.08702
   X46       39.04174   0.00598   0.00000   0.01163   0.01380  39.05554
   Y46       29.53642  -0.00286   0.00000  -0.00031   0.00031  29.53673
   Z46       32.25763  -0.00479   0.00000  -0.00185  -0.00288  32.25475
   X47       44.35187  -0.00834   0.00000   0.00310   0.00351  44.35538
   Y47       37.01973   0.01763   0.00000   0.01970   0.02107  37.04081
   Z47       43.16134   0.00843   0.00000   0.00074   0.00005  43.16139
   X48       45.78806   0.00649   0.00000  -0.00259  -0.00215  45.78592
   Y48       36.64179  -0.00836   0.00000  -0.02945  -0.02785  36.61394
   Z48       44.18180   0.00777   0.00000   0.01700   0.01636  44.19816
   X49       44.48415  -0.00149   0.00000  -0.01642  -0.01575  44.46841
   Y49       35.90480  -0.01467   0.00000  -0.02012  -0.01871  35.88609
   Z49       41.74405  -0.01447   0.00000  -0.00770  -0.00840  41.73565
   X50       33.78830  -0.01032   0.00000  -0.02231  -0.02255  33.76575
   Y50       43.89834  -0.01221   0.00000  -0.02872  -0.02898  43.86936
   Z50       31.89858  -0.00620   0.00000   0.03327   0.03220  31.93078
   X51       32.91903   0.00220   0.00000   0.01977   0.01925  32.93828
   Y51       45.48571   0.00658   0.00000   0.00776   0.00736  45.49307
   Z51       31.99306  -0.00035   0.00000  -0.00852  -0.00960  31.98347
   X52       34.84655   0.01188   0.00000   0.02250   0.02219  34.86874
   Y52       43.86054   0.00786   0.00000   0.03226   0.03216  43.89271
   Z52       33.37256   0.01787   0.00000   0.03226   0.03124  33.40380
   X53       39.40079   0.01943   0.00000   0.02802   0.02890  39.42969
   Y53       33.61823   0.00206   0.00000   0.01357   0.01408  33.63230
   Z53       45.61799   0.01405   0.00000   0.02484   0.02389  45.64188
   X54       39.77874  -0.00327   0.00000  -0.00737  -0.00624  39.77250
   Y54       32.48439   0.00038   0.00000   0.00993   0.01052  32.49491
   Z54       44.23849  -0.00232   0.00000   0.00886   0.00791  44.24640
   X55       37.75673  -0.01322   0.00000  -0.00792  -0.00712  37.74961
   Y55       34.24184  -0.00147   0.00000  -0.02021  -0.01999  34.22185
   Z55       45.24004  -0.00092   0.00000   0.02055   0.01952  45.25957
   X56       29.97106  -0.00265   0.00000   0.00316   0.00449  29.97554
   Y56       32.59778   0.00589   0.00000   0.01380   0.01279  32.61057
   Z56       39.58976  -0.01081   0.00000  -0.01127  -0.01265  39.57711
   X57       31.76630   0.00835   0.00000   0.01146   0.01279  31.77909
   Y57       32.50329  -0.00488   0.00000  -0.01982  -0.02053  32.48276
   Z57       39.87322   0.00057   0.00000  -0.00435  -0.00566  39.86756
   X58       29.23406  -0.00282   0.00000  -0.00359  -0.00222  29.23184
   Y58       31.93637  -0.00113   0.00000   0.00829   0.00714  31.94351
   Z58       41.10154   0.00570   0.00000  -0.00181  -0.00324  41.09830
   X59       46.61954   0.01437   0.00000   0.01995   0.01979  46.63933
   Y59       41.04485   0.01602   0.00000   0.02619   0.02798  41.07283
   Z59       40.81808  -0.01177   0.00000  -0.00815  -0.00868  40.80940
   X60       44.91879  -0.00477   0.00000   0.00495   0.00477  44.92356
   Y60       41.38500  -0.00161   0.00000  -0.00231  -0.00080  41.38420
   Z60       40.27006  -0.00100   0.00000  -0.00861  -0.00922  40.26085
   X61       46.44947  -0.01054   0.00000  -0.02769  -0.02770  46.42176
   Y61       39.83543  -0.00950   0.00000  -0.00553  -0.00380  39.83163
   Z61       42.14089   0.00629   0.00000  -0.01270  -0.01326  42.12763
   X62       43.35032   0.02260   0.00000   0.02218   0.02293  43.37325
   Y62       38.41813  -0.00559   0.00000   0.01101   0.01239  38.43052
   Z62       30.23562   0.00375   0.00000   0.00611   0.00540  30.24102
   X63       43.95503   0.00109   0.00000  -0.00246  -0.00171  43.95332
   Y63       38.87167   0.00219   0.00000   0.00524   0.00674  38.87840
   Z63       28.59156  -0.00627   0.00000  -0.01241  -0.01309  28.57847
   X64       41.66846  -0.02455   0.00000  -0.02487  -0.02422  41.64424
   Y64       39.07954   0.00579   0.00000  -0.00888  -0.00779  39.07175
   Z64       30.29231   0.00563   0.00000   0.02303   0.02225  30.31456
   X65       28.19471  -0.01058   0.00000  -0.01343  -0.01302  28.18169
   Y65       38.36144   0.00253   0.00000   0.00239   0.00109  38.36253
   Z65       38.24806   0.00755   0.00000   0.03223   0.03084  38.27890
   X66       29.29076   0.00501   0.00000   0.00089   0.00154  29.29230
   Y66       36.92525  -0.00458   0.00000  -0.00131  -0.00241  36.92284
   Z66       38.28585   0.00042   0.00000   0.00412   0.00276  38.28861
   X67       29.25296   0.00063   0.00000  -0.01096  -0.01076  29.24220
   Y67       39.74094  -0.00006   0.00000  -0.00753  -0.00864  39.73230
   Z67       37.71893  -0.00313   0.00000  -0.00918  -0.01051  37.70842
   X68       42.29207  -0.01592   0.00000  -0.01443  -0.01493  42.27715
   Y68       45.25894   0.00534   0.00000  -0.00775  -0.00658  45.25236
   Z68       32.50329   0.00794   0.00000   0.01108   0.01041  32.51370
   X69       42.63222   0.00241   0.00000   0.00252   0.00224  42.63446
   Y69       43.74716  -0.01023   0.00000  -0.01801  -0.01680  43.73036
   Z69       33.44815   0.00689   0.00000   0.01559   0.01492  33.46307
   X70       43.59598   0.01185   0.00000   0.00642   0.00596  43.60195
   Y70       45.33453  -0.00064   0.00000  -0.00416  -0.00276  45.33177
   Z70       31.27497  -0.01011   0.00000  -0.00245  -0.00306  31.27191
   X71       39.30630  -0.01462   0.00000  -0.01313  -0.01433  39.29197
   Y71       47.16756   0.00055   0.00000  -0.00344  -0.00289  47.16467
   Z71       41.02595   0.01642   0.00000   0.03085   0.03007  41.05602
   X72       40.17558   0.00433   0.00000   0.00295   0.00199  40.17757
   Y72       45.61799  -0.00677   0.00000  -0.01231  -0.01162  45.60637
   Z72       41.38500   0.00002   0.00000   0.00282   0.00206  41.38706
   X73       40.19447   0.00892   0.00000   0.00836   0.00710  40.20158
   Y73       47.86676   0.00278   0.00000  -0.00241  -0.00169  47.86507
   Z73       39.60866  -0.00641   0.00000   0.01619   0.01546  39.62412
   X74       29.80098  -0.00791   0.00000   0.00007  -0.00018  29.80080
   Y74       42.87789   0.00363   0.00000   0.00784   0.00685  42.88474
   Z74       36.05597   0.00549   0.00000  -0.01335  -0.01461  36.04137
   X75       30.82143   0.01251   0.00000   0.01847   0.01832  30.83976
   Y75       42.67002  -0.00444   0.00000  -0.00846  -0.00926  42.66076
   Z75       34.58199  -0.01611   0.00000  -0.02757  -0.02878  34.55320
   X76       28.45928  -0.00425   0.00000  -0.01493  -0.01535  28.44393
   Y76       43.97393  -0.00017   0.00000  -0.00113  -0.00235  43.97158
   Z76       35.50795   0.00181   0.00000   0.00271   0.00140  35.50936
   X77       29.98995  -0.01811   0.00000  -0.03508  -0.03417  29.95578
   Y77       37.68114   0.01215   0.00000   0.01629   0.01541  37.69655
   Z77       29.51752  -0.01054   0.00000   0.01453   0.01321  29.53073
   X78       30.14113   0.00664   0.00000   0.01765   0.01886  30.16000
   Y78       35.88590  -0.00850   0.00000   0.00459   0.00375  35.88965
   Z78       29.42304   0.00270   0.00000   0.00307   0.00173  29.42477
   X79       30.99151   0.01329   0.00000   0.02442   0.02519  31.01670
   Y79       38.17247  -0.00352   0.00000  -0.01786  -0.01858  38.15389
   Z79       30.93482   0.01361   0.00000   0.01380   0.01254  30.94735
   X80       28.06243  -0.00974   0.00000   0.01461   0.01585  28.07828
   Y80       34.52530  -0.01427   0.00000  -0.04126  -0.04252  34.48277
   Z80       34.35522  -0.01968   0.00000  -0.03911  -0.04055  34.31467
   X81       28.78053   0.00503   0.00000  -0.00823  -0.00696  28.77357
   Y81       33.86389  -0.00205   0.00000   0.00470   0.00354  33.86743
   Z81       35.86700   0.01459   0.00000   0.01860   0.01718  35.88418
   X82       28.98840   0.00350   0.00000  -0.01443  -0.01345  28.97495
   Y82       36.03708   0.01030   0.00000   0.01146   0.01036  36.04743
   Z82       34.01507   0.00448   0.00000   0.02193   0.02054  34.03561
   X83       46.26050   0.01090   0.00000   0.01148   0.01269  46.27319
   Y83       35.01663  -0.01495   0.00000  -0.01838  -0.01654  35.00008
   Z83       33.05131   0.01210   0.00000   0.01110   0.01047  33.06178
   X84       45.50461  -0.01446   0.00000  -0.03408  -0.03303  45.47157
   Y84       36.22605   0.00995   0.00000  -0.00893  -0.00722  36.21883
   Z84       31.93637  -0.01025   0.00000   0.00186   0.00120  31.93758
   X85       47.81007   0.00171   0.00000   0.01142   0.01274  47.82281
   Y85       34.54419   0.00244   0.00000   0.00965   0.01176  34.55595
   Z85       32.21983   0.00033   0.00000  -0.00098  -0.00155  32.21828
   X86       44.40856  -0.01344   0.00000  -0.01825  -0.01617  44.39240
   Y86       29.76319  -0.01665   0.00000  -0.00864  -0.00713  29.75606
   Z86       33.41036   0.00374   0.00000   0.00860   0.00782  33.41818
   X87       45.05107   0.00606   0.00000  -0.00417  -0.00239  45.04868
   Y87       31.35056   0.01917   0.00000   0.02110   0.02271  31.37327
   Z87       33.97728   0.00359   0.00000   0.00087   0.00014  33.97741
   X88       45.12666   0.00272   0.00000  -0.00456  -0.00237  45.12429
   Y88       29.53642   0.00315   0.00000   0.00989   0.01155  29.54797
   Z88       31.76630  -0.00589   0.00000  -0.00057  -0.00133  31.76496
   X89       42.08420   0.00303   0.00000  -0.00003  -0.00129  42.08291
   Y89       48.58486   0.01442   0.00000   0.01709   0.01816  48.60302
   Z89       37.00084   0.00976   0.00000  -0.00671  -0.00735  36.99349
   X90       41.21493  -0.00734   0.00000  -0.00498  -0.00600  41.20893
   Y90       47.46992  -0.00947   0.00000  -0.00060   0.00034  47.47026
   Z90       35.88590  -0.01552   0.00000  -0.02716  -0.02785  35.85805
   X91       43.82275   0.00323   0.00000   0.00465   0.00343  43.82618
   Y91       48.47148  -0.00373   0.00000  -0.01393  -0.01256  48.45892
   Z91       36.50951  -0.00211   0.00000  -0.00193  -0.00249  36.50702
   X92       49.77539   0.01482   0.00000   0.01323   0.01373  49.78912
   Y92       37.85121  -0.00540   0.00000  -0.02057  -0.01822  37.83300
   Z92       38.19137  -0.00268   0.00000  -0.00348  -0.00392  38.18744
   X93       48.16912  -0.00905   0.00000   0.01183   0.01218  48.18130
   Y93       38.53152   0.01249   0.00000   0.03300   0.03508  38.56660
   Z93       38.68269   0.00484   0.00000   0.00538   0.00488  38.68757
   X94       49.35965  -0.00548   0.00000  -0.02402  -0.02322  49.33643
   Y94       36.32054  -0.00612   0.00000  -0.01450  -0.01221  36.30832
   Z94       37.32209  -0.00425   0.00000  -0.01079  -0.01127  37.31082
   X95       33.07021   0.00974   0.00000   0.00446   0.00485  33.07505
   Y95       41.34721   0.00856   0.00000   0.02577   0.02545  41.37266
   Z95       27.24985  -0.02186   0.00000  -0.02472  -0.02585  27.22400
   X96       31.44504  -0.00840   0.00000   0.01225   0.01275  31.45780
   Y96       40.62911  -0.01211   0.00000  -0.03464  -0.03524  40.59387
   Z96       27.55221   0.00544   0.00000   0.00539   0.00418  27.55639
   X97       33.71271   0.00146   0.00000  -0.00353  -0.00327  33.70944
   Y97       41.70626   0.00363   0.00000   0.01030   0.01006  41.71632
   Z97       28.89391   0.01260   0.00000   0.00457   0.00347  28.89738
         Item               Value     Threshold  Converged?
 Maximum Force            0.030877     0.000450     NO 
 RMS     Force            0.010041     0.000300     NO 
 Maximum Displacement     0.075431     0.001800     NO 
 RMS     Displacement     0.017587     0.001200     NO 
 Predicted change in Energy=-2.769267D-02
 GradGradGradGradGradGradGradGradGradGradGradGradGradGradGradGradGradGrad

 Leave Link  103 at Thu May  3 11:31:54 2018, MaxMem= 14763950080 cpu:        66.4
 (Enter /cm/shared/gaussian/g09.e01/intel64-sandybridge/g09/l9999.exe)
 1\1\GINC-POPLE03\Force\RPBE1PBE\CC-pVDZ\Br1H64O32(1-)\M.PELUSO\03-May-
 2018\0\\#p PBE1PBE/cc-pvDZ force Counterpoise=2 noSymm\\forces on chlo
 ride comput - NWATER: 32\\-1,1\Br,20.,20.,20.\O,22.81,21.35,19.16\H,22
 .14,20.68,19.33\H,23.32,21.,18.43\O,17.32,19.92,18.38\H,18.06,20.41,18
 .73\H,17.62,19.02,18.35\O,19.32,20.83,23.02\H,19.71,20.95,22.15\H,19.7
 6,21.47,23.57\O,20.3,21.21,16.69\H,20.45,20.94,17.59\H,20.17,22.16,16.
 74\O,18.85,16.91,20.7\H,18.78,17.78,21.1\H,18.86,17.08,19.75\O,23.09,1
 7.68,20.44\H,22.46,17.05,20.79\H,22.56,18.4,20.1\O,19.68,23.81,19.24\H
 ,20.35,23.15,19.44\H,19.09,23.79,20.\O,18.21,18.41,23.4\H,17.31,18.57,
 23.68\H,18.58,19.28,23.23\O,17.59,23.33,20.86\H,16.84,22.99,20.37\H,17
 .72,22.7,21.57\O,22.02,22.38,22.91\H,22.55,22.7,23.63\H,22.23,21.44,22
 .86\O,21.03,16.14,22.02\H,21.07,15.19,22.13\H,20.32,16.27,21.39\O,18.,
 17.21,17.68\H,17.42,16.44,17.71\H,18.88,16.84,17.71\O,16.51,21.47,22.8
 7\H,17.2,20.8,22.86\H,16.97,22.28,23.09\O,19.02,18.5,15.64\H,19.38,19.
 37,15.79\H,18.92,18.12,16.51\O,20.48,16.21,17.81\H,21.33,16.58,18.04\H
 ,20.66,15.63,17.07\O,23.47,19.59,22.84\H,24.23,19.39,23.38\H,23.54,19.
 ,22.09\O,17.88,23.23,16.88\H,17.42,24.07,16.93\H,18.44,23.21,17.66\O,2
 0.85,17.79,24.14\H,21.05,17.19,23.41\H,19.98,18.12,23.94\O,15.86,17.25
 ,20.95\H,16.81,17.2,21.1\H,15.47,16.9,21.75\O,24.67,21.72,21.6\H,23.77
 ,21.9,21.31\H,24.58,21.08,22.3\O,22.94,20.33,16.\H,23.26,20.57,15.13\H
 ,22.05,20.68,16.03\O,14.92,20.3,20.24\H,15.5,19.54,20.26\H,15.48,21.03
 ,19.96\O,22.38,23.95,17.2\H,22.56,23.15,17.7\H,23.07,23.99,16.55\O,20.
 8,24.96,21.71\H,21.26,24.14,21.9\H,21.27,25.33,20.96\O,15.77,22.69,19.
 08\H,16.31,22.58,18.3\H,15.06,23.27,18.79\O,15.87,19.94,15.62\H,15.95,
 18.99,15.57\H,16.4,20.2,16.37\O,14.85,18.27,18.18\H,15.23,17.92,18.98\
 H,15.34,19.07,18.\O,24.48,18.53,17.49\H,24.08,19.17,16.9\H,25.3,18.28,
 17.05\O,23.5,15.75,17.68\H,23.84,16.59,17.98\H,23.88,15.63,16.81\O,22.
 27,25.71,19.58\H,21.81,25.12,18.99\H,23.19,25.65,19.32\O,26.34,20.03,2
 0.21\H,25.49,20.39,20.47\H,26.12,19.22,19.75\O,17.5,21.88,14.42\H,16.6
 4,21.5,14.58\H,17.84,22.07,15.29\\Version=ES64L-G09RevE.01\HF=-2443.25
 71354\RMSD=4.211e-09\RMSF=1.004e-02\Dipole=3.4546542,-2.131912,-0.7103
 553\Quadrupole=213.7199512,-197.3816555,-16.3382957,-1397.8104536,-133
 3.6894977,-1517.5494897\PG=C01 [X(Br1H64O32)]\\@


 KNOWLEDGE IS EXPERIMENT'S DAUGHTER.
 -- LEONARDO DA VINCI, IN "PENSIERI" CA. 1492
 Job cpu time:       0 days 11 hours 24 minutes 50.0 seconds.
 File lengths (MBytes):  RWF=    482 Int=      0 D2E=      0 Chk=    160 Scr=      1
 Normal termination of Gaussian 09 at Thu May  3 11:31:55 2018.
