 Entering Gaussian System, Link 0=/cm/shared/gaussian/g09.e01/intel64-sandybridge/g09/g09
 Initial command:
 /cm/shared/gaussian/g09.e01/intel64-sandybridge/g09/l1.exe "/local/scratch/m.peluso/32_wat/Gau-23704.inp" -scrdir="/local/scratch/m.peluso/32_wat/"
 Entering Link 1 = /cm/shared/gaussian/g09.e01/intel64-sandybridge/g09/l1.exe PID=     23705.
  
 Copyright (c) 1988,1990,1992,1993,1995,1998,2003,2009,2015,
            Gaussian, Inc.  All Rights Reserved.
  
 This is part of the Gaussian(R) 09 program.  It is based on
 the Gaussian(R) 03 system (copyright 2003, Gaussian, Inc.),
 the Gaussian(R) 98 system (copyright 1998, Gaussian, Inc.),
 the Gaussian(R) 94 system (copyright 1995, Gaussian, Inc.),
 the Gaussian 92(TM) system (copyright 1992, Gaussian, Inc.),
 the Gaussian 90(TM) system (copyright 1990, Gaussian, Inc.),
 the Gaussian 88(TM) system (copyright 1988, Gaussian, Inc.),
 the Gaussian 86(TM) system (copyright 1986, Carnegie Mellon
 University), and the Gaussian 82(TM) system (copyright 1983,
 Carnegie Mellon University). Gaussian is a federally registered
 trademark of Gaussian, Inc.
  
 This software contains proprietary and confidential information,
 including trade secrets, belonging to Gaussian, Inc.
  
 This software is provided under written license and may be
 used, copied, transmitted, or stored only in accord with that
 written license.
  
 The following legend is applicable only to US Government
 contracts under FAR:
  
                    RESTRICTED RIGHTS LEGEND
  
 Use, reproduction and disclosure by the US Government is
 subject to restrictions as set forth in subparagraphs (a)
 and (c) of the Commercial Computer Software - Restricted
 Rights clause in FAR 52.227-19.
  
 Gaussian, Inc.
 340 Quinnipiac St., Bldg. 40, Wallingford CT 06492
  
  
 ---------------------------------------------------------------
 Warning -- This program may not be used in any manner that
 competes with the business of Gaussian, Inc. or will provide
 assistance to any competitor of Gaussian, Inc.  The licensee
 of this program is prohibited from giving any competitor of
 Gaussian, Inc. access to this program.  By using this program,
 the user acknowledges that Gaussian, Inc. is engaged in the
 business of creating and licensing software in the field of
 computational chemistry and represents and warrants to the
 licensee that it is not a competitor of Gaussian, Inc. and that
 it will not use this program in any manner prohibited above.
 ---------------------------------------------------------------
  

 Cite this work as:
 Gaussian 09, Revision E.01,
 M. J. Frisch, G. W. Trucks, H. B. Schlegel, G. E. Scuseria, 
 M. A. Robb, J. R. Cheeseman, G. Scalmani, V. Barone, B. Mennucci, 
 G. A. Petersson, H. Nakatsuji, M. Caricato, X. Li, H. P. Hratchian, 
 A. F. Izmaylov, J. Bloino, G. Zheng, J. L. Sonnenberg, M. Hada, 
 M. Ehara, K. Toyota, R. Fukuda, J. Hasegawa, M. Ishida, T. Nakajima, 
 Y. Honda, O. Kitao, H. Nakai, T. Vreven, J. A. Montgomery, Jr., 
 J. E. Peralta, F. Ogliaro, M. Bearpark, J. J. Heyd, E. Brothers, 
 K. N. Kudin, V. N. Staroverov, T. Keith, R. Kobayashi, J. Normand, 
 K. Raghavachari, A. Rendell, J. C. Burant, S. S. Iyengar, J. Tomasi, 
 M. Cossi, N. Rega, J. M. Millam, M. Klene, J. E. Knox, J. B. Cross, 
 V. Bakken, C. Adamo, J. Jaramillo, R. Gomperts, R. E. Stratmann, 
 O. Yazyev, A. J. Austin, R. Cammi, C. Pomelli, J. W. Ochterski, 
 R. L. Martin, K. Morokuma, V. G. Zakrzewski, G. A. Voth, 
 P. Salvador, J. J. Dannenberg, S. Dapprich, A. D. Daniels, 
 O. Farkas, J. B. Foresman, J. V. Ortiz, J. Cioslowski, 
 and D. J. Fox, Gaussian, Inc., Wallingford CT, 2013.
 
 ******************************************
 Gaussian 09:  ES64L-G09RevE.01 30-Nov-2015
                 2-May-2018 
 ******************************************
 %Mem=110GB
 %NProcShared=64
 Will use up to   64 processors via shared memory.
 %chk=snap63.chk
 ----------------------------------------------
 #p PBE1PBE/cc-pvDZ force Counterpoise=2 noSymm
 ----------------------------------------------
 1/10=7,30=1,38=1,62=2/1,3;
 2/12=2,15=1,17=6,18=5,40=1/2;
 1/10=7,30=1,38=1,53=2,62=2,63=101/22;
 3/5=16,11=2,16=1,25=1,30=1,71=1,74=-13/1,2,3;
 4//1;
 5/5=2,38=5/2;
 6/7=2,8=2,9=2,10=2,28=1/1;
 7/7=1,29=1,30=1,33=-1/1,2,3,16;
 1/10=7,30=1,53=2,62=2,63=101/22;
 3/5=7,6=11,11=2,16=1,25=1,30=1,71=1,74=-13,82=7/1,2,3;
 4//1;
 5/5=2,38=5/2;
 6/7=2,8=2,9=2,10=2,28=1/1;
 7/7=1,29=1,30=1,33=-1/1,2,3,16;
 1/10=7,30=1,53=2,62=2,63=101/22(-5);
 7/9=1,29=1,44=-1/16;
 1/10=7,30=1,62=2/3;
 99//99;
 Leave Link    1 at Wed May  2 20:03:55 2018, MaxMem= 14763950080 cpu:         6.0
 (Enter /cm/shared/gaussian/g09.e01/intel64-sandybridge/g09/l101.exe)
 --------------------------------------
 forces on chloride comput - NWATER: 32
 --------------------------------------
 Symbolic Z-matrix:
 Charge = -1 Multiplicity = 1 in supermolecule
 Charge = -1 Multiplicity = 1 in fragment      1.
 Charge =  0 Multiplicity = 1 in fragment      2.
 Br(Fragment=1)        20.       20.       20. 
 O(Fragment=2)         21.57     21.19     22.28 
 H(Fragment=2)         21.15     21.03     21.43 
 H(Fragment=2)         22.35     20.63     22.26 
 O(Fragment=2)         17.47     18.15     19.49 
 H(Fragment=2)         18.26     18.67     19.66 
 H(Fragment=2)         16.85     18.44     20.16 
 O(Fragment=2)         17.98     22.32     19.14 
 H(Fragment=2)         17.07     22.08     19.31 
 H(Fragment=2)         18.47     21.52     19.32 
 O(Fragment=2)         21.59     22.54     18.88 
 H(Fragment=2)         21.16     21.87     19.41 
 H(Fragment=2)         20.98     22.7      18.15 
 O(Fragment=2)         22.51     19.41     17.77 
 H(Fragment=2)         21.71     19.29     18.29 
 H(Fragment=2)         23.22     19.16     18.37 
 O(Fragment=2)         18.45     17.79     22.38 
 H(Fragment=2)         19.2      17.66     22.96 
 H(Fragment=2)         18.72     18.49     21.79 
 O(Fragment=2)         18.37     20.21     16.5 
 H(Fragment=2)         18.56     19.51     15.89 
 H(Fragment=2)         19.       20.09     17.21 
 O(Fragment=2)         21.57     16.86     20.56 
 H(Fragment=2)         21.63     16.96     21.51 
 H(Fragment=2)         20.67     17.1      20.35 
 O(Fragment=2)         23.34     18.97     21.53 
 H(Fragment=2)         24.2      19.01     21.11 
 H(Fragment=2)         22.89     18.25     21.08 
 O(Fragment=2)         19.47     22.2      24.13 
 H(Fragment=2)         19.88     22.06     24.99 
 H(Fragment=2)         20.12     21.88     23.5 
 O(Fragment=2)         19.99     22.63     16.68 
 H(Fragment=2)         19.12     22.58     17.08 
 H(Fragment=2)         19.92     22.1      15.89 
 O(Fragment=2)         18.17     16.63     17.2 
 H(Fragment=2)         18.5      17.18     16.48 
 H(Fragment=2)         17.93     17.26     17.89 
 O(Fragment=2)         15.91     19.77     17.8 
 H(Fragment=2)         16.01     20.35     18.55 
 H(Fragment=2)         16.77     19.75     17.4 
 O(Fragment=2)         15.94     19.77     21.08 
 H(Fragment=2)         15.79     20.62     20.67 
 H(Fragment=2)         16.02     19.96     22.01 
 O(Fragment=2)         24.06     22.18     18.19 
 H(Fragment=2)         24.14     21.25     17.98 
 H(Fragment=2)         23.13     22.3      18.35 
 O(Fragment=2)         18.6      25.15     19.27 
 H(Fragment=2)         19.07     25.5      18.52 
 H(Fragment=2)         18.39     24.25     19.03 
 O(Fragment=2)         16.58     15.44     20.03 
 H(Fragment=2)         15.86     15.87     20.49 
 H(Fragment=2)         17.24     16.13     19.94 
 O(Fragment=2)         22.59     25.03     19.45 
 H(Fragment=2)         22.31     24.14     19.27 
 H(Fragment=2)         22.7      25.07     20.4 
 O(Fragment=2)         22.86     22.86     24.14 
 H(Fragment=2)         23.73     22.47     24.25 
 H(Fragment=2)         22.43     22.33     23.47 
 O(Fragment=2)         22.94     18.63     15.09 
 H(Fragment=2)         23.83     18.3      15.2 
 H(Fragment=2)         22.61     18.75     15.99 
 O(Fragment=2)         15.98     17.18     23.18 
 H(Fragment=2)         15.22     16.82     22.71 
 H(Fragment=2)         16.62     17.37     22.49 
 O(Fragment=2)         18.26     19.2      25.43 
 H(Fragment=2)         17.69     19.8      25.91 
 H(Fragment=2)         18.71     19.75     24.79 
 O(Fragment=2)         22.52     14.9      18.51 
 H(Fragment=2)         23.39     15.03     18.89 
 H(Fragment=2)         21.95     15.51     18.98 
 O(Fragment=2)         16.57     21.78     24.5 
 H(Fragment=2)         16.78     21.89     25.43 
 H(Fragment=2)         17.38     21.98     24.04 
 O(Fragment=2)         15.09     21.86     19.64 
 H(Fragment=2)         14.43     22.14     19. 
 H(Fragment=2)         14.89     22.37     20.42 
 O(Fragment=2)         21.9      15.84     23.41 
 H(Fragment=2)         21.51     14.97     23.51 
 H(Fragment=2)         21.33     16.42     23.91 
 O(Fragment=2)         16.54     22.03     15.01 
 H(Fragment=2)         16.55     22.87     15.47 
 H(Fragment=2)         16.73     21.38     15.69 
 O(Fragment=2)         19.86     17.17     24.97 
 H(Fragment=2)         19.38     17.95     25.26 
 H(Fragment=2)         19.18     16.52     24.79 
 O(Fragment=2)         23.99     18.24     24.85 
 H(Fragment=2)         24.93     18.08     24.9 
 H(Fragment=2)         23.87     18.66     24. 
 O(Fragment=2)         25.67     19.23     20.49 
 H(Fragment=2)         26.38     19.82     20.76 
 H(Fragment=2)         26.12     18.48     20.11 
 O(Fragment=2)         19.83     26.35     21.76 
 H(Fragment=2)         19.43     25.6      21.31 
 H(Fragment=2)         20.75     26.11     21.86 
 O(Fragment=2)         23.97     22.93     15.59 
 H(Fragment=2)         23.23     23.53     15.57 
 H(Fragment=2)         23.8      22.36     16.34 
 
 NAtoms=     97 NQM=       97 NQMF=       0 NMMI=      0 NMMIF=      0
                NMic=       0 NMicF=      0.
                    Isotopes and Nuclear Properties:
 (Nuclear quadrupole moments (NQMom) in fm**2, nuclear magnetic moments (NMagM)
  in nuclear magnetons)

  Atom         1           2           3           4           5           6           7           8           9          10
 IAtWgt=          79          16           1           1          16           1           1          16           1           1
 AtmWgt=  78.9183361  15.9949146   1.0078250   1.0078250  15.9949146   1.0078250   1.0078250  15.9949146   1.0078250   1.0078250
 NucSpn=           3           0           1           1           0           1           1           0           1           1
 AtZEff=   0.0000000   0.0000000   0.0000000   0.0000000   0.0000000   0.0000000   0.0000000   0.0000000   0.0000000   0.0000000
 NQMom=   31.3000000   0.0000000   0.0000000   0.0000000   0.0000000   0.0000000   0.0000000   0.0000000   0.0000000   0.0000000
 NMagM=    2.1063990   0.0000000   2.7928460   2.7928460   0.0000000   2.7928460   2.7928460   0.0000000   2.7928460   2.7928460
 AtZNuc=  35.0000000   8.0000000   1.0000000   1.0000000   8.0000000   1.0000000   1.0000000   8.0000000   1.0000000   1.0000000

  Atom        11          12          13          14          15          16          17          18          19          20
 IAtWgt=          16           1           1          16           1           1          16           1           1          16
 AtmWgt=  15.9949146   1.0078250   1.0078250  15.9949146   1.0078250   1.0078250  15.9949146   1.0078250   1.0078250  15.9949146
 NucSpn=           0           1           1           0           1           1           0           1           1           0
 AtZEff=   0.0000000   0.0000000   0.0000000   0.0000000   0.0000000   0.0000000   0.0000000   0.0000000   0.0000000   0.0000000
 NQMom=    0.0000000   0.0000000   0.0000000   0.0000000   0.0000000   0.0000000   0.0000000   0.0000000   0.0000000   0.0000000
 NMagM=    0.0000000   2.7928460   2.7928460   0.0000000   2.7928460   2.7928460   0.0000000   2.7928460   2.7928460   0.0000000
 AtZNuc=   8.0000000   1.0000000   1.0000000   8.0000000   1.0000000   1.0000000   8.0000000   1.0000000   1.0000000   8.0000000

  Atom        21          22          23          24          25          26          27          28          29          30
 IAtWgt=           1           1          16           1           1          16           1           1          16           1
 AtmWgt=   1.0078250   1.0078250  15.9949146   1.0078250   1.0078250  15.9949146   1.0078250   1.0078250  15.9949146   1.0078250
 NucSpn=           1           1           0           1           1           0           1           1           0           1
 AtZEff=   0.0000000   0.0000000   0.0000000   0.0000000   0.0000000   0.0000000   0.0000000   0.0000000   0.0000000   0.0000000
 NQMom=    0.0000000   0.0000000   0.0000000   0.0000000   0.0000000   0.0000000   0.0000000   0.0000000   0.0000000   0.0000000
 NMagM=    2.7928460   2.7928460   0.0000000   2.7928460   2.7928460   0.0000000   2.7928460   2.7928460   0.0000000   2.7928460
 AtZNuc=   1.0000000   1.0000000   8.0000000   1.0000000   1.0000000   8.0000000   1.0000000   1.0000000   8.0000000   1.0000000

  Atom        31          32          33          34          35          36          37          38          39          40
 IAtWgt=           1          16           1           1          16           1           1          16           1           1
 AtmWgt=   1.0078250  15.9949146   1.0078250   1.0078250  15.9949146   1.0078250   1.0078250  15.9949146   1.0078250   1.0078250
 NucSpn=           1           0           1           1           0           1           1           0           1           1
 AtZEff=   0.0000000   0.0000000   0.0000000   0.0000000   0.0000000   0.0000000   0.0000000   0.0000000   0.0000000   0.0000000
 NQMom=    0.0000000   0.0000000   0.0000000   0.0000000   0.0000000   0.0000000   0.0000000   0.0000000   0.0000000   0.0000000
 NMagM=    2.7928460   0.0000000   2.7928460   2.7928460   0.0000000   2.7928460   2.7928460   0.0000000   2.7928460   2.7928460
 AtZNuc=   1.0000000   8.0000000   1.0000000   1.0000000   8.0000000   1.0000000   1.0000000   8.0000000   1.0000000   1.0000000

  Atom        41          42          43          44          45          46          47          48          49          50
 IAtWgt=          16           1           1          16           1           1          16           1           1          16
 AtmWgt=  15.9949146   1.0078250   1.0078250  15.9949146   1.0078250   1.0078250  15.9949146   1.0078250   1.0078250  15.9949146
 NucSpn=           0           1           1           0           1           1           0           1           1           0
 AtZEff=   0.0000000   0.0000000   0.0000000   0.0000000   0.0000000   0.0000000   0.0000000   0.0000000   0.0000000   0.0000000
 NQMom=    0.0000000   0.0000000   0.0000000   0.0000000   0.0000000   0.0000000   0.0000000   0.0000000   0.0000000   0.0000000
 NMagM=    0.0000000   2.7928460   2.7928460   0.0000000   2.7928460   2.7928460   0.0000000   2.7928460   2.7928460   0.0000000
 AtZNuc=   8.0000000   1.0000000   1.0000000   8.0000000   1.0000000   1.0000000   8.0000000   1.0000000   1.0000000   8.0000000

  Atom        51          52          53          54          55          56          57          58          59          60
 IAtWgt=           1           1          16           1           1          16           1           1          16           1
 AtmWgt=   1.0078250   1.0078250  15.9949146   1.0078250   1.0078250  15.9949146   1.0078250   1.0078250  15.9949146   1.0078250
 NucSpn=           1           1           0           1           1           0           1           1           0           1
 AtZEff=   0.0000000   0.0000000   0.0000000   0.0000000   0.0000000   0.0000000   0.0000000   0.0000000   0.0000000   0.0000000
 NQMom=    0.0000000   0.0000000   0.0000000   0.0000000   0.0000000   0.0000000   0.0000000   0.0000000   0.0000000   0.0000000
 NMagM=    2.7928460   2.7928460   0.0000000   2.7928460   2.7928460   0.0000000   2.7928460   2.7928460   0.0000000   2.7928460
 AtZNuc=   1.0000000   1.0000000   8.0000000   1.0000000   1.0000000   8.0000000   1.0000000   1.0000000   8.0000000   1.0000000

  Atom        61          62          63          64          65          66          67          68          69          70
 IAtWgt=           1          16           1           1          16           1           1          16           1           1
 AtmWgt=   1.0078250  15.9949146   1.0078250   1.0078250  15.9949146   1.0078250   1.0078250  15.9949146   1.0078250   1.0078250
 NucSpn=           1           0           1           1           0           1           1           0           1           1
 AtZEff=   0.0000000   0.0000000   0.0000000   0.0000000   0.0000000   0.0000000   0.0000000   0.0000000   0.0000000   0.0000000
 NQMom=    0.0000000   0.0000000   0.0000000   0.0000000   0.0000000   0.0000000   0.0000000   0.0000000   0.0000000   0.0000000
 NMagM=    2.7928460   0.0000000   2.7928460   2.7928460   0.0000000   2.7928460   2.7928460   0.0000000   2.7928460   2.7928460
 AtZNuc=   1.0000000   8.0000000   1.0000000   1.0000000   8.0000000   1.0000000   1.0000000   8.0000000   1.0000000   1.0000000

  Atom        71          72          73          74          75          76          77          78          79          80
 IAtWgt=          16           1           1          16           1           1          16           1           1          16
 AtmWgt=  15.9949146   1.0078250   1.0078250  15.9949146   1.0078250   1.0078250  15.9949146   1.0078250   1.0078250  15.9949146
 NucSpn=           0           1           1           0           1           1           0           1           1           0
 AtZEff=   0.0000000   0.0000000   0.0000000   0.0000000   0.0000000   0.0000000   0.0000000   0.0000000   0.0000000   0.0000000
 NQMom=    0.0000000   0.0000000   0.0000000   0.0000000   0.0000000   0.0000000   0.0000000   0.0000000   0.0000000   0.0000000
 NMagM=    0.0000000   2.7928460   2.7928460   0.0000000   2.7928460   2.7928460   0.0000000   2.7928460   2.7928460   0.0000000
 AtZNuc=   8.0000000   1.0000000   1.0000000   8.0000000   1.0000000   1.0000000   8.0000000   1.0000000   1.0000000   8.0000000

  Atom        81          82          83          84          85          86          87          88          89          90
 IAtWgt=           1           1          16           1           1          16           1           1          16           1
 AtmWgt=   1.0078250   1.0078250  15.9949146   1.0078250   1.0078250  15.9949146   1.0078250   1.0078250  15.9949146   1.0078250
 NucSpn=           1           1           0           1           1           0           1           1           0           1
 AtZEff=   0.0000000   0.0000000   0.0000000   0.0000000   0.0000000   0.0000000   0.0000000   0.0000000   0.0000000   0.0000000
 NQMom=    0.0000000   0.0000000   0.0000000   0.0000000   0.0000000   0.0000000   0.0000000   0.0000000   0.0000000   0.0000000
 NMagM=    2.7928460   2.7928460   0.0000000   2.7928460   2.7928460   0.0000000   2.7928460   2.7928460   0.0000000   2.7928460
 AtZNuc=   1.0000000   1.0000000   8.0000000   1.0000000   1.0000000   8.0000000   1.0000000   1.0000000   8.0000000   1.0000000

  Atom        91          92          93          94          95          96          97
 IAtWgt=           1          16           1           1          16           1           1
 AtmWgt=   1.0078250  15.9949146   1.0078250   1.0078250  15.9949146   1.0078250   1.0078250
 NucSpn=           1           0           1           1           0           1           1
 AtZEff=   0.0000000   0.0000000   0.0000000   0.0000000   0.0000000   0.0000000   0.0000000
 NQMom=    0.0000000   0.0000000   0.0000000   0.0000000   0.0000000   0.0000000   0.0000000
 NMagM=    2.7928460   0.0000000   2.7928460   2.7928460   0.0000000   2.7928460   2.7928460
 AtZNuc=   1.0000000   8.0000000   1.0000000   1.0000000   8.0000000   1.0000000   1.0000000
 Leave Link  101 at Wed May  2 20:03:55 2018, MaxMem= 14763950080 cpu:        12.5
 (Enter /cm/shared/gaussian/g09.e01/intel64-sandybridge/g09/l103.exe)

 GradGradGradGradGradGradGradGradGradGradGradGradGradGradGradGradGradGrad
 Berny optimization.
 Initialization pass.
 Trust Radius=3.00D-01 FncErr=1.00D-07 GrdErr=1.00D-07
 Number of steps in this run=      2 maximum allowed number of steps=      2.
 GradGradGradGradGradGradGradGradGradGradGradGradGradGradGradGradGradGrad

 Leave Link  103 at Wed May  2 20:03:55 2018, MaxMem= 14763950080 cpu:         1.7
 (Enter /cm/shared/gaussian/g09.e01/intel64-sandybridge/g09/l202.exe)
 Symmetry turned off by external request.
 Stoichiometry    BrH64O32(1-)
 Framework group  C1[X(BrH64O32)]
 Deg. of freedom   285
 Full point group                 C1      NOp   1
                          Input orientation:                          
 ---------------------------------------------------------------------
 Center     Atomic      Atomic             Coordinates (Angstroms)
 Number     Number       Type             X           Y           Z
 ---------------------------------------------------------------------
      1         35           0       20.000000   20.000000   20.000000
      2          8           0       21.570000   21.190000   22.280000
      3          1           0       21.150000   21.030000   21.430000
      4          1           0       22.350000   20.630000   22.260000
      5          8           0       17.470000   18.150000   19.490000
      6          1           0       18.260000   18.670000   19.660000
      7          1           0       16.850000   18.440000   20.160000
      8          8           0       17.980000   22.320000   19.140000
      9          1           0       17.070000   22.080000   19.310000
     10          1           0       18.470000   21.520000   19.320000
     11          8           0       21.590000   22.540000   18.880000
     12          1           0       21.160000   21.870000   19.410000
     13          1           0       20.980000   22.700000   18.150000
     14          8           0       22.510000   19.410000   17.770000
     15          1           0       21.710000   19.290000   18.290000
     16          1           0       23.220000   19.160000   18.370000
     17          8           0       18.450000   17.790000   22.380000
     18          1           0       19.200000   17.660000   22.960000
     19          1           0       18.720000   18.490000   21.790000
     20          8           0       18.370000   20.210000   16.500000
     21          1           0       18.560000   19.510000   15.890000
     22          1           0       19.000000   20.090000   17.210000
     23          8           0       21.570000   16.860000   20.560000
     24          1           0       21.630000   16.960000   21.510000
     25          1           0       20.670000   17.100000   20.350000
     26          8           0       23.340000   18.970000   21.530000
     27          1           0       24.200000   19.010000   21.110000
     28          1           0       22.890000   18.250000   21.080000
     29          8           0       19.470000   22.200000   24.130000
     30          1           0       19.880000   22.060000   24.990000
     31          1           0       20.120000   21.880000   23.500000
     32          8           0       19.990000   22.630000   16.680000
     33          1           0       19.120000   22.580000   17.080000
     34          1           0       19.920000   22.100000   15.890000
     35          8           0       18.170000   16.630000   17.200000
     36          1           0       18.500000   17.180000   16.480000
     37          1           0       17.930000   17.260000   17.890000
     38          8           0       15.910000   19.770000   17.800000
     39          1           0       16.010000   20.350000   18.550000
     40          1           0       16.770000   19.750000   17.400000
     41          8           0       15.940000   19.770000   21.080000
     42          1           0       15.790000   20.620000   20.670000
     43          1           0       16.020000   19.960000   22.010000
     44          8           0       24.060000   22.180000   18.190000
     45          1           0       24.140000   21.250000   17.980000
     46          1           0       23.130000   22.300000   18.350000
     47          8           0       18.600000   25.150000   19.270000
     48          1           0       19.070000   25.500000   18.520000
     49          1           0       18.390000   24.250000   19.030000
     50          8           0       16.580000   15.440000   20.030000
     51          1           0       15.860000   15.870000   20.490000
     52          1           0       17.240000   16.130000   19.940000
     53          8           0       22.590000   25.030000   19.450000
     54          1           0       22.310000   24.140000   19.270000
     55          1           0       22.700000   25.070000   20.400000
     56          8           0       22.860000   22.860000   24.140000
     57          1           0       23.730000   22.470000   24.250000
     58          1           0       22.430000   22.330000   23.470000
     59          8           0       22.940000   18.630000   15.090000
     60          1           0       23.830000   18.300000   15.200000
     61          1           0       22.610000   18.750000   15.990000
     62          8           0       15.980000   17.180000   23.180000
     63          1           0       15.220000   16.820000   22.710000
     64          1           0       16.620000   17.370000   22.490000
     65          8           0       18.260000   19.200000   25.430000
     66          1           0       17.690000   19.800000   25.910000
     67          1           0       18.710000   19.750000   24.790000
     68          8           0       22.520000   14.900000   18.510000
     69          1           0       23.390000   15.030000   18.890000
     70          1           0       21.950000   15.510000   18.980000
     71          8           0       16.570000   21.780000   24.500000
     72          1           0       16.780000   21.890000   25.430000
     73          1           0       17.380000   21.980000   24.040000
     74          8           0       15.090000   21.860000   19.640000
     75          1           0       14.430000   22.140000   19.000000
     76          1           0       14.890000   22.370000   20.420000
     77          8           0       21.900000   15.840000   23.410000
     78          1           0       21.510000   14.970000   23.510000
     79          1           0       21.330000   16.420000   23.910000
     80          8           0       16.540000   22.030000   15.010000
     81          1           0       16.550000   22.870000   15.470000
     82          1           0       16.730000   21.380000   15.690000
     83          8           0       19.860000   17.170000   24.970000
     84          1           0       19.380000   17.950000   25.260000
     85          1           0       19.180000   16.520000   24.790000
     86          8           0       23.990000   18.240000   24.850000
     87          1           0       24.930000   18.080000   24.900000
     88          1           0       23.870000   18.660000   24.000000
     89          8           0       25.670000   19.230000   20.490000
     90          1           0       26.380000   19.820000   20.760000
     91          1           0       26.120000   18.480000   20.110000
     92          8           0       19.830000   26.350000   21.760000
     93          1           0       19.430000   25.600000   21.310000
     94          1           0       20.750000   26.110000   21.860000
     95          8           0       23.970000   22.930000   15.590000
     96          1           0       23.230000   23.530000   15.570000
     97          1           0       23.800000   22.360000   16.340000
 ---------------------------------------------------------------------
 Rotational constants (GHZ):      0.0557863      0.0508940      0.0476596
 Leave Link  202 at Wed May  2 20:03:55 2018, MaxMem= 14763950080 cpu:         0.5
 (Enter /cm/shared/gaussian/g09.e01/intel64-sandybridge/g09/l122.exe)
 Counterpoise: doing full dimer calculation.
 Leave Link  122 at Wed May  2 20:03:55 2018, MaxMem= 14763950080 cpu:         0.1
 (Enter /cm/shared/gaussian/g09.e01/intel64-sandybridge/g09/l301.exe)
 Standard basis: CC-pVDZ (5D, 7F)
 Ernie: Thresh=  0.10000D-02 Tol=  0.10000D-05 Strict=F.
 Ernie:  87 primitive shells out of 1114 were deleted.
   795 basis functions,  1651 primitive gaussians,   829 cartesian basis functions
   178 alpha electrons      178 beta electrons
       nuclear repulsion energy      5967.1218362442 Hartrees.
 IExCor= 1009 DFT=T Ex+Corr=PBE1PBE ExCW=0 ScaHFX=  0.250000
 ScaDFX=  0.750000  0.750000  1.000000  1.000000 ScalE2=  1.000000  1.000000
 IRadAn=      0 IRanWt=     -1 IRanGd=            0 ICorTp=0 IEmpDi=  4
 NAtoms=   97 NActive=   97 NUniq=   97 SFac= 1.00D+00 NAtFMM=   60 NAOKFM=T Big=T
 Integral buffers will be    131072 words long.
 Raffenetti 2 integral format.
 Two-electron integral symmetry is turned off.
 Leave Link  301 at Wed May  2 20:03:56 2018, MaxMem= 14763950080 cpu:         4.3
 (Enter /cm/shared/gaussian/g09.e01/intel64-sandybridge/g09/l302.exe)
 NPDir=0 NMtPBC=     1 NCelOv=     1 NCel=       1 NClECP=     1 NCelD=      1
         NCelK=      1 NCelE2=     1 NClLst=     1 CellRange=     0.0.
 One-electron integrals computed using PRISM.
 NBasis=   795 RedAO= T EigKep=  1.32D-02  NBF=   795
 NBsUse=   795 1.00D-06 EigRej= -1.00D+00 NBFU=   795
 Precomputing XC quadrature grid using
 IXCGrd= 4 IRadAn=           0 IRanWt=          -1 IRanGd=           0 AccXCQ= 0.00D+00.
 Generated NRdTot=       0 NPtTot=           0 NUsed=           0 NTot=          32
 NSgBfM=   737   737   740   740   740 MxSgAt=    97 MxSgA2=    97.
 Leave Link  302 at Wed May  2 20:04:02 2018, MaxMem= 14763950080 cpu:       388.5
 (Enter /cm/shared/gaussian/g09.e01/intel64-sandybridge/g09/l303.exe)
 DipDrv:  MaxL=1.
 Leave Link  303 at Wed May  2 20:04:03 2018, MaxMem= 14763950080 cpu:        28.6
 (Enter /cm/shared/gaussian/g09.e01/intel64-sandybridge/g09/l401.exe)
 ExpMin= 1.22D-01 ExpMax= 6.40D+05 ExpMxC= 6.18D+03 IAcc=2 IRadAn=         4 AccDes= 0.00D+00
 Harris functional with IExCor= 1009 and IRadAn=       4 diagonalized for initial guess.
 HarFok:  IExCor= 1009 AccDes= 0.00D+00 IRadAn=         4 IDoV= 1 UseB2=F ITyADJ=14
 ICtDFT=  3500011 ScaDFX=  1.000000  1.000000  1.000000  1.000000
 FoFCou: FMM=F IPFlag=           0 FMFlag=      100000 FMFlg1=        2001
         NFxFlg=           0 DoJE=T BraDBF=F KetDBF=T FulRan=T
         wScrn=  0.000000 ICntrl=     500 IOpCl=  0 I1Cent=   200000004 NGrid=           0
         NMat0=    1 NMatS0=      1 NMatT0=    0 NMatD0=    1 NMtDS0=    0 NMtDT0=    0
 Symmetry not used in FoFCou.
 Harris En= -5018.41916279040    
 JPrj=0 DoOrth=F DoCkMO=F.
 Leave Link  401 at Wed May  2 20:04:08 2018, MaxMem= 14763950080 cpu:       304.0
 (Enter /cm/shared/gaussian/g09.e01/intel64-sandybridge/g09/l502.exe)
 Closed shell SCF:
 Using DIIS extrapolation, IDIIS=  1040.
 Two-electron integral symmetry not used.
 IVT=     2138497 IEndB=     2138497 NGot= 14763950080 MDV= 14762516294
 LenX= 14762516294 LenY= 14761828224
 Requested convergence on RMS density matrix=1.00D-08 within 128 cycles.
 Requested convergence on MAX density matrix=1.00D-06.
 Requested convergence on             energy=1.00D-06.
 No special actions if energy rises.
 Fock matrices will be formed incrementally for  20 cycles.
 Integral accuracy reduced to 1.0D-05 until final iterations.

 Cycle   1  Pass 0  IDiag  1:
 FoFJK:  IHMeth= 1 ICntrl=       0 DoSepK=F KAlg= 0 I1Cent=   0 FoldK=F
 IRaf= 790000000 NMat=   1 IRICut=       1 DoRegI=T DoRafI=F ISym2E= 0.
 FoFCou: FMM=T IPFlag=           0 FMFlag=      100000 FMFlg1=        2001
         NFxFlg=           0 DoJE=F BraDBF=F KetDBF=F FulRan=T
         wScrn=  0.000000 ICntrl=       0 IOpCl=  0 I1Cent=           0 NGrid=           0
         NMat0=    1 NMatS0=      1 NMatT0=    0 NMatD0=    1 NMtDS0=    0 NMtDT0=    0
 Symmetry not used in FoFCou.
 FMM levels:  10  Number of levels for PrismC:   9
 E= -5015.20940189476    
 DIIS: error= 4.36D-02 at cycle   1 NSaved=   1.
 NSaved= 1 IEnMin= 1 EnMin= -5015.20940189476     IErMin= 1 ErrMin= 4.36D-02
 ErrMax= 4.36D-02  0.00D+00 EMaxC= 1.00D-01 BMatC= 2.77D+00 BMatP= 2.77D+00
 IDIUse=3 WtCom= 5.64D-01 WtEn= 4.36D-01
 Coeff-Com:  0.100D+01
 Coeff-En:   0.100D+01
 Coeff:      0.100D+01
 Gap=     0.332 Goal=   None    Shift=    0.000
 GapD=    0.332 DampG=1.000 DampE=0.500 DampFc=0.5000 IDamp=-1.
 Damping current iteration by 5.00D-01
 RMSDP=2.88D-03 MaxDP=1.57D-01              OVMax= 1.81D-01

 Cycle   2  Pass 0  IDiag  1:
 RMSU=  1.43D-03    CP:  9.85D-01
 E= -5016.01784272758     Delta-E=       -0.808440832821 Rises=F Damp=T
 DIIS: error= 7.65D-03 at cycle   2 NSaved=   2.
 NSaved= 2 IEnMin= 2 EnMin= -5016.01784272758     IErMin= 2 ErrMin= 7.65D-03
 ErrMax= 7.65D-03  0.00D+00 EMaxC= 1.00D-01 BMatC= 8.97D-02 BMatP= 2.77D+00
 IDIUse=3 WtCom= 9.24D-01 WtEn= 7.65D-02
 Coeff-Com:  0.121D+00 0.879D+00
 Coeff-En:   0.217D+00 0.783D+00
 Coeff:      0.129D+00 0.871D+00
 Gap=     0.225 Goal=   None    Shift=    0.000
 RMSDP=3.54D-04 MaxDP=1.84D-02 DE=-8.08D-01 OVMax= 1.00D-01

 Cycle   3  Pass 0  IDiag  1:
 RMSU=  2.75D-04    CP:  9.87D-01  8.45D-01
 E= -5017.19908208072     Delta-E=       -1.181239353144 Rises=F Damp=F
 DIIS: error= 1.20D-03 at cycle   3 NSaved=   3.
 NSaved= 3 IEnMin= 3 EnMin= -5017.19908208072     IErMin= 3 ErrMin= 1.20D-03
 ErrMax= 1.20D-03  0.00D+00 EMaxC= 1.00D-01 BMatC= 1.44D-03 BMatP= 8.97D-02
 IDIUse=3 WtCom= 9.88D-01 WtEn= 1.20D-02
 Coeff-Com:  0.826D-02 0.558D-01 0.936D+00
 Coeff-En:   0.000D+00 0.000D+00 0.100D+01
 Coeff:      0.816D-02 0.551D-01 0.937D+00
 Gap=     0.237 Goal=   None    Shift=    0.000
 RMSDP=8.90D-05 MaxDP=1.41D-02 DE=-1.18D+00 OVMax= 1.63D-02

 Cycle   4  Pass 0  IDiag  1:
 RMSU=  7.93D-05    CP:  9.87D-01  8.49D-01  8.54D-01
 E= -5017.19957378830     Delta-E=       -0.000491707580 Rises=F Damp=F
 DIIS: error= 8.86D-04 at cycle   4 NSaved=   4.
 NSaved= 4 IEnMin= 4 EnMin= -5017.19957378830     IErMin= 4 ErrMin= 8.86D-04
 ErrMax= 8.86D-04  0.00D+00 EMaxC= 1.00D-01 BMatC= 1.28D-03 BMatP= 1.44D-03
 IDIUse=3 WtCom= 9.91D-01 WtEn= 8.86D-03
 Coeff-Com:  0.217D-02 0.604D-02 0.482D+00 0.509D+00
 Coeff-En:   0.000D+00 0.000D+00 0.397D+00 0.603D+00
 Coeff:      0.215D-02 0.599D-02 0.482D+00 0.510D+00
 Gap=     0.234 Goal=   None    Shift=    0.000
 RMSDP=3.78D-05 MaxDP=5.79D-03 DE=-4.92D-04 OVMax= 5.83D-03

 Cycle   5  Pass 0  IDiag  1:
 RMSU=  1.61D-05    CP:  9.87D-01  8.46D-01  9.08D-01  6.13D-01
 E= -5017.20062046429     Delta-E=       -0.001046675983 Rises=F Damp=F
 DIIS: error= 1.45D-04 at cycle   5 NSaved=   5.
 NSaved= 5 IEnMin= 5 EnMin= -5017.20062046429     IErMin= 5 ErrMin= 1.45D-04
 ErrMax= 1.45D-04  0.00D+00 EMaxC= 1.00D-01 BMatC= 3.44D-05 BMatP= 1.28D-03
 IDIUse=3 WtCom= 9.99D-01 WtEn= 1.45D-03
 Coeff-Com:  0.716D-03-0.203D-02 0.136D+00 0.190D+00 0.676D+00
 Coeff-En:   0.000D+00 0.000D+00 0.000D+00 0.000D+00 0.100D+01
 Coeff:      0.715D-03-0.203D-02 0.136D+00 0.189D+00 0.676D+00
 Gap=     0.235 Goal=   None    Shift=    0.000
 RMSDP=7.41D-06 MaxDP=9.59D-04 DE=-1.05D-03 OVMax= 1.04D-03

 Initial convergence to 1.0D-05 achieved.  Increase integral accuracy.
 Cycle   6  Pass 1  IDiag  1:
 E= -5017.20128898870     Delta-E=       -0.000668524412 Rises=F Damp=F
 DIIS: error= 8.72D-05 at cycle   1 NSaved=   1.
 NSaved= 1 IEnMin= 1 EnMin= -5017.20128898870     IErMin= 1 ErrMin= 8.72D-05
 ErrMax= 8.72D-05  0.00D+00 EMaxC= 1.00D-01 BMatC= 5.06D-06 BMatP= 5.06D-06
 IDIUse=1 WtCom= 1.00D+00 WtEn= 0.00D+00
 Coeff-Com:  0.100D+01
 Coeff:      0.100D+01
 Gap=     0.235 Goal=   None    Shift=    0.000
 RMSDP=7.41D-06 MaxDP=9.59D-04 DE=-6.69D-04 OVMax= 6.22D-04

 Cycle   7  Pass 1  IDiag  1:
 RMSU=  5.86D-06    CP:  1.00D+00
 E= -5017.20128929383     Delta-E=       -0.000000305134 Rises=F Damp=F
 DIIS: error= 6.00D-05 at cycle   2 NSaved=   2.
 NSaved= 2 IEnMin= 2 EnMin= -5017.20128929383     IErMin= 2 ErrMin= 6.00D-05
 ErrMax= 6.00D-05  0.00D+00 EMaxC= 1.00D-01 BMatC= 5.30D-06 BMatP= 5.06D-06
 IDIUse=1 WtCom= 1.00D+00 WtEn= 0.00D+00
 Coeff-Com:  0.506D+00 0.494D+00
 Coeff:      0.506D+00 0.494D+00
 Gap=     0.235 Goal=   None    Shift=    0.000
 RMSDP=2.27D-06 MaxDP=2.95D-04 DE=-3.05D-07 OVMax= 2.65D-04

 Cycle   8  Pass 1  IDiag  1:
 RMSU=  1.66D-06    CP:  1.00D+00  7.36D-01
 E= -5017.20129319162     Delta-E=       -0.000003897794 Rises=F Damp=F
 DIIS: error= 9.23D-06 at cycle   3 NSaved=   3.
 NSaved= 3 IEnMin= 3 EnMin= -5017.20129319162     IErMin= 3 ErrMin= 9.23D-06
 ErrMax= 9.23D-06  0.00D+00 EMaxC= 1.00D-01 BMatC= 1.50D-07 BMatP= 5.06D-06
 IDIUse=1 WtCom= 1.00D+00 WtEn= 0.00D+00
 Coeff-Com:  0.103D+00 0.179D+00 0.718D+00
 Coeff:      0.103D+00 0.179D+00 0.718D+00
 Gap=     0.235 Goal=   None    Shift=    0.000
 RMSDP=4.76D-07 MaxDP=7.25D-05 DE=-3.90D-06 OVMax= 7.18D-05

 Cycle   9  Pass 1  IDiag  1:
 RMSU=  4.62D-07    CP:  1.00D+00  7.41D-01  9.34D-01
 E= -5017.20129328471     Delta-E=       -0.000000093089 Rises=F Damp=F
 DIIS: error= 6.42D-06 at cycle   4 NSaved=   4.
 NSaved= 4 IEnMin= 4 EnMin= -5017.20129328471     IErMin= 4 ErrMin= 6.42D-06
 ErrMax= 6.42D-06  0.00D+00 EMaxC= 1.00D-01 BMatC= 1.81D-08 BMatP= 1.50D-07
 IDIUse=1 WtCom= 1.00D+00 WtEn= 0.00D+00
 Coeff-Com: -0.341D-02 0.318D-01 0.320D+00 0.651D+00
 Coeff:     -0.341D-02 0.318D-01 0.320D+00 0.651D+00
 Gap=     0.235 Goal=   None    Shift=    0.000
 RMSDP=1.83D-07 MaxDP=3.82D-05 DE=-9.31D-08 OVMax= 3.69D-05

 Cycle  10  Pass 1  IDiag  1:
 RMSU=  4.05D-08    CP:  1.00D+00  7.54D-01  9.36D-01  6.48D-01
 E= -5017.20129330166     Delta-E=       -0.000000016942 Rises=F Damp=F
 DIIS: error= 2.84D-07 at cycle   5 NSaved=   5.
 NSaved= 5 IEnMin= 5 EnMin= -5017.20129330166     IErMin= 5 ErrMin= 2.84D-07
 ErrMax= 2.84D-07  0.00D+00 EMaxC= 1.00D-01 BMatC= 1.89D-10 BMatP= 1.81D-08
 IDIUse=1 WtCom= 1.00D+00 WtEn= 0.00D+00
 Coeff-Com: -0.231D-02 0.112D-01 0.126D+00 0.277D+00 0.588D+00
 Coeff:     -0.231D-02 0.112D-01 0.126D+00 0.277D+00 0.588D+00
 Gap=     0.235 Goal=   None    Shift=    0.000
 RMSDP=1.40D-08 MaxDP=1.38D-06 DE=-1.69D-08 OVMax= 1.19D-06

 Cycle  11  Pass 1  IDiag  1:
 RMSU=  1.26D-08    CP:  1.00D+00  7.54D-01  9.37D-01  6.56D-01  8.85D-01
 E= -5017.20129330185     Delta-E=       -0.000000000196 Rises=F Damp=F
 DIIS: error= 9.61D-08 at cycle   6 NSaved=   6.
 NSaved= 6 IEnMin= 6 EnMin= -5017.20129330185     IErMin= 6 ErrMin= 9.61D-08
 ErrMax= 9.61D-08  0.00D+00 EMaxC= 1.00D-01 BMatC= 2.03D-11 BMatP= 1.89D-10
 IDIUse=1 WtCom= 1.00D+00 WtEn= 0.00D+00
 Coeff-Com: -0.592D-03 0.103D-02 0.167D-01 0.470D-01 0.266D+00 0.670D+00
 Coeff:     -0.592D-03 0.103D-02 0.167D-01 0.470D-01 0.266D+00 0.670D+00
 Gap=     0.235 Goal=   None    Shift=    0.000
 RMSDP=5.29D-09 MaxDP=7.95D-07 DE=-1.96D-10 OVMax= 8.22D-07

 SCF Done:  E(RPBE1PBE) =  -5017.20129330     A.U. after   11 cycles
            NFock= 11  Conv=0.53D-08     -V/T= 2.0028
 KE= 5.003419984642D+03 PE=-2.389886333902D+04 EE= 7.911120224831D+03
 Leave Link  502 at Wed May  2 20:05:58 2018, MaxMem= 14763950080 cpu:      7009.3
 (Enter /cm/shared/gaussian/g09.e01/intel64-sandybridge/g09/l601.exe)
 Copying SCF densities to generalized density rwf, IOpCl= 0 IROHF=0.

 **********************************************************************

            Population analysis using the SCF density.

 **********************************************************************

 Alpha  occ. eigenvalues -- -483.17067 -62.57404 -56.34643 -56.34629 -56.34620
 Alpha  occ. eigenvalues --  -19.21928 -19.20617 -19.18513 -19.16705 -19.15458
 Alpha  occ. eigenvalues --  -19.15225 -19.15092 -19.14800 -19.14750 -19.14684
 Alpha  occ. eigenvalues --  -19.14556 -19.13971 -19.13674 -19.13170 -19.13077
 Alpha  occ. eigenvalues --  -19.12752 -19.12550 -19.12229 -19.12039 -19.11786
 Alpha  occ. eigenvalues --  -19.10920 -19.10615 -19.10295 -19.10124 -19.09972
 Alpha  occ. eigenvalues --  -19.09229 -19.09087 -19.08844 -19.08830 -19.08491
 Alpha  occ. eigenvalues --  -19.07428 -19.06658  -8.67773  -6.48160  -6.48064
 Alpha  occ. eigenvalues --   -6.48026  -2.56435  -2.56414  -2.56376  -2.56304
 Alpha  occ. eigenvalues --   -2.56299  -1.04548  -1.03295  -1.01206  -0.99650
 Alpha  occ. eigenvalues --   -0.98172  -0.97676  -0.97512  -0.97383  -0.97349
 Alpha  occ. eigenvalues --   -0.97199  -0.97037  -0.96339  -0.96246  -0.96174
 Alpha  occ. eigenvalues --   -0.95881  -0.95123  -0.95055  -0.94857  -0.94683
 Alpha  occ. eigenvalues --   -0.94509  -0.93631  -0.93183  -0.93022  -0.92675
 Alpha  occ. eigenvalues --   -0.92558  -0.92227  -0.91657  -0.91438  -0.91343
 Alpha  occ. eigenvalues --   -0.90935  -0.90334  -0.89423  -0.67615  -0.54930
 Alpha  occ. eigenvalues --   -0.53303  -0.51362  -0.51018  -0.49564  -0.49288
 Alpha  occ. eigenvalues --   -0.48783  -0.47967  -0.47824  -0.47668  -0.47645
 Alpha  occ. eigenvalues --   -0.47282  -0.47181  -0.47008  -0.46693  -0.46451
 Alpha  occ. eigenvalues --   -0.45904  -0.45817  -0.45531  -0.45379  -0.44636
 Alpha  occ. eigenvalues --   -0.44220  -0.44100  -0.43988  -0.43881  -0.43615
 Alpha  occ. eigenvalues --   -0.43038  -0.42875  -0.41811  -0.41561  -0.41459
 Alpha  occ. eigenvalues --   -0.40626  -0.40434  -0.39038  -0.37551  -0.37492
 Alpha  occ. eigenvalues --   -0.35706  -0.35538  -0.35337  -0.34754  -0.34513
 Alpha  occ. eigenvalues --   -0.34286  -0.33980  -0.33237  -0.32872  -0.32695
 Alpha  occ. eigenvalues --   -0.32226  -0.31950  -0.31345  -0.31170  -0.30934
 Alpha  occ. eigenvalues --   -0.30608  -0.30414  -0.30319  -0.30162  -0.29544
 Alpha  occ. eigenvalues --   -0.29514  -0.29070  -0.28923  -0.28427  -0.27932
 Alpha  occ. eigenvalues --   -0.27866  -0.27646  -0.27608  -0.27196  -0.27087
 Alpha  occ. eigenvalues --   -0.26495  -0.26376  -0.26156  -0.25997  -0.25893
 Alpha  occ. eigenvalues --   -0.25759  -0.25659  -0.25429  -0.25053  -0.24847
 Alpha  occ. eigenvalues --   -0.24657  -0.24499  -0.24057  -0.23767  -0.23536
 Alpha  occ. eigenvalues --   -0.23496  -0.22765  -0.22744  -0.21927  -0.21859
 Alpha  occ. eigenvalues --   -0.21650  -0.21399  -0.21293  -0.21117  -0.20972
 Alpha  occ. eigenvalues --   -0.20356  -0.20039  -0.20001  -0.19911  -0.19518
 Alpha  occ. eigenvalues --   -0.19219  -0.18565  -0.17402
 Alpha virt. eigenvalues --    0.06085   0.07022   0.08285   0.08486   0.10600
 Alpha virt. eigenvalues --    0.11905   0.12380   0.12571   0.12859   0.14228
 Alpha virt. eigenvalues --    0.14622   0.14780   0.15136   0.15720   0.16406
 Alpha virt. eigenvalues --    0.16709   0.16795   0.17254   0.17623   0.17837
 Alpha virt. eigenvalues --    0.17997   0.18510   0.18911   0.19554   0.19731
 Alpha virt. eigenvalues --    0.20249   0.21024   0.21459   0.21746   0.22687
 Alpha virt. eigenvalues --    0.22949   0.23737   0.24023   0.24322   0.24663
 Alpha virt. eigenvalues --    0.25375   0.25799   0.26202   0.26876   0.27397
 Alpha virt. eigenvalues --    0.28050   0.28271   0.28868   0.29430   0.29506
 Alpha virt. eigenvalues --    0.29738   0.30071   0.31045   0.31197   0.31431
 Alpha virt. eigenvalues --    0.31976   0.32378   0.32759   0.33761   0.34313
 Alpha virt. eigenvalues --    0.34698   0.34980   0.35687   0.36320   0.37266
 Alpha virt. eigenvalues --    0.37684   0.38053   0.40408   0.41085   0.54942
 Alpha virt. eigenvalues --    0.56925   0.57611   0.58853   0.59568   0.60461
 Alpha virt. eigenvalues --    0.60675   0.60956   0.61384   0.61637   0.62533
 Alpha virt. eigenvalues --    0.62813   0.63674   0.63868   0.64156   0.64477
 Alpha virt. eigenvalues --    0.64674   0.65094   0.65207   0.65529   0.65830
 Alpha virt. eigenvalues --    0.65960   0.66195   0.66320   0.66501   0.66951
 Alpha virt. eigenvalues --    0.67042   0.67477   0.67810   0.67911   0.68504
 Alpha virt. eigenvalues --    0.68853   0.68972   0.69183   0.69460   0.69660
 Alpha virt. eigenvalues --    0.69981   0.70028   0.70313   0.70591   0.71054
 Alpha virt. eigenvalues --    0.71221   0.71792   0.71895   0.72469   0.72666
 Alpha virt. eigenvalues --    0.72961   0.73351   0.73571   0.73921   0.74448
 Alpha virt. eigenvalues --    0.74755   0.75161   0.75251   0.75697   0.76327
 Alpha virt. eigenvalues --    0.76894   0.77107   0.77630   0.78159   0.78476
 Alpha virt. eigenvalues --    0.79179   0.79374   0.80029   0.81016   0.81396
 Alpha virt. eigenvalues --    0.81641   0.82779   0.84210   0.86457   0.89050
 Alpha virt. eigenvalues --    0.91161   0.92583   0.93299   0.93651   0.94384
 Alpha virt. eigenvalues --    0.94880   0.95572   0.96287   0.96643   0.96950
 Alpha virt. eigenvalues --    0.97111   0.97440   0.98005   0.98709   0.99211
 Alpha virt. eigenvalues --    0.99717   0.99808   1.00006   1.00177   1.00515
 Alpha virt. eigenvalues --    1.00794   1.01154   1.01379   1.01891   1.02025
 Alpha virt. eigenvalues --    1.02339   1.02378   1.02716   1.02899   1.03138
 Alpha virt. eigenvalues --    1.03502   1.03560   1.03816   1.04100   1.04203
 Alpha virt. eigenvalues --    1.04660   1.05018   1.05333   1.05586   1.05851
 Alpha virt. eigenvalues --    1.06160   1.06265   1.06715   1.07031   1.07090
 Alpha virt. eigenvalues --    1.07480   1.07628   1.08232   1.08489   1.08944
 Alpha virt. eigenvalues --    1.09001   1.09486   1.09576   1.09954   1.10075
 Alpha virt. eigenvalues --    1.10202   1.10531   1.10649   1.10891   1.11490
 Alpha virt. eigenvalues --    1.11652   1.12440   1.12632   1.13038   1.13213
 Alpha virt. eigenvalues --    1.13484   1.13876   1.14182   1.14539   1.14730
 Alpha virt. eigenvalues --    1.14944   1.15269   1.15503   1.15854   1.15859
 Alpha virt. eigenvalues --    1.16562   1.16704   1.17147   1.17663   1.17972
 Alpha virt. eigenvalues --    1.18245   1.18478   1.18992   1.19642   1.20110
 Alpha virt. eigenvalues --    1.20532   1.21099   1.21591   1.22112   1.22343
 Alpha virt. eigenvalues --    1.22633   1.23312   1.23747   1.24142   1.24896
 Alpha virt. eigenvalues --    1.25001   1.25221   1.25686   1.27518   1.27923
 Alpha virt. eigenvalues --    1.28248   1.28560   1.28697   1.29333   1.29570
 Alpha virt. eigenvalues --    1.29639   1.29933   1.30163   1.30500   1.30685
 Alpha virt. eigenvalues --    1.31024   1.31218   1.31359   1.31808   1.31903
 Alpha virt. eigenvalues --    1.32161   1.32450   1.32671   1.32773   1.33107
 Alpha virt. eigenvalues --    1.33218   1.33434   1.33546   1.33764   1.33854
 Alpha virt. eigenvalues --    1.34071   1.34142   1.34420   1.34723   1.35310
 Alpha virt. eigenvalues --    1.35484   1.36092   1.36459   1.36578   1.37007
 Alpha virt. eigenvalues --    1.37391   1.37784   1.37976   1.38831   1.38913
 Alpha virt. eigenvalues --    1.39238   1.39492   1.40715   1.40909   1.41120
 Alpha virt. eigenvalues --    1.41380   1.41593   1.42089   1.42482   1.42788
 Alpha virt. eigenvalues --    1.43103   1.43409   1.44000   1.44245   1.44856
 Alpha virt. eigenvalues --    1.45495   1.46712   1.47078   1.47692   1.48606
 Alpha virt. eigenvalues --    1.48897   1.49732   1.49832   1.50999   1.51244
 Alpha virt. eigenvalues --    1.51633   1.52101   1.52404   1.52644   1.52993
 Alpha virt. eigenvalues --    1.53282   1.54050   1.54496   1.54522   1.54829
 Alpha virt. eigenvalues --    1.55214   1.55518   1.56202   1.56760   1.57399
 Alpha virt. eigenvalues --    1.57477   1.57881   1.58129   1.58776   1.59001
 Alpha virt. eigenvalues --    1.59301   1.60106   1.60421   1.60646   1.61988
 Alpha virt. eigenvalues --    1.62744   1.63742   1.64304   1.64946   1.65098
 Alpha virt. eigenvalues --    1.67553   1.69754   1.69825   1.70716   1.71071
 Alpha virt. eigenvalues --    1.71393   1.72658   1.72975   1.73626   1.73785
 Alpha virt. eigenvalues --    1.74380   1.74580   1.75215   1.75830   1.76389
 Alpha virt. eigenvalues --    1.76579   1.76750   1.76936   1.77364   1.77696
 Alpha virt. eigenvalues --    1.78009   1.78089   1.78492   1.78601   1.79100
 Alpha virt. eigenvalues --    1.79341   1.79669   1.80285   1.81008   1.81207
 Alpha virt. eigenvalues --    1.81656   1.82284   1.82382   1.82635   1.83022
 Alpha virt. eigenvalues --    1.84135   1.84729   1.85015   1.85397   1.85728
 Alpha virt. eigenvalues --    1.85929   1.86252   1.86755   1.87379   1.88064
 Alpha virt. eigenvalues --    1.88624   1.88983   1.89442   1.89597   1.90346
 Alpha virt. eigenvalues --    1.90565   1.93095   1.93486   1.94941   1.95413
 Alpha virt. eigenvalues --    1.95997   1.96292   1.97437   1.98710   2.00604
 Alpha virt. eigenvalues --    2.02346   2.03422   2.05853   2.13998   2.14742
 Alpha virt. eigenvalues --    2.16977   2.17729   2.19124   2.19828   2.20172
 Alpha virt. eigenvalues --    2.21113   2.21653   2.21870   2.22094   2.22263
 Alpha virt. eigenvalues --    2.22375   2.22595   2.22790   2.23432   2.23670
 Alpha virt. eigenvalues --    2.23798   2.24016   2.24500   2.24803   2.25183
 Alpha virt. eigenvalues --    2.25257   2.25366   2.25673   2.25799   2.26419
 Alpha virt. eigenvalues --    2.26647   2.26796   2.27088   2.27442   2.27879
 Alpha virt. eigenvalues --    2.28162   2.28341   2.28494   2.28810   2.29420
 Alpha virt. eigenvalues --    2.30456   2.30939   2.31104   2.31788   2.32689
 Alpha virt. eigenvalues --    2.33429   2.34486   2.34672   2.36694   2.38940
 Alpha virt. eigenvalues --    2.39453   2.39627   2.43148   2.44134   2.44377
 Alpha virt. eigenvalues --    2.44953   2.45322   2.45949   2.49660   2.52263
 Alpha virt. eigenvalues --    2.54073   2.54717   2.55200   2.56259   2.56778
 Alpha virt. eigenvalues --    2.59190   2.82462   2.93187   2.95948   2.96179
 Alpha virt. eigenvalues --    2.96740   2.97310   2.97569   2.97879   2.98305
 Alpha virt. eigenvalues --    2.98391   2.98591   2.99231   2.99565   2.99647
 Alpha virt. eigenvalues --    2.99830   3.00165   3.00275   3.00610   3.00834
 Alpha virt. eigenvalues --    3.01437   3.01503   3.01971   3.02100   3.02370
 Alpha virt. eigenvalues --    3.02460   3.02583   3.02643   3.02793   3.02915
 Alpha virt. eigenvalues --    3.02998   3.03284   3.03594   3.04006   3.04453
 Alpha virt. eigenvalues --    3.04537   3.04698   3.04801   3.04815   3.05010
 Alpha virt. eigenvalues --    3.05376   3.05513   3.05752   3.05846   3.06153
 Alpha virt. eigenvalues --    3.06262   3.06576   3.06742   3.07055   3.07137
 Alpha virt. eigenvalues --    3.07382   3.07644   3.07818   3.07869   3.07971
 Alpha virt. eigenvalues --    3.08033   3.08395   3.08998   3.09563   3.09743
 Alpha virt. eigenvalues --    3.09856   3.10102   3.10130   3.12685   3.15347
 Alpha virt. eigenvalues --    3.16297   3.18257   3.18647   3.19105   3.19833
 Alpha virt. eigenvalues --    3.20036   3.20437   3.20848   3.21189   3.21738
 Alpha virt. eigenvalues --    3.22663   3.22841   3.22857   3.23279   3.23471
 Alpha virt. eigenvalues --    3.23779   3.24359   3.24451   3.24733   3.24980
 Alpha virt. eigenvalues --    3.25125   3.25277   3.25375   3.26332   3.26496
 Alpha virt. eigenvalues --    3.27318   3.27569   3.27668   3.28098   3.28144
 Alpha virt. eigenvalues --    3.28517   3.29231   3.29787   3.50595   3.50715
 Alpha virt. eigenvalues --    3.54587   3.55848   3.56543   3.56756   3.57873
 Alpha virt. eigenvalues --    3.57911   3.58256   3.58734   3.58871   3.59194
 Alpha virt. eigenvalues --    3.60188   3.60246   3.60577   3.60596   3.61485
 Alpha virt. eigenvalues --    3.61637   3.62105   3.62631   3.63203   3.63692
 Alpha virt. eigenvalues --    3.64879   3.65668   3.65753   3.66572   3.67121
 Alpha virt. eigenvalues --    3.67598   3.68560   3.68903   3.70879   3.71953
 Alpha virt. eigenvalues --    3.76509   3.82121   3.83442   3.83911   3.84576
 Alpha virt. eigenvalues --    3.84931   3.85273   3.85657   3.85962   3.86402
 Alpha virt. eigenvalues --    3.86747   3.87025   3.87247   3.88152   3.88677
 Alpha virt. eigenvalues --    3.88771   3.89318   3.89945   3.90424   3.91084
 Alpha virt. eigenvalues --    3.91477   3.91773   3.91963   3.92539   3.92894
 Alpha virt. eigenvalues --    3.94781   3.95350   3.95701   3.96503   3.97685
 Alpha virt. eigenvalues --    3.98610   3.98913
          Condensed to atoms (all electrons):
 Mulliken charges:
               1
     1  Br  -0.704673
     2  O   -0.289125
     3  H    0.174784
     4  H    0.131051
     5  O   -0.276185
     6  H    0.135174
     7  H    0.137465
     8  O   -0.272350
     9  H    0.110278
    10  H    0.141433
    11  O   -0.268247
    12  H    0.139954
    13  H    0.148216
    14  O   -0.257130
    15  H    0.154069
    16  H    0.130704
    17  O   -0.256746
    18  H    0.093222
    19  H    0.127299
    20  O   -0.227527
    21  H    0.151611
    22  H    0.136328
    23  O   -0.262105
    24  H    0.135932
    25  H    0.151651
    26  O   -0.311646
    27  H    0.142026
    28  H    0.117624
    29  O   -0.277310
    30  H    0.140915
    31  H    0.154009
    32  O   -0.253454
    33  H    0.133576
    34  H    0.148153
    35  O   -0.292298
    36  H    0.106463
    37  H    0.138811
    38  O   -0.282541
    39  H    0.103931
    40  H    0.110316
    41  O   -0.263133
    42  H    0.121790
    43  H    0.137177
    44  O   -0.274617
    45  H    0.111459
    46  H    0.131404
    47  O   -0.273247
    48  H    0.132908
    49  H    0.125919
    50  O   -0.284074
    51  H    0.107657
    52  H    0.137910
    53  O   -0.301555
    54  H    0.130898
    55  H    0.115947
    56  O   -0.305378
    57  H    0.121541
    58  H    0.128881
    59  O   -0.308008
    60  H    0.117417
    61  H    0.132747
    62  O   -0.296853
    63  H    0.121350
    64  H    0.133334
    65  O   -0.232988
    66  H    0.129156
    67  H    0.119261
    68  O   -0.291649
    69  H    0.117400
    70  H    0.137029
    71  O   -0.284833
    72  H    0.127089
    73  H    0.143739
    74  O   -0.204224
    75  H    0.169033
    76  H    0.156932
    77  O   -0.269775
    78  H    0.133141
    79  H    0.139706
    80  O   -0.290638
    81  H    0.126918
    82  H    0.127962
    83  O   -0.261391
    84  H    0.151849
    85  H    0.149522
    86  O   -0.270792
    87  H    0.120218
    88  H    0.121433
    89  O   -0.216446
    90  H    0.160384
    91  H    0.147193
    92  O   -0.297008
    93  H    0.133928
    94  H    0.122255
    95  O   -0.299423
    96  H    0.117152
    97  H    0.102734
 Sum of Mulliken charges =  -1.00000
 Mulliken charges with hydrogens summed into heavy atoms:
               1
     1  Br  -0.704673
     2  O    0.016710
     5  O   -0.003546
     8  O   -0.020640
    11  O    0.019923
    14  O    0.027642
    17  O   -0.036225
    20  O    0.060412
    23  O    0.025478
    26  O   -0.051996
    29  O    0.017613
    32  O    0.028276
    35  O   -0.047024
    38  O   -0.068294
    41  O   -0.004165
    44  O   -0.031754
    47  O   -0.014420
    50  O   -0.038507
    53  O   -0.054711
    56  O   -0.054956
    59  O   -0.057844
    62  O   -0.042169
    65  O    0.015430
    68  O   -0.037220
    71  O   -0.014005
    74  O    0.121741
    77  O    0.003071
    80  O   -0.035758
    83  O    0.039980
    86  O   -0.029141
    89  O    0.091131
    92  O   -0.040824
    95  O   -0.079537
         Mulliken charges condensed to fragments:
      1     -0.704673
      2     -0.295327
 Electronic spatial extent (au):  <R**2>=        1575287.1505
 Charge=             -1.0000 electrons
 Dipole moment (field-independent basis, Debye):
    X=            -95.3755    Y=            -98.2289    Z=            -88.2013  Tot=            162.8646
 Quadrupole moment (field-independent basis, Debye-Ang):
   XX=          -2105.8209   YY=          -2369.5973   ZZ=          -1909.7912
   XY=          -2013.1796   XZ=          -1735.5509   YZ=          -1815.5605
 Traceless Quadrupole moment (field-independent basis, Debye-Ang):
   XX=             22.5823   YY=           -241.1942   ZZ=            218.6119
   XY=          -2013.1796   XZ=          -1735.5509   YZ=          -1815.5605
 Octapole moment (field-independent basis, Debye-Ang**2):
  XXX=         -50085.0710  YYY=         -63027.6378  ZZZ=         -47066.2749  XYY=         -49666.1998
  XXY=         -45553.7929  XXZ=         -38214.1330  XZZ=         -37452.0738  YZZ=         -39410.4737
  YYZ=         -44603.2145  XYZ=         -36882.6093
 Hexadecapole moment (field-independent basis, Debye-Ang**3):
 XXXX=       -1243925.1559 YYYY=       -1744766.5403 ZZZZ=       -1248704.0160 XXXY=       -1100346.9088
 XXXZ=        -910174.9428 YYYX=       -1333828.6149 YYYZ=       -1209701.2822 ZZZX=        -925453.2872
 ZZZY=        -968318.3919 XXYY=       -1130657.7239 XXZZ=        -816974.6709 YYZZ=        -962541.9623
 XXYZ=        -831388.0145 YYXZ=        -927063.3867 ZZXY=        -794311.1418
 N-N= 5.967121836244D+03 E-N=-2.389886326515D+04  KE= 5.003419984642D+03
 No NMR shielding tensors so no spin-rotation constants.
 Leave Link  601 at Wed May  2 20:06:01 2018, MaxMem= 14763950080 cpu:        77.2
 (Enter /cm/shared/gaussian/g09.e01/intel64-sandybridge/g09/l701.exe)
 Compute integral first derivatives.
 ... and contract with generalized density number  0.
 Leave Link  701 at Wed May  2 20:06:03 2018, MaxMem= 14763950080 cpu:       122.2
 (Enter /cm/shared/gaussian/g09.e01/intel64-sandybridge/g09/l702.exe)
 L702 exits ... SP integral derivatives will be done elsewhere.
 Leave Link  702 at Wed May  2 20:06:03 2018, MaxMem= 14763950080 cpu:         1.7
 (Enter /cm/shared/gaussian/g09.e01/intel64-sandybridge/g09/l703.exe)
 Compute integral first derivatives, UseDBF=F ICtDFT=           0.
 Integral derivatives from FoFJK, PRISM(SPDF).
 Calling FoFJK, ICntrl=      2127 FMM=T ISym2X=0 I1Cent= 0 IOpClX= 0 NMat=1 NMatS=1 NMatT=0.
 FoFJK:  IHMeth= 1 ICntrl=    2127 DoSepK=F KAlg= 0 I1Cent=   0 FoldK=F
 IRaf=         0 NMat=   1 IRICut=       1 DoRegI=T DoRafI=F ISym2E= 0.
 FoFCou: FMM=T IPFlag=           0 FMFlag=      100000 FMFlg1=        2001
         NFxFlg=           0 DoJE=F BraDBF=F KetDBF=F FulRan=T
         wScrn=  0.000000 ICntrl=    2127 IOpCl=  0 I1Cent=           0 NGrid=           0
         NMat0=    1 NMatS0=      1 NMatT0=    0 NMatD0=    1 NMtDS0=    0 NMtDT0=    0
 Symmetry not used in FoFCou.
 FMM levels:  10  Number of levels for PrismC:   9
 Leave Link  703 at Wed May  2 20:06:18 2018, MaxMem= 14763950080 cpu:       932.7
 (Enter /cm/shared/gaussian/g09.e01/intel64-sandybridge/g09/l716.exe)
 Dipole        =-3.75236278D+01-3.86462362D+01-3.47010695D+01
 Cartesian Forces:  Max     0.036094961 RMS     0.009188536
 Leave Link  716 at Wed May  2 20:06:18 2018, MaxMem= 14763950080 cpu:         3.5
 (Enter /cm/shared/gaussian/g09.e01/intel64-sandybridge/g09/l122.exe)
 CPIOFr:  IOpCl= 0 IRwI=-1 IRwCP=  731 ICalc= -1 LCPTot=     1005244 Len1MO=     2550559 IndFrg=     1005244
 CPIOFr:  IOpCl= 0 IRwI=-1 IRwCP=  731 ICalc=  0 LCPTot=     1005244 Len1MO=     2550559 IndFrg=     3555803
 Counterpoise: doing DCBS calculation for fragment   1 NewBq=T
 Leave Link  122 at Wed May  2 20:06:18 2018, MaxMem= 14763950080 cpu:         7.0
 (Enter /cm/shared/gaussian/g09.e01/intel64-sandybridge/g09/l301.exe)
 Basis read from rwf:  (5D, 7F)
 No pseudopotential information found on rwf file.
   795 basis functions,  1651 primitive gaussians,   829 cartesian basis functions
    18 alpha electrons       18 beta electrons
       nuclear repulsion energy         0.0000000000 Hartrees.
 IExCor= 1009 DFT=T Ex+Corr=PBE1PBE ExCW=0 ScaHFX=  0.250000
 ScaDFX=  0.750000  0.750000  1.000000  1.000000 ScalE2=  1.000000  1.000000
 IRadAn=      0 IRanWt=     -1 IRanGd=            0 ICorTp=0 IEmpDi=  4
 NAtoms=   97 NActive=   97 NUniq=   97 SFac= 1.00D+00 NAtFMM=   60 NAOKFM=T Big=T
 Integral buffers will be    131072 words long.
 Raffenetti 2 integral format.
 Two-electron integral symmetry is turned off.
 No density basis found on file   718.
 Leave Link  301 at Wed May  2 20:06:18 2018, MaxMem= 14763950080 cpu:         4.6
 (Enter /cm/shared/gaussian/g09.e01/intel64-sandybridge/g09/l302.exe)
 NPDir=0 NMtPBC=     1 NCelOv=     1 NCel=       1 NClECP=     1 NCelD=      1
         NCelK=      1 NCelE2=     1 NClLst=     1 CellRange=     0.0.
 One-electron integrals computed using PRISM.
 NBasis=   795 RedAO= T EigKep=  1.32D-02  NBF=   795
 NBsUse=   795 1.00D-06 EigRej= -1.00D+00 NBFU=   795
 Precomputing XC quadrature grid using
 IXCGrd= 4 IRadAn=           0 IRanWt=          -1 IRanGd=           0 AccXCQ= 0.00D+00.
 Generated NRdTot=       0 NPtTot=           0 NUsed=           0 NTot=          32
 NSgBfM=   737   737   740   740   740 MxSgAt=    97 MxSgA2=    97.
 Leave Link  302 at Wed May  2 20:06:22 2018, MaxMem= 14763950080 cpu:       242.0
 (Enter /cm/shared/gaussian/g09.e01/intel64-sandybridge/g09/l303.exe)
 DipDrv:  MaxL=1.
 Leave Link  303 at Wed May  2 20:06:23 2018, MaxMem= 14763950080 cpu:        28.1
 (Enter /cm/shared/gaussian/g09.e01/intel64-sandybridge/g09/l401.exe)
 ExpMin= 1.22D-01 ExpMax= 6.40D+05 ExpMxC= 6.18D+03 IAcc=2 IRadAn=         4 AccDes= 0.00D+00
 Harris functional with IExCor= 1009 and IRadAn=       4 diagonalized for initial guess.
 HarFok:  IExCor= 1009 AccDes= 0.00D+00 IRadAn=         4 IDoV= 1 UseB2=F ITyADJ=14
 ICtDFT=  3500011 ScaDFX=  1.000000  1.000000  1.000000  1.000000
 FoFCou: FMM=F IPFlag=           0 FMFlag=      100000 FMFlg1=        2001
         NFxFlg=           0 DoJE=T BraDBF=F KetDBF=T FulRan=T
         wScrn=  0.000000 ICntrl=     500 IOpCl=  0 I1Cent=   200000004 NGrid=           0
         NMat0=    1 NMatS0=      1 NMatT0=    0 NMatD0=    1 NMtDS0=    0 NMtDT0=    0
 Symmetry not used in FoFCou.
 Harris En= -2574.01968656756    
 JPrj=0 DoOrth=F DoCkMO=F.
 Leave Link  401 at Wed May  2 20:06:27 2018, MaxMem= 14763950080 cpu:       293.5
 (Enter /cm/shared/gaussian/g09.e01/intel64-sandybridge/g09/l502.exe)
 Closed shell SCF:
 Using DIIS extrapolation, IDIIS=  1040.
 Two-electron integral symmetry not used.
 IVT=     2138497 IEndB=     2138497 NGot= 14763950080 MDV= 14762516294
 LenX= 14762516294 LenY= 14761828224
 Requested convergence on RMS density matrix=1.00D-08 within 128 cycles.
 Requested convergence on MAX density matrix=1.00D-06.
 Requested convergence on             energy=1.00D-06.
 No special actions if energy rises.
 Fock matrices will be formed incrementally for  20 cycles.
 Integral accuracy reduced to 1.0D-05 until final iterations.

 Cycle   1  Pass 0  IDiag  1:
 FoFJK:  IHMeth= 1 ICntrl=       0 DoSepK=F KAlg= 0 I1Cent=   0 FoldK=F
 IRaf= 790000000 NMat=   1 IRICut=       1 DoRegI=T DoRafI=F ISym2E= 0.
 FoFCou: FMM=T IPFlag=           0 FMFlag=      100000 FMFlg1=        2001
         NFxFlg=           0 DoJE=F BraDBF=F KetDBF=F FulRan=T
         wScrn=  0.000000 ICntrl=       0 IOpCl=  0 I1Cent=           0 NGrid=           0
         NMat0=    1 NMatS0=      1 NMatT0=    0 NMatD0=    1 NMtDS0=    0 NMtDT0=    0
 Symmetry not used in FoFCou.
 FMM levels:  10  Number of levels for PrismC:   9
 E= -2573.87877473841    
 DIIS: error= 1.14D-02 at cycle   1 NSaved=   1.
 NSaved= 1 IEnMin= 1 EnMin= -2573.87877473841     IErMin= 1 ErrMin= 1.14D-02
 ErrMax= 1.14D-02  0.00D+00 EMaxC= 1.00D-01 BMatC= 3.83D-02 BMatP= 3.83D-02
 IDIUse=3 WtCom= 8.86D-01 WtEn= 1.14D-01
 Coeff-Com:  0.100D+01
 Coeff-En:   0.100D+01
 Coeff:      0.100D+01
 Gap=     0.185 Goal=   None    Shift=    0.000
 GapD=    0.185 DampG=1.000 DampE=0.500 DampFc=0.5000 IDamp=-1.
 Damping current iteration by 5.00D-01
 RMSDP=4.77D-04 MaxDP=6.55D-02              OVMax= 1.48D-01

 Cycle   2  Pass 0  IDiag  1:
 RMSU=  2.37D-04    CP:  9.95D-01
 E= -2573.89548823306     Delta-E=       -0.016713494657 Rises=F Damp=T
 DIIS: error= 6.72D-03 at cycle   2 NSaved=   2.
 NSaved= 2 IEnMin= 2 EnMin= -2573.89548823306     IErMin= 2 ErrMin= 6.72D-03
 ErrMax= 6.72D-03  0.00D+00 EMaxC= 1.00D-01 BMatC= 9.03D-03 BMatP= 3.83D-02
 IDIUse=3 WtCom= 9.33D-01 WtEn= 6.72D-02
 Coeff-Com: -0.577D+00 0.158D+01
 Coeff-En:   0.000D+00 0.100D+01
 Coeff:     -0.538D+00 0.154D+01
 Gap=     0.194 Goal=   None    Shift=    0.000
 RMSDP=1.69D-04 MaxDP=3.94D-02 DE=-1.67D-02 OVMax= 6.56D-02

 Cycle   3  Pass 0  IDiag  1:
 RMSU=  1.46D-04    CP:  9.94D-01  1.36D+00
 E= -2573.90893876408     Delta-E=       -0.013450531014 Rises=F Damp=F
 DIIS: error= 3.24D-03 at cycle   3 NSaved=   3.
 NSaved= 3 IEnMin= 3 EnMin= -2573.90893876408     IErMin= 3 ErrMin= 3.24D-03
 ErrMax= 3.24D-03  0.00D+00 EMaxC= 1.00D-01 BMatC= 2.44D-03 BMatP= 9.03D-03
 IDIUse=3 WtCom= 9.68D-01 WtEn= 3.24D-02
 Coeff-Com: -0.303D+00 0.717D+00 0.586D+00
 Coeff-En:   0.000D+00 0.000D+00 0.100D+01
 Coeff:     -0.293D+00 0.694D+00 0.599D+00
 Gap=     0.176 Goal=   None    Shift=    0.000
 RMSDP=7.06D-05 MaxDP=1.73D-02 DE=-1.35D-02 OVMax= 2.09D-02

 Cycle   4  Pass 0  IDiag  1:
 RMSU=  8.49D-06    CP:  9.93D-01  1.54D+00  6.29D-01
 E= -2573.91157145892     Delta-E=       -0.002632694840 Rises=F Damp=F
 DIIS: error= 1.08D-04 at cycle   4 NSaved=   4.
 NSaved= 4 IEnMin= 4 EnMin= -2573.91157145892     IErMin= 4 ErrMin= 1.08D-04
 ErrMax= 1.08D-04  0.00D+00 EMaxC= 1.00D-01 BMatC= 1.65D-06 BMatP= 2.44D-03
 IDIUse=3 WtCom= 9.99D-01 WtEn= 1.08D-03
 Coeff-Com: -0.147D-01 0.277D-01 0.407D-01 0.946D+00
 Coeff-En:   0.000D+00 0.000D+00 0.000D+00 0.100D+01
 Coeff:     -0.146D-01 0.277D-01 0.407D-01 0.946D+00
 Gap=     0.178 Goal=   None    Shift=    0.000
 RMSDP=2.31D-06 MaxDP=4.59D-04 DE=-2.63D-03 OVMax= 7.44D-04

 Initial convergence to 1.0D-05 achieved.  Increase integral accuracy.
 Cycle   5  Pass 1  IDiag  1:
 E= -2573.91227304068     Delta-E=       -0.000701581761 Rises=F Damp=F
 DIIS: error= 7.96D-06 at cycle   1 NSaved=   1.
 NSaved= 1 IEnMin= 1 EnMin= -2573.91227304068     IErMin= 1 ErrMin= 7.96D-06
 ErrMax= 7.96D-06  0.00D+00 EMaxC= 1.00D-01 BMatC= 6.01D-08 BMatP= 6.01D-08
 IDIUse=1 WtCom= 1.00D+00 WtEn= 0.00D+00
 Coeff-Com:  0.100D+01
 Coeff:      0.100D+01
 Gap=     0.178 Goal=   None    Shift=    0.000
 RMSDP=2.31D-06 MaxDP=4.59D-04 DE=-7.02D-04 OVMax= 1.81D-04

 Cycle   6  Pass 1  IDiag  1:
 RMSU=  1.08D-06    CP:  1.00D+00
 E= -2573.91227313958     Delta-E=       -0.000000098904 Rises=F Damp=F
 DIIS: error= 6.07D-06 at cycle   2 NSaved=   2.
 NSaved= 2 IEnMin= 2 EnMin= -2573.91227313958     IErMin= 2 ErrMin= 6.07D-06
 ErrMax= 6.07D-06  0.00D+00 EMaxC= 1.00D-01 BMatC= 1.34D-08 BMatP= 6.01D-08
 IDIUse=1 WtCom= 1.00D+00 WtEn= 0.00D+00
 Coeff-Com:  0.261D+00 0.739D+00
 Coeff:      0.261D+00 0.739D+00
 Gap=     0.178 Goal=   None    Shift=    0.000
 RMSDP=2.49D-07 MaxDP=6.01D-05 DE=-9.89D-08 OVMax= 8.30D-05

 Cycle   7  Pass 1  IDiag  1:
 RMSU=  2.48D-07    CP:  1.00D+00  9.81D-01
 E= -2573.91227315433     Delta-E=       -0.000000014744 Rises=F Damp=F
 DIIS: error= 2.83D-06 at cycle   3 NSaved=   3.
 NSaved= 3 IEnMin= 3 EnMin= -2573.91227315433     IErMin= 3 ErrMin= 2.83D-06
 ErrMax= 2.83D-06  0.00D+00 EMaxC= 1.00D-01 BMatC= 2.47D-09 BMatP= 1.34D-08
 IDIUse=1 WtCom= 1.00D+00 WtEn= 0.00D+00
 Coeff-Com: -0.290D-01 0.284D+00 0.745D+00
 Coeff:     -0.290D-01 0.284D+00 0.745D+00
 Gap=     0.178 Goal=   None    Shift=    0.000
 RMSDP=8.05D-08 MaxDP=1.92D-05 DE=-1.47D-08 OVMax= 2.27D-05

 Cycle   8  Pass 1  IDiag  1:
 RMSU=  2.72D-08    CP:  1.00D+00  1.03D+00  7.79D-01
 E= -2573.91227315729     Delta-E=       -0.000000002966 Rises=F Damp=F
 DIIS: error= 2.63D-07 at cycle   4 NSaved=   4.
 NSaved= 4 IEnMin= 4 EnMin= -2573.91227315729     IErMin= 4 ErrMin= 2.63D-07
 ErrMax= 2.63D-07  0.00D+00 EMaxC= 1.00D-01 BMatC= 2.44D-11 BMatP= 2.47D-09
 IDIUse=1 WtCom= 1.00D+00 WtEn= 0.00D+00
 Coeff-Com: -0.126D-01 0.825D-01 0.229D+00 0.701D+00
 Coeff:     -0.126D-01 0.825D-01 0.229D+00 0.701D+00
 Gap=     0.178 Goal=   None    Shift=    0.000
 RMSDP=9.27D-09 MaxDP=1.38D-06 DE=-2.97D-09 OVMax= 2.97D-06

 Cycle   9  Pass 1  IDiag  1:
 RMSU=  8.51D-09    CP:  1.00D+00  1.03D+00  7.85D-01  9.33D-01
 E= -2573.91227315734     Delta-E=       -0.000000000043 Rises=F Damp=F
 DIIS: error= 4.68D-08 at cycle   5 NSaved=   5.
 NSaved= 5 IEnMin= 5 EnMin= -2573.91227315734     IErMin= 5 ErrMin= 4.68D-08
 ErrMax= 4.68D-08  0.00D+00 EMaxC= 1.00D-01 BMatC= 1.13D-12 BMatP= 2.44D-11
 IDIUse=1 WtCom= 1.00D+00 WtEn= 0.00D+00
 Coeff-Com:  0.603D-03-0.119D-01-0.322D-01 0.125D+00 0.919D+00
 Coeff:      0.603D-03-0.119D-01-0.322D-01 0.125D+00 0.919D+00
 Gap=     0.178 Goal=   None    Shift=    0.000
 RMSDP=2.46D-09 MaxDP=3.77D-07 DE=-4.32D-11 OVMax= 9.30D-07

 SCF Done:  E(RPBE1PBE) =  -2573.91227316     A.U. after    9 cycles
            NFock=  9  Conv=0.25D-08     -V/T= 2.0013
 KE= 2.570517295792D+03 PE=-6.162934395000D+03 EE= 1.018504826050D+03
 Leave Link  502 at Wed May  2 20:07:52 2018, MaxMem= 14763950080 cpu:      5327.6
 (Enter /cm/shared/gaussian/g09.e01/intel64-sandybridge/g09/l601.exe)
 Copying SCF densities to generalized density rwf, IOpCl= 0 IROHF=0.

 **********************************************************************

            Population analysis using the SCF density.

 **********************************************************************

 Alpha  occ. eigenvalues -- -482.98910 -62.39062 -56.16317 -56.16316 -56.16309
 Alpha  occ. eigenvalues --   -8.49206  -6.29518  -6.29514  -6.29494  -2.37788
 Alpha  occ. eigenvalues --   -2.37788  -2.37771  -2.37767  -2.37763  -0.47262
 Alpha  occ. eigenvalues --   -0.03130  -0.03111  -0.03105
 Alpha virt. eigenvalues --    0.14738   0.16174   0.16622   0.17458   0.18310
 Alpha virt. eigenvalues --    0.18635   0.18976   0.19786   0.20256   0.21010
 Alpha virt. eigenvalues --    0.21867   0.22078   0.22325   0.23051   0.24085
 Alpha virt. eigenvalues --    0.24175   0.24662   0.25239   0.25999   0.26137
 Alpha virt. eigenvalues --    0.26248   0.26582   0.27128   0.28265   0.28988
 Alpha virt. eigenvalues --    0.29092   0.29609   0.29956   0.30847   0.30932
 Alpha virt. eigenvalues --    0.31483   0.32058   0.32491   0.32824   0.34174
 Alpha virt. eigenvalues --    0.34673   0.34988   0.35335   0.35913   0.36245
 Alpha virt. eigenvalues --    0.37317   0.37402   0.37813   0.38517   0.39054
 Alpha virt. eigenvalues --    0.39606   0.39918   0.40111   0.40642   0.40933
 Alpha virt. eigenvalues --    0.41590   0.41790   0.42473   0.43662   0.44217
 Alpha virt. eigenvalues --    0.44455   0.45033   0.45884   0.46527   0.46937
 Alpha virt. eigenvalues --    0.48128   0.49203   0.50701   0.51583   0.61969
 Alpha virt. eigenvalues --    0.62990   0.63116   0.63258   0.63498   0.63687
 Alpha virt. eigenvalues --    0.64145   0.64944   0.65212   0.65564   0.66391
 Alpha virt. eigenvalues --    0.66582   0.67047   0.67712   0.68435   0.69306
 Alpha virt. eigenvalues --    0.69696   0.69849   0.70173   0.70920   0.71323
 Alpha virt. eigenvalues --    0.71871   0.72572   0.72949   0.73090   0.73238
 Alpha virt. eigenvalues --    0.73611   0.73640   0.74076   0.74504   0.74730
 Alpha virt. eigenvalues --    0.75203   0.75283   0.75500   0.75624   0.75893
 Alpha virt. eigenvalues --    0.76113   0.76167   0.76776   0.76988   0.77244
 Alpha virt. eigenvalues --    0.77539   0.78056   0.78450   0.78583   0.78759
 Alpha virt. eigenvalues --    0.79136   0.79360   0.79658   0.80018   0.80682
 Alpha virt. eigenvalues --    0.81224   0.81387   0.81831   0.82196   0.82445
 Alpha virt. eigenvalues --    0.82739   0.83114   0.83470   0.83664   0.84127
 Alpha virt. eigenvalues --    0.84464   0.84806   0.85005   0.85494   0.86023
 Alpha virt. eigenvalues --    0.86397   0.86722   0.86961   0.87185   0.87703
 Alpha virt. eigenvalues --    0.88445   0.88782   0.89143   0.89218   0.89544
 Alpha virt. eigenvalues --    0.90213   0.90467   0.90629   0.91699   0.92132
 Alpha virt. eigenvalues --    0.92618   0.93084   0.93301   0.93655   0.94248
 Alpha virt. eigenvalues --    0.94610   0.94903   0.95652   0.95843   0.96751
 Alpha virt. eigenvalues --    0.96975   0.97303   0.97844   0.97890   0.98183
 Alpha virt. eigenvalues --    0.98857   0.99105   0.99380   0.99925   1.00198
 Alpha virt. eigenvalues --    1.00563   1.01127   1.01640   1.01727   1.02486
 Alpha virt. eigenvalues --    1.02973   1.03560   1.04045   1.04214   1.04433
 Alpha virt. eigenvalues --    1.05097   1.05589   1.06761   1.06879   1.07534
 Alpha virt. eigenvalues --    1.08660   1.09110   1.09373   1.09740   1.10845
 Alpha virt. eigenvalues --    1.12001   1.12187   1.13457   1.13678   1.14844
 Alpha virt. eigenvalues --    1.15950   1.16729   1.17403   1.18895   1.19466
 Alpha virt. eigenvalues --    1.20967   1.21509   1.24498   1.28512   1.29377
 Alpha virt. eigenvalues --    1.29838   1.64604   1.65559   1.66675   1.67673
 Alpha virt. eigenvalues --    1.68432   1.69433   1.69708   1.70210   1.70510
 Alpha virt. eigenvalues --    1.71191   1.71429   1.71501   1.71634   1.71803
 Alpha virt. eigenvalues --    1.72020   1.72440   1.72516   1.72862   1.73012
 Alpha virt. eigenvalues --    1.73087   1.73466   1.73608   1.73844   1.74320
 Alpha virt. eigenvalues --    1.74521   1.74967   1.75125   1.75445   1.75940
 Alpha virt. eigenvalues --    1.76300   1.76596   1.76735   1.76881   1.77625
 Alpha virt. eigenvalues --    1.77885   1.78052   1.78560   1.78793   1.79405
 Alpha virt. eigenvalues --    1.79509   1.79604   1.80207   1.80853   1.81161
 Alpha virt. eigenvalues --    1.81651   1.82085   1.82667   1.83570   1.84132
 Alpha virt. eigenvalues --    1.84681   1.84752   1.85355   1.85580   1.85907
 Alpha virt. eigenvalues --    1.87086   1.87497   1.89199   1.89790   1.90950
 Alpha virt. eigenvalues --    1.91351   1.92350   1.93320   1.93929   1.95534
 Alpha virt. eigenvalues --    1.98272   1.99318   1.99488   1.99607   1.99788
 Alpha virt. eigenvalues --    2.00569   2.01034   2.01100   2.01156   2.01234
 Alpha virt. eigenvalues --    2.01502   2.01736   2.01840   2.02180   2.02247
 Alpha virt. eigenvalues --    2.02491   2.02553   2.02861   2.02984   2.03082
 Alpha virt. eigenvalues --    2.03442   2.03619   2.03748   2.04026   2.04263
 Alpha virt. eigenvalues --    2.04497   2.04669   2.04930   2.05584   2.05673
 Alpha virt. eigenvalues --    2.06110   2.06315   2.06474   2.06749   2.07254
 Alpha virt. eigenvalues --    2.07486   2.07689   2.07869   2.08174   2.08506
 Alpha virt. eigenvalues --    2.08884   2.09607   2.09973   2.10118   2.10331
 Alpha virt. eigenvalues --    2.10904   2.11835   2.12233   2.12505   2.12847
 Alpha virt. eigenvalues --    2.13120   2.14464   2.14811   2.15211   2.15552
 Alpha virt. eigenvalues --    2.15979   2.16016   2.16609   2.16802   2.16912
 Alpha virt. eigenvalues --    2.16963   2.17653   2.17890   2.18140   2.18733
 Alpha virt. eigenvalues --    2.19284   2.19752   2.20053   2.20460   2.20550
 Alpha virt. eigenvalues --    2.20916   2.22537   2.23185   2.23361   2.24055
 Alpha virt. eigenvalues --    2.24452   2.24849   2.25247   2.26125   2.26883
 Alpha virt. eigenvalues --    2.27869   2.28689   2.29036   2.29353   2.29965
 Alpha virt. eigenvalues --    2.30246   2.30744   2.30888   2.32402   2.33210
 Alpha virt. eigenvalues --    2.34048   2.34656   2.35445   2.36727   2.37846
 Alpha virt. eigenvalues --    2.38151   2.39947   2.39958   2.40180   2.40418
 Alpha virt. eigenvalues --    2.41109   2.41788   2.42329   2.42672   2.43194
 Alpha virt. eigenvalues --    2.43529   2.43730   2.44745   2.44997   2.45408
 Alpha virt. eigenvalues --    2.46454   2.47626   2.47833   2.48419   2.48892
 Alpha virt. eigenvalues --    2.49345   2.49636   2.50361   2.51359   2.51671
 Alpha virt. eigenvalues --    2.52380   2.52998   2.53545   2.54314   2.55291
 Alpha virt. eigenvalues --    2.55788   2.56392   2.57108   2.66716   2.67325
 Alpha virt. eigenvalues --    2.68526   2.68864   2.69061   2.69656   2.70002
 Alpha virt. eigenvalues --    2.70094   2.70344   2.70976   2.71634   2.71854
 Alpha virt. eigenvalues --    2.72584   2.73416   2.73542   2.73863   2.74622
 Alpha virt. eigenvalues --    2.75309   2.76356   2.77700   2.78098   2.79248
 Alpha virt. eigenvalues --    2.79912   2.80521   2.81212   2.81568   2.81957
 Alpha virt. eigenvalues --    2.83064   2.83220   2.83852   2.84572   2.84699
 Alpha virt. eigenvalues --    2.84759   2.84942   2.85133   2.85884   2.86102
 Alpha virt. eigenvalues --    2.86586   2.86987   2.87131   2.87673   2.88044
 Alpha virt. eigenvalues --    2.90214   2.90721   2.91441   2.92636   2.92893
 Alpha virt. eigenvalues --    2.93194   2.93777   2.94747   2.95271   2.96453
 Alpha virt. eigenvalues --    2.97476   2.99910   3.00387   3.01144   3.01848
 Alpha virt. eigenvalues --    3.02494   3.04429   3.04852   3.05373   3.07701
 Alpha virt. eigenvalues --    3.08453   3.10203   3.13308   3.14639   3.15305
 Alpha virt. eigenvalues --    3.15937   3.17377   3.17515   3.18728   3.19129
 Alpha virt. eigenvalues --    3.20287   3.21388   3.23826   3.25956   3.26840
 Alpha virt. eigenvalues --    3.29535   3.31355   3.32099   3.33553   3.34306
 Alpha virt. eigenvalues --    3.34593   3.35132   3.36719   3.36911   3.41043
 Alpha virt. eigenvalues --    3.42251   3.44665   3.48911   3.50433   3.52632
 Alpha virt. eigenvalues --    3.55479   3.56543   3.61480   3.68001   4.51762
 Alpha virt. eigenvalues --    4.51796   4.52155   4.52244   4.52272   4.52285
 Alpha virt. eigenvalues --    4.52333   4.52409   4.52467   4.52790   4.52870
 Alpha virt. eigenvalues --    4.52929   4.53219   4.53403   4.53450   4.53488
 Alpha virt. eigenvalues --    4.53722   4.53934   4.53965   4.54064   4.54434
 Alpha virt. eigenvalues --    4.54880   4.55752   4.56007   4.56026   4.56091
 Alpha virt. eigenvalues --    4.56151   4.56517   4.57026   4.57983   4.58154
 Alpha virt. eigenvalues --    4.59130   4.59944   4.59993   4.60106   4.60263
 Alpha virt. eigenvalues --    4.60361   4.60469   4.60495   4.60780   4.60853
 Alpha virt. eigenvalues --    4.60970   4.61004   4.61087   4.61115   4.61480
 Alpha virt. eigenvalues --    4.61608   4.61625   4.61715   4.62855   4.62917
 Alpha virt. eigenvalues --    4.63000   4.63206   4.63369   4.63552   4.63638
 Alpha virt. eigenvalues --    4.63781   4.64094   4.64412   4.64600   4.65048
 Alpha virt. eigenvalues --    4.65357   4.66267   4.67684   4.74363   4.74478
 Alpha virt. eigenvalues --    4.75053   4.75158   4.75415   4.75422   4.75534
 Alpha virt. eigenvalues --    4.75878   4.75912   4.76062   4.76565   4.77305
 Alpha virt. eigenvalues --    4.77486   4.78458   4.78615   4.78927   4.79628
 Alpha virt. eigenvalues --    4.80320   4.80713   4.80814   4.81881   4.81936
 Alpha virt. eigenvalues --    4.82490   4.83026   4.83733   4.84394   4.84617
 Alpha virt. eigenvalues --    4.84875   4.85255   4.85607   4.85742   4.86355
 Alpha virt. eigenvalues --    4.86661   4.86806   4.86865   4.87182   4.87209
 Alpha virt. eigenvalues --    4.87373   4.87521   4.87953   4.88598   4.88862
 Alpha virt. eigenvalues --    4.89104   4.89218   4.89596   4.90128   4.91067
 Alpha virt. eigenvalues --    4.91448   4.92055   4.92349   4.93127   4.93597
 Alpha virt. eigenvalues --    4.94127   4.94476   4.95512   4.96035   4.96993
 Alpha virt. eigenvalues --    4.99269   4.99759   5.01085   5.01879   5.02131
 Alpha virt. eigenvalues --    5.03867   5.04597   5.04909   5.05340   5.05834
 Alpha virt. eigenvalues --    5.06065   5.06356   5.06510   5.07028   5.07706
 Alpha virt. eigenvalues --    5.08020   5.08267   5.09193   5.09339   5.09887
 Alpha virt. eigenvalues --    5.10195   5.11186   5.12846   5.13577   5.14813
 Alpha virt. eigenvalues --    5.15324   5.17028   5.17767   5.18399   5.19643
 Alpha virt. eigenvalues --    5.20651   5.21563   5.22359   5.23412   5.24370
 Alpha virt. eigenvalues --    5.25397   5.30665   5.31979   5.32908   5.34517
 Alpha virt. eigenvalues --    5.35094   5.35944   5.36976   5.37551   5.38145
 Alpha virt. eigenvalues --    5.38729   5.38764   5.39433   5.39550   5.40262
[...]
   Z20       31.18048   0.00232   0.00000   0.00285   0.00151  31.18199
   X21       35.07332   0.00445   0.00000   0.00718   0.00671  35.08002
   Y21       36.86856  -0.01403   0.00000  -0.01417  -0.01321  36.85535
   Z21       30.02775  -0.01334   0.00000  -0.01596  -0.01751  30.01024
   X22       35.90480   0.00952   0.00000   0.01294   0.01250  35.91730
   Y22       37.96460  -0.00113   0.00000  -0.00010   0.00064  37.96524
   Z22       32.52219   0.01137   0.00000   0.01782   0.01635  32.53854
   X23       40.76139   0.01452   0.00000   0.01528   0.01646  40.77786
   Y23       31.86078  -0.00175   0.00000   0.01208   0.01279  31.87357
   Z23       38.85277  -0.01400   0.00000  -0.00877  -0.01154  38.84123
   X24       40.87478  -0.00162   0.00000  -0.00850  -0.00717  40.86760
   Y24       32.04976  -0.01276   0.00000  -0.07026  -0.06980  31.97995
   Z24       40.64801   0.01773   0.00000   0.02474   0.02198  40.66999
   X25       39.06064  -0.01208   0.00000  -0.00700  -0.00593  39.05471
   Y25       32.31432   0.00718   0.00000   0.01981   0.02027  32.33458
   Z25       38.45593  -0.00086   0.00000   0.00489   0.00235  38.45828
   X26       44.10621  -0.01449   0.00000  -0.02567  -0.02500  44.08121
   Y26       35.84810   0.00664   0.00000   0.00017   0.00118  35.84928
   Z26       40.68580   0.01781   0.00000   0.03712   0.03461  40.72041
   X27       45.73137   0.01251   0.00000  -0.00360  -0.00302  45.72836
   Y27       35.92369   0.00395   0.00000   0.01663   0.01803  35.94173
   Z27       39.89212  -0.00213   0.00000   0.02365   0.02100  39.91312
   X28       43.25583  -0.00974   0.00000  -0.03024  -0.02942  43.22641
   Y28       34.48750  -0.00453   0.00000   0.00830   0.00929  34.49679
   Z28       39.83543  -0.00533   0.00000  -0.00407  -0.00669  39.82873
   X29       36.79297  -0.01826   0.00000  -0.02866  -0.02858  36.76439
   Y29       41.95192  -0.00167   0.00000  -0.03574  -0.03667  41.91525
   Z29       45.59909   0.00814   0.00000   0.00480   0.00380  45.60289
   X30       37.56776   0.00551   0.00000   0.01687   0.01713  37.58488
   Y30       41.68736   0.00171   0.00000   0.01287   0.01186  41.69922
   Z30       47.22426  -0.00089   0.00000  -0.00617  -0.00727  47.21698
   X31       38.02129   0.01358   0.00000   0.01484   0.01490  38.03619
   Y31       41.34721  -0.00595   0.00000  -0.00425  -0.00479  41.34242
   Z31       44.40856  -0.00890   0.00000  -0.00460  -0.00580  44.40277
   X32       37.77563   0.00669   0.00000  -0.00875  -0.01011  37.76552
   Y32       42.76450   0.01306   0.00000   0.02520   0.02641  42.79091
   Z32       31.52063   0.00764   0.00000   0.00645   0.00548  31.52611
   X33       36.13156  -0.01173   0.00000  -0.02223  -0.02350  36.10807
   Y33       42.67002  -0.00259   0.00000  -0.00821  -0.00739  42.66262
   Z33       32.27652   0.00311   0.00000   0.00457   0.00374  32.28026
   X34       37.64334  -0.00189   0.00000   0.00064  -0.00067  37.64267
   Y34       41.76295  -0.00815   0.00000  -0.01024  -0.00885  41.75410
   Z34       30.02775  -0.00754   0.00000   0.00630   0.00520  30.03295
   X35       34.33632   0.00580   0.00000   0.01392   0.01460  34.35092
   Y35       31.42615  -0.00211   0.00000  -0.00131  -0.00082  31.42532
   Z35       32.50329  -0.00754   0.00000  -0.00073  -0.00297  32.50032
   X36       34.95993  -0.00035   0.00000   0.00128   0.00166  34.96159
   Y36       32.46549  -0.00119   0.00000   0.00264   0.00342  32.46891
   Z36       31.14269   0.00164   0.00000   0.00227   0.00012  31.14280
   X37       33.88279  -0.00822   0.00000  -0.03112  -0.03052  33.85227
   Y37       32.61667   0.00280   0.00000  -0.00624  -0.00603  32.61065
   Z37       33.80720   0.00633   0.00000   0.00585   0.00382  33.81102
   X38       30.06554  -0.02855   0.00000  -0.04293  -0.04317  30.02237
   Y38       37.35989   0.00195   0.00000   0.03377   0.03336  37.39325
   Z38       33.63713  -0.00588   0.00000  -0.03571  -0.03673  33.60040
   X39       30.25452   0.00274   0.00000   0.00082   0.00053  30.25504
   Y39       38.45593   0.00148   0.00000  -0.01267  -0.01324  38.44268
   Z39       35.05442   0.00622   0.00000   0.00853   0.00763  35.06205
   X40       31.69071   0.01872   0.00000   0.00785   0.00756  31.69826
   Y40       37.32209  -0.00169   0.00000  -0.01259  -0.01261  37.30948
   Z40       32.88123  -0.00600   0.00000   0.00164   0.00046  32.88170
   X41       30.12223   0.00357   0.00000   0.01307   0.01340  30.13564
   Y41       37.35989  -0.01412   0.00000  -0.02403  -0.02529  37.33459
   Z41       39.83543   0.00094   0.00000   0.02362   0.02258  39.85801
   X42       29.83878  -0.00434   0.00000  -0.01360  -0.01361  29.82516
   Y42       38.96615   0.00257   0.00000  -0.02645  -0.02765  38.93850
   Z42       39.06064  -0.00755   0.00000  -0.01157  -0.01235  39.04828
   X43       30.27341   0.00192   0.00000   0.00460   0.00503  30.27845
   Y43       37.71893  -0.00159   0.00000  -0.01043  -0.01192  37.70702
   Z43       41.59287   0.01644   0.00000   0.03739   0.03639  41.62926
   X44       45.46681   0.03617   0.00000   0.04184   0.04089  45.50770
   Y44       41.91413  -0.00204   0.00000  -0.01854  -0.01641  41.89772
   Z44       34.37412  -0.00542   0.00000  -0.00524  -0.00704  34.36708
   X45       45.61799  -0.00314   0.00000  -0.00644  -0.00712  45.61087
   Y45       40.15668  -0.00806   0.00000  -0.02954  -0.02733  40.12935
   Z45       33.97728   0.00115   0.00000   0.00773   0.00568  33.98295
   X46       43.70937  -0.02582   0.00000   0.00156   0.00060  43.70997
   Y46       42.14089   0.00019   0.00000  -0.00722  -0.00543  42.13546
   Z46       34.67647   0.00905   0.00000   0.02491   0.02331  34.69979
   X47       35.14891  -0.00640   0.00000  -0.01523  -0.01695  35.13195
   Y47       47.52661   0.00957   0.00000   0.00564   0.00571  47.53232
   Z47       36.41502   0.01420   0.00000   0.00872   0.00865  36.42367
   X48       36.03708   0.00964   0.00000   0.02141   0.01945  36.05652
   Y48       48.18802   0.00395   0.00000  -0.00007   0.00036  48.18838
   Z48       34.99773  -0.00788   0.00000   0.00446   0.00440  35.00213
   X49       34.75206  -0.00106   0.00000   0.00884   0.00738  34.75944
   Y49       45.82586  -0.01739   0.00000  -0.02581  -0.02574  45.80012
   Z49       35.96149  -0.00035   0.00000   0.01496   0.01468  35.97617
   X50       31.33166  -0.00115   0.00000   0.00418   0.00574  31.33740
   Y50       29.17737  -0.01574   0.00000  -0.01955  -0.02033  29.15704
   Z50       37.85121   0.00114   0.00000   0.02011   0.01783  37.86904
   X51       29.97106  -0.00292   0.00000  -0.00235  -0.00086  29.97019
   Y51       29.98995   0.00580   0.00000   0.01067   0.00954  29.99949
   Z51       38.72049   0.00200   0.00000  -0.00066  -0.00270  38.71779
   X52       32.57888   0.00340   0.00000  -0.01019  -0.00888  32.57000
   Y52       30.48128   0.01059   0.00000   0.01339   0.01285  30.49414
   Z52       37.68114  -0.00245   0.00000  -0.01067  -0.01288  37.66826
   X53       42.68891   0.00692   0.00000   0.00615   0.00449  42.69341
   Y53       47.29985   0.02883   0.00000   0.02999   0.03131  47.33116
   Z53       36.75517  -0.00350   0.00000  -0.00193  -0.00271  36.75246
   X54       42.15979  -0.00860   0.00000  -0.01264  -0.01403  42.14576
   Y54       45.61799  -0.02019   0.00000  -0.00428  -0.00300  45.61498
   Z54       36.41502   0.00128   0.00000   0.01172   0.01074  36.42577
   X55       42.89678   0.00034   0.00000   0.00406   0.00256  42.89934
   Y55       47.37543  -0.00398   0.00000  -0.00792  -0.00681  47.36862
   Z55       38.55041   0.00536   0.00000   0.00681   0.00601  38.55642
   X56       43.19914   0.00269   0.00000  -0.00336  -0.00350  43.19564
   Y56       43.19914   0.01206   0.00000   0.00654   0.00671  43.20585
   Z56       45.61799   0.01485   0.00000   0.02207   0.02067  45.63865
   X57       44.84320   0.00172   0.00000  -0.00184  -0.00184  44.84136
   Y57       42.46215  -0.00356   0.00000  -0.00858  -0.00816  42.45399
   Z57       45.82586  -0.00134   0.00000  -0.00299  -0.00465  45.82121
   X58       42.38656  -0.00631   0.00000  -0.00441  -0.00450  42.38206
   Y58       42.19758  -0.00569   0.00000   0.01395   0.01416  42.21175
   Z58       44.35187  -0.01426   0.00000  -0.01943  -0.02090  44.33097
   X59       43.35032  -0.00958   0.00000  -0.01566  -0.01599  43.33433
   Y59       35.20560   0.00057   0.00000  -0.01381  -0.01123  35.19437
   Z59       28.51597  -0.01117   0.00000  -0.01062  -0.01316  28.50281
   X60       45.03217   0.00608   0.00000  -0.00005  -0.00026  45.03192
   Y60       34.58199  -0.00204   0.00000  -0.00087   0.00197  34.58396
   Z60       28.72384   0.00396   0.00000   0.00646   0.00369  28.72753
   X61       42.72671   0.00403   0.00000   0.01845   0.01823  42.74494
   Y61       35.43236   0.00241   0.00000   0.01058   0.01282  35.44519
   Z61       30.21672   0.00670   0.00000   0.00818   0.00574  30.22246
   X62       30.19782  -0.01369   0.00000  -0.02934  -0.02781  30.17001
   Y62       32.46549  -0.00172   0.00000   0.00843   0.00662  32.47212
   Z62       43.80385   0.00522   0.00000   0.00662   0.00490  43.80875
   X63       28.76163  -0.00049   0.00000  -0.00968  -0.00812  28.75351
   Y63       31.78519   0.00049   0.00000  -0.00014  -0.00206  31.78313
   Z63       42.91568  -0.00041   0.00000  -0.01036  -0.01204  42.90364
   X64       31.40725   0.01222   0.00000   0.02440   0.02575  31.43300
   Y64       32.82454   0.00004   0.00000  -0.00987  -0.01128  32.81326
   Z64       42.49994  -0.00075   0.00000   0.02741   0.02563  42.52557
   X65       34.50640   0.00437   0.00000   0.02385   0.02511  34.53151
   Y65       36.28274  -0.00736   0.00000   0.00970   0.00805  36.29079
   Z65       48.05574   0.00438   0.00000   0.00655   0.00497  48.06071
   X66       33.42926  -0.00493   0.00000  -0.01390  -0.01275  33.41650
   Y66       37.41658   0.00297   0.00000  -0.00131  -0.00327  37.41331
   Z66       48.96280  -0.00042   0.00000  -0.00925  -0.01057  48.95223
   X67       35.35678  -0.00049   0.00000  -0.01920  -0.01823  35.33855
   Y67       37.32209   0.01270   0.00000   0.03584   0.03450  37.35659
   Z67       46.84631  -0.00989   0.00000  -0.02271  -0.02421  46.82210
   X68       42.55663   0.00018   0.00000  -0.00270  -0.00123  42.55540
   Y68       28.15692  -0.01047   0.00000  -0.00951  -0.00796  28.14895
   Z68       34.97883  -0.01375   0.00000  -0.01542  -0.01887  34.95996
   X69       44.20069   0.00099   0.00000  -0.00870  -0.00721  44.19348
   Y69       28.40258   0.00390   0.00000   0.00439   0.00612  28.40870
   Z69       35.69693   0.00564   0.00000   0.01211   0.00855  35.70548
   X70       41.47949  -0.00003   0.00000   0.01198   0.01333  41.49282
   Y70       29.30965   0.00632   0.00000  -0.00170  -0.00046  29.30919
   Z70       35.86700   0.01046   0.00000   0.02372   0.02053  35.88754
   X71       31.31276  -0.02152   0.00000  -0.01189  -0.01162  31.30115
   Y71       41.15824  -0.00934   0.00000  -0.01726  -0.01921  41.13902
   Z71       46.29829   0.00126   0.00000  -0.00742  -0.00803  46.29026
   X72       31.70960   0.00347   0.00000  -0.00109  -0.00070  31.70890
   Y72       41.36611   0.00449   0.00000   0.01735   0.01521  41.38132
   Z72       48.05574   0.00087   0.00000  -0.00774  -0.00836  48.04738
   X73       32.84344   0.02180   0.00000   0.02976   0.02989  32.87333
   Y73       41.53618   0.00567   0.00000   0.00861   0.00704  41.54322
   Z73       45.42902  -0.00201   0.00000   0.01647   0.01577  45.44478
   X74       28.51597   0.00508   0.00000   0.01335   0.01275  28.52872
   Y74       41.30941   0.00305   0.00000   0.03711   0.03596  41.34537
   Z74       37.11422  -0.00533   0.00000  -0.00129  -0.00162  37.11260
   X75       27.26875  -0.00200   0.00000  -0.00158  -0.00237  27.26638
   Y75       41.83854  -0.00296   0.00000  -0.01412  -0.01532  41.82322
   Z75       35.90480  -0.00638   0.00000  -0.01671  -0.01686  35.88794
   X76       28.13802  -0.00341   0.00000  -0.01208  -0.01271  28.12532
   Y76       42.27317   0.01057   0.00000   0.03134   0.02991  42.30308
   Z76       38.58821   0.01125   0.00000   0.01538   0.01522  38.60343
   X77       41.38500   0.01318   0.00000  -0.00380  -0.00180  41.38320
   Y77       29.93326  -0.00028   0.00000   0.01563   0.01568  29.94895
   Z77       44.23849  -0.01563   0.00000  -0.02413  -0.02722  44.21127
   X78       40.64801  -0.00402   0.00000  -0.00529  -0.00299  40.64502
   Y78       28.28920  -0.00327   0.00000   0.00686   0.00676  28.29596
   Z78       44.42746  -0.00062   0.00000  -0.00760  -0.01085  44.41661
   X79       40.30786  -0.00961   0.00000   0.00015   0.00206  40.30991
   Y79       31.02930   0.01020   0.00000   0.00887   0.00860  31.03790
   Z79       45.18335   0.01631   0.00000   0.04006   0.03722  45.22057
   X80       31.25607  -0.00162   0.00000   0.00275   0.00130  31.25737
   Y80       41.63067  -0.00016   0.00000  -0.00145  -0.00091  41.62975
   Z80       28.36479  -0.01121   0.00000  -0.00929  -0.00983  28.35496
   X81       31.27497   0.00112   0.00000   0.00462   0.00298  31.27795
   Y81       43.21804   0.00347   0.00000  -0.00108  -0.00067  43.21737
   Z81       29.23406   0.00526   0.00000   0.00814   0.00782  29.24188
   X82       31.61512   0.00098   0.00000  -0.00147  -0.00259  31.61253
   Y82       40.40234  -0.00325   0.00000   0.00037   0.00078  40.40312
   Z82       29.64980   0.00776   0.00000   0.01040   0.00966  29.65946
   X83       37.52996   0.02123   0.00000   0.01761   0.01945  37.54942
   Y83       32.44660  -0.01364   0.00000  -0.01587  -0.01687  32.42972
   Z83       47.18646  -0.01270   0.00000  -0.03690  -0.03929  47.14717
   X84       36.62289  -0.01205   0.00000  -0.00710  -0.00546  36.61744
   Y84       33.92058   0.00840   0.00000  -0.01604  -0.01729  33.90329
   Z84       47.73448   0.00867   0.00000   0.02082   0.01872  47.75320
   X85       36.24495  -0.01005   0.00000  -0.02089  -0.01887  36.22607
   Y85       31.21828  -0.00238   0.00000  -0.00283  -0.00403  31.21425
   Z85       46.84631   0.00148   0.00000   0.00953   0.00708  46.85339
   X86       45.33453  -0.00813   0.00000  -0.00791  -0.00643  45.32810
   Y86       34.46860  -0.00012   0.00000   0.01647   0.01682  34.48543
   Z86       46.95969   0.01245   0.00000   0.01548   0.01266  46.97235
   X87       47.11087   0.00847   0.00000   0.00319   0.00472  47.11559
   Y87       34.16625  -0.00181   0.00000  -0.00497  -0.00432  34.16192
   Z87       47.05418  -0.00177   0.00000  -0.00500  -0.00803  47.04615
   X88       45.10776  -0.00224   0.00000  -0.00937  -0.00818  45.09958
   Y88       35.26229   0.00142   0.00000  -0.01638  -0.01584  35.24645
   Z88       45.35343  -0.01457   0.00000  -0.02203  -0.02472  45.32871
   X89       48.50927   0.00496   0.00000   0.02467   0.02507  48.53434
   Y89       36.33943   0.00569   0.00000   0.00224   0.00430  36.34373
   Z89       38.72049  -0.00397   0.00000  -0.02538  -0.02823  38.69226
   X90       49.85098   0.00040   0.00000   0.00663   0.00689  49.85787
   Y90       37.45437   0.00416   0.00000   0.01265   0.01485  37.46922
   Z90       39.23071   0.00041   0.00000   0.00044  -0.00238  39.22834
   X91       49.35965   0.00636   0.00000   0.02368   0.02426  49.38391
   Y91       34.92214  -0.00956   0.00000  -0.02085  -0.01856  34.90358
   Z91       38.00239  -0.00481   0.00000  -0.00816  -0.01129  37.99110
   X92       37.47327  -0.00631   0.00000  -0.00709  -0.00877  37.46450
   Y92       49.79428   0.00903   0.00000   0.00269   0.00250  49.79678
   Z92       41.12044   0.00758   0.00000   0.02150   0.02154  41.14198
   X93       36.71738  -0.00037   0.00000   0.00522   0.00369  36.72107
   Y93       48.37699  -0.00259   0.00000   0.01435   0.01417  48.39116
   Z93       40.27006  -0.00974   0.00000  -0.03315  -0.03324  40.23682
   X94       39.21182   0.00630   0.00000   0.00420   0.00262  39.21444
   Y94       49.34075  -0.00499   0.00000  -0.01069  -0.01060  49.33015
   Z94       41.30941  -0.00227   0.00000  -0.01092  -0.01111  41.29830
   X95       45.29674   0.01037   0.00000  -0.00590  -0.00754  45.28919
   Y95       43.33142  -0.00097   0.00000  -0.02015  -0.01736  43.31406
   Z95       29.46083  -0.02430   0.00000  -0.05600  -0.05758  29.40325
   X96       43.89834  -0.00896   0.00000  -0.00573  -0.00757  43.89077
   Y96       44.46526   0.00557   0.00000   0.00557   0.00812  44.47337
   Z96       29.42304   0.00368   0.00000   0.00863   0.00734  29.43038
   X97       44.97548   0.00047   0.00000   0.02494   0.02361  44.99909
   Y97       42.25428   0.00141   0.00000   0.03466   0.03719  42.29147
   Z97       30.87813   0.01449   0.00000   0.02112   0.01942  30.89755
         Item               Value     Threshold  Converged?
 Maximum Force            0.036173     0.000450     NO 
 RMS     Force            0.009211     0.000300     NO 
 Maximum Displacement     0.069800     0.001800     NO 
 RMS     Displacement     0.017549     0.001200     NO 
 Predicted change in Energy=-2.584422D-02
 GradGradGradGradGradGradGradGradGradGradGradGradGradGradGradGradGradGrad

 Leave Link  103 at Wed May  2 20:12:35 2018, MaxMem= 14763950080 cpu:       140.3
 (Enter /cm/shared/gaussian/g09.e01/intel64-sandybridge/g09/l9999.exe)
 1\1\GINC-POPLE03\Force\RPBE1PBE\CC-pVDZ\Br1H64O32(1-)\M.PELUSO\02-May-
 2018\0\\#p PBE1PBE/cc-pvDZ force Counterpoise=2 noSymm\\forces on chlo
 ride comput - NWATER: 32\\-1,1\Br,20.,20.,20.\O,21.57,21.19,22.28\H,21
 .15,21.03,21.43\H,22.35,20.63,22.26\O,17.47,18.15,19.49\H,18.26,18.67,
 19.66\H,16.85,18.44,20.16\O,17.98,22.32,19.14\H,17.07,22.08,19.31\H,18
 .47,21.52,19.32\O,21.59,22.54,18.88\H,21.16,21.87,19.41\H,20.98,22.7,1
 8.15\O,22.51,19.41,17.77\H,21.71,19.29,18.29\H,23.22,19.16,18.37\O,18.
 45,17.79,22.38\H,19.2,17.66,22.96\H,18.72,18.49,21.79\O,18.37,20.21,16
 .5\H,18.56,19.51,15.89\H,19.,20.09,17.21\O,21.57,16.86,20.56\H,21.63,1
 6.96,21.51\H,20.67,17.1,20.35\O,23.34,18.97,21.53\H,24.2,19.01,21.11\H
 ,22.89,18.25,21.08\O,19.47,22.2,24.13\H,19.88,22.06,24.99\H,20.12,21.8
 8,23.5\O,19.99,22.63,16.68\H,19.12,22.58,17.08\H,19.92,22.1,15.89\O,18
 .17,16.63,17.2\H,18.5,17.18,16.48\H,17.93,17.26,17.89\O,15.91,19.77,17
 .8\H,16.01,20.35,18.55\H,16.77,19.75,17.4\O,15.94,19.77,21.08\H,15.79,
 20.62,20.67\H,16.02,19.96,22.01\O,24.06,22.18,18.19\H,24.14,21.25,17.9
 8\H,23.13,22.3,18.35\O,18.6,25.15,19.27\H,19.07,25.5,18.52\H,18.39,24.
 25,19.03\O,16.58,15.44,20.03\H,15.86,15.87,20.49\H,17.24,16.13,19.94\O
 ,22.59,25.03,19.45\H,22.31,24.14,19.27\H,22.7,25.07,20.4\O,22.86,22.86
 ,24.14\H,23.73,22.47,24.25\H,22.43,22.33,23.47\O,22.94,18.63,15.09\H,2
 3.83,18.3,15.2\H,22.61,18.75,15.99\O,15.98,17.18,23.18\H,15.22,16.82,2
 2.71\H,16.62,17.37,22.49\O,18.26,19.2,25.43\H,17.69,19.8,25.91\H,18.71
 ,19.75,24.79\O,22.52,14.9,18.51\H,23.39,15.03,18.89\H,21.95,15.51,18.9
 8\O,16.57,21.78,24.5\H,16.78,21.89,25.43\H,17.38,21.98,24.04\O,15.09,2
 1.86,19.64\H,14.43,22.14,19.\H,14.89,22.37,20.42\O,21.9,15.84,23.41\H,
 21.51,14.97,23.51\H,21.33,16.42,23.91\O,16.54,22.03,15.01\H,16.55,22.8
 7,15.47\H,16.73,21.38,15.69\O,19.86,17.17,24.97\H,19.38,17.95,25.26\H,
 19.18,16.52,24.79\O,23.99,18.24,24.85\H,24.93,18.08,24.9\H,23.87,18.66
 ,24.\O,25.67,19.23,20.49\H,26.38,19.82,20.76\H,26.12,18.48,20.11\O,19.
 83,26.35,21.76\H,19.43,25.6,21.31\H,20.75,26.11,21.86\O,23.97,22.93,15
 .59\H,23.23,23.53,15.57\H,23.8,22.36,16.34\\Version=ES64L-G09RevE.01\H
 F=-2443.1403387\RMSD=2.751e-09\RMSF=9.211e-03\Dipole=0.2691633,-0.6425
 643,3.5037202\Quadrupole=18.7160882,-177.8289063,159.1128181,-1498.083
 9056,-1294.1303433,-1354.1070633\PG=C01 [X(Br1H64O32)]\\@


 BLESSED ARE THOSE WHO NOUGHT EXPECT,
 FOR THEY SHALL NOT BE DISAPPOINTED..  WALCOT - ODE TO PITT
 Job cpu time:       0 days  9 hours  1 minutes 24.7 seconds.
 File lengths (MBytes):  RWF=    482 Int=      0 D2E=      0 Chk=    160 Scr=      1
 Normal termination of Gaussian 09 at Wed May  2 20:12:37 2018.
