 Entering Gaussian System, Link 0=/cm/shared/gaussian/g09.e01/intel64-sandybridge/g09/g09
 Initial command:
 /cm/shared/gaussian/g09.e01/intel64-sandybridge/g09/l1.exe "/local/scratch/m.peluso/32_wat/Gau-50182.inp" -scrdir="/local/scratch/m.peluso/32_wat/"
 Entering Link 1 = /cm/shared/gaussian/g09.e01/intel64-sandybridge/g09/l1.exe PID=     50183.
  
 Copyright (c) 1988,1990,1992,1993,1995,1998,2003,2009,2015,
            Gaussian, Inc.  All Rights Reserved.
  
 This is part of the Gaussian(R) 09 program.  It is based on
 the Gaussian(R) 03 system (copyright 2003, Gaussian, Inc.),
 the Gaussian(R) 98 system (copyright 1998, Gaussian, Inc.),
 the Gaussian(R) 94 system (copyright 1995, Gaussian, Inc.),
 the Gaussian 92(TM) system (copyright 1992, Gaussian, Inc.),
 the Gaussian 90(TM) system (copyright 1990, Gaussian, Inc.),
 the Gaussian 88(TM) system (copyright 1988, Gaussian, Inc.),
 the Gaussian 86(TM) system (copyright 1986, Carnegie Mellon
 University), and the Gaussian 82(TM) system (copyright 1983,
 Carnegie Mellon University). Gaussian is a federally registered
 trademark of Gaussian, Inc.
  
 This software contains proprietary and confidential information,
 including trade secrets, belonging to Gaussian, Inc.
  
 This software is provided under written license and may be
 used, copied, transmitted, or stored only in accord with that
 written license.
  
 The following legend is applicable only to US Government
 contracts under FAR:
  
                    RESTRICTED RIGHTS LEGEND
  
 Use, reproduction and disclosure by the US Government is
 subject to restrictions as set forth in subparagraphs (a)
 and (c) of the Commercial Computer Software - Restricted
 Rights clause in FAR 52.227-19.
  
 Gaussian, Inc.
 340 Quinnipiac St., Bldg. 40, Wallingford CT 06492
  
  
 ---------------------------------------------------------------
 Warning -- This program may not be used in any manner that
 competes with the business of Gaussian, Inc. or will provide
 assistance to any competitor of Gaussian, Inc.  The licensee
 of this program is prohibited from giving any competitor of
 Gaussian, Inc. access to this program.  By using this program,
 the user acknowledges that Gaussian, Inc. is engaged in the
 business of creating and licensing software in the field of
 computational chemistry and represents and warrants to the
 licensee that it is not a competitor of Gaussian, Inc. and that
 it will not use this program in any manner prohibited above.
 ---------------------------------------------------------------
  

 Cite this work as:
 Gaussian 09, Revision E.01,
 M. J. Frisch, G. W. Trucks, H. B. Schlegel, G. E. Scuseria, 
 M. A. Robb, J. R. Cheeseman, G. Scalmani, V. Barone, B. Mennucci, 
 G. A. Petersson, H. Nakatsuji, M. Caricato, X. Li, H. P. Hratchian, 
 A. F. Izmaylov, J. Bloino, G. Zheng, J. L. Sonnenberg, M. Hada, 
 M. Ehara, K. Toyota, R. Fukuda, J. Hasegawa, M. Ishida, T. Nakajima, 
 Y. Honda, O. Kitao, H. Nakai, T. Vreven, J. A. Montgomery, Jr., 
 J. E. Peralta, F. Ogliaro, M. Bearpark, J. J. Heyd, E. Brothers, 
 K. N. Kudin, V. N. Staroverov, T. Keith, R. Kobayashi, J. Normand, 
 K. Raghavachari, A. Rendell, J. C. Burant, S. S. Iyengar, J. Tomasi, 
 M. Cossi, N. Rega, J. M. Millam, M. Klene, J. E. Knox, J. B. Cross, 
 V. Bakken, C. Adamo, J. Jaramillo, R. Gomperts, R. E. Stratmann, 
 O. Yazyev, A. J. Austin, R. Cammi, C. Pomelli, J. W. Ochterski, 
 R. L. Martin, K. Morokuma, V. G. Zakrzewski, G. A. Voth, 
 P. Salvador, J. J. Dannenberg, S. Dapprich, A. D. Daniels, 
 O. Farkas, J. B. Foresman, J. V. Ortiz, J. Cioslowski, 
 and D. J. Fox, Gaussian, Inc., Wallingford CT, 2013.
 
 ******************************************
 Gaussian 09:  ES64L-G09RevE.01 30-Nov-2015
                 3-May-2018 
 ******************************************
 %Mem=110GB
 %NProcShared=64
 Will use up to   64 processors via shared memory.
 %chk=snap28.chk
 ----------------------------------------------
 #p PBE1PBE/cc-pvDZ force Counterpoise=2 noSymm
 ----------------------------------------------
 1/10=7,30=1,38=1,62=2/1,3;
 2/12=2,15=1,17=6,18=5,40=1/2;
 1/10=7,30=1,38=1,53=2,62=2,63=101/22;
 3/5=16,11=2,16=1,25=1,30=1,71=1,74=-13/1,2,3;
 4//1;
 5/5=2,38=5/2;
 6/7=2,8=2,9=2,10=2,28=1/1;
 7/7=1,29=1,30=1,33=-1/1,2,3,16;
 1/10=7,30=1,53=2,62=2,63=101/22;
 3/5=7,6=11,11=2,16=1,25=1,30=1,71=1,74=-13,82=7/1,2,3;
 4//1;
 5/5=2,38=5/2;
 6/7=2,8=2,9=2,10=2,28=1/1;
 7/7=1,29=1,30=1,33=-1/1,2,3,16;
 1/10=7,30=1,53=2,62=2,63=101/22(-5);
 7/9=1,29=1,44=-1/16;
 1/10=7,30=1,62=2/3;
 99//99;
 Leave Link    1 at Thu May  3 08:39:53 2018, MaxMem= 14763950080 cpu:         8.0
 (Enter /cm/shared/gaussian/g09.e01/intel64-sandybridge/g09/l101.exe)
 --------------------------------------
 forces on chloride comput - NWATER: 32
 --------------------------------------
 Symbolic Z-matrix:
 Charge = -1 Multiplicity = 1 in supermolecule
 Charge = -1 Multiplicity = 1 in fragment      1.
 Charge =  0 Multiplicity = 1 in fragment      2.
 Br(Fragment=1)        20.       20.       20. 
 O(Fragment=2)         18.71     22.39     21.65 
 H(Fragment=2)         17.85     21.97     21.66 
 H(Fragment=2)         19.26     21.8      21.14 
 O(Fragment=2)         17.05     21.03     19.14 
 H(Fragment=2)         16.81     20.92     18.23 
 H(Fragment=2)         17.95     20.7      19.2 
 O(Fragment=2)         20.07     17.96     17.56 
 H(Fragment=2)         19.94     17.06     17.86 
 H(Fragment=2)         19.71     18.5      18.26 
 O(Fragment=2)         19.57     17.9      22.53 
 H(Fragment=2)         18.88     18.53     22.76 
 H(Fragment=2)         20.06     18.32     21.83 
 O(Fragment=2)         21.5      20.71     16.84 
 H(Fragment=2)         20.8      20.67     16.19 
 H(Fragment=2)         21.05     20.59     17.68 
 O(Fragment=2)         16.79     19.03     20.79 
 H(Fragment=2)         16.48     19.7      20.18 
 H(Fragment=2)         17.61     18.72     20.41 
 O(Fragment=2)         22.48     22.4      19.6 
 H(Fragment=2)         23.15     22.18     20.24 
 H(Fragment=2)         22.15     21.56     19.29 
 O(Fragment=2)         22.45     17.94     18.86 
 H(Fragment=2)         21.78     17.88     18.18 
 H(Fragment=2)         21.96     17.94     19.68 
 O(Fragment=2)         24.34     19.94     19.74 
 H(Fragment=2)         23.62     19.44     19.36 
 H(Fragment=2)         24.88     20.19     18.99 
 O(Fragment=2)         22.54     18.24     23.18 
 H(Fragment=2)         21.74     17.87     22.82 
 H(Fragment=2)         22.95     17.52     23.66 
 O(Fragment=2)         19.02     24.68     19.5 
 H(Fragment=2)         19.22     23.99     20.13 
 H(Fragment=2)         18.31     25.18     19.9 
 O(Fragment=2)         20.18     22.91     23.95 
 H(Fragment=2)         19.77     22.72     23.1 
 H(Fragment=2)         19.47     22.81     24.59 
 O(Fragment=2)         15.92     22.33     21.23 
 H(Fragment=2)         16.26     22.11     20.36 
 H(Fragment=2)         15.48     23.17     21.11 
 O(Fragment=2)         17.66     21.89     16.48 
 H(Fragment=2)         18.03     22.71     16.84 
 H(Fragment=2)         18.36     21.54     15.94 
 O(Fragment=2)         19.69     15.42     18.62 
 H(Fragment=2)         19.13     15.48     19.39 
 H(Fragment=2)         20.11     14.56     18.7 
 O(Fragment=2)         21.92     24.94     19.2 
 H(Fragment=2)         22.22     24.04     19.36 
 H(Fragment=2)         21.01     24.95     19.5 
 O(Fragment=2)         19.87     19.84     24.96 
 H(Fragment=2)         19.96     18.97     24.58 
 H(Fragment=2)         20.62     20.33     24.63 
 O(Fragment=2)         21.46     17.65     15.13 
 H(Fragment=2)         20.97     17.89     15.92 
 H(Fragment=2)         21.9      18.45     14.86 
 O(Fragment=2)         16.15     18.29     17.27 
 H(Fragment=2)         16.91     17.75     17.06 
 H(Fragment=2)         16.26     19.08     16.73 
 O(Fragment=2)         20.24     15.31     23.13 
 H(Fragment=2)         19.91     16.21     23.06 
 H(Fragment=2)         20.41     15.18     24.06 
 O(Fragment=2)         24.19     20.51     16.32 
 H(Fragment=2)         23.32     20.86     16.48 
 H(Fragment=2)         24.75     20.96     16.95 
 O(Fragment=2)         22.66     20.59     24.72 
 H(Fragment=2)         22.99     21.24     24.11 
 H(Fragment=2)         22.68     19.77     24.23 
 O(Fragment=2)         19.67     20.8      14.83 
 H(Fragment=2)         20.4      21.01     14.25 
 H(Fragment=2)         19.07     20.29     14.29 
 O(Fragment=2)         14.56     20.35     22.62 
 H(Fragment=2)         15.26     20.76     22.11 
 H(Fragment=2)         14.4      20.96     23.34 
 O(Fragment=2)         22.48     15.5      21.48 
 H(Fragment=2)         22.88     14.71     21.12 
 H(Fragment=2)         21.56     15.25     21.61 
 O(Fragment=2)         25.11     16.95     18.35 
 H(Fragment=2)         24.22     17.26     18.49 
 H(Fragment=2)         25.55     17.1      19.18 
 O(Fragment=2)         24.       22.16     22.74 
 H(Fragment=2)         24.36     22.79     22.12 
 H(Fragment=2)         24.4      22.39     23.58 
 O(Fragment=2)         25.95     18.44     21.4 
 H(Fragment=2)         25.82     17.72     22.02 
 H(Fragment=2)         25.07     18.75     21.2 
 O(Fragment=2)         14.7      17.43     19.49 
 H(Fragment=2)         15.08     17.89     20.24 
 H(Fragment=2)         15.21     17.74     18.74 
 O(Fragment=2)         14.89     17.69     22.72 
 H(Fragment=2)         15.46     17.95     22. 
 H(Fragment=2)         14.44     18.5      22.96 
 O(Fragment=2)         16.52     23.31     23.91 
 H(Fragment=2)         17.25     23.32     23.29 
 H(Fragment=2)         15.92     22.65     23.57 
 O(Fragment=2)         21.73     25.13     16.62 
 H(Fragment=2)         22.07     24.36     16.17 
 H(Fragment=2)         21.71     24.88     17.55 
 
 NAtoms=     97 NQM=       97 NQMF=       0 NMMI=      0 NMMIF=      0
                NMic=       0 NMicF=      0.
                    Isotopes and Nuclear Properties:
 (Nuclear quadrupole moments (NQMom) in fm**2, nuclear magnetic moments (NMagM)
  in nuclear magnetons)

  Atom         1           2           3           4           5           6           7           8           9          10
 IAtWgt=          79          16           1           1          16           1           1          16           1           1
 AtmWgt=  78.9183361  15.9949146   1.0078250   1.0078250  15.9949146   1.0078250   1.0078250  15.9949146   1.0078250   1.0078250
 NucSpn=           3           0           1           1           0           1           1           0           1           1
 AtZEff=   0.0000000   0.0000000   0.0000000   0.0000000   0.0000000   0.0000000   0.0000000   0.0000000   0.0000000   0.0000000
 NQMom=   31.3000000   0.0000000   0.0000000   0.0000000   0.0000000   0.0000000   0.0000000   0.0000000   0.0000000   0.0000000
 NMagM=    2.1063990   0.0000000   2.7928460   2.7928460   0.0000000   2.7928460   2.7928460   0.0000000   2.7928460   2.7928460
 AtZNuc=  35.0000000   8.0000000   1.0000000   1.0000000   8.0000000   1.0000000   1.0000000   8.0000000   1.0000000   1.0000000

  Atom        11          12          13          14          15          16          17          18          19          20
 IAtWgt=          16           1           1          16           1           1          16           1           1          16
 AtmWgt=  15.9949146   1.0078250   1.0078250  15.9949146   1.0078250   1.0078250  15.9949146   1.0078250   1.0078250  15.9949146
 NucSpn=           0           1           1           0           1           1           0           1           1           0
 AtZEff=   0.0000000   0.0000000   0.0000000   0.0000000   0.0000000   0.0000000   0.0000000   0.0000000   0.0000000   0.0000000
 NQMom=    0.0000000   0.0000000   0.0000000   0.0000000   0.0000000   0.0000000   0.0000000   0.0000000   0.0000000   0.0000000
 NMagM=    0.0000000   2.7928460   2.7928460   0.0000000   2.7928460   2.7928460   0.0000000   2.7928460   2.7928460   0.0000000
 AtZNuc=   8.0000000   1.0000000   1.0000000   8.0000000   1.0000000   1.0000000   8.0000000   1.0000000   1.0000000   8.0000000

  Atom        21          22          23          24          25          26          27          28          29          30
 IAtWgt=           1           1          16           1           1          16           1           1          16           1
 AtmWgt=   1.0078250   1.0078250  15.9949146   1.0078250   1.0078250  15.9949146   1.0078250   1.0078250  15.9949146   1.0078250
 NucSpn=           1           1           0           1           1           0           1           1           0           1
 AtZEff=   0.0000000   0.0000000   0.0000000   0.0000000   0.0000000   0.0000000   0.0000000   0.0000000   0.0000000   0.0000000
 NQMom=    0.0000000   0.0000000   0.0000000   0.0000000   0.0000000   0.0000000   0.0000000   0.0000000   0.0000000   0.0000000
 NMagM=    2.7928460   2.7928460   0.0000000   2.7928460   2.7928460   0.0000000   2.7928460   2.7928460   0.0000000   2.7928460
 AtZNuc=   1.0000000   1.0000000   8.0000000   1.0000000   1.0000000   8.0000000   1.0000000   1.0000000   8.0000000   1.0000000

  Atom        31          32          33          34          35          36          37          38          39          40
 IAtWgt=           1          16           1           1          16           1           1          16           1           1
 AtmWgt=   1.0078250  15.9949146   1.0078250   1.0078250  15.9949146   1.0078250   1.0078250  15.9949146   1.0078250   1.0078250
 NucSpn=           1           0           1           1           0           1           1           0           1           1
 AtZEff=   0.0000000   0.0000000   0.0000000   0.0000000   0.0000000   0.0000000   0.0000000   0.0000000   0.0000000   0.0000000
 NQMom=    0.0000000   0.0000000   0.0000000   0.0000000   0.0000000   0.0000000   0.0000000   0.0000000   0.0000000   0.0000000
 NMagM=    2.7928460   0.0000000   2.7928460   2.7928460   0.0000000   2.7928460   2.7928460   0.0000000   2.7928460   2.7928460
 AtZNuc=   1.0000000   8.0000000   1.0000000   1.0000000   8.0000000   1.0000000   1.0000000   8.0000000   1.0000000   1.0000000

  Atom        41          42          43          44          45          46          47          48          49          50
 IAtWgt=          16           1           1          16           1           1          16           1           1          16
 AtmWgt=  15.9949146   1.0078250   1.0078250  15.9949146   1.0078250   1.0078250  15.9949146   1.0078250   1.0078250  15.9949146
 NucSpn=           0           1           1           0           1           1           0           1           1           0
 AtZEff=   0.0000000   0.0000000   0.0000000   0.0000000   0.0000000   0.0000000   0.0000000   0.0000000   0.0000000   0.0000000
 NQMom=    0.0000000   0.0000000   0.0000000   0.0000000   0.0000000   0.0000000   0.0000000   0.0000000   0.0000000   0.0000000
 NMagM=    0.0000000   2.7928460   2.7928460   0.0000000   2.7928460   2.7928460   0.0000000   2.7928460   2.7928460   0.0000000
 AtZNuc=   8.0000000   1.0000000   1.0000000   8.0000000   1.0000000   1.0000000   8.0000000   1.0000000   1.0000000   8.0000000

  Atom        51          52          53          54          55          56          57          58          59          60
 IAtWgt=           1           1          16           1           1          16           1           1          16           1
 AtmWgt=   1.0078250   1.0078250  15.9949146   1.0078250   1.0078250  15.9949146   1.0078250   1.0078250  15.9949146   1.0078250
 NucSpn=           1           1           0           1           1           0           1           1           0           1
 AtZEff=   0.0000000   0.0000000   0.0000000   0.0000000   0.0000000   0.0000000   0.0000000   0.0000000   0.0000000   0.0000000
 NQMom=    0.0000000   0.0000000   0.0000000   0.0000000   0.0000000   0.0000000   0.0000000   0.0000000   0.0000000   0.0000000
 NMagM=    2.7928460   2.7928460   0.0000000   2.7928460   2.7928460   0.0000000   2.7928460   2.7928460   0.0000000   2.7928460
 AtZNuc=   1.0000000   1.0000000   8.0000000   1.0000000   1.0000000   8.0000000   1.0000000   1.0000000   8.0000000   1.0000000

  Atom        61          62          63          64          65          66          67          68          69          70
 IAtWgt=           1          16           1           1          16           1           1          16           1           1
 AtmWgt=   1.0078250  15.9949146   1.0078250   1.0078250  15.9949146   1.0078250   1.0078250  15.9949146   1.0078250   1.0078250
 NucSpn=           1           0           1           1           0           1           1           0           1           1
 AtZEff=   0.0000000   0.0000000   0.0000000   0.0000000   0.0000000   0.0000000   0.0000000   0.0000000   0.0000000   0.0000000
 NQMom=    0.0000000   0.0000000   0.0000000   0.0000000   0.0000000   0.0000000   0.0000000   0.0000000   0.0000000   0.0000000
 NMagM=    2.7928460   0.0000000   2.7928460   2.7928460   0.0000000   2.7928460   2.7928460   0.0000000   2.7928460   2.7928460
 AtZNuc=   1.0000000   8.0000000   1.0000000   1.0000000   8.0000000   1.0000000   1.0000000   8.0000000   1.0000000   1.0000000

  Atom        71          72          73          74          75          76          77          78          79          80
 IAtWgt=          16           1           1          16           1           1          16           1           1          16
 AtmWgt=  15.9949146   1.0078250   1.0078250  15.9949146   1.0078250   1.0078250  15.9949146   1.0078250   1.0078250  15.9949146
 NucSpn=           0           1           1           0           1           1           0           1           1           0
 AtZEff=   0.0000000   0.0000000   0.0000000   0.0000000   0.0000000   0.0000000   0.0000000   0.0000000   0.0000000   0.0000000
 NQMom=    0.0000000   0.0000000   0.0000000   0.0000000   0.0000000   0.0000000   0.0000000   0.0000000   0.0000000   0.0000000
 NMagM=    0.0000000   2.7928460   2.7928460   0.0000000   2.7928460   2.7928460   0.0000000   2.7928460   2.7928460   0.0000000
 AtZNuc=   8.0000000   1.0000000   1.0000000   8.0000000   1.0000000   1.0000000   8.0000000   1.0000000   1.0000000   8.0000000

  Atom        81          82          83          84          85          86          87          88          89          90
 IAtWgt=           1           1          16           1           1          16           1           1          16           1
 AtmWgt=   1.0078250   1.0078250  15.9949146   1.0078250   1.0078250  15.9949146   1.0078250   1.0078250  15.9949146   1.0078250
 NucSpn=           1           1           0           1           1           0           1           1           0           1
 AtZEff=   0.0000000   0.0000000   0.0000000   0.0000000   0.0000000   0.0000000   0.0000000   0.0000000   0.0000000   0.0000000
 NQMom=    0.0000000   0.0000000   0.0000000   0.0000000   0.0000000   0.0000000   0.0000000   0.0000000   0.0000000   0.0000000
 NMagM=    2.7928460   2.7928460   0.0000000   2.7928460   2.7928460   0.0000000   2.7928460   2.7928460   0.0000000   2.7928460
 AtZNuc=   1.0000000   1.0000000   8.0000000   1.0000000   1.0000000   8.0000000   1.0000000   1.0000000   8.0000000   1.0000000

  Atom        91          92          93          94          95          96          97
 IAtWgt=           1          16           1           1          16           1           1
 AtmWgt=   1.0078250  15.9949146   1.0078250   1.0078250  15.9949146   1.0078250   1.0078250
 NucSpn=           1           0           1           1           0           1           1
 AtZEff=   0.0000000   0.0000000   0.0000000   0.0000000   0.0000000   0.0000000   0.0000000
 NQMom=    0.0000000   0.0000000   0.0000000   0.0000000   0.0000000   0.0000000   0.0000000
 NMagM=    2.7928460   0.0000000   2.7928460   2.7928460   0.0000000   2.7928460   2.7928460
 AtZNuc=   1.0000000   8.0000000   1.0000000   1.0000000   8.0000000   1.0000000   1.0000000
 Leave Link  101 at Thu May  3 08:39:54 2018, MaxMem= 14763950080 cpu:        15.0
 (Enter /cm/shared/gaussian/g09.e01/intel64-sandybridge/g09/l103.exe)

 GradGradGradGradGradGradGradGradGradGradGradGradGradGradGradGradGradGrad
 Berny optimization.
 Initialization pass.
 Trust Radius=3.00D-01 FncErr=1.00D-07 GrdErr=1.00D-07
 Number of steps in this run=      2 maximum allowed number of steps=      2.
 GradGradGradGradGradGradGradGradGradGradGradGradGradGradGradGradGradGrad

 Leave Link  103 at Thu May  3 08:39:54 2018, MaxMem= 14763950080 cpu:         2.3
 (Enter /cm/shared/gaussian/g09.e01/intel64-sandybridge/g09/l202.exe)
 Symmetry turned off by external request.
 Stoichiometry    BrH64O32(1-)
 Framework group  C1[X(BrH64O32)]
 Deg. of freedom   285
 Full point group                 C1      NOp   1
                          Input orientation:                          
 ---------------------------------------------------------------------
 Center     Atomic      Atomic             Coordinates (Angstroms)
 Number     Number       Type             X           Y           Z
 ---------------------------------------------------------------------
      1         35           0       20.000000   20.000000   20.000000
      2          8           0       18.710000   22.390000   21.650000
      3          1           0       17.850000   21.970000   21.660000
      4          1           0       19.260000   21.800000   21.140000
      5          8           0       17.050000   21.030000   19.140000
      6          1           0       16.810000   20.920000   18.230000
      7          1           0       17.950000   20.700000   19.200000
      8          8           0       20.070000   17.960000   17.560000
      9          1           0       19.940000   17.060000   17.860000
     10          1           0       19.710000   18.500000   18.260000
     11          8           0       19.570000   17.900000   22.530000
     12          1           0       18.880000   18.530000   22.760000
     13          1           0       20.060000   18.320000   21.830000
     14          8           0       21.500000   20.710000   16.840000
     15          1           0       20.800000   20.670000   16.190000
     16          1           0       21.050000   20.590000   17.680000
     17          8           0       16.790000   19.030000   20.790000
     18          1           0       16.480000   19.700000   20.180000
     19          1           0       17.610000   18.720000   20.410000
     20          8           0       22.480000   22.400000   19.600000
     21          1           0       23.150000   22.180000   20.240000
     22          1           0       22.150000   21.560000   19.290000
     23          8           0       22.450000   17.940000   18.860000
     24          1           0       21.780000   17.880000   18.180000
     25          1           0       21.960000   17.940000   19.680000
     26          8           0       24.340000   19.940000   19.740000
     27          1           0       23.620000   19.440000   19.360000
     28          1           0       24.880000   20.190000   18.990000
     29          8           0       22.540000   18.240000   23.180000
     30          1           0       21.740000   17.870000   22.820000
     31          1           0       22.950000   17.520000   23.660000
     32          8           0       19.020000   24.680000   19.500000
     33          1           0       19.220000   23.990000   20.130000
     34          1           0       18.310000   25.180000   19.900000
     35          8           0       20.180000   22.910000   23.950000
     36          1           0       19.770000   22.720000   23.100000
     37          1           0       19.470000   22.810000   24.590000
     38          8           0       15.920000   22.330000   21.230000
     39          1           0       16.260000   22.110000   20.360000
     40          1           0       15.480000   23.170000   21.110000
     41          8           0       17.660000   21.890000   16.480000
     42          1           0       18.030000   22.710000   16.840000
     43          1           0       18.360000   21.540000   15.940000
     44          8           0       19.690000   15.420000   18.620000
     45          1           0       19.130000   15.480000   19.390000
     46          1           0       20.110000   14.560000   18.700000
     47          8           0       21.920000   24.940000   19.200000
     48          1           0       22.220000   24.040000   19.360000
     49          1           0       21.010000   24.950000   19.500000
     50          8           0       19.870000   19.840000   24.960000
     51          1           0       19.960000   18.970000   24.580000
     52          1           0       20.620000   20.330000   24.630000
     53          8           0       21.460000   17.650000   15.130000
     54          1           0       20.970000   17.890000   15.920000
     55          1           0       21.900000   18.450000   14.860000
     56          8           0       16.150000   18.290000   17.270000
     57          1           0       16.910000   17.750000   17.060000
     58          1           0       16.260000   19.080000   16.730000
     59          8           0       20.240000   15.310000   23.130000
     60          1           0       19.910000   16.210000   23.060000
     61          1           0       20.410000   15.180000   24.060000
     62          8           0       24.190000   20.510000   16.320000
     63          1           0       23.320000   20.860000   16.480000
     64          1           0       24.750000   20.960000   16.950000
     65          8           0       22.660000   20.590000   24.720000
     66          1           0       22.990000   21.240000   24.110000
     67          1           0       22.680000   19.770000   24.230000
     68          8           0       19.670000   20.800000   14.830000
     69          1           0       20.400000   21.010000   14.250000
     70          1           0       19.070000   20.290000   14.290000
     71          8           0       14.560000   20.350000   22.620000
     72          1           0       15.260000   20.760000   22.110000
     73          1           0       14.400000   20.960000   23.340000
     74          8           0       22.480000   15.500000   21.480000
     75          1           0       22.880000   14.710000   21.120000
     76          1           0       21.560000   15.250000   21.610000
     77          8           0       25.110000   16.950000   18.350000
     78          1           0       24.220000   17.260000   18.490000
     79          1           0       25.550000   17.100000   19.180000
     80          8           0       24.000000   22.160000   22.740000
     81          1           0       24.360000   22.790000   22.120000
     82          1           0       24.400000   22.390000   23.580000
     83          8           0       25.950000   18.440000   21.400000
     84          1           0       25.820000   17.720000   22.020000
     85          1           0       25.070000   18.750000   21.200000
     86          8           0       14.700000   17.430000   19.490000
     87          1           0       15.080000   17.890000   20.240000
     88          1           0       15.210000   17.740000   18.740000
     89          8           0       14.890000   17.690000   22.720000
     90          1           0       15.460000   17.950000   22.000000
     91          1           0       14.440000   18.500000   22.960000
     92          8           0       16.520000   23.310000   23.910000
     93          1           0       17.250000   23.320000   23.290000
     94          1           0       15.920000   22.650000   23.570000
     95          8           0       21.730000   25.130000   16.620000
     96          1           0       22.070000   24.360000   16.170000
     97          1           0       21.710000   24.880000   17.550000
 ---------------------------------------------------------------------
 Rotational constants (GHZ):      0.0596244      0.0514313      0.0492304
 Leave Link  202 at Thu May  3 08:39:54 2018, MaxMem= 14763950080 cpu:         0.6
 (Enter /cm/shared/gaussian/g09.e01/intel64-sandybridge/g09/l122.exe)
 Counterpoise: doing full dimer calculation.
 Leave Link  122 at Thu May  3 08:39:54 2018, MaxMem= 14763950080 cpu:         0.1
 (Enter /cm/shared/gaussian/g09.e01/intel64-sandybridge/g09/l301.exe)
 Standard basis: CC-pVDZ (5D, 7F)
 Ernie: Thresh=  0.10000D-02 Tol=  0.10000D-05 Strict=F.
 Ernie:  87 primitive shells out of 1114 were deleted.
   795 basis functions,  1651 primitive gaussians,   829 cartesian basis functions
   178 alpha electrons      178 beta electrons
       nuclear repulsion energy      6049.6717658462 Hartrees.
 IExCor= 1009 DFT=T Ex+Corr=PBE1PBE ExCW=0 ScaHFX=  0.250000
 ScaDFX=  0.750000  0.750000  1.000000  1.000000 ScalE2=  1.000000  1.000000
 IRadAn=      0 IRanWt=     -1 IRanGd=            0 ICorTp=0 IEmpDi=  4
 NAtoms=   97 NActive=   97 NUniq=   97 SFac= 1.00D+00 NAtFMM=   60 NAOKFM=T Big=T
 Integral buffers will be    131072 words long.
 Raffenetti 2 integral format.
 Two-electron integral symmetry is turned off.
 Leave Link  301 at Thu May  3 08:39:54 2018, MaxMem= 14763950080 cpu:         6.4
 (Enter /cm/shared/gaussian/g09.e01/intel64-sandybridge/g09/l302.exe)
 NPDir=0 NMtPBC=     1 NCelOv=     1 NCel=       1 NClECP=     1 NCelD=      1
         NCelK=      1 NCelE2=     1 NClLst=     1 CellRange=     0.0.
 One-electron integrals computed using PRISM.
 NBasis=   795 RedAO= T EigKep=  1.76D-02  NBF=   795
 NBsUse=   795 1.00D-06 EigRej= -1.00D+00 NBFU=   795
 Precomputing XC quadrature grid using
 IXCGrd= 4 IRadAn=           0 IRanWt=          -1 IRanGd=           0 AccXCQ= 0.00D+00.
 Generated NRdTot=       0 NPtTot=           0 NUsed=           0 NTot=          32
 NSgBfM=   702   710   716   730   733 MxSgAt=    97 MxSgA2=    97.
 Leave Link  302 at Thu May  3 08:40:01 2018, MaxMem= 14763950080 cpu:       422.6
 (Enter /cm/shared/gaussian/g09.e01/intel64-sandybridge/g09/l303.exe)
 DipDrv:  MaxL=1.
 Leave Link  303 at Thu May  3 08:40:01 2018, MaxMem= 14763950080 cpu:        44.0
 (Enter /cm/shared/gaussian/g09.e01/intel64-sandybridge/g09/l401.exe)
 ExpMin= 1.22D-01 ExpMax= 6.40D+05 ExpMxC= 6.18D+03 IAcc=2 IRadAn=         4 AccDes= 0.00D+00
 Harris functional with IExCor= 1009 and IRadAn=       4 diagonalized for initial guess.
 HarFok:  IExCor= 1009 AccDes= 0.00D+00 IRadAn=         4 IDoV= 1 UseB2=F ITyADJ=14
 ICtDFT=  3500011 ScaDFX=  1.000000  1.000000  1.000000  1.000000
 FoFCou: FMM=F IPFlag=           0 FMFlag=      100000 FMFlg1=        2001
         NFxFlg=           0 DoJE=T BraDBF=F KetDBF=T FulRan=T
         wScrn=  0.000000 ICntrl=     500 IOpCl=  0 I1Cent=   200000004 NGrid=           0
         NMat0=    1 NMatS0=      1 NMatT0=    0 NMatD0=    1 NMtDS0=    0 NMtDT0=    0
 Symmetry not used in FoFCou.
 Harris En= -5018.43011645093    
 JPrj=0 DoOrth=F DoCkMO=F.
 Leave Link  401 at Thu May  3 08:40:07 2018, MaxMem= 14763950080 cpu:       319.6
 (Enter /cm/shared/gaussian/g09.e01/intel64-sandybridge/g09/l502.exe)
 Closed shell SCF:
 Using DIIS extrapolation, IDIIS=  1040.
 Two-electron integral symmetry not used.
 IVT=     2138497 IEndB=     2138497 NGot= 14763950080 MDV= 14762516294
 LenX= 14762516294 LenY= 14761828224
 Requested convergence on RMS density matrix=1.00D-08 within 128 cycles.
 Requested convergence on MAX density matrix=1.00D-06.
 Requested convergence on             energy=1.00D-06.
 No special actions if energy rises.
 Fock matrices will be formed incrementally for  20 cycles.
 Integral accuracy reduced to 1.0D-05 until final iterations.

 Cycle   1  Pass 0  IDiag  1:
 FoFJK:  IHMeth= 1 ICntrl=       0 DoSepK=F KAlg= 0 I1Cent=   0 FoldK=F
 IRaf= 810000000 NMat=   1 IRICut=       1 DoRegI=T DoRafI=F ISym2E= 0.
 FoFCou: FMM=T IPFlag=           0 FMFlag=      100000 FMFlg1=        2001
         NFxFlg=           0 DoJE=F BraDBF=F KetDBF=F FulRan=T
         wScrn=  0.000000 ICntrl=       0 IOpCl=  0 I1Cent=           0 NGrid=           0
         NMat0=    1 NMatS0=      1 NMatT0=    0 NMatD0=    1 NMtDS0=    0 NMtDT0=    0
 Symmetry not used in FoFCou.
 FMM levels:  10  Number of levels for PrismC:   9
 E= -5015.29679436669    
 DIIS: error= 3.80D-02 at cycle   1 NSaved=   1.
 NSaved= 1 IEnMin= 1 EnMin= -5015.29679436669     IErMin= 1 ErrMin= 3.80D-02
 ErrMax= 3.80D-02  0.00D+00 EMaxC= 1.00D-01 BMatC= 2.72D+00 BMatP= 2.72D+00
 IDIUse=3 WtCom= 6.20D-01 WtEn= 3.80D-01
 Coeff-Com:  0.100D+01
 Coeff-En:   0.100D+01
 Coeff:      0.100D+01
 Gap=     0.314 Goal=   None    Shift=    0.000
 GapD=    0.314 DampG=1.000 DampE=0.500 DampFc=0.5000 IDamp=-1.
 Damping current iteration by 5.00D-01
 RMSDP=2.84D-03 MaxDP=1.60D-01              OVMax= 1.75D-01

 Cycle   2  Pass 0  IDiag  1:
 RMSU=  1.41D-03    CP:  9.85D-01
 E= -5016.09620868186     Delta-E=       -0.799414315174 Rises=F Damp=T
 DIIS: error= 8.94D-03 at cycle   2 NSaved=   2.
 NSaved= 2 IEnMin= 2 EnMin= -5016.09620868186     IErMin= 2 ErrMin= 8.94D-03
 ErrMax= 8.94D-03  0.00D+00 EMaxC= 1.00D-01 BMatC= 8.30D-02 BMatP= 2.72D+00
 IDIUse=3 WtCom= 9.11D-01 WtEn= 8.94D-02
 Coeff-Com:  0.116D+00 0.884D+00
 Coeff-En:   0.208D+00 0.792D+00
 Coeff:      0.124D+00 0.876D+00
 Gap=     0.213 Goal=   None    Shift=    0.000
 RMSDP=3.44D-04 MaxDP=1.76D-02 DE=-7.99D-01 OVMax= 9.43D-02

 Cycle   3  Pass 0  IDiag  1:
 RMSU=  2.75D-04    CP:  9.87D-01  8.54D-01
 E= -5017.23749257413     Delta-E=       -1.141283892266 Rises=F Damp=F
 DIIS: error= 7.32D-04 at cycle   3 NSaved=   3.
 NSaved= 3 IEnMin= 3 EnMin= -5017.23749257413     IErMin= 3 ErrMin= 7.32D-04
 ErrMax= 7.32D-04  0.00D+00 EMaxC= 1.00D-01 BMatC= 1.31D-03 BMatP= 8.30D-02
 IDIUse=3 WtCom= 9.93D-01 WtEn= 7.32D-03
 Coeff-Com:  0.855D-02 0.507D-01 0.941D+00
 Coeff-En:   0.000D+00 0.000D+00 0.100D+01
 Coeff:      0.849D-02 0.503D-01 0.941D+00
 Gap=     0.229 Goal=   None    Shift=    0.000
 RMSDP=8.49D-05 MaxDP=1.41D-02 DE=-1.14D+00 OVMax= 1.54D-02

 Cycle   4  Pass 0  IDiag  1:
 RMSU=  7.60D-05    CP:  9.87D-01  8.54D-01  8.63D-01
 E= -5017.23795537763     Delta-E=       -0.000462803502 Rises=F Damp=F
 DIIS: error= 8.38D-04 at cycle   4 NSaved=   4.
 NSaved= 4 IEnMin= 4 EnMin= -5017.23795537763     IErMin= 3 ErrMin= 7.32D-04
 ErrMax= 8.38D-04  0.00D+00 EMaxC= 1.00D-01 BMatC= 1.13D-03 BMatP= 1.31D-03
 IDIUse=3 WtCom= 9.92D-01 WtEn= 8.38D-03
 Coeff-Com:  0.260D-02 0.493D-02 0.480D+00 0.513D+00
 Coeff-En:   0.000D+00 0.000D+00 0.390D+00 0.610D+00
 Coeff:      0.258D-02 0.489D-02 0.479D+00 0.514D+00
 Gap=     0.225 Goal=   None    Shift=    0.000
 RMSDP=3.60D-05 MaxDP=5.76D-03 DE=-4.63D-04 OVMax= 6.16D-03

 Cycle   5  Pass 0  IDiag  1:
 RMSU=  1.45D-05    CP:  9.87D-01  8.52D-01  9.16D-01  6.13D-01
 E= -5017.23888783052     Delta-E=       -0.000932452887 Rises=F Damp=F
 DIIS: error= 1.14D-04 at cycle   5 NSaved=   5.
 NSaved= 5 IEnMin= 5 EnMin= -5017.23888783052     IErMin= 5 ErrMin= 1.14D-04
 ErrMax= 1.14D-04  0.00D+00 EMaxC= 1.00D-01 BMatC= 2.73D-05 BMatP= 1.13D-03
 IDIUse=3 WtCom= 9.99D-01 WtEn= 1.14D-03
 Coeff-Com:  0.800D-03-0.214D-02 0.128D+00 0.180D+00 0.693D+00
 Coeff-En:   0.000D+00 0.000D+00 0.000D+00 0.000D+00 0.100D+01
 Coeff:      0.800D-03-0.214D-02 0.128D+00 0.180D+00 0.693D+00
 Gap=     0.226 Goal=   None    Shift=    0.000
 RMSDP=6.85D-06 MaxDP=8.70D-04 DE=-9.32D-04 OVMax= 1.05D-03

 Initial convergence to 1.0D-05 achieved.  Increase integral accuracy.
 Cycle   6  Pass 1  IDiag  1:
 E= -5017.23917966378     Delta-E=       -0.000291833258 Rises=F Damp=F
 DIIS: error= 7.80D-05 at cycle   1 NSaved=   1.
 NSaved= 1 IEnMin= 1 EnMin= -5017.23917966378     IErMin= 1 ErrMin= 7.80D-05
 ErrMax= 7.80D-05  0.00D+00 EMaxC= 1.00D-01 BMatC= 5.56D-06 BMatP= 5.56D-06
 IDIUse=1 WtCom= 1.00D+00 WtEn= 0.00D+00
 Coeff-Com:  0.100D+01
 Coeff:      0.100D+01
 Gap=     0.226 Goal=   None    Shift=    0.000
 RMSDP=6.85D-06 MaxDP=8.70D-04 DE=-2.92D-04 OVMax= 7.91D-04

 Cycle   7  Pass 1  IDiag  1:
 RMSU=  6.30D-06    CP:  1.00D+00
 E= -5017.23918020467     Delta-E=       -0.000000540898 Rises=F Damp=F
 DIIS: error= 6.37D-05 at cycle   2 NSaved=   2.
 NSaved= 2 IEnMin= 2 EnMin= -5017.23918020467     IErMin= 2 ErrMin= 6.37D-05
 ErrMax= 6.37D-05  0.00D+00 EMaxC= 1.00D-01 BMatC= 5.74D-06 BMatP= 5.56D-06
 IDIUse=1 WtCom= 1.00D+00 WtEn= 0.00D+00
 Coeff-Com:  0.504D+00 0.496D+00
 Coeff:      0.504D+00 0.496D+00
 Gap=     0.226 Goal=   None    Shift=    0.000
 RMSDP=2.44D-06 MaxDP=3.50D-04 DE=-5.41D-07 OVMax= 3.51D-04

 Cycle   8  Pass 1  IDiag  1:
 RMSU=  1.75D-06    CP:  1.00D+00  7.30D-01
 E= -5017.23918457647     Delta-E=       -0.000004371796 Rises=F Damp=F
 DIIS: error= 9.09D-06 at cycle   3 NSaved=   3.
 NSaved= 3 IEnMin= 3 EnMin= -5017.23918457647     IErMin= 3 ErrMin= 9.09D-06
 ErrMax= 9.09D-06  0.00D+00 EMaxC= 1.00D-01 BMatC= 1.51D-07 BMatP= 5.56D-06
 IDIUse=1 WtCom= 1.00D+00 WtEn= 0.00D+00
 Coeff-Com:  0.102D+00 0.175D+00 0.723D+00
 Coeff:      0.102D+00 0.175D+00 0.723D+00
 Gap=     0.226 Goal=   None    Shift=    0.000
 RMSDP=4.80D-07 MaxDP=7.26D-05 DE=-4.37D-06 OVMax= 8.17D-05

 Cycle   9  Pass 1  IDiag  1:
 RMSU=  4.75D-07    CP:  1.00D+00  7.32D-01  9.59D-01
 E= -5017.23918466770     Delta-E=       -0.000000091233 Rises=F Damp=F
 DIIS: error= 6.36D-06 at cycle   4 NSaved=   4.
 NSaved= 4 IEnMin= 4 EnMin= -5017.23918466770     IErMin= 4 ErrMin= 6.36D-06
 ErrMax= 6.36D-06  0.00D+00 EMaxC= 1.00D-01 BMatC= 2.11D-08 BMatP= 1.51D-07
 IDIUse=1 WtCom= 1.00D+00 WtEn= 0.00D+00
 Coeff-Com: -0.546D-02 0.297D-01 0.331D+00 0.645D+00
 Coeff:     -0.546D-02 0.297D-01 0.331D+00 0.645D+00
 Gap=     0.226 Goal=   None    Shift=    0.000
 RMSDP=1.96D-07 MaxDP=4.01D-05 DE=-9.12D-08 OVMax= 4.03D-05

 Cycle  10  Pass 1  IDiag  1:
 RMSU=  4.72D-08    CP:  1.00D+00  7.47D-01  9.57D-01  6.48D-01
 E= -5017.23918468738     Delta-E=       -0.000000019681 Rises=F Damp=F
 DIIS: error= 2.94D-07 at cycle   5 NSaved=   5.
 NSaved= 5 IEnMin= 5 EnMin= -5017.23918468738     IErMin= 5 ErrMin= 2.94D-07
 ErrMax= 2.94D-07  0.00D+00 EMaxC= 1.00D-01 BMatC= 2.26D-10 BMatP= 2.11D-08
 IDIUse=1 WtCom= 1.00D+00 WtEn= 0.00D+00
 Coeff-Com: -0.311D-02 0.107D-01 0.131D+00 0.272D+00 0.590D+00
 Coeff:     -0.311D-02 0.107D-01 0.131D+00 0.272D+00 0.590D+00
 Gap=     0.226 Goal=   None    Shift=    0.000
 RMSDP=1.58D-08 MaxDP=1.59D-06 DE=-1.97D-08 OVMax= 1.65D-06

 Cycle  11  Pass 1  IDiag  1:
 RMSU=  1.46D-08    CP:  1.00D+00  7.47D-01  9.58D-01  6.56D-01  9.05D-01
 E= -5017.23918468760     Delta-E=       -0.000000000216 Rises=F Damp=F
 DIIS: error= 9.89D-08 at cycle   6 NSaved=   6.
 NSaved= 6 IEnMin= 6 EnMin= -5017.23918468760     IErMin= 6 ErrMin= 9.89D-08
 ErrMax= 9.89D-08  0.00D+00 EMaxC= 1.00D-01 BMatC= 2.55D-11 BMatP= 2.26D-10
 IDIUse=1 WtCom= 1.00D+00 WtEn= 0.00D+00
 Coeff-Com: -0.580D-03 0.503D-03 0.111D-01 0.310D-01 0.260D+00 0.698D+00
 Coeff:     -0.580D-03 0.503D-03 0.111D-01 0.310D-01 0.260D+00 0.698D+00
 Gap=     0.226 Goal=   None    Shift=    0.000
 RMSDP=5.58D-09 MaxDP=5.34D-07 DE=-2.16D-10 OVMax= 9.30D-07

 SCF Done:  E(RPBE1PBE) =  -5017.23918469     A.U. after   11 cycles
            NFock= 11  Conv=0.56D-08     -V/T= 2.0028
 KE= 5.003458006873D+03 PE=-2.406436119439D+04 EE= 7.993992236984D+03
 Leave Link  502 at Thu May  3 08:42:21 2018, MaxMem= 14763950080 cpu:      8493.2
 (Enter /cm/shared/gaussian/g09.e01/intel64-sandybridge/g09/l601.exe)
 Copying SCF densities to generalized density rwf, IOpCl= 0 IROHF=0.

 **********************************************************************

            Population analysis using the SCF density.

 **********************************************************************

 Alpha  occ. eigenvalues -- -483.16910 -62.57206 -56.34447 -56.34441 -56.34428
 Alpha  occ. eigenvalues --  -19.22186 -19.18654 -19.17919 -19.17162 -19.17107
 Alpha  occ. eigenvalues --  -19.16890 -19.15534 -19.15421 -19.14761 -19.14492
 Alpha  occ. eigenvalues --  -19.14388 -19.14253 -19.13778 -19.13578 -19.13533
 Alpha  occ. eigenvalues --  -19.13401 -19.12938 -19.12924 -19.12705 -19.12469
 Alpha  occ. eigenvalues --  -19.12127 -19.10053 -19.09936 -19.09793 -19.08954
 Alpha  occ. eigenvalues --  -19.08097 -19.07800 -19.07747 -19.06868 -19.06605
 Alpha  occ. eigenvalues --  -19.06348 -19.05747  -8.67521  -6.47856  -6.47842
 Alpha  occ. eigenvalues --   -6.47789  -2.56143  -2.56137  -2.56099  -2.56087
 Alpha  occ. eigenvalues --   -2.56072  -1.04833  -1.01101  -1.00836  -1.00183
 Alpha  occ. eigenvalues --   -0.99589  -0.99428  -0.98743  -0.97714  -0.97239
 Alpha  occ. eigenvalues --   -0.97225  -0.97117  -0.96682  -0.96491  -0.96463
 Alpha  occ. eigenvalues --   -0.96194  -0.96066  -0.95589  -0.95581  -0.95031
 Alpha  occ. eigenvalues --   -0.94958  -0.94463  -0.92733  -0.92634  -0.92350
 Alpha  occ. eigenvalues --   -0.92252  -0.91318  -0.90349  -0.90078  -0.89803
 Alpha  occ. eigenvalues --   -0.89589  -0.89109  -0.88557  -0.66992  -0.55444
 Alpha  occ. eigenvalues --   -0.51408  -0.51352  -0.50720  -0.50304  -0.50176
 Alpha  occ. eigenvalues --   -0.49373  -0.49061  -0.48532  -0.48070  -0.47885
 Alpha  occ. eigenvalues --   -0.47531  -0.47384  -0.47326  -0.47153  -0.46668
 Alpha  occ. eigenvalues --   -0.46277  -0.46248  -0.45706  -0.45682  -0.45020
 Alpha  occ. eigenvalues --   -0.44286  -0.43894  -0.43599  -0.43273  -0.42652
 Alpha  occ. eigenvalues --   -0.42197  -0.41621  -0.41094  -0.40970  -0.40837
 Alpha  occ. eigenvalues --   -0.40415  -0.40366  -0.38699  -0.38474  -0.37137
 Alpha  occ. eigenvalues --   -0.36704  -0.35620  -0.34902  -0.34757  -0.34458
 Alpha  occ. eigenvalues --   -0.34296  -0.34128  -0.33922  -0.33797  -0.33297
 Alpha  occ. eigenvalues --   -0.32886  -0.32629  -0.32351  -0.32122  -0.31877
 Alpha  occ. eigenvalues --   -0.30898  -0.30826  -0.30771  -0.29197  -0.28803
 Alpha  occ. eigenvalues --   -0.28638  -0.28492  -0.28406  -0.28372  -0.27952
 Alpha  occ. eigenvalues --   -0.27670  -0.27495  -0.27479  -0.27015  -0.26812
 Alpha  occ. eigenvalues --   -0.26734  -0.26280  -0.25951  -0.25856  -0.25533
 Alpha  occ. eigenvalues --   -0.25311  -0.25239  -0.25098  -0.24885  -0.24770
 Alpha  occ. eigenvalues --   -0.24723  -0.24556  -0.24197  -0.24085  -0.23594
 Alpha  occ. eigenvalues --   -0.23237  -0.22971  -0.22904  -0.22711  -0.21849
 Alpha  occ. eigenvalues --   -0.21399  -0.21142  -0.20820  -0.20781  -0.20708
 Alpha  occ. eigenvalues --   -0.19934  -0.19768  -0.19325  -0.18274  -0.18112
 Alpha  occ. eigenvalues --   -0.17885  -0.17659  -0.17298
 Alpha virt. eigenvalues --    0.05298   0.07225   0.08648   0.09232   0.10502
 Alpha virt. eigenvalues --    0.11079   0.12301   0.12642   0.13111   0.14457
 Alpha virt. eigenvalues --    0.14903   0.15101   0.15403   0.16027   0.16522
 Alpha virt. eigenvalues --    0.16617   0.17074   0.17560   0.18036   0.18322
 Alpha virt. eigenvalues --    0.19031   0.19196   0.19703   0.20124   0.20993
 Alpha virt. eigenvalues --    0.21283   0.21853   0.22268   0.22980   0.23298
 Alpha virt. eigenvalues --    0.24876   0.25238   0.25611   0.26012   0.26145
 Alpha virt. eigenvalues --    0.26576   0.26838   0.27256   0.27704   0.27920
 Alpha virt. eigenvalues --    0.28272   0.28498   0.29227   0.29498   0.29630
 Alpha virt. eigenvalues --    0.30476   0.31125   0.31438   0.31500   0.32054
 Alpha virt. eigenvalues --    0.32540   0.33061   0.33275   0.33924   0.34456
 Alpha virt. eigenvalues --    0.35903   0.36212   0.36328   0.36992   0.37361
 Alpha virt. eigenvalues --    0.37865   0.38340   0.40105   0.40490   0.55545
 Alpha virt. eigenvalues --    0.57235   0.58958   0.59255   0.60048   0.60473
 Alpha virt. eigenvalues --    0.60907   0.61306   0.61531   0.62518   0.63030
 Alpha virt. eigenvalues --    0.63059   0.63141   0.63529   0.63710   0.63956
 Alpha virt. eigenvalues --    0.64367   0.64481   0.64919   0.65050   0.65383
 Alpha virt. eigenvalues --    0.65753   0.65994   0.66404   0.66778   0.67005
 Alpha virt. eigenvalues --    0.67465   0.67719   0.68025   0.68221   0.68443
 Alpha virt. eigenvalues --    0.68872   0.68996   0.69140   0.69630   0.69925
 Alpha virt. eigenvalues --    0.70140   0.70825   0.70878   0.71171   0.71747
 Alpha virt. eigenvalues --    0.72101   0.72534   0.72657   0.73081   0.73251
 Alpha virt. eigenvalues --    0.73310   0.73881   0.73994   0.74671   0.74819
 Alpha virt. eigenvalues --    0.75084   0.75338   0.75631   0.76212   0.76594
 Alpha virt. eigenvalues --    0.76882   0.77538   0.77738   0.78187   0.78439
 Alpha virt. eigenvalues --    0.78830   0.79141   0.79800   0.80626   0.81104
 Alpha virt. eigenvalues --    0.81892   0.82070   0.82461   0.84243   0.85269
 Alpha virt. eigenvalues --    0.88625   0.90223   0.93015   0.93672   0.94263
 Alpha virt. eigenvalues --    0.95061   0.95328   0.95645   0.95952   0.96899
 Alpha virt. eigenvalues --    0.97121   0.97340   0.97942   0.98185   0.98553
 Alpha virt. eigenvalues --    0.98969   0.99460   0.99938   1.00001   1.00403
 Alpha virt. eigenvalues --    1.00644   1.01060   1.01475   1.01592   1.01665
 Alpha virt. eigenvalues --    1.02027   1.02634   1.02783   1.03176   1.03497
 Alpha virt. eigenvalues --    1.04049   1.04118   1.04231   1.04391   1.04495
 Alpha virt. eigenvalues --    1.05029   1.05187   1.05344   1.05742   1.06028
 Alpha virt. eigenvalues --    1.06281   1.06488   1.06691   1.06857   1.07306
 Alpha virt. eigenvalues --    1.07587   1.07770   1.08234   1.08370   1.08616
 Alpha virt. eigenvalues --    1.09341   1.09798   1.09893   1.10359   1.10637
 Alpha virt. eigenvalues --    1.10936   1.11173   1.11849   1.12081   1.12275
 Alpha virt. eigenvalues --    1.12810   1.12843   1.12981   1.13498   1.13765
 Alpha virt. eigenvalues --    1.13908   1.14077   1.14229   1.14900   1.15109
 Alpha virt. eigenvalues --    1.15760   1.16370   1.16656   1.16880   1.17054
 Alpha virt. eigenvalues --    1.17806   1.18082   1.18455   1.18739   1.19548
 Alpha virt. eigenvalues --    1.20111   1.20281   1.20584   1.21371   1.21566
 Alpha virt. eigenvalues --    1.22571   1.22814   1.23159   1.23783   1.24716
 Alpha virt. eigenvalues --    1.24890   1.25079   1.25433   1.25868   1.26114
 Alpha virt. eigenvalues --    1.26338   1.27003   1.27096   1.27502   1.27614
 Alpha virt. eigenvalues --    1.28216   1.28392   1.28646   1.28851   1.29435
 Alpha virt. eigenvalues --    1.30128   1.30287   1.30420   1.30647   1.30863
 Alpha virt. eigenvalues --    1.30945   1.31121   1.31537   1.32079   1.32237
 Alpha virt. eigenvalues --    1.32439   1.32606   1.32965   1.33131   1.33499
 Alpha virt. eigenvalues --    1.33616   1.33924   1.34376   1.34879   1.35306
 Alpha virt. eigenvalues --    1.35312   1.36035   1.36470   1.36773   1.36954
 Alpha virt. eigenvalues --    1.37349   1.37943   1.38052   1.38313   1.38549
 Alpha virt. eigenvalues --    1.38773   1.38909   1.39404   1.39785   1.39953
 Alpha virt. eigenvalues --    1.40264   1.40611   1.40783   1.41172   1.41868
 Alpha virt. eigenvalues --    1.41941   1.42059   1.42791   1.43059   1.43440
 Alpha virt. eigenvalues --    1.43569   1.44156   1.44700   1.44998   1.45968
 Alpha virt. eigenvalues --    1.46883   1.47306   1.47953   1.48339   1.48835
 Alpha virt. eigenvalues --    1.49336   1.50009   1.50806   1.51002   1.51331
 Alpha virt. eigenvalues --    1.51643   1.52006   1.52598   1.52959   1.53114
 Alpha virt. eigenvalues --    1.53571   1.53611   1.54137   1.54397   1.55124
 Alpha virt. eigenvalues --    1.55310   1.55634   1.56557   1.57250   1.57731
 Alpha virt. eigenvalues --    1.58057   1.58877   1.59775   1.59853   1.59940
 Alpha virt. eigenvalues --    1.60488   1.61231   1.61971   1.62873   1.63503
 Alpha virt. eigenvalues --    1.63808   1.64634   1.65148   1.65672   1.65931
 Alpha virt. eigenvalues --    1.67016   1.68061   1.68287   1.68622   1.69880
 Alpha virt. eigenvalues --    1.70153   1.71562   1.71998   1.72608   1.73455
 Alpha virt. eigenvalues --    1.73763   1.73941   1.74886   1.75016   1.75156
 Alpha virt. eigenvalues --    1.75305   1.75845   1.76222   1.76890   1.77463
 Alpha virt. eigenvalues --    1.77620   1.77797   1.78677   1.78788   1.79127
 Alpha virt. eigenvalues --    1.79643   1.79786   1.80257   1.80600   1.81377
 Alpha virt. eigenvalues --    1.82177   1.82481   1.83023   1.83431   1.84108
 Alpha virt. eigenvalues --    1.84425   1.84590   1.85647   1.86729   1.87388
 Alpha virt. eigenvalues --    1.87569   1.88548   1.88938   1.89141   1.89570
 Alpha virt. eigenvalues --    1.90036   1.90594   1.90905   1.91804   1.92654
 Alpha virt. eigenvalues --    1.93054   1.93604   1.94105   1.94316   1.94740
 Alpha virt. eigenvalues --    1.95304   1.96076   1.97987   1.98865   2.00194
 Alpha virt. eigenvalues --    2.00315   2.01587   2.05373   2.15878   2.16254
 Alpha virt. eigenvalues --    2.17275   2.18450   2.19417   2.20037   2.21160
 Alpha virt. eigenvalues --    2.21382   2.21703   2.21752   2.21882   2.21973
 Alpha virt. eigenvalues --    2.22385   2.22553   2.22622   2.22928   2.23109
 Alpha virt. eigenvalues --    2.23166   2.23355   2.24442   2.24763   2.24972
 Alpha virt. eigenvalues --    2.25443   2.25881   2.26035   2.26526   2.26739
 Alpha virt. eigenvalues --    2.27444   2.27566   2.27944   2.28379   2.28982
 Alpha virt. eigenvalues --    2.29322   2.29643   2.29965   2.30185   2.30570
 Alpha virt. eigenvalues --    2.30778   2.31498   2.32743   2.34338   2.35051
 Alpha virt. eigenvalues --    2.39067   2.40219   2.40418   2.41053   2.41481
 Alpha virt. eigenvalues --    2.43537   2.44457   2.44700   2.46755   2.47407
 Alpha virt. eigenvalues --    2.48764   2.51390   2.51410   2.51759   2.51862
 Alpha virt. eigenvalues --    2.55050   2.55175   2.55312   2.57199   2.62900
 Alpha virt. eigenvalues --    2.65086   2.79708   2.93594   2.95532   2.95844
 Alpha virt. eigenvalues --    2.95904   2.96182   2.96426   2.97936   2.98518
 Alpha virt. eigenvalues --    2.98724   2.99042   2.99171   2.99241   2.99433
 Alpha virt. eigenvalues --    2.99624   2.99658   2.99688   2.99844   3.00152
 Alpha virt. eigenvalues --    3.00601   3.00849   3.00946   3.01101   3.01526
 Alpha virt. eigenvalues --    3.01608   3.01656   3.01878   3.02052   3.02401
 Alpha virt. eigenvalues --    3.02872   3.02952   3.03517   3.03690   3.04224
 Alpha virt. eigenvalues --    3.04332   3.04419   3.04848   3.05234   3.05316
 Alpha virt. eigenvalues --    3.05447   3.05488   3.05587   3.05836   3.05984
 Alpha virt. eigenvalues --    3.06241   3.06650   3.06718   3.06891   3.07006
 Alpha virt. eigenvalues --    3.07217   3.07706   3.07845   3.08131   3.08884
 Alpha virt. eigenvalues --    3.08909   3.09199   3.09641   3.10106   3.10271
 Alpha virt. eigenvalues --    3.10638   3.10796   3.11857   3.13409   3.13721
 Alpha virt. eigenvalues --    3.15139   3.15359   3.16960   3.17549   3.19397
 Alpha virt. eigenvalues --    3.19876   3.20692   3.20732   3.21364   3.21807
 Alpha virt. eigenvalues --    3.22198   3.22229   3.22334   3.22769   3.23286
 Alpha virt. eigenvalues --    3.24140   3.24318   3.24514   3.24850   3.25657
 Alpha virt. eigenvalues --    3.26115   3.26584   3.26750   3.27132   3.27670
 Alpha virt. eigenvalues --    3.27854   3.28134   3.28996   3.29654   3.29778
 Alpha virt. eigenvalues --    3.30785   3.32179   3.33398   3.50569   3.53093
 Alpha virt. eigenvalues --    3.54543   3.56161   3.56526   3.56698   3.56865
 Alpha virt. eigenvalues --    3.57172   3.57906   3.58678   3.59287   3.59503
 Alpha virt. eigenvalues --    3.60080   3.60954   3.61380   3.61505   3.61972
 Alpha virt. eigenvalues --    3.62444   3.62984   3.63526   3.63840   3.64292
 Alpha virt. eigenvalues --    3.64435   3.64727   3.65671   3.66221   3.66635
 Alpha virt. eigenvalues --    3.67266   3.68374   3.69674   3.69988   3.70350
 Alpha virt. eigenvalues --    3.80338   3.81440   3.82662   3.82969   3.84021
 Alpha virt. eigenvalues --    3.84934   3.85801   3.86342   3.86585   3.86960
 Alpha virt. eigenvalues --    3.87704   3.88130   3.88820   3.89137   3.89572
 Alpha virt. eigenvalues --    3.89742   3.90158   3.90604   3.90678   3.91221
 Alpha virt. eigenvalues --    3.91840   3.92365   3.93335   3.93757   3.94149
 Alpha virt. eigenvalues --    3.94329   3.94731   3.95468   3.95911   3.96613
 Alpha virt. eigenvalues --    3.97509   3.99323
          Condensed to atoms (all electrons):
 Mulliken charges:
               1
     1  Br  -0.693004
     2  O   -0.277043
     3  H    0.126086
     4  H    0.177506
     5  O   -0.251346
     6  H    0.140636
     7  H    0.135236
     8  O   -0.263565
     9  H    0.143401
    10  H    0.119970
    11  O   -0.261252
    12  H    0.166349
    13  H    0.157310
    14  O   -0.279715
    15  H    0.120952
    16  H    0.137569
    17  O   -0.275166
    18  H    0.130101
    19  H    0.117452
    20  O   -0.253149
    21  H    0.140688
    22  H    0.142057
    23  O   -0.251146
    24  H    0.131151
    25  H    0.132446
    26  O   -0.268099
    27  H    0.128946
    28  H    0.129544
    29  O   -0.237390
    30  H    0.118987
    31  H    0.144439
    32  O   -0.257909
    33  H    0.129109
    34  H    0.137422
    35  O   -0.301900
    36  H    0.133797
    37  H    0.132917
    38  O   -0.269222
    39  H    0.150387
    40  H    0.143049
    41  O   -0.301213
    42  H    0.161060
    43  H    0.126816
    44  O   -0.234592
    45  H    0.153737
    46  H    0.153350
    47  O   -0.291185
    48  H    0.141904
    49  H    0.124098
    50  O   -0.304196
    51  H    0.100306
    52  H    0.119892
    53  O   -0.307617
    54  H    0.136953
    55  H    0.121167
    56  O   -0.227901
    57  H    0.141856
    58  H    0.140373
    59  O   -0.288061
    60  H    0.147146
    61  H    0.135095
    62  O   -0.287763
    63  H    0.124735
    64  H    0.118040
    65  O   -0.295503
    66  H    0.123835
    67  H    0.119711
    68  O   -0.210513
    69  H    0.165226
    70  H    0.158270
    71  O   -0.271245
    72  H    0.140272
    73  H    0.131275
    74  O   -0.281794
    75  H    0.128713
    76  H    0.118204
    77  O   -0.312021
    78  H    0.129275
    79  H    0.102445
    80  O   -0.227109
    81  H    0.134633
    82  H    0.137594
    83  O   -0.281315
    84  H    0.121876
    85  H    0.135499
    86  O   -0.324035
    87  H    0.103387
    88  H    0.114185
    89  O   -0.310265
    90  H    0.133553
    91  H    0.130230
    92  O   -0.282166
    93  H    0.133373
    94  H    0.114610
    95  O   -0.332172
    96  H    0.099145
    97  H    0.121226
 Sum of Mulliken charges =  -1.00000
 Mulliken charges with hydrogens summed into heavy atoms:
               1
     1  Br  -0.693004
     2  O    0.026549
     5  O    0.024526
     8  O   -0.000193
    11  O    0.062406
    14  O   -0.021195
    17  O   -0.027612
    20  O    0.029595
    23  O    0.012451
    26  O   -0.009609
    29  O    0.026036
    32  O    0.008622
    35  O   -0.035185
    38  O    0.024214
    41  O   -0.013337
    44  O    0.072495
    47  O   -0.025184
    50  O   -0.083998
    53  O   -0.049497
    56  O    0.054328
    59  O   -0.005820
    62  O   -0.044988
    65  O   -0.051956
    68  O    0.112983
    71  O    0.000301
    74  O   -0.034876
    77  O   -0.080300
    80  O    0.045118
    83  O   -0.023940
    86  O   -0.106463
    89  O   -0.046483
    92  O   -0.034183
    95  O   -0.111801
         Mulliken charges condensed to fragments:
      1     -0.693004
      2     -0.306996
 Electronic spatial extent (au):  <R**2>=        1565993.9768
 Charge=             -1.0000 electrons
 Dipole moment (field-independent basis, Debye):
    X=            -99.4170    Y=            -98.1095    Z=           -101.6703  Tot=            172.7602
 Quadrupole moment (field-independent basis, Debye-Ang):
   XX=          -2386.6257   YY=          -2282.8343   ZZ=          -2422.7519
   XY=          -2062.9235   XZ=          -2049.2323   YZ=          -2084.0771
 Traceless Quadrupole moment (field-independent basis, Debye-Ang):
   XX=            -22.5550   YY=             81.2363   ZZ=            -58.6813
   XY=          -2062.9235   XZ=          -2049.2323   YZ=          -2084.0771
 Octapole moment (field-independent basis, Debye-Ang**2):
  XXX=         -62285.9016  YYY=         -58057.7179  ZZZ=         -62222.6472  XYY=         -48386.1860
  XXY=         -49512.6626  XXZ=         -47868.2019  XZZ=         -47848.8187  YZZ=         -49731.1856
  YYZ=         -48125.4738  XYZ=         -42748.1200
 Hexadecapole moment (field-independent basis, Debye-Ang**3):
 XXXX=       -1683386.4425 YYYY=       -1546851.6329 ZZZZ=       -1658498.2350 XXXY=       -1279723.9563
 XXXZ=       -1224350.4221 YYYX=       -1231717.3374 YYYZ=       -1207114.0903 ZZZX=       -1214681.3133
 ZZZY=       -1277307.9803 XXYY=       -1143590.3570 XXZZ=       -1079215.1976 YYZZ=       -1129527.2946
 XXYZ=        -999888.5386 YYXZ=        -998615.0110 ZZXY=        -998863.9318
 N-N= 6.049671765846D+03 E-N=-2.406436113394D+04  KE= 5.003458006873D+03
 No NMR shielding tensors so no spin-rotation constants.
 Leave Link  601 at Thu May  3 08:42:22 2018, MaxMem= 14763950080 cpu:        69.1
 (Enter /cm/shared/gaussian/g09.e01/intel64-sandybridge/g09/l701.exe)
 Compute integral first derivatives.
 ... and contract with generalized density number  0.
 Leave Link  701 at Thu May  3 08:42:25 2018, MaxMem= 14763950080 cpu:       151.0
 (Enter /cm/shared/gaussian/g09.e01/intel64-sandybridge/g09/l702.exe)
 L702 exits ... SP integral derivatives will be done elsewhere.
 Leave Link  702 at Thu May  3 08:42:25 2018, MaxMem= 14763950080 cpu:         2.7
 (Enter /cm/shared/gaussian/g09.e01/intel64-sandybridge/g09/l703.exe)
 Compute integral first derivatives, UseDBF=F ICtDFT=           0.
 Integral derivatives from FoFJK, PRISM(SPDF).
 Calling FoFJK, ICntrl=      2127 FMM=T ISym2X=0 I1Cent= 0 IOpClX= 0 NMat=1 NMatS=1 NMatT=0.
 FoFJK:  IHMeth= 1 ICntrl=    2127 DoSepK=F KAlg= 0 I1Cent=   0 FoldK=F
 IRaf=         0 NMat=   1 IRICut=       1 DoRegI=T DoRafI=F ISym2E= 0.
 FoFCou: FMM=T IPFlag=           0 FMFlag=      100000 FMFlg1=        2001
         NFxFlg=           0 DoJE=F BraDBF=F KetDBF=F FulRan=T
         wScrn=  0.000000 ICntrl=    2127 IOpCl=  0 I1Cent=           0 NGrid=           0
         NMat0=    1 NMatS0=      1 NMatT0=    0 NMatD0=    1 NMtDS0=    0 NMtDT0=    0
 Symmetry not used in FoFCou.
 FMM levels:  10  Number of levels for PrismC:   9
 Leave Link  703 at Thu May  3 08:42:44 2018, MaxMem= 14763950080 cpu:      1131.0
 (Enter /cm/shared/gaussian/g09.e01/intel64-sandybridge/g09/l716.exe)
 Dipole        =-3.91136722D+01-3.85992605D+01-4.00001742D+01
 Cartesian Forces:  Max     0.027561187 RMS     0.009539758
 Leave Link  716 at Thu May  3 08:42:44 2018, MaxMem= 14763950080 cpu:         4.6
 (Enter /cm/shared/gaussian/g09.e01/intel64-sandybridge/g09/l122.exe)
 CPIOFr:  IOpCl= 0 IRwI=-1 IRwCP=  731 ICalc= -1 LCPTot=     1005244 Len1MO=     2550559 IndFrg=     1005244
 CPIOFr:  IOpCl= 0 IRwI=-1 IRwCP=  731 ICalc=  0 LCPTot=     1005244 Len1MO=     2550559 IndFrg=     3555803
 Counterpoise: doing DCBS calculation for fragment   1 NewBq=T
 Leave Link  122 at Thu May  3 08:42:44 2018, MaxMem= 14763950080 cpu:         9.2
 (Enter /cm/shared/gaussian/g09.e01/intel64-sandybridge/g09/l301.exe)
 Basis read from rwf:  (5D, 7F)
 No pseudopotential information found on rwf file.
   795 basis functions,  1651 primitive gaussians,   829 cartesian basis functions
    18 alpha electrons       18 beta electrons
       nuclear repulsion energy         0.0000000000 Hartrees.
 IExCor= 1009 DFT=T Ex+Corr=PBE1PBE ExCW=0 ScaHFX=  0.250000
 ScaDFX=  0.750000  0.750000  1.000000  1.000000 ScalE2=  1.000000  1.000000
 IRadAn=      0 IRanWt=     -1 IRanGd=            0 ICorTp=0 IEmpDi=  4
 NAtoms=   97 NActive=   97 NUniq=   97 SFac= 1.00D+00 NAtFMM=   60 NAOKFM=T Big=T
 Integral buffers will be    131072 words long.
 Raffenetti 2 integral format.
 Two-electron integral symmetry is turned off.
 No density basis found on file   718.
 Leave Link  301 at Thu May  3 08:42:44 2018, MaxMem= 14763950080 cpu:         7.0
 (Enter /cm/shared/gaussian/g09.e01/intel64-sandybridge/g09/l302.exe)
 NPDir=0 NMtPBC=     1 NCelOv=     1 NCel=       1 NClECP=     1 NCelD=      1
         NCelK=      1 NCelE2=     1 NClLst=     1 CellRange=     0.0.
 One-electron integrals computed using PRISM.
 NBasis=   795 RedAO= T EigKep=  1.76D-02  NBF=   795
 NBsUse=   795 1.00D-06 EigRej= -1.00D+00 NBFU=   795
 Precomputing XC quadrature grid using
 IXCGrd= 4 IRadAn=           0 IRanWt=          -1 IRanGd=           0 AccXCQ= 0.00D+00.
 Generated NRdTot=       0 NPtTot=           0 NUsed=           0 NTot=          32
 NSgBfM=   702   710   716   730   733 MxSgAt=    97 MxSgA2=    97.
 Leave Link  302 at Thu May  3 08:42:48 2018, MaxMem= 14763950080 cpu:       269.1
 (Enter /cm/shared/gaussian/g09.e01/intel64-sandybridge/g09/l303.exe)
 DipDrv:  MaxL=1.
 Leave Link  303 at Thu May  3 08:42:50 2018, MaxMem= 14763950080 cpu:        84.0
 (Enter /cm/shared/gaussian/g09.e01/intel64-sandybridge/g09/l401.exe)
 ExpMin= 1.22D-01 ExpMax= 6.40D+05 ExpMxC= 6.18D+03 IAcc=2 IRadAn=         4 AccDes= 0.00D+00
 Harris functional with IExCor= 1009 and IRadAn=       4 diagonalized for initial guess.
 HarFok:  IExCor= 1009 AccDes= 0.00D+00 IRadAn=         4 IDoV= 1 UseB2=F ITyADJ=14
 ICtDFT=  3500011 ScaDFX=  1.000000  1.000000  1.000000  1.000000
 FoFCou: FMM=F IPFlag=           0 FMFlag=      100000 FMFlg1=        2001
         NFxFlg=           0 DoJE=T BraDBF=F KetDBF=T FulRan=T
         wScrn=  0.000000 ICntrl=     500 IOpCl=  0 I1Cent=   200000004 NGrid=           0
         NMat0=    1 NMatS0=      1 NMatT0=    0 NMatD0=    1 NMtDS0=    0 NMtDT0=    0
 Symmetry not used in FoFCou.
 Harris En= -2574.01958357432    
 JPrj=0 DoOrth=F DoCkMO=F.
 Leave Link  401 at Thu May  3 08:42:55 2018, MaxMem= 14763950080 cpu:       282.4
 (Enter /cm/shared/gaussian/g09.e01/intel64-sandybridge/g09/l502.exe)
 Closed shell SCF:
 Using DIIS extrapolation, IDIIS=  1040.
 Two-electron integral symmetry not used.
 IVT=     2138497 IEndB=     2138497 NGot= 14763950080 MDV= 14762516294
 LenX= 14762516294 LenY= 14761828224
 Requested convergence on RMS density matrix=1.00D-08 within 128 cycles.
 Requested convergence on MAX density matrix=1.00D-06.
 Requested convergence on             energy=1.00D-06.
 No special actions if energy rises.
 Fock matrices will be formed incrementally for  20 cycles.
 Integral accuracy reduced to 1.0D-05 until final iterations.

 Cycle   1  Pass 0  IDiag  1:
 FoFJK:  IHMeth= 1 ICntrl=       0 DoSepK=F KAlg= 0 I1Cent=   0 FoldK=F
 IRaf= 810000000 NMat=   1 IRICut=       1 DoRegI=T DoRafI=F ISym2E= 0.
 FoFCou: FMM=T IPFlag=           0 FMFlag=      100000 FMFlg1=        2001
         NFxFlg=           0 DoJE=F BraDBF=F KetDBF=F FulRan=T
         wScrn=  0.000000 ICntrl=       0 IOpCl=  0 I1Cent=           0 NGrid=           0
         NMat0=    1 NMatS0=      1 NMatT0=    0 NMatD0=    1 NMtDS0=    0 NMtDT0=    0
 Symmetry not used in FoFCou.
 FMM levels:  10  Number of levels for PrismC:   9
 E= -2573.87921557487    
 DIIS: error= 1.00D-02 at cycle   1 NSaved=   1.
 NSaved= 1 IEnMin= 1 EnMin= -2573.87921557487     IErMin= 1 ErrMin= 1.00D-02
 ErrMax= 1.00D-02  0.00D+00 EMaxC= 1.00D-01 BMatC= 3.79D-02 BMatP= 3.79D-02
 IDIUse=3 WtCom= 9.00D-01 WtEn= 1.00D-01
 Coeff-Com:  0.100D+01
 Coeff-En:   0.100D+01
 Coeff:      0.100D+01
 Gap=     0.183 Goal=   None    Shift=    0.000
 GapD=    0.183 DampG=1.000 DampE=0.500 DampFc=0.5000 IDamp=-1.
 Damping current iteration by 5.00D-01
 RMSDP=4.53D-04 MaxDP=6.82D-02              OVMax= 1.51D-01

 Cycle   2  Pass 0  IDiag  1:
 RMSU=  2.25D-04    CP:  9.95D-01
 E= -2573.89571332360     Delta-E=       -0.016497748735 Rises=F Damp=T
 DIIS: error= 6.06D-03 at cycle   2 NSaved=   2.
 NSaved= 2 IEnMin= 2 EnMin= -2573.89571332360     IErMin= 2 ErrMin= 6.06D-03
 ErrMax= 6.06D-03  0.00D+00 EMaxC= 1.00D-01 BMatC= 8.92D-03 BMatP= 3.79D-02
 IDIUse=3 WtCom= 9.39D-01 WtEn= 6.06D-02
 Coeff-Com: -0.577D+00 0.158D+01
 Coeff-En:   0.000D+00 0.100D+01
 Coeff:     -0.542D+00 0.154D+01
 Gap=     0.191 Goal=   None    Shift=    0.000
 RMSDP=1.61D-04 MaxDP=3.86D-02 DE=-1.65D-02 OVMax= 6.61D-02

 Cycle   3  Pass 0  IDiag  1:
 RMSU=  1.43D-04    CP:  9.95D-01  1.32D+00
 E= -2573.90898501182     Delta-E=       -0.013271688219 Rises=F Damp=F
 DIIS: error= 3.01D-03 at cycle   3 NSaved=   3.
 NSaved= 3 IEnMin= 3 EnMin= -2573.90898501182     IErMin= 3 ErrMin= 3.01D-03
 ErrMax= 3.01D-03  0.00D+00 EMaxC= 1.00D-01 BMatC= 2.40D-03 BMatP= 8.92D-03
 IDIUse=3 WtCom= 9.70D-01 WtEn= 3.01D-02
 Coeff-Com: -0.304D+00 0.717D+00 0.587D+00
 Coeff-En:   0.000D+00 0.000D+00 0.100D+01
 Coeff:     -0.295D+00 0.695D+00 0.599D+00
 Gap=     0.174 Goal=   None    Shift=    0.000
 RMSDP=6.99D-05 MaxDP=1.71D-02 DE=-1.33D-02 OVMax= 2.11D-02

 Cycle   4  Pass 0  IDiag  1:
 RMSU=  8.15D-06    CP:  9.93D-01  1.52D+00  6.31D-01
 E= -2573.91157860045     Delta-E=       -0.002593588633 Rises=F Damp=F
 DIIS: error= 9.12D-05 at cycle   4 NSaved=   4.
 NSaved= 4 IEnMin= 4 EnMin= -2573.91157860045     IErMin= 4 ErrMin= 9.12D-05
 ErrMax= 9.12D-05  0.00D+00 EMaxC= 1.00D-01 BMatC= 1.44D-06 BMatP= 2.40D-03
 IDIUse=1 WtCom= 1.00D+00 WtEn= 0.00D+00
 Coeff-Com: -0.146D-01 0.277D-01 0.392D-01 0.948D+00
 Coeff:     -0.146D-01 0.277D-01 0.392D-01 0.948D+00
 Gap=     0.176 Goal=   None    Shift=    0.000
 RMSDP=2.23D-06 MaxDP=4.18D-04 DE=-2.59D-03 OVMax= 6.53D-04

 Initial convergence to 1.0D-05 achieved.  Increase integral accuracy.
 Cycle   5  Pass 1  IDiag  1:
 E= -2573.91190430761     Delta-E=       -0.000325707156 Rises=F Damp=F
 DIIS: error= 1.89D-05 at cycle   1 NSaved=   1.
 NSaved= 1 IEnMin= 1 EnMin= -2573.91190430761     IErMin= 1 ErrMin= 1.89D-05
 ErrMax= 1.89D-05  0.00D+00 EMaxC= 1.00D-01 BMatC= 1.39D-07 BMatP= 1.39D-07
 IDIUse=1 WtCom= 1.00D+00 WtEn= 0.00D+00
 Coeff-Com:  0.100D+01
 Coeff:      0.100D+01
 Gap=     0.176 Goal=   None    Shift=    0.000
 RMSDP=2.23D-06 MaxDP=4.18D-04 DE=-3.26D-04 OVMax= 3.49D-04

 Cycle   6  Pass 1  IDiag  1:
 RMSU=  1.62D-06    CP:  1.00D+00
 E= -2573.91190457833     Delta-E=       -0.000000270721 Rises=F Damp=F
 DIIS: error= 4.80D-06 at cycle   2 NSaved=   2.
 NSaved= 2 IEnMin= 2 EnMin= -2573.91190457833     IErMin= 2 ErrMin= 4.80D-06
 ErrMax= 4.80D-06  0.00D+00 EMaxC= 1.00D-01 BMatC= 7.70D-09 BMatP= 1.39D-07
 IDIUse=1 WtCom= 1.00D+00 WtEn= 0.00D+00
 Coeff-Com:  0.537D-01 0.946D+00
 Coeff:      0.537D-01 0.946D+00
 Gap=     0.176 Goal=   None    Shift=    0.000
 RMSDP=2.44D-07 MaxDP=3.50D-05 DE=-2.71D-07 OVMax= 8.81D-05

 Cycle   7  Pass 1  IDiag  1:
 RMSU=  2.26D-07    CP:  1.00D+00  1.06D+00
 E= -2573.91190458634     Delta-E=       -0.000000008012 Rises=F Damp=F
 DIIS: error= 3.39D-06 at cycle   3 NSaved=   3.
 NSaved= 3 IEnMin= 3 EnMin= -2573.91190458634     IErMin= 3 ErrMin= 3.39D-06
 ErrMax= 3.39D-06  0.00D+00 EMaxC= 1.00D-01 BMatC= 3.76D-09 BMatP= 7.70D-09
 IDIUse=1 WtCom= 1.00D+00 WtEn= 0.00D+00
 Coeff-Com: -0.376D-01 0.405D+00 0.632D+00
 Coeff:     -0.376D-01 0.405D+00 0.632D+00
 Gap=     0.176 Goal=   None    Shift=    0.000
 RMSDP=9.49D-08 MaxDP=1.98D-05 DE=-8.01D-09 OVMax= 3.06D-05

 Cycle   8  Pass 1  IDiag  1:
 RMSU=  4.06D-08    CP:  1.00D+00  1.08D+00  6.72D-01
 E= -2573.91190459097     Delta-E=       -0.000000004628 Rises=F Damp=F
 DIIS: error= 2.13D-07 at cycle   4 NSaved=   4.
 NSaved= 4 IEnMin= 4 EnMin= -2573.91190459097     IErMin= 4 ErrMin= 2.13D-07
 ErrMax= 2.13D-07  0.00D+00 EMaxC= 1.00D-01 BMatC= 3.09D-11 BMatP= 3.76D-09
 IDIUse=1 WtCom= 1.00D+00 WtEn= 0.00D+00
 Coeff-Com: -0.108D-01 0.959D-01 0.164D+00 0.751D+00
 Coeff:     -0.108D-01 0.959D-01 0.164D+00 0.751D+00
 Gap=     0.176 Goal=   None    Shift=    0.000
 RMSDP=1.15D-08 MaxDP=2.09D-06 DE=-4.63D-09 OVMax= 3.57D-06

 Cycle   9  Pass 1  IDiag  1:
 RMSU=  1.06D-08    CP:  1.00D+00  1.08D+00  6.85D-01  9.53D-01
 E= -2573.91190459098     Delta-E=       -0.000000000011 Rises=F Damp=F
 DIIS: error= 7.60D-08 at cycle   5 NSaved=   5.
 NSaved= 5 IEnMin= 5 EnMin= -2573.91190459098     IErMin= 5 ErrMin= 7.60D-08
 ErrMax= 7.60D-08  0.00D+00 EMaxC= 1.00D-01 BMatC= 4.11D-12 BMatP= 3.09D-11
 IDIUse=1 WtCom= 1.00D+00 WtEn= 0.00D+00
 Coeff-Com:  0.968D-03-0.185D-01-0.264D-01 0.239D+00 0.804D+00
 Coeff:      0.968D-03-0.185D-01-0.264D-01 0.239D+00 0.804D+00
 Gap=     0.176 Goal=   None    Shift=    0.000
 RMSDP=3.92D-09 MaxDP=6.52D-07 DE=-1.14D-11 OVMax= 1.42D-06

 SCF Done:  E(RPBE1PBE) =  -2573.91190459     A.U. after    9 cycles
            NFock=  9  Conv=0.39D-08     -V/T= 2.0013
 KE= 2.570518319079D+03 PE=-6.162956700599D+03 EE= 1.018526476929D+03
 Leave Link  502 at Thu May  3 08:44:22 2018, MaxMem= 14763950080 cpu:      5469.7
 (Enter /cm/shared/gaussian/g09.e01/intel64-sandybridge/g09/l601.exe)
 Copying SCF densities to generalized density rwf, IOpCl= 0 IROHF=0.

 **********************************************************************

            Population analysis using the SCF density.

 **********************************************************************

 Alpha  occ. eigenvalues -- -482.98846 -62.39000 -56.16257 -56.16251 -56.16246
 Alpha  occ. eigenvalues --   -8.49141  -6.29461  -6.29445  -6.29427  -2.37726
 Alpha  occ. eigenvalues --   -2.37724  -2.37710  -2.37697  -2.37696  -0.47199
 Alpha  occ. eigenvalues --   -0.03069  -0.03062  -0.03041
 Alpha virt. eigenvalues --    0.14520   0.15900   0.16395   0.17329   0.17962
 Alpha virt. eigenvalues --    0.18868   0.19060   0.19583   0.20009   0.21259
 Alpha virt. eigenvalues --    0.21810   0.22641   0.23077   0.23440   0.23869
 Alpha virt. eigenvalues --    0.24517   0.24572   0.25180   0.25929   0.26498
 Alpha virt. eigenvalues --    0.27265   0.27773   0.28333   0.28651   0.28860
 Alpha virt. eigenvalues --    0.29242   0.30134   0.30290   0.30457   0.30757
 Alpha virt. eigenvalues --    0.32190   0.32376   0.32764   0.34018   0.34433
 Alpha virt. eigenvalues --    0.34551   0.35394   0.36403   0.36629   0.37028
 Alpha virt. eigenvalues --    0.37896   0.38268   0.38537   0.38894   0.39568
 Alpha virt. eigenvalues --    0.39839   0.40827   0.40964   0.41222   0.41674
 Alpha virt. eigenvalues --    0.42132   0.42640   0.43051   0.43792   0.43978
 Alpha virt. eigenvalues --    0.44545   0.44690   0.45318   0.46168   0.46703
 Alpha virt. eigenvalues --    0.47662   0.49247   0.49999   0.52566   0.60485
 Alpha virt. eigenvalues --    0.61434   0.62036   0.63258   0.63949   0.64388
 Alpha virt. eigenvalues --    0.64679   0.65119   0.65377   0.65609   0.66168
 Alpha virt. eigenvalues --    0.67057   0.67530   0.68651   0.69075   0.69285
 Alpha virt. eigenvalues --    0.69906   0.70299   0.70532   0.70655   0.71188
 Alpha virt. eigenvalues --    0.72125   0.72526   0.73295   0.73802   0.73832
 Alpha virt. eigenvalues --    0.74086   0.74553   0.74770   0.74992   0.75240
 Alpha virt. eigenvalues --    0.75451   0.75558   0.75875   0.76497   0.76889
 Alpha virt. eigenvalues --    0.77025   0.77158   0.77416   0.77631   0.77897
 Alpha virt. eigenvalues --    0.78135   0.78232   0.78306   0.78694   0.79334
 Alpha virt. eigenvalues --    0.79564   0.79672   0.80224   0.80390   0.80730
 Alpha virt. eigenvalues --    0.80874   0.81704   0.81829   0.83011   0.83217
 Alpha virt. eigenvalues --    0.83312   0.83543   0.84191   0.84546   0.84803
 Alpha virt. eigenvalues --    0.84906   0.85668   0.86079   0.86211   0.86551
 Alpha virt. eigenvalues --    0.87242   0.88191   0.88395   0.88809   0.89013
 Alpha virt. eigenvalues --    0.89350   0.89763   0.90414   0.90685   0.91321
 Alpha virt. eigenvalues --    0.91359   0.92084   0.92668   0.93006   0.93467
 Alpha virt. eigenvalues --    0.93889   0.94012   0.94336   0.94673   0.95118
 Alpha virt. eigenvalues --    0.95621   0.95832   0.96316   0.96526   0.96868
 Alpha virt. eigenvalues --    0.97268   0.97528   0.97916   0.98128   0.98630
 Alpha virt. eigenvalues --    0.98998   0.99621   0.99829   1.00315   1.00355
 Alpha virt. eigenvalues --    1.01126   1.01811   1.02166   1.02583   1.02765
 Alpha virt. eigenvalues --    1.02997   1.04061   1.04709   1.05038   1.05622
 Alpha virt. eigenvalues --    1.05923   1.06270   1.06877   1.07594   1.08761
 Alpha virt. eigenvalues --    1.09137   1.09816   1.10271   1.10821   1.11725
 Alpha virt. eigenvalues --    1.12083   1.12124   1.13233   1.13734   1.14269
 Alpha virt. eigenvalues --    1.14511   1.15567   1.15812   1.17028   1.18096
 Alpha virt. eigenvalues --    1.19241   1.20204   1.21896   1.24316   1.26891
 Alpha virt. eigenvalues --    1.28977   1.65736   1.66032   1.67108   1.67790
 Alpha virt. eigenvalues --    1.67920   1.68276   1.68594   1.68854   1.69454
 Alpha virt. eigenvalues --    1.70281   1.70682   1.71103   1.71221   1.71838
 Alpha virt. eigenvalues --    1.72121   1.72409   1.72505   1.72947   1.73280
 Alpha virt. eigenvalues --    1.73454   1.73836   1.74171   1.74433   1.74891
 Alpha virt. eigenvalues --    1.75334   1.75475   1.75563   1.76322   1.76521
 Alpha virt. eigenvalues --    1.76826   1.76988   1.77289   1.77664   1.78156
 Alpha virt. eigenvalues --    1.78201   1.78546   1.78678   1.79208   1.79840
 Alpha virt. eigenvalues --    1.80378   1.80554   1.81180   1.81692   1.81823
 Alpha virt. eigenvalues --    1.82112   1.82512   1.83957   1.84269   1.84934
 Alpha virt. eigenvalues --    1.85311   1.85944   1.86348   1.86663   1.87191
 Alpha virt. eigenvalues --    1.87300   1.88182   1.88715   1.89547   1.89752
 Alpha virt. eigenvalues --    1.91091   1.91722   1.92653   1.93897   1.94474
 Alpha virt. eigenvalues --    1.96343   1.97130   1.99254   1.99432   1.99775
 Alpha virt. eigenvalues --    1.99901   1.99958   2.00041   2.00393   2.00533
 Alpha virt. eigenvalues --    2.00940   2.01097   2.01555   2.01627   2.01896
 Alpha virt. eigenvalues --    2.02154   2.02443   2.02648   2.02904   2.03250
 Alpha virt. eigenvalues --    2.03548   2.03745   2.03944   2.03978   2.04303
 Alpha virt. eigenvalues --    2.04441   2.05235   2.05426   2.05457   2.05947
 Alpha virt. eigenvalues --    2.06163   2.06469   2.06574   2.07270   2.07437
 Alpha virt. eigenvalues --    2.07776   2.08383   2.08520   2.08860   2.09288
 Alpha virt. eigenvalues --    2.09500   2.09857   2.10565   2.11143   2.11582
 Alpha virt. eigenvalues --    2.11902   2.12615   2.12885   2.13428   2.13857
 Alpha virt. eigenvalues --    2.14232   2.14577   2.15753   2.16020   2.16287
 Alpha virt. eigenvalues --    2.16652   2.16878   2.17301   2.17720   2.17930
 Alpha virt. eigenvalues --    2.18173   2.18366   2.18758   2.19164   2.19698
 Alpha virt. eigenvalues --    2.20269   2.20441   2.20796   2.21302   2.22227
 Alpha virt. eigenvalues --    2.22381   2.22725   2.23332   2.23786   2.24923
 Alpha virt. eigenvalues --    2.25702   2.26121   2.26242   2.27299   2.27822
 Alpha virt. eigenvalues --    2.28217   2.29017   2.29175   2.29888   2.30944
 Alpha virt. eigenvalues --    2.31514   2.32074   2.32206   2.33799   2.34101
 Alpha virt. eigenvalues --    2.35046   2.35712   2.37017   2.37395   2.38612
 Alpha virt. eigenvalues --    2.39589   2.40350   2.40415   2.41104   2.41892
 Alpha virt. eigenvalues --    2.41979   2.42326   2.43057   2.43913   2.44026
 Alpha virt. eigenvalues --    2.44515   2.45160   2.45618   2.46261   2.46350
 Alpha virt. eigenvalues --    2.46852   2.47483   2.47865   2.48078   2.48747
 Alpha virt. eigenvalues --    2.49370   2.49527   2.50700   2.51054   2.51718
 Alpha virt. eigenvalues --    2.53355   2.53806   2.54384   2.54610   2.55347
 Alpha virt. eigenvalues --    2.55752   2.56083   2.59217   2.64110   2.68781
 Alpha virt. eigenvalues --    2.68856   2.69734   2.70181   2.70569   2.70907
 Alpha virt. eigenvalues --    2.71597   2.72178   2.72344   2.72821   2.73180
 Alpha virt. eigenvalues --    2.73366   2.73678   2.74473   2.74530   2.74780
 Alpha virt. eigenvalues --    2.75673   2.76549   2.77379   2.78152   2.79818
 Alpha virt. eigenvalues --    2.80136   2.80435   2.81843   2.82560   2.83062
 Alpha virt. eigenvalues --    2.83227   2.83447   2.83940   2.84509   2.84643
 Alpha virt. eigenvalues --    2.85029   2.85412   2.85735   2.86508   2.86667
 Alpha virt. eigenvalues --    2.86869   2.87319   2.87745   2.88286   2.88674
 Alpha virt. eigenvalues --    2.89493   2.89618   2.89928   2.91834   2.92444
 Alpha virt. eigenvalues --    2.93019   2.93357   2.94164   2.94708   2.96007
 Alpha virt. eigenvalues --    2.96289   2.97048   2.97227   2.99537   2.99936
 Alpha virt. eigenvalues --    3.02990   3.04940   3.06225   3.08517   3.09678
 Alpha virt. eigenvalues --    3.12136   3.12527   3.12634   3.15653   3.16305
 Alpha virt. eigenvalues --    3.16587   3.17510   3.19190   3.19633   3.20667
 Alpha virt. eigenvalues --    3.22244   3.25432   3.26871   3.28140   3.29023
 Alpha virt. eigenvalues --    3.29568   3.29986   3.30416   3.31848   3.33692
 Alpha virt. eigenvalues --    3.39973   3.41075   3.42785   3.43156   3.45340
 Alpha virt. eigenvalues --    3.46632   3.48982   3.50156   3.51799   3.52443
 Alpha virt. eigenvalues --    3.54470   3.56863   3.62718   3.65390   4.48700
 Alpha virt. eigenvalues --    4.52012   4.52274   4.52304   4.52419   4.52662
 Alpha virt. eigenvalues --    4.52835   4.52950   4.53027   4.53107   4.53435
 Alpha virt. eigenvalues --    4.53656   4.53695   4.53721   4.53764   4.53880
 Alpha virt. eigenvalues --    4.54140   4.54211   4.54232   4.54274   4.54417
 Alpha virt. eigenvalues --    4.54583   4.54677   4.54712   4.54820   4.55813
 Alpha virt. eigenvalues --    4.56001   4.56292   4.56551   4.56724   4.58269
 Alpha virt. eigenvalues --    4.58346   4.59924   4.60113   4.60247   4.60567
 Alpha virt. eigenvalues --    4.60576   4.60626   4.60818   4.61049   4.61348
 Alpha virt. eigenvalues --    4.61417   4.61430   4.61537   4.61544   4.61683
 Alpha virt. eigenvalues --    4.61919   4.61928   4.62015   4.62081   4.62418
 Alpha virt. eigenvalues --    4.62616   4.62806   4.62830   4.62979   4.63313
 Alpha virt. eigenvalues --    4.63611   4.64005   4.64185   4.64574   4.64820
 Alpha virt. eigenvalues --    4.65431   4.65481   4.68161   4.74751   4.75117
 Alpha virt. eigenvalues --    4.75197   4.75422   4.75890   4.76364   4.76425
 Alpha virt. eigenvalues --    4.76510   4.76964   4.77090   4.77623   4.77870
 Alpha virt. eigenvalues --    4.78474   4.78882   4.79630   4.80146   4.80215
 Alpha virt. eigenvalues --    4.80357   4.80945   4.81051   4.81528   4.81877
 Alpha virt. eigenvalues --    4.82124   4.82478   4.83196   4.84150   4.84671
 Alpha virt. eigenvalues --    4.84719   4.84831   4.84875   4.85934   4.86731
 Alpha virt. eigenvalues --    4.87667   4.87954   4.88115   4.88518   4.88734
 Alpha virt. eigenvalues --    4.88794   4.89201   4.89262   4.89483   4.89682
 Alpha virt. eigenvalues --    4.89801   4.89902   4.90249   4.90595   4.91241
 Alpha virt. eigenvalues --    4.91902   4.92714   4.92838   4.93720   4.94395
 Alpha virt. eigenvalues --    4.94887   4.95169   4.96234   4.96700   4.97425
 Alpha virt. eigenvalues --    4.97744   4.98844   5.00339   5.01613   5.02417
 Alpha virt. eigenvalues --    5.03273   5.04183   5.06417   5.06929   5.07366
 Alpha virt. eigenvalues --    5.07725   5.08153   5.08572   5.08738   5.09168
 Alpha virt. eigenvalues --    5.10363   5.10748   5.11542   5.12055   5.12737
 Alpha virt. eigenvalues --    5.13311   5.14043   5.14461   5.14951   5.15123
 Alpha virt. eigenvalues --    5.16562   5.16892   5.17414   5.18376   5.19123
 Alpha virt. eigenvalues --    5.19527   5.19912   5.21527   5.21830   5.23795
 Alpha virt. eigenvalues --    5.25798   5.26446   5.27053   5.29347   5.36512
 Alpha virt. eigenvalues --    5.36770   5.37051   5.37635   5.37975   5.39325
 Alpha virt. eigenvalues --    5.40271   5.41282   5.41646   5.42080   5.42499
[...]
   Z20       37.03863  -0.00517   0.00000  -0.00377  -0.00481  37.03382
   X21       43.74716   0.00803   0.00000   0.01155   0.01017  43.75733
   Y21       41.91413  -0.01231   0.00000  -0.04572  -0.04513  41.86900
   Z21       38.24806   0.00860   0.00000   0.01598   0.01475  38.26281
   X22       41.85743  -0.00287   0.00000  -0.00511  -0.00667  41.85076
   Y22       40.74250  -0.00987   0.00000  -0.00448  -0.00383  40.73867
   Z22       36.45282  -0.00015   0.00000   0.00903   0.00795  36.46076
   X23       42.42435   0.02827   0.00000   0.04327   0.04190  42.46626
   Y23       33.90169   0.00092   0.00000  -0.00387  -0.00313  33.89856
   Z23       35.64023   0.00629   0.00000   0.00981   0.00812  35.64836
   X24       41.15824  -0.01370   0.00000   0.00576   0.00423  41.16247
   Y24       33.78830   0.00444   0.00000   0.03128   0.03206  33.82037
   Z24       34.35522  -0.01213   0.00000  -0.00252  -0.00405  34.35117
   X25       41.49839  -0.00470   0.00000   0.01112   0.00994  41.50833
   Y25       33.90169  -0.00287   0.00000  -0.01584  -0.01526  33.88643
   Z25       37.18981   0.00795   0.00000   0.00901   0.00744  37.19725
   X26       45.99593   0.00326   0.00000  -0.03420  -0.03552  45.96041
   Y26       37.68114   0.01566   0.00000   0.04172   0.04248  37.72361
   Z26       37.30319   0.01666   0.00000   0.01040   0.00857  37.31176
   X27       44.63533  -0.01332   0.00000  -0.00669  -0.00807  44.62726
   Y27       36.73628  -0.01387   0.00000  -0.03015  -0.02938  36.70689
   Z27       36.58510  -0.01313   0.00000  -0.02314  -0.02488  36.56022
   X28       47.01639   0.00328   0.00000   0.00697   0.00545  47.02184
   Y28       38.15357  -0.00492   0.00000  -0.03195  -0.03104  38.12253
   Z28       35.88590  -0.00655   0.00000   0.00070  -0.00123  35.88466
   X29       42.59443   0.01276   0.00000   0.01815   0.01778  42.61221
   Y29       34.46860   0.01338   0.00000   0.00840   0.00852  34.47712
   Z29       43.80385   0.00253   0.00000   0.00575   0.00409  43.80794
   X30       41.08265  -0.01100   0.00000  -0.00493  -0.00536  41.07729
   Y30       33.76941  -0.00809   0.00000  -0.00710  -0.00699  33.76241
   Z30       43.12355  -0.00133   0.00000   0.01488   0.01336  43.13691
   X31       43.36921   0.00116   0.00000   0.00463   0.00443  43.37364
   Y31       33.10800  -0.00889   0.00000  -0.02229  -0.02221  33.08579
   Z31       44.71092  -0.00040   0.00000  -0.01160  -0.01346  44.69746
   X32       35.94259   0.00742   0.00000   0.01521   0.01345  35.95604
   Y32       46.63844   0.00363   0.00000  -0.01105  -0.01068  46.62776
   Z32       36.84966  -0.01718   0.00000  -0.01065  -0.01055  36.83911
   X33       36.32054  -0.00537   0.00000  -0.03336  -0.03491  36.28562
   Y33       45.33453  -0.01253   0.00000  -0.02534  -0.02505  45.30948
   Z33       38.04019   0.01388   0.00000   0.02267   0.02264  38.06282
   X34       34.60089  -0.00370   0.00000   0.01421   0.01250  34.61339
   Y34       47.58330   0.00314   0.00000   0.00250   0.00275  47.58606
   Z34       37.60555   0.00653   0.00000   0.00531   0.00566  37.61121
   X35       38.13467   0.01153   0.00000   0.01296   0.01239  38.14706
   Y35       43.29363   0.00712   0.00000   0.02418   0.02399  43.31762
   Z35       45.25894   0.00755   0.00000   0.01123   0.01081  45.26975
   X36       37.35989  -0.00767   0.00000  -0.01114  -0.01189  37.34799
   Y36       42.93458  -0.00325   0.00000  -0.00738  -0.00747  42.92710
   Z36       43.65267  -0.00318   0.00000   0.01394   0.01359  43.66626
   X37       36.79297  -0.00376   0.00000   0.00070   0.00029  36.79326
   Y37       43.10465  -0.00449   0.00000  -0.02005  -0.02039  43.08427
   Z37       46.46837  -0.00026   0.00000  -0.00135  -0.00162  46.46674
   X38       30.08444  -0.00158   0.00000   0.00730   0.00614  30.09058
   Y38       42.19758  -0.00163   0.00000  -0.00133  -0.00146  42.19613
   Z38       40.11889   0.01282   0.00000  -0.00262  -0.00212  40.11676
   X39       30.72695   0.00809   0.00000   0.01275   0.01140  30.73835
   Y39       41.78184  -0.00851   0.00000  -0.02168  -0.02165  41.76019
   Z39       38.47482  -0.01807   0.00000  -0.02604  -0.02565  38.44917
   X40       29.25296  -0.00390   0.00000  -0.00136  -0.00262  29.25034
   Y40       43.78495   0.00789   0.00000   0.01023   0.01008  43.79504
   Z40       39.89212   0.00275   0.00000   0.01248   0.01320  39.90532
   X41       33.37256  -0.01832   0.00000  -0.01518  -0.01742  33.35514
   Y41       41.36611   0.00531   0.00000  -0.00523  -0.00453  41.36158
   Z41       31.14269   0.01292   0.00000   0.01302   0.01305  31.15573
   X42       34.07176  -0.00031   0.00000  -0.00711  -0.00934  34.06242
   Y42       42.91568  -0.00289   0.00000  -0.01046  -0.00978  42.90590
   Z42       31.82299   0.00085   0.00000   0.01181   0.01186  31.83485
   X43       34.69537   0.01699   0.00000   0.02008   0.01773  34.71311
   Y43       40.70470  -0.00258   0.00000   0.01224   0.01307  40.71777
   Z43       30.12223  -0.01020   0.00000  -0.00513  -0.00532  30.11691
   X44       37.20871   0.00204   0.00000  -0.00850  -0.00972  37.19899
   Y44       29.13958   0.00384   0.00000   0.00590   0.00645  29.14603
   Z44       35.18670  -0.00810   0.00000   0.00088  -0.00051  35.18619
   X45       36.15046  -0.00742   0.00000  -0.01030  -0.01135  36.13911
   Y45       29.25296  -0.00054   0.00000  -0.00649  -0.00610  29.24686
   Z45       36.64179   0.01114   0.00000   0.02092   0.01967  36.66146
   X46       38.00239   0.00366   0.00000   0.01290   0.01176  38.01416
   Y46       27.51441  -0.00151   0.00000   0.00877   0.00934  27.52376
   Z46       35.33788  -0.00068   0.00000  -0.00479  -0.00641  35.33147
   X47       41.42280   0.00771   0.00000   0.01319   0.01134  41.43414
   Y47       47.12977   0.01639   0.00000   0.02342   0.02406  47.15383
   Z47       36.28274   0.00097   0.00000   0.03694   0.03640  36.31914
   X48       41.98971   0.00006   0.00000  -0.01465  -0.01639  41.97332
   Y48       45.42902  -0.01377   0.00000  -0.01486  -0.01422  45.41480
   Z48       36.58510   0.00267   0.00000   0.00247   0.00173  36.58683
   X49       39.70315  -0.01239   0.00000  -0.01893  -0.02071  39.68244
   Y49       47.14867   0.00147   0.00000   0.01233   0.01286  47.16152
   Z49       36.84966   0.00200   0.00000  -0.00648  -0.00680  36.84286
   X50       37.54886  -0.02341   0.00000  -0.03555  -0.03564  37.51322
   Y50       37.49217  -0.00069   0.00000   0.00518   0.00482  37.49699
   Z50       47.16756   0.00822   0.00000  -0.01484  -0.01563  47.15194
   X51       37.71893   0.00605   0.00000   0.02265   0.02254  37.74148
   Y51       35.84810  -0.00803   0.00000  -0.00757  -0.00786  35.84024
   Z51       46.44947  -0.00506   0.00000  -0.00637  -0.00731  46.44215
   X52       38.96615   0.01829   0.00000   0.01880   0.01860  38.98476
   Y52       38.41813   0.01035   0.00000   0.01221   0.01196  38.43010
   Z52       46.54395  -0.00289   0.00000   0.02474   0.02383  46.56779
   X53       40.55352  -0.00439   0.00000  -0.02176  -0.02399  40.52953
   Y53       33.35367  -0.01395   0.00000  -0.00468  -0.00348  33.35019
   Z53       28.59156  -0.01086   0.00000  -0.02451  -0.02599  28.56556
   X54       39.62756  -0.00379   0.00000   0.00161  -0.00045  39.62710
   Y54       33.80720   0.00599   0.00000   0.00910   0.01015  33.81735
   Z54       30.08444   0.00805   0.00000   0.00543   0.00410  30.08854
   X55       41.38500   0.00784   0.00000   0.02519   0.02284  41.40784
   Y55       34.86545   0.01063   0.00000   0.00673   0.00800  34.87345
   Z55       28.08133   0.00325   0.00000   0.02537   0.02390  28.10523
   X56       30.51908  -0.00469   0.00000   0.01148   0.00970  30.52878
   Y56       34.56309   0.00669   0.00000   0.00798   0.00845  34.57154
   Z56       32.63557   0.00042   0.00000  -0.00485  -0.00499  32.63058
   X57       31.95527   0.01044   0.00000   0.02387   0.02209  31.97736
   Y57       33.54264  -0.00480   0.00000  -0.00034   0.00021  33.54285
   Z57       32.23873  -0.00247   0.00000  -0.00462  -0.00502  32.23371
   X58       30.72695   0.00000   0.00000   0.00288   0.00092  30.72786
   Y58       36.05597   0.00049   0.00000   0.00393   0.00449  36.06046
   Z58       31.61512  -0.00157   0.00000  -0.01100  -0.01106  31.60406
   X59       38.24806   0.00096   0.00000  -0.01079  -0.01094  38.23712
   Y59       28.93171  -0.01352   0.00000  -0.01264  -0.01270  28.91900
   Z59       43.70937  -0.01072   0.00000  -0.01239  -0.01393  43.69544
   X60       37.62445  -0.00741   0.00000  -0.01787  -0.01811  37.60634
   Y60       30.63246   0.01339   0.00000   0.00925   0.00917  30.64163
   Z60       43.57708  -0.00159   0.00000  -0.00726  -0.00859  43.56849
   X61       38.56931   0.00271   0.00000   0.00817   0.00824  38.57755
   Y61       28.68604  -0.00051   0.00000  -0.00029  -0.00047  28.68557
   Z61       45.46681   0.00831   0.00000   0.00101  -0.00059  45.46622
   X62       45.71248   0.01859   0.00000   0.02261   0.02044  45.73291
   Y62       38.75828  -0.00981   0.00000   0.00123   0.00247  38.76076
   Z62       30.84033  -0.01027   0.00000  -0.01311  -0.01483  30.82550
   X63       44.06841  -0.02094   0.00000  -0.01855  -0.02072  44.04770
   Y63       39.41969   0.00332   0.00000  -0.02546  -0.02431  39.39538
   Z63       31.14269   0.00780   0.00000   0.02258   0.02112  31.16381
   X64       46.77072   0.00344   0.00000   0.00886   0.00680  46.77752
   Y64       39.60866   0.00601   0.00000   0.01753   0.01873  39.62739
   Z64       32.03086   0.00345   0.00000   0.00054  -0.00124  32.02962
   X65       42.82119  -0.00486   0.00000   0.00901   0.00881  42.83001
   Y65       38.90946   0.00285   0.00000  -0.00450  -0.00460  38.90486
   Z65       46.71403   0.02513   0.00000   0.02931   0.02796  46.74199
   X66       43.44480  -0.00329   0.00000  -0.04682  -0.04722  43.39758
   Y66       40.13778   0.00797   0.00000   0.00357   0.00359  40.14137
   Z66       45.56130  -0.01601   0.00000  -0.02920  -0.03053  45.53077
   X67       42.85899   0.00116   0.00000  -0.00067  -0.00093  42.85806
   Y67       37.35989  -0.01253   0.00000  -0.00891  -0.00893  37.35096
   Z67       45.78806  -0.01209   0.00000  -0.01330  -0.01477  45.77330
   X68       37.17091  -0.00385   0.00000  -0.00778  -0.01033  37.16058
   Y68       39.30630   0.00368   0.00000   0.00648   0.00758  39.31389
   Z68       28.02464   0.00695   0.00000  -0.01217  -0.01277  28.01186
   X69       38.55041   0.00707   0.00000   0.00482   0.00211  38.55252
   Y69       39.70315   0.00508   0.00000   0.01699   0.01823  39.72138
   Z69       26.92860  -0.00815   0.00000  -0.01724  -0.01799  26.91061
   X70       36.03708  -0.00417   0.00000   0.00565   0.00302  36.04009
   Y70       38.34254  -0.01017   0.00000  -0.03516  -0.03403  38.30851
   Z70       27.00419  -0.00629   0.00000  -0.01157  -0.01212  26.99207
   X71       27.51441  -0.01228   0.00000  -0.02263  -0.02331  27.49111
   Y71       38.45593  -0.00644   0.00000   0.00507   0.00462  38.46055
   Z71       42.74561   0.00588   0.00000   0.01121   0.01175  42.75735
   X72       28.83722   0.00578   0.00000  -0.01189  -0.01272  28.82450
   Y72       39.23071   0.00747   0.00000   0.01300   0.01269  39.24340
   Z72       41.78184  -0.00610   0.00000  -0.00440  -0.00397  41.77787
   X73       27.21206  -0.00105   0.00000  -0.00579  -0.00634  27.20571
   Y73       39.60866   0.00464   0.00000   0.01490   0.01434  39.62300
   Z73       44.10621   0.00405   0.00000   0.01275   0.01341  44.11961
   X74       42.48104   0.00359   0.00000   0.00125   0.00070  42.48174
   Y74       29.29076   0.01034   0.00000   0.01698   0.01734  29.30810
   Z74       40.59132  -0.00220   0.00000  -0.01816  -0.02020  40.57112
   X75       43.23693   0.00478   0.00000   0.00904   0.00846  43.24540
   Y75       27.79787  -0.00530   0.00000   0.00172   0.00216  27.80004
   Z75       39.91102  -0.00453   0.00000  -0.00922  -0.01147  39.89954
   X76       40.74250  -0.00642   0.00000   0.00267   0.00218  40.74467
   Y76       28.81832  -0.00172   0.00000  -0.00136  -0.00109  28.81723
   Z76       40.83698   0.01004   0.00000   0.05172   0.04986  40.88684
   X77       47.45102   0.01334   0.00000   0.01554   0.01413  47.46515
   Y77       32.03086  -0.01108   0.00000  -0.01593  -0.01491  32.01595
   Z77       34.67647  -0.01674   0.00000  -0.00102  -0.00347  34.67300
   X78       45.76917  -0.01694   0.00000  -0.00983  -0.01124  45.75793
   Y78       32.61667   0.00561   0.00000  -0.00230  -0.00136  32.61531
   Z78       34.94104   0.00510   0.00000   0.00552   0.00332  34.94436
   X79       48.28250   0.00397   0.00000   0.00077  -0.00046  48.28205
   Y79       32.31432   0.00723   0.00000   0.02492   0.02586  32.34017
   Z79       36.24495   0.01549   0.00000   0.02401   0.02148  36.26642
   X80       45.35343  -0.00595   0.00000   0.00552   0.00473  45.35816
   Y80       41.87633  -0.00949   0.00000  -0.00877  -0.00847  41.86786
   Z80       42.97237  -0.00016   0.00000   0.00241   0.00098  42.97335
   X81       46.03373   0.00413   0.00000   0.00327   0.00228  46.03601
   Y81       43.06686   0.00813   0.00000   0.01366   0.01408  43.08094
   Z81       41.80074  -0.00339   0.00000   0.00325   0.00182  41.80257
   X82       46.10932   0.00661   0.00000   0.02090   0.02028  46.12960
   Y82       42.31097   0.00412   0.00000   0.00948   0.00969  42.32066
   Z82       44.55974   0.00407   0.00000   0.00105  -0.00045  44.55930
   X83       49.03839   0.01827   0.00000   0.02072   0.01991  49.05830
   Y83       34.84655  -0.00806   0.00000  -0.02490  -0.02425  34.82230
   Z83       40.44014   0.00124   0.00000  -0.00168  -0.00412  40.43602
   X84       48.79273  -0.00308   0.00000  -0.01631  -0.01692  48.77581
   Y84       33.48595  -0.00329   0.00000  -0.01090  -0.01035  33.47560
   Z84       41.61177   0.00310   0.00000   0.01206   0.00955  41.62132
   X85       47.37543  -0.01289   0.00000   0.01126   0.01037  47.38580
   Y85       35.43236   0.00989   0.00000   0.02535   0.02596  35.45833
   Z85       40.06219  -0.00676   0.00000  -0.01742  -0.01960  40.04259
   X86       27.77897  -0.01147   0.00000  -0.01761  -0.01879  27.76018
   Y86       32.93793  -0.00924   0.00000  -0.01505  -0.01502  32.92291
   Z86       36.83076   0.00082   0.00000  -0.00425  -0.00418  36.82659
   X87       28.49707   0.00212   0.00000  -0.00550  -0.00654  28.49053
   Y87       33.80720   0.00237   0.00000  -0.00533  -0.00538  33.80182
   Z87       38.24806   0.00220   0.00000  -0.00449  -0.00444  38.24362
   X88       28.74273   0.00421   0.00000  -0.00208  -0.00346  28.73927
   Y88       33.52374   0.00478   0.00000   0.00807   0.00825  33.53199
   Z88       35.41347  -0.00450   0.00000  -0.00037  -0.00036  35.41310
   X89       28.13802  -0.00509   0.00000  -0.01305  -0.01349  28.12453
   Y89       33.42926  -0.02534   0.00000  -0.04313  -0.04356  33.38569
   Z89       42.93458   0.00916   0.00000   0.00266   0.00273  42.93731
   X90       29.21517   0.01055   0.00000   0.03232   0.03169  29.24686
   Y90       33.92058   0.00810   0.00000   0.00521   0.00493  33.92552
   Z90       41.57397  -0.00233   0.00000   0.03084   0.03081  41.60478
   X91       27.28765   0.00192   0.00000   0.02415   0.02369  27.31134
   Y91       34.95993   0.01133   0.00000   0.00541   0.00492  34.96485
   Z91       43.38811  -0.00474   0.00000  -0.02252  -0.02223  43.36588
   X92       31.21828  -0.00182   0.00000  -0.00333  -0.00394  31.21434
   Y92       44.04952   0.01146   0.00000   0.02196   0.02149  44.07100
   Z92       45.18335   0.01283   0.00000   0.00970   0.01020  45.19356
   X93       32.59778   0.00458   0.00000   0.00399   0.00323  32.60101
   Y93       44.06841  -0.00291   0.00000  -0.00517  -0.00549  44.06292
   Z93       44.01172  -0.00616   0.00000  -0.00115  -0.00082  44.01090
   X94       30.08444   0.00082   0.00000   0.02177   0.02113  30.10557
   Y94       42.80230  -0.00744   0.00000  -0.00954  -0.01001  42.79229
   Z94       44.54084  -0.00672   0.00000  -0.01084  -0.01029  44.53055
   X95       41.06375  -0.00654   0.00000  -0.02272  -0.02520  41.03855
   Y95       47.48882   0.00961   0.00000  -0.00316  -0.00216  47.48666
   Z95       31.40725  -0.02474   0.00000  -0.04999  -0.05045  31.35680
   X96       41.70626   0.00378   0.00000   0.01265   0.01013  41.71639
   Y96       46.03373  -0.00882   0.00000  -0.02576  -0.02466  46.00907
   Z96       30.55687  -0.00230   0.00000  -0.00324  -0.00390  30.55297
   X97       41.02595   0.00315   0.00000   0.01981   0.01757  41.04352
   Y97       47.01639   0.00256   0.00000   0.04456   0.04543  47.06181
   Z97       33.16469   0.01715   0.00000  -0.00166  -0.00215  33.16254
         Item               Value     Threshold  Converged?
 Maximum Force            0.028268     0.000450     NO 
 RMS     Force            0.009568     0.000300     NO 
 Maximum Displacement     0.050449     0.001800     NO 
 RMS     Displacement     0.017553     0.001200     NO 
 Predicted change in Energy=-2.464727D-02
 GradGradGradGradGradGradGradGradGradGradGradGradGradGradGradGradGradGrad

 Leave Link  103 at Thu May  3 08:49:37 2018, MaxMem= 14763950080 cpu:        66.0
 (Enter /cm/shared/gaussian/g09.e01/intel64-sandybridge/g09/l9999.exe)
 1\1\GINC-POPLE03\Force\RPBE1PBE\CC-pVDZ\Br1H64O32(1-)\M.PELUSO\03-May-
 2018\0\\#p PBE1PBE/cc-pvDZ force Counterpoise=2 noSymm\\forces on chlo
 ride comput - NWATER: 32\\-1,1\Br,20.,20.,20.\O,18.71,22.39,21.65\H,17
 .85,21.97,21.66\H,19.26,21.8,21.14\O,17.05,21.03,19.14\H,16.81,20.92,1
 8.23\H,17.95,20.7,19.2\O,20.07,17.96,17.56\H,19.94,17.06,17.86\H,19.71
 ,18.5,18.26\O,19.57,17.9,22.53\H,18.88,18.53,22.76\H,20.06,18.32,21.83
 \O,21.5,20.71,16.84\H,20.8,20.67,16.19\H,21.05,20.59,17.68\O,16.79,19.
 03,20.79\H,16.48,19.7,20.18\H,17.61,18.72,20.41\O,22.48,22.4,19.6\H,23
 .15,22.18,20.24\H,22.15,21.56,19.29\O,22.45,17.94,18.86\H,21.78,17.88,
 18.18\H,21.96,17.94,19.68\O,24.34,19.94,19.74\H,23.62,19.44,19.36\H,24
 .88,20.19,18.99\O,22.54,18.24,23.18\H,21.74,17.87,22.82\H,22.95,17.52,
 23.66\O,19.02,24.68,19.5\H,19.22,23.99,20.13\H,18.31,25.18,19.9\O,20.1
 8,22.91,23.95\H,19.77,22.72,23.1\H,19.47,22.81,24.59\O,15.92,22.33,21.
 23\H,16.26,22.11,20.36\H,15.48,23.17,21.11\O,17.66,21.89,16.48\H,18.03
 ,22.71,16.84\H,18.36,21.54,15.94\O,19.69,15.42,18.62\H,19.13,15.48,19.
 39\H,20.11,14.56,18.7\O,21.92,24.94,19.2\H,22.22,24.04,19.36\H,21.01,2
 4.95,19.5\O,19.87,19.84,24.96\H,19.96,18.97,24.58\H,20.62,20.33,24.63\
 O,21.46,17.65,15.13\H,20.97,17.89,15.92\H,21.9,18.45,14.86\O,16.15,18.
 29,17.27\H,16.91,17.75,17.06\H,16.26,19.08,16.73\O,20.24,15.31,23.13\H
 ,19.91,16.21,23.06\H,20.41,15.18,24.06\O,24.19,20.51,16.32\H,23.32,20.
 86,16.48\H,24.75,20.96,16.95\O,22.66,20.59,24.72\H,22.99,21.24,24.11\H
 ,22.68,19.77,24.23\O,19.67,20.8,14.83\H,20.4,21.01,14.25\H,19.07,20.29
 ,14.29\O,14.56,20.35,22.62\H,15.26,20.76,22.11\H,14.4,20.96,23.34\O,22
 .48,15.5,21.48\H,22.88,14.71,21.12\H,21.56,15.25,21.61\O,25.11,16.95,1
 8.35\H,24.22,17.26,18.49\H,25.55,17.1,19.18\O,24.,22.16,22.74\H,24.36,
 22.79,22.12\H,24.4,22.39,23.58\O,25.95,18.44,21.4\H,25.82,17.72,22.02\
 H,25.07,18.75,21.2\O,14.7,17.43,19.49\H,15.08,17.89,20.24\H,15.21,17.7
 4,18.74\O,14.89,17.69,22.72\H,15.46,17.95,22.\H,14.44,18.5,22.96\O,16.
 52,23.31,23.91\H,17.25,23.32,23.29\H,15.92,22.65,23.57\O,21.73,25.13,1
 6.62\H,22.07,24.36,16.17\H,21.71,24.88,17.55\\Version=ES64L-G09RevE.01
 \HF=-2443.1709057\RMSD=3.243e-09\RMSF=9.568e-03\Dipole=-1.1832413,-0.8
 758665,-2.0379776\Quadrupole=-17.6296564,61.434259,-43.8046026,-1538.4
 042386,-1528.9885117,-1553.6795966\PG=C01 [X(Br1H64O32)]\\@


 ARTHROPOD AXIOM: A COMPUTER SYSTEM IS LIKE A SPIDER'S WEB.
 YOU CANNOT PULL ON ONE END WITHOUT MAKING THE OTHER END MOVE.
     -- GREG WETTSTEIN
 Job cpu time:       0 days 10 hours  9 minutes 39.5 seconds.
 File lengths (MBytes):  RWF=    482 Int=      0 D2E=      0 Chk=    160 Scr=      1
 Normal termination of Gaussian 09 at Thu May  3 08:49:37 2018.
