 Entering Gaussian System, Link 0=/cm/shared/gaussian/g09.e01/intel64-sandybridge/g09/g09
 Initial command:
 /cm/shared/gaussian/g09.e01/intel64-sandybridge/g09/l1.exe "/local/scratch/m.peluso/32_wat/Gau-31235.inp" -scrdir="/local/scratch/m.peluso/32_wat/"
 Entering Link 1 = /cm/shared/gaussian/g09.e01/intel64-sandybridge/g09/l1.exe PID=     31236.
  
 Copyright (c) 1988,1990,1992,1993,1995,1998,2003,2009,2015,
            Gaussian, Inc.  All Rights Reserved.
  
 This is part of the Gaussian(R) 09 program.  It is based on
 the Gaussian(R) 03 system (copyright 2003, Gaussian, Inc.),
 the Gaussian(R) 98 system (copyright 1998, Gaussian, Inc.),
 the Gaussian(R) 94 system (copyright 1995, Gaussian, Inc.),
 the Gaussian 92(TM) system (copyright 1992, Gaussian, Inc.),
 the Gaussian 90(TM) system (copyright 1990, Gaussian, Inc.),
 the Gaussian 88(TM) system (copyright 1988, Gaussian, Inc.),
 the Gaussian 86(TM) system (copyright 1986, Carnegie Mellon
 University), and the Gaussian 82(TM) system (copyright 1983,
 Carnegie Mellon University). Gaussian is a federally registered
 trademark of Gaussian, Inc.
  
 This software contains proprietary and confidential information,
 including trade secrets, belonging to Gaussian, Inc.
  
 This software is provided under written license and may be
 used, copied, transmitted, or stored only in accord with that
 written license.
  
 The following legend is applicable only to US Government
 contracts under FAR:
  
                    RESTRICTED RIGHTS LEGEND
  
 Use, reproduction and disclosure by the US Government is
 subject to restrictions as set forth in subparagraphs (a)
 and (c) of the Commercial Computer Software - Restricted
 Rights clause in FAR 52.227-19.
  
 Gaussian, Inc.
 340 Quinnipiac St., Bldg. 40, Wallingford CT 06492
  
  
 ---------------------------------------------------------------
 Warning -- This program may not be used in any manner that
 competes with the business of Gaussian, Inc. or will provide
 assistance to any competitor of Gaussian, Inc.  The licensee
 of this program is prohibited from giving any competitor of
 Gaussian, Inc. access to this program.  By using this program,
 the user acknowledges that Gaussian, Inc. is engaged in the
 business of creating and licensing software in the field of
 computational chemistry and represents and warrants to the
 licensee that it is not a competitor of Gaussian, Inc. and that
 it will not use this program in any manner prohibited above.
 ---------------------------------------------------------------
  

 Cite this work as:
 Gaussian 09, Revision E.01,
 M. J. Frisch, G. W. Trucks, H. B. Schlegel, G. E. Scuseria, 
 M. A. Robb, J. R. Cheeseman, G. Scalmani, V. Barone, B. Mennucci, 
 G. A. Petersson, H. Nakatsuji, M. Caricato, X. Li, H. P. Hratchian, 
 A. F. Izmaylov, J. Bloino, G. Zheng, J. L. Sonnenberg, M. Hada, 
 M. Ehara, K. Toyota, R. Fukuda, J. Hasegawa, M. Ishida, T. Nakajima, 
 Y. Honda, O. Kitao, H. Nakai, T. Vreven, J. A. Montgomery, Jr., 
 J. E. Peralta, F. Ogliaro, M. Bearpark, J. J. Heyd, E. Brothers, 
 K. N. Kudin, V. N. Staroverov, T. Keith, R. Kobayashi, J. Normand, 
 K. Raghavachari, A. Rendell, J. C. Burant, S. S. Iyengar, J. Tomasi, 
 M. Cossi, N. Rega, J. M. Millam, M. Klene, J. E. Knox, J. B. Cross, 
 V. Bakken, C. Adamo, J. Jaramillo, R. Gomperts, R. E. Stratmann, 
 O. Yazyev, A. J. Austin, R. Cammi, C. Pomelli, J. W. Ochterski, 
 R. L. Martin, K. Morokuma, V. G. Zakrzewski, G. A. Voth, 
 P. Salvador, J. J. Dannenberg, S. Dapprich, A. D. Daniels, 
 O. Farkas, J. B. Foresman, J. V. Ortiz, J. Cioslowski, 
 and D. J. Fox, Gaussian, Inc., Wallingford CT, 2013.
 
 ******************************************
 Gaussian 09:  ES64L-G09RevE.01 30-Nov-2015
                 3-May-2018 
 ******************************************
 %Mem=110GB
 %NProcShared=64
 Will use up to   64 processors via shared memory.
 %chk=snap77.chk
 ----------------------------------------------
 #p PBE1PBE/cc-pvDZ force Counterpoise=2 noSymm
 ----------------------------------------------
 1/10=7,30=1,38=1,62=2/1,3;
 2/12=2,15=1,17=6,18=5,40=1/2;
 1/10=7,30=1,38=1,53=2,62=2,63=101/22;
 3/5=16,11=2,16=1,25=1,30=1,71=1,74=-13/1,2,3;
 4//1;
 5/5=2,38=5/2;
 6/7=2,8=2,9=2,10=2,28=1/1;
 7/7=1,29=1,30=1,33=-1/1,2,3,16;
 1/10=7,30=1,53=2,62=2,63=101/22;
 3/5=7,6=11,11=2,16=1,25=1,30=1,71=1,74=-13,82=7/1,2,3;
 4//1;
 5/5=2,38=5/2;
 6/7=2,8=2,9=2,10=2,28=1/1;
 7/7=1,29=1,30=1,33=-1/1,2,3,16;
 1/10=7,30=1,53=2,62=2,63=101/22(-5);
 7/9=1,29=1,44=-1/16;
 1/10=7,30=1,62=2/3;
 99//99;
 Leave Link    1 at Thu May  3 12:57:30 2018, MaxMem= 14763950080 cpu:         6.3
 (Enter /cm/shared/gaussian/g09.e01/intel64-sandybridge/g09/l101.exe)
 --------------------------------------
 forces on chloride comput - NWATER: 32
 --------------------------------------
 Symbolic Z-matrix:
 Charge = -1 Multiplicity = 1 in supermolecule
 Charge = -1 Multiplicity = 1 in fragment      1.
 Charge =  0 Multiplicity = 1 in fragment      2.
 Br(Fragment=1)        20.       20.       20. 
 O(Fragment=2)         21.79     17.95     22. 
 H(Fragment=2)         21.33     18.5      21.36 
 H(Fragment=2)         22.58     17.66     21.54 
 O(Fragment=2)         20.85     17.09     19.31 
 H(Fragment=2)         19.98     17.17     19.72 
 H(Fragment=2)         21.01     17.95     18.93 
 O(Fragment=2)         18.99     18.72     23.04 
 H(Fragment=2)         18.82     19.36     22.35 
 H(Fragment=2)         19.87     18.4      22.86 
 O(Fragment=2)         17.74     18.34     17.66 
 H(Fragment=2)         17.15     17.73     18.09 
 H(Fragment=2)         18.52     18.36     18.22 
 O(Fragment=2)         18.01     22.56     20.86 
 H(Fragment=2)         18.87     22.44     21.25 
 H(Fragment=2)         17.61     21.68     20.87 
 O(Fragment=2)         17.21     21.74     18.45 
 H(Fragment=2)         17.59     20.87     18.3 
 H(Fragment=2)         17.78     22.13     19.12 
 O(Fragment=2)         21.9      23.31     20.78 
 H(Fragment=2)         22.61     23.65     20.24 
 H(Fragment=2)         21.3      22.9      20.16 
 O(Fragment=2)         23.66     21.17     18.47 
 H(Fragment=2)         23.47     20.96     17.55 
 H(Fragment=2)         22.88     20.88     18.94 
 O(Fragment=2)         24.01     18.37     20.28 
 H(Fragment=2)         23.46     18.93     19.73 
 H(Fragment=2)         24.69     18.96     20.61 
 O(Fragment=2)         20.23     22.73     22.99 
 H(Fragment=2)         20.79     22.79     22.22 
 H(Fragment=2)         20.75     22.22     23.62 
 O(Fragment=2)         23.86     21.32     22.07 
 H(Fragment=2)         23.02     21.31     21.61 
 H(Fragment=2)         23.78     22.03     22.7 
 O(Fragment=2)         20.36     23.44     18.47 
 H(Fragment=2)         19.93     23.1      17.68 
 H(Fragment=2)         20.22     24.39     18.43 
 O(Fragment=2)         21.67     21.23     16.26 
 H(Fragment=2)         22.38     21.87     16.25 
 H(Fragment=2)         20.94     21.69     16.66 
 O(Fragment=2)         19.94     17.67     15.39 
 H(Fragment=2)         20.17     17.93     16.28 
 H(Fragment=2)         20.45     18.24     14.82 
 O(Fragment=2)         17.83     20.34     15.58 
 H(Fragment=2)         17.72     19.66     16.25 
 H(Fragment=2)         18.33     19.91     14.89 
 O(Fragment=2)         22.44     17.71     17.1 
 H(Fragment=2)         22.11     16.9      17.48 
 H(Fragment=2)         23.12     17.43     16.49 
 O(Fragment=2)         19.19     22.67     16.24 
 H(Fragment=2)         19.14     22.94     15.33 
 H(Fragment=2)         18.42     22.12     16.38 
 O(Fragment=2)         18.51     15.7      19.97 
 H(Fragment=2)         17.57     15.57     19.92 
 H(Fragment=2)         18.86     14.86     20.25 
 O(Fragment=2)         14.77     21.45     20.05 
 H(Fragment=2)         15.6      21.56     19.58 
 H(Fragment=2)         14.39     22.33     20.08 
 O(Fragment=2)         16.22     17.26     22.09 
 H(Fragment=2)         15.66     17.02     22.83 
 H(Fragment=2)         17.11     17.24     22.45 
 O(Fragment=2)         21.79     14.57     19.74 
 H(Fragment=2)         21.53     15.48     19.61 
 H(Fragment=2)         22.56     14.46     19.18 
 O(Fragment=2)         23.78     18.06     24.11 
 H(Fragment=2)         23.1      18.24     23.46 
 H(Fragment=2)         23.42     18.4      24.93 
 O(Fragment=2)         15.71     20.38     22.58 
 H(Fragment=2)         15.27     21.02     22.02 
 H(Fragment=2)         15.18     19.59     22.51 
 O(Fragment=2)         15.72     16.86     19.39 
 H(Fragment=2)         15.92     16.98     20.32 
 H(Fragment=2)         15.25     17.66     19.15 
 O(Fragment=2)         24.12     19.76     15.75 
 H(Fragment=2)         23.25     20.09     15.94 
 H(Fragment=2)         24.04     18.81     15.8 
 O(Fragment=2)         19.57     14.65     17.44 
 H(Fragment=2)         20.16     14.41     18.16 
 H(Fragment=2)         19.03     15.35     17.8 
 O(Fragment=2)         21.48     25.78     19.85 
 H(Fragment=2)         22.34     26.21     19.89 
 H(Fragment=2)         21.54     25.08     20.5 
 O(Fragment=2)         16.43     19.8      25.11 
 H(Fragment=2)         15.57     20.22     25.17 
 H(Fragment=2)         16.74     20.01     24.23 
 O(Fragment=2)         18.38     24.78     23.49 
 H(Fragment=2)         17.66     24.27     23.88 
 H(Fragment=2)         19.05     24.13     23.29 
 O(Fragment=2)         24.18     23.91     19.11 
 H(Fragment=2)         24.95     23.86     19.67 
 H(Fragment=2)         24.19     23.1      18.6 
 O(Fragment=2)         17.61     16.88     24.86 
 H(Fragment=2)         18.31     16.34     25.23 
 H(Fragment=2)         18.06     17.62     24.46 
 O(Fragment=2)         16.54     25.26     19.52 
 H(Fragment=2)         17.07     24.53     19.19 
 H(Fragment=2)         16.46     25.86     18.78 
 
 NAtoms=     97 NQM=       97 NQMF=       0 NMMI=      0 NMMIF=      0
                NMic=       0 NMicF=      0.
                    Isotopes and Nuclear Properties:
 (Nuclear quadrupole moments (NQMom) in fm**2, nuclear magnetic moments (NMagM)
  in nuclear magnetons)

  Atom         1           2           3           4           5           6           7           8           9          10
 IAtWgt=          79          16           1           1          16           1           1          16           1           1
 AtmWgt=  78.9183361  15.9949146   1.0078250   1.0078250  15.9949146   1.0078250   1.0078250  15.9949146   1.0078250   1.0078250
 NucSpn=           3           0           1           1           0           1           1           0           1           1
 AtZEff=   0.0000000   0.0000000   0.0000000   0.0000000   0.0000000   0.0000000   0.0000000   0.0000000   0.0000000   0.0000000
 NQMom=   31.3000000   0.0000000   0.0000000   0.0000000   0.0000000   0.0000000   0.0000000   0.0000000   0.0000000   0.0000000
 NMagM=    2.1063990   0.0000000   2.7928460   2.7928460   0.0000000   2.7928460   2.7928460   0.0000000   2.7928460   2.7928460
 AtZNuc=  35.0000000   8.0000000   1.0000000   1.0000000   8.0000000   1.0000000   1.0000000   8.0000000   1.0000000   1.0000000

  Atom        11          12          13          14          15          16          17          18          19          20
 IAtWgt=          16           1           1          16           1           1          16           1           1          16
 AtmWgt=  15.9949146   1.0078250   1.0078250  15.9949146   1.0078250   1.0078250  15.9949146   1.0078250   1.0078250  15.9949146
 NucSpn=           0           1           1           0           1           1           0           1           1           0
 AtZEff=   0.0000000   0.0000000   0.0000000   0.0000000   0.0000000   0.0000000   0.0000000   0.0000000   0.0000000   0.0000000
 NQMom=    0.0000000   0.0000000   0.0000000   0.0000000   0.0000000   0.0000000   0.0000000   0.0000000   0.0000000   0.0000000
 NMagM=    0.0000000   2.7928460   2.7928460   0.0000000   2.7928460   2.7928460   0.0000000   2.7928460   2.7928460   0.0000000
 AtZNuc=   8.0000000   1.0000000   1.0000000   8.0000000   1.0000000   1.0000000   8.0000000   1.0000000   1.0000000   8.0000000

  Atom        21          22          23          24          25          26          27          28          29          30
 IAtWgt=           1           1          16           1           1          16           1           1          16           1
 AtmWgt=   1.0078250   1.0078250  15.9949146   1.0078250   1.0078250  15.9949146   1.0078250   1.0078250  15.9949146   1.0078250
 NucSpn=           1           1           0           1           1           0           1           1           0           1
 AtZEff=   0.0000000   0.0000000   0.0000000   0.0000000   0.0000000   0.0000000   0.0000000   0.0000000   0.0000000   0.0000000
 NQMom=    0.0000000   0.0000000   0.0000000   0.0000000   0.0000000   0.0000000   0.0000000   0.0000000   0.0000000   0.0000000
 NMagM=    2.7928460   2.7928460   0.0000000   2.7928460   2.7928460   0.0000000   2.7928460   2.7928460   0.0000000   2.7928460
 AtZNuc=   1.0000000   1.0000000   8.0000000   1.0000000   1.0000000   8.0000000   1.0000000   1.0000000   8.0000000   1.0000000

  Atom        31          32          33          34          35          36          37          38          39          40
 IAtWgt=           1          16           1           1          16           1           1          16           1           1
 AtmWgt=   1.0078250  15.9949146   1.0078250   1.0078250  15.9949146   1.0078250   1.0078250  15.9949146   1.0078250   1.0078250
 NucSpn=           1           0           1           1           0           1           1           0           1           1
 AtZEff=   0.0000000   0.0000000   0.0000000   0.0000000   0.0000000   0.0000000   0.0000000   0.0000000   0.0000000   0.0000000
 NQMom=    0.0000000   0.0000000   0.0000000   0.0000000   0.0000000   0.0000000   0.0000000   0.0000000   0.0000000   0.0000000
 NMagM=    2.7928460   0.0000000   2.7928460   2.7928460   0.0000000   2.7928460   2.7928460   0.0000000   2.7928460   2.7928460
 AtZNuc=   1.0000000   8.0000000   1.0000000   1.0000000   8.0000000   1.0000000   1.0000000   8.0000000   1.0000000   1.0000000

  Atom        41          42          43          44          45          46          47          48          49          50
 IAtWgt=          16           1           1          16           1           1          16           1           1          16
 AtmWgt=  15.9949146   1.0078250   1.0078250  15.9949146   1.0078250   1.0078250  15.9949146   1.0078250   1.0078250  15.9949146
 NucSpn=           0           1           1           0           1           1           0           1           1           0
 AtZEff=   0.0000000   0.0000000   0.0000000   0.0000000   0.0000000   0.0000000   0.0000000   0.0000000   0.0000000   0.0000000
 NQMom=    0.0000000   0.0000000   0.0000000   0.0000000   0.0000000   0.0000000   0.0000000   0.0000000   0.0000000   0.0000000
 NMagM=    0.0000000   2.7928460   2.7928460   0.0000000   2.7928460   2.7928460   0.0000000   2.7928460   2.7928460   0.0000000
 AtZNuc=   8.0000000   1.0000000   1.0000000   8.0000000   1.0000000   1.0000000   8.0000000   1.0000000   1.0000000   8.0000000

  Atom        51          52          53          54          55          56          57          58          59          60
 IAtWgt=           1           1          16           1           1          16           1           1          16           1
 AtmWgt=   1.0078250   1.0078250  15.9949146   1.0078250   1.0078250  15.9949146   1.0078250   1.0078250  15.9949146   1.0078250
 NucSpn=           1           1           0           1           1           0           1           1           0           1
 AtZEff=   0.0000000   0.0000000   0.0000000   0.0000000   0.0000000   0.0000000   0.0000000   0.0000000   0.0000000   0.0000000
 NQMom=    0.0000000   0.0000000   0.0000000   0.0000000   0.0000000   0.0000000   0.0000000   0.0000000   0.0000000   0.0000000
 NMagM=    2.7928460   2.7928460   0.0000000   2.7928460   2.7928460   0.0000000   2.7928460   2.7928460   0.0000000   2.7928460
 AtZNuc=   1.0000000   1.0000000   8.0000000   1.0000000   1.0000000   8.0000000   1.0000000   1.0000000   8.0000000   1.0000000

  Atom        61          62          63          64          65          66          67          68          69          70
 IAtWgt=           1          16           1           1          16           1           1          16           1           1
 AtmWgt=   1.0078250  15.9949146   1.0078250   1.0078250  15.9949146   1.0078250   1.0078250  15.9949146   1.0078250   1.0078250
 NucSpn=           1           0           1           1           0           1           1           0           1           1
 AtZEff=   0.0000000   0.0000000   0.0000000   0.0000000   0.0000000   0.0000000   0.0000000   0.0000000   0.0000000   0.0000000
 NQMom=    0.0000000   0.0000000   0.0000000   0.0000000   0.0000000   0.0000000   0.0000000   0.0000000   0.0000000   0.0000000
 NMagM=    2.7928460   0.0000000   2.7928460   2.7928460   0.0000000   2.7928460   2.7928460   0.0000000   2.7928460   2.7928460
 AtZNuc=   1.0000000   8.0000000   1.0000000   1.0000000   8.0000000   1.0000000   1.0000000   8.0000000   1.0000000   1.0000000

  Atom        71          72          73          74          75          76          77          78          79          80
 IAtWgt=          16           1           1          16           1           1          16           1           1          16
 AtmWgt=  15.9949146   1.0078250   1.0078250  15.9949146   1.0078250   1.0078250  15.9949146   1.0078250   1.0078250  15.9949146
 NucSpn=           0           1           1           0           1           1           0           1           1           0
 AtZEff=   0.0000000   0.0000000   0.0000000   0.0000000   0.0000000   0.0000000   0.0000000   0.0000000   0.0000000   0.0000000
 NQMom=    0.0000000   0.0000000   0.0000000   0.0000000   0.0000000   0.0000000   0.0000000   0.0000000   0.0000000   0.0000000
 NMagM=    0.0000000   2.7928460   2.7928460   0.0000000   2.7928460   2.7928460   0.0000000   2.7928460   2.7928460   0.0000000
 AtZNuc=   8.0000000   1.0000000   1.0000000   8.0000000   1.0000000   1.0000000   8.0000000   1.0000000   1.0000000   8.0000000

  Atom        81          82          83          84          85          86          87          88          89          90
 IAtWgt=           1           1          16           1           1          16           1           1          16           1
 AtmWgt=   1.0078250   1.0078250  15.9949146   1.0078250   1.0078250  15.9949146   1.0078250   1.0078250  15.9949146   1.0078250
 NucSpn=           1           1           0           1           1           0           1           1           0           1
 AtZEff=   0.0000000   0.0000000   0.0000000   0.0000000   0.0000000   0.0000000   0.0000000   0.0000000   0.0000000   0.0000000
 NQMom=    0.0000000   0.0000000   0.0000000   0.0000000   0.0000000   0.0000000   0.0000000   0.0000000   0.0000000   0.0000000
 NMagM=    2.7928460   2.7928460   0.0000000   2.7928460   2.7928460   0.0000000   2.7928460   2.7928460   0.0000000   2.7928460
 AtZNuc=   1.0000000   1.0000000   8.0000000   1.0000000   1.0000000   8.0000000   1.0000000   1.0000000   8.0000000   1.0000000

  Atom        91          92          93          94          95          96          97
 IAtWgt=           1          16           1           1          16           1           1
 AtmWgt=   1.0078250  15.9949146   1.0078250   1.0078250  15.9949146   1.0078250   1.0078250
 NucSpn=           1           0           1           1           0           1           1
 AtZEff=   0.0000000   0.0000000   0.0000000   0.0000000   0.0000000   0.0000000   0.0000000
 NQMom=    0.0000000   0.0000000   0.0000000   0.0000000   0.0000000   0.0000000   0.0000000
 NMagM=    2.7928460   0.0000000   2.7928460   2.7928460   0.0000000   2.7928460   2.7928460
 AtZNuc=   1.0000000   8.0000000   1.0000000   1.0000000   8.0000000   1.0000000   1.0000000
 Leave Link  101 at Thu May  3 12:57:30 2018, MaxMem= 14763950080 cpu:        15.0
 (Enter /cm/shared/gaussian/g09.e01/intel64-sandybridge/g09/l103.exe)

 GradGradGradGradGradGradGradGradGradGradGradGradGradGradGradGradGradGrad
 Berny optimization.
 Initialization pass.
 Trust Radius=3.00D-01 FncErr=1.00D-07 GrdErr=1.00D-07
 Number of steps in this run=      2 maximum allowed number of steps=      2.
 GradGradGradGradGradGradGradGradGradGradGradGradGradGradGradGradGradGrad

 Leave Link  103 at Thu May  3 12:57:30 2018, MaxMem= 14763950080 cpu:         2.3
 (Enter /cm/shared/gaussian/g09.e01/intel64-sandybridge/g09/l202.exe)
 Symmetry turned off by external request.
 Stoichiometry    BrH64O32(1-)
 Framework group  C1[X(BrH64O32)]
 Deg. of freedom   285
 Full point group                 C1      NOp   1
                          Input orientation:                          
 ---------------------------------------------------------------------
 Center     Atomic      Atomic             Coordinates (Angstroms)
 Number     Number       Type             X           Y           Z
 ---------------------------------------------------------------------
      1         35           0       20.000000   20.000000   20.000000
      2          8           0       21.790000   17.950000   22.000000
      3          1           0       21.330000   18.500000   21.360000
      4          1           0       22.580000   17.660000   21.540000
      5          8           0       20.850000   17.090000   19.310000
      6          1           0       19.980000   17.170000   19.720000
      7          1           0       21.010000   17.950000   18.930000
      8          8           0       18.990000   18.720000   23.040000
      9          1           0       18.820000   19.360000   22.350000
     10          1           0       19.870000   18.400000   22.860000
     11          8           0       17.740000   18.340000   17.660000
     12          1           0       17.150000   17.730000   18.090000
     13          1           0       18.520000   18.360000   18.220000
     14          8           0       18.010000   22.560000   20.860000
     15          1           0       18.870000   22.440000   21.250000
     16          1           0       17.610000   21.680000   20.870000
     17          8           0       17.210000   21.740000   18.450000
     18          1           0       17.590000   20.870000   18.300000
     19          1           0       17.780000   22.130000   19.120000
     20          8           0       21.900000   23.310000   20.780000
     21          1           0       22.610000   23.650000   20.240000
     22          1           0       21.300000   22.900000   20.160000
     23          8           0       23.660000   21.170000   18.470000
     24          1           0       23.470000   20.960000   17.550000
     25          1           0       22.880000   20.880000   18.940000
     26          8           0       24.010000   18.370000   20.280000
     27          1           0       23.460000   18.930000   19.730000
     28          1           0       24.690000   18.960000   20.610000
     29          8           0       20.230000   22.730000   22.990000
     30          1           0       20.790000   22.790000   22.220000
     31          1           0       20.750000   22.220000   23.620000
     32          8           0       23.860000   21.320000   22.070000
     33          1           0       23.020000   21.310000   21.610000
     34          1           0       23.780000   22.030000   22.700000
     35          8           0       20.360000   23.440000   18.470000
     36          1           0       19.930000   23.100000   17.680000
     37          1           0       20.220000   24.390000   18.430000
     38          8           0       21.670000   21.230000   16.260000
     39          1           0       22.380000   21.870000   16.250000
     40          1           0       20.940000   21.690000   16.660000
     41          8           0       19.940000   17.670000   15.390000
     42          1           0       20.170000   17.930000   16.280000
     43          1           0       20.450000   18.240000   14.820000
     44          8           0       17.830000   20.340000   15.580000
     45          1           0       17.720000   19.660000   16.250000
     46          1           0       18.330000   19.910000   14.890000
     47          8           0       22.440000   17.710000   17.100000
     48          1           0       22.110000   16.900000   17.480000
     49          1           0       23.120000   17.430000   16.490000
     50          8           0       19.190000   22.670000   16.240000
     51          1           0       19.140000   22.940000   15.330000
     52          1           0       18.420000   22.120000   16.380000
     53          8           0       18.510000   15.700000   19.970000
     54          1           0       17.570000   15.570000   19.920000
     55          1           0       18.860000   14.860000   20.250000
     56          8           0       14.770000   21.450000   20.050000
     57          1           0       15.600000   21.560000   19.580000
     58          1           0       14.390000   22.330000   20.080000
     59          8           0       16.220000   17.260000   22.090000
     60          1           0       15.660000   17.020000   22.830000
     61          1           0       17.110000   17.240000   22.450000
     62          8           0       21.790000   14.570000   19.740000
     63          1           0       21.530000   15.480000   19.610000
     64          1           0       22.560000   14.460000   19.180000
     65          8           0       23.780000   18.060000   24.110000
     66          1           0       23.100000   18.240000   23.460000
     67          1           0       23.420000   18.400000   24.930000
     68          8           0       15.710000   20.380000   22.580000
     69          1           0       15.270000   21.020000   22.020000
     70          1           0       15.180000   19.590000   22.510000
     71          8           0       15.720000   16.860000   19.390000
     72          1           0       15.920000   16.980000   20.320000
     73          1           0       15.250000   17.660000   19.150000
     74          8           0       24.120000   19.760000   15.750000
     75          1           0       23.250000   20.090000   15.940000
     76          1           0       24.040000   18.810000   15.800000
     77          8           0       19.570000   14.650000   17.440000
     78          1           0       20.160000   14.410000   18.160000
     79          1           0       19.030000   15.350000   17.800000
     80          8           0       21.480000   25.780000   19.850000
     81          1           0       22.340000   26.210000   19.890000
     82          1           0       21.540000   25.080000   20.500000
     83          8           0       16.430000   19.800000   25.110000
     84          1           0       15.570000   20.220000   25.170000
     85          1           0       16.740000   20.010000   24.230000
     86          8           0       18.380000   24.780000   23.490000
     87          1           0       17.660000   24.270000   23.880000
     88          1           0       19.050000   24.130000   23.290000
     89          8           0       24.180000   23.910000   19.110000
     90          1           0       24.950000   23.860000   19.670000
     91          1           0       24.190000   23.100000   18.600000
     92          8           0       17.610000   16.880000   24.860000
     93          1           0       18.310000   16.340000   25.230000
     94          1           0       18.060000   17.620000   24.460000
     95          8           0       16.540000   25.260000   19.520000
     96          1           0       17.070000   24.530000   19.190000
     97          1           0       16.460000   25.860000   18.780000
 ---------------------------------------------------------------------
 Rotational constants (GHZ):      0.0581706      0.0573341      0.0486355
 Leave Link  202 at Thu May  3 12:57:30 2018, MaxMem= 14763950080 cpu:         0.6
 (Enter /cm/shared/gaussian/g09.e01/intel64-sandybridge/g09/l122.exe)
 Counterpoise: doing full dimer calculation.
 Leave Link  122 at Thu May  3 12:57:30 2018, MaxMem= 14763950080 cpu:         0.0
 (Enter /cm/shared/gaussian/g09.e01/intel64-sandybridge/g09/l301.exe)
 Standard basis: CC-pVDZ (5D, 7F)
 Ernie: Thresh=  0.10000D-02 Tol=  0.10000D-05 Strict=F.
 Ernie:  87 primitive shells out of 1114 were deleted.
   795 basis functions,  1651 primitive gaussians,   829 cartesian basis functions
   178 alpha electrons      178 beta electrons
       nuclear repulsion energy      6100.2619685215 Hartrees.
 IExCor= 1009 DFT=T Ex+Corr=PBE1PBE ExCW=0 ScaHFX=  0.250000
 ScaDFX=  0.750000  0.750000  1.000000  1.000000 ScalE2=  1.000000  1.000000
 IRadAn=      0 IRanWt=     -1 IRanGd=            0 ICorTp=0 IEmpDi=  4
 NAtoms=   97 NActive=   97 NUniq=   97 SFac= 1.00D+00 NAtFMM=   60 NAOKFM=T Big=T
 Integral buffers will be    131072 words long.
 Raffenetti 2 integral format.
 Two-electron integral symmetry is turned off.
 Leave Link  301 at Thu May  3 12:57:30 2018, MaxMem= 14763950080 cpu:         6.4
 (Enter /cm/shared/gaussian/g09.e01/intel64-sandybridge/g09/l302.exe)
 NPDir=0 NMtPBC=     1 NCelOv=     1 NCel=       1 NClECP=     1 NCelD=      1
         NCelK=      1 NCelE2=     1 NClLst=     1 CellRange=     0.0.
 One-electron integrals computed using PRISM.
 NBasis=   795 RedAO= T EigKep=  1.50D-02  NBF=   795
 NBsUse=   795 1.00D-06 EigRej= -1.00D+00 NBFU=   795
 Precomputing XC quadrature grid using
 IXCGrd= 4 IRadAn=           0 IRanWt=          -1 IRanGd=           0 AccXCQ= 0.00D+00.
 Generated NRdTot=       0 NPtTot=           0 NUsed=           0 NTot=          32
 NSgBfM=   723   728   737   737   737 MxSgAt=    97 MxSgA2=    97.
 Leave Link  302 at Thu May  3 12:57:37 2018, MaxMem= 14763950080 cpu:       436.3
 (Enter /cm/shared/gaussian/g09.e01/intel64-sandybridge/g09/l303.exe)
 DipDrv:  MaxL=1.
 Leave Link  303 at Thu May  3 12:57:38 2018, MaxMem= 14763950080 cpu:        30.9
 (Enter /cm/shared/gaussian/g09.e01/intel64-sandybridge/g09/l401.exe)
 ExpMin= 1.22D-01 ExpMax= 6.40D+05 ExpMxC= 6.18D+03 IAcc=2 IRadAn=         4 AccDes= 0.00D+00
 Harris functional with IExCor= 1009 and IRadAn=       4 diagonalized for initial guess.
 HarFok:  IExCor= 1009 AccDes= 0.00D+00 IRadAn=         4 IDoV= 1 UseB2=F ITyADJ=14
 ICtDFT=  3500011 ScaDFX=  1.000000  1.000000  1.000000  1.000000
 FoFCou: FMM=F IPFlag=           0 FMFlag=      100000 FMFlg1=        2001
         NFxFlg=           0 DoJE=T BraDBF=F KetDBF=T FulRan=T
         wScrn=  0.000000 ICntrl=     500 IOpCl=  0 I1Cent=   200000004 NGrid=           0
         NMat0=    1 NMatS0=      1 NMatT0=    0 NMatD0=    1 NMtDS0=    0 NMtDT0=    0
 Symmetry not used in FoFCou.
 Harris En= -5018.42074134246    
 JPrj=0 DoOrth=F DoCkMO=F.
 Leave Link  401 at Thu May  3 12:57:43 2018, MaxMem= 14763950080 cpu:       331.3
 (Enter /cm/shared/gaussian/g09.e01/intel64-sandybridge/g09/l502.exe)
 Closed shell SCF:
 Using DIIS extrapolation, IDIIS=  1040.
 Two-electron integral symmetry not used.
 IVT=     2138497 IEndB=     2138497 NGot= 14763950080 MDV= 14762516294
 LenX= 14762516294 LenY= 14761828224
 Requested convergence on RMS density matrix=1.00D-08 within 128 cycles.
 Requested convergence on MAX density matrix=1.00D-06.
 Requested convergence on             energy=1.00D-06.
 No special actions if energy rises.
 Fock matrices will be formed incrementally for  20 cycles.
 Integral accuracy reduced to 1.0D-05 until final iterations.

 Cycle   1  Pass 0  IDiag  1:
 FoFJK:  IHMeth= 1 ICntrl=       0 DoSepK=F KAlg= 0 I1Cent=   0 FoldK=F
 IRaf= 820000000 NMat=   1 IRICut=       1 DoRegI=T DoRafI=F ISym2E= 0.
 FoFCou: FMM=T IPFlag=           0 FMFlag=      100000 FMFlg1=        2001
         NFxFlg=           0 DoJE=F BraDBF=F KetDBF=F FulRan=T
         wScrn=  0.000000 ICntrl=       0 IOpCl=  0 I1Cent=           0 NGrid=           0
         NMat0=    1 NMatS0=      1 NMatT0=    0 NMatD0=    1 NMtDS0=    0 NMtDT0=    0
 Symmetry not used in FoFCou.
 FMM levels:  10  Number of levels for PrismC:   9
 E= -5015.31794600684    
 DIIS: error= 3.29D-02 at cycle   1 NSaved=   1.
 NSaved= 1 IEnMin= 1 EnMin= -5015.31794600684     IErMin= 1 ErrMin= 3.29D-02
 ErrMax= 3.29D-02  0.00D+00 EMaxC= 1.00D-01 BMatC= 2.70D+00 BMatP= 2.70D+00
 IDIUse=3 WtCom= 6.71D-01 WtEn= 3.29D-01
 Coeff-Com:  0.100D+01
 Coeff-En:   0.100D+01
 Coeff:      0.100D+01
 Gap=     0.263 Goal=   None    Shift=    0.000
 GapD=    0.263 DampG=1.000 DampE=0.500 DampFc=0.5000 IDamp=-1.
 Damping current iteration by 5.00D-01
 RMSDP=2.83D-03 MaxDP=1.53D-01              OVMax= 1.76D-01

 Cycle   2  Pass 0  IDiag  1:
 RMSU=  1.40D-03    CP:  9.85D-01
 E= -5016.10847981424     Delta-E=       -0.790533807396 Rises=F Damp=T
 DIIS: error= 8.37D-03 at cycle   2 NSaved=   2.
 NSaved= 2 IEnMin= 2 EnMin= -5016.10847981424     IErMin= 2 ErrMin= 8.37D-03
 ErrMax= 8.37D-03  0.00D+00 EMaxC= 1.00D-01 BMatC= 8.63D-02 BMatP= 2.70D+00
 IDIUse=3 WtCom= 9.16D-01 WtEn= 8.37D-02
 Coeff-Com:  0.120D+00 0.880D+00
 Coeff-En:   0.213D+00 0.787D+00
 Coeff:      0.128D+00 0.872D+00
 Gap=     0.240 Goal=   None    Shift=    0.000
 RMSDP=3.43D-04 MaxDP=1.85D-02 DE=-7.91D-01 OVMax= 9.71D-02

 Cycle   3  Pass 0  IDiag  1:
 RMSU=  2.74D-04    CP:  9.87D-01  8.54D-01
 E= -5017.25214895536     Delta-E=       -1.143669141122 Rises=F Damp=F
 DIIS: error= 8.32D-04 at cycle   3 NSaved=   3.
 NSaved= 3 IEnMin= 3 EnMin= -5017.25214895536     IErMin= 3 ErrMin= 8.32D-04
 ErrMax= 8.32D-04  0.00D+00 EMaxC= 1.00D-01 BMatC= 1.59D-03 BMatP= 8.63D-02
 IDIUse=3 WtCom= 9.92D-01 WtEn= 8.32D-03
 Coeff-Com:  0.978D-02 0.594D-01 0.931D+00
 Coeff-En:   0.000D+00 0.000D+00 0.100D+01
 Coeff:      0.970D-02 0.589D-01 0.931D+00
 Gap=     0.248 Goal=   None    Shift=    0.000
 RMSDP=9.80D-05 MaxDP=1.64D-02 DE=-1.14D+00 OVMax= 2.08D-02

 Cycle   4  Pass 0  IDiag  1:
 RMSU=  8.45D-05    CP:  9.87D-01  8.52D-01  8.19D-01
 E= -5017.25253203953     Delta-E=       -0.000383084169 Rises=F Damp=F
 DIIS: error= 1.14D-03 at cycle   4 NSaved=   4.
 NSaved= 4 IEnMin= 4 EnMin= -5017.25253203953     IErMin= 3 ErrMin= 8.32D-04
 ErrMax= 1.14D-03  0.00D+00 EMaxC= 1.00D-01 BMatC= 1.60D-03 BMatP= 1.59D-03
 IDIUse=3 WtCom= 9.89D-01 WtEn= 1.14D-02
 Coeff-Com:  0.284D-02 0.699D-02 0.499D+00 0.491D+00
 Coeff-En:   0.000D+00 0.000D+00 0.435D+00 0.565D+00
 Coeff:      0.280D-02 0.691D-02 0.498D+00 0.492D+00
 Gap=     0.239 Goal=   None    Shift=    0.000
 RMSDP=4.20D-05 MaxDP=6.41D-03 DE=-3.83D-04 OVMax= 7.37D-03

 Cycle   5  Pass 0  IDiag  1:
 RMSU=  1.50D-05    CP:  9.87D-01  8.51D-01  8.87D-01  5.92D-01
 E= -5017.25386183658     Delta-E=       -0.001329797049 Rises=F Damp=F
 DIIS: error= 1.16D-04 at cycle   5 NSaved=   5.
 NSaved= 5 IEnMin= 5 EnMin= -5017.25386183658     IErMin= 5 ErrMin= 1.16D-04
 ErrMax= 1.16D-04  0.00D+00 EMaxC= 1.00D-01 BMatC= 3.08D-05 BMatP= 1.59D-03
 IDIUse=3 WtCom= 9.99D-01 WtEn= 1.16D-03
 Coeff-Com:  0.927D-03-0.127D-02 0.141D+00 0.171D+00 0.688D+00
 Coeff-En:   0.000D+00 0.000D+00 0.000D+00 0.000D+00 0.100D+01
 Coeff:      0.926D-03-0.127D-02 0.141D+00 0.171D+00 0.688D+00
 Gap=     0.236 Goal=   None    Shift=    0.000
 RMSDP=8.01D-06 MaxDP=1.28D-03 DE=-1.33D-03 OVMax= 1.55D-03

 Cycle   6  Pass 0  IDiag  1:
 RMSU=  5.24D-06    CP:  9.87D-01  8.51D-01  8.99D-01  5.65D-01  6.91D-01
 E= -5017.25388524991     Delta-E=       -0.000023413337 Rises=F Damp=F
 DIIS: error= 1.08D-04 at cycle   6 NSaved=   6.
 NSaved= 6 IEnMin= 6 EnMin= -5017.25388524991     IErMin= 6 ErrMin= 1.08D-04
 ErrMax= 1.08D-04  0.00D+00 EMaxC= 1.00D-01 BMatC= 4.57D-06 BMatP= 3.08D-05
 IDIUse=3 WtCom= 9.99D-01 WtEn= 1.08D-03
 Coeff-Com:  0.192D-03-0.197D-02 0.329D-01 0.410D-01 0.305D+00 0.622D+00
 Coeff-En:   0.000D+00 0.000D+00 0.000D+00 0.000D+00 0.000D+00 0.100D+01
 Coeff:      0.192D-03-0.196D-02 0.329D-01 0.410D-01 0.305D+00 0.623D+00
 Gap=     0.236 Goal=   None    Shift=    0.000
 RMSDP=2.55D-06 MaxDP=4.97D-04 DE=-2.34D-05 OVMax= 4.92D-04

 Initial convergence to 1.0D-05 achieved.  Increase integral accuracy.
 Cycle   7  Pass 1  IDiag  1:
 E= -5017.25473235927     Delta-E=       -0.000847109361 Rises=F Damp=F
 DIIS: error= 3.11D-05 at cycle   1 NSaved=   1.
 NSaved= 1 IEnMin= 1 EnMin= -5017.25473235927     IErMin= 1 ErrMin= 3.11D-05
 ErrMax= 3.11D-05  0.00D+00 EMaxC= 1.00D-01 BMatC= 1.63D-06 BMatP= 1.63D-06
 IDIUse=1 WtCom= 1.00D+00 WtEn= 0.00D+00
 Coeff-Com:  0.100D+01
 Coeff:      0.100D+01
 Gap=     0.236 Goal=   None    Shift=    0.000
 RMSDP=2.55D-06 MaxDP=4.97D-04 DE=-8.47D-04 OVMax= 4.31D-04

 Cycle   8  Pass 1  IDiag  1:
 RMSU=  4.82D-06    CP:  1.00D+00
 E= -5017.25473412843     Delta-E=       -0.000001769153 Rises=F Damp=F
 DIIS: error= 1.41D-05 at cycle   2 NSaved=   2.
 NSaved= 2 IEnMin= 2 EnMin= -5017.25473412843     IErMin= 2 ErrMin= 1.41D-05
 ErrMax= 1.41D-05  0.00D+00 EMaxC= 1.00D-01 BMatC= 2.25D-07 BMatP= 1.63D-06
 IDIUse=1 WtCom= 1.00D+00 WtEn= 0.00D+00
 Coeff-Com:  0.172D+00 0.828D+00
 Coeff:      0.172D+00 0.828D+00
 Gap=     0.236 Goal=   None    Shift=    0.000
 RMSDP=7.99D-07 MaxDP=9.75D-05 DE=-1.77D-06 OVMax= 1.06D-04

 Cycle   9  Pass 1  IDiag  1:
 RMSU=  7.99D-07    CP:  1.00D+00  1.00D+00
 E= -5017.25473416164     Delta-E=       -0.000000033213 Rises=F Damp=F
 DIIS: error= 1.28D-05 at cycle   3 NSaved=   3.
 NSaved= 3 IEnMin= 3 EnMin= -5017.25473416164     IErMin= 3 ErrMin= 1.28D-05
 ErrMax= 1.28D-05  0.00D+00 EMaxC= 1.00D-01 BMatC= 1.94D-07 BMatP= 2.25D-07
 IDIUse=1 WtCom= 1.00D+00 WtEn= 0.00D+00
 Coeff-Com: -0.763D-02 0.482D+00 0.525D+00
 Coeff:     -0.763D-02 0.482D+00 0.525D+00
 Gap=     0.236 Goal=   None    Shift=    0.000
 RMSDP=3.64D-07 MaxDP=5.39D-05 DE=-3.32D-08 OVMax= 4.74D-05

 Cycle  10  Pass 1  IDiag  1:
 RMSU=  1.34D-07    CP:  1.00D+00  1.02D+00  5.90D-01
 E= -5017.25473430213     Delta-E=       -0.000000140493 Rises=F Damp=F
 DIIS: error= 1.78D-06 at cycle   4 NSaved=   4.
 NSaved= 4 IEnMin= 4 EnMin= -5017.25473430213     IErMin= 4 ErrMin= 1.78D-06
 ErrMax= 1.78D-06  0.00D+00 EMaxC= 1.00D-01 BMatC= 1.65D-09 BMatP= 1.94D-07
 IDIUse=1 WtCom= 1.00D+00 WtEn= 0.00D+00
 Coeff-Com: -0.577D-02 0.196D+00 0.228D+00 0.581D+00
 Coeff:     -0.577D-02 0.196D+00 0.228D+00 0.581D+00
 Gap=     0.236 Goal=   None    Shift=    0.000
 RMSDP=5.41D-08 MaxDP=1.01D-05 DE=-1.40D-07 OVMax= 1.15D-05

 Cycle  11  Pass 1  IDiag  1:
 RMSU=  4.04D-08    CP:  1.00D+00  1.02D+00  5.79D-01  7.46D-01
 E= -5017.25473430364     Delta-E=       -0.000000001508 Rises=F Damp=F
 DIIS: error= 1.90D-07 at cycle   5 NSaved=   5.
 NSaved= 5 IEnMin= 5 EnMin= -5017.25473430364     IErMin= 5 ErrMin= 1.90D-07
 ErrMax= 1.90D-07  0.00D+00 EMaxC= 1.00D-01 BMatC= 7.04D-11 BMatP= 1.65D-09
 IDIUse=1 WtCom= 1.00D+00 WtEn= 0.00D+00
 Coeff-Com: -0.138D-02 0.341D-01 0.422D-01 0.197D+00 0.728D+00
 Coeff:     -0.138D-02 0.341D-01 0.422D-01 0.197D+00 0.728D+00
 Gap=     0.236 Goal=   None    Shift=    0.000
 RMSDP=1.14D-08 MaxDP=1.41D-06 DE=-1.51D-09 OVMax= 1.86D-06

 Cycle  12  Pass 1  IDiag  1:
 RMSU=  9.77D-09    CP:  1.00D+00  1.02D+00  5.81D-01  7.84D-01  9.70D-01
 E= -5017.25473430368     Delta-E=       -0.000000000035 Rises=F Damp=F
 DIIS: error= 8.67D-08 at cycle   6 NSaved=   6.
 NSaved= 6 IEnMin= 6 EnMin= -5017.25473430368     IErMin= 6 ErrMin= 8.67D-08
 ErrMax= 8.67D-08  0.00D+00 EMaxC= 1.00D-01 BMatC= 1.64D-11 BMatP= 7.04D-11
 IDIUse=1 WtCom= 1.00D+00 WtEn= 0.00D+00
 Coeff-Com:  0.299D-04-0.790D-02-0.783D-02 0.242D-01 0.364D+00 0.627D+00
 Coeff:      0.299D-04-0.790D-02-0.783D-02 0.242D-01 0.364D+00 0.627D+00
 Gap=     0.236 Goal=   None    Shift=    0.000
 RMSDP=4.27D-09 MaxDP=4.56D-07 DE=-3.46D-11 OVMax= 6.57D-07

 SCF Done:  E(RPBE1PBE) =  -5017.25473430     A.U. after   12 cycles
            NFock= 12  Conv=0.43D-08     -V/T= 2.0029
 KE= 5.002919090830D+03 PE=-2.417007948557D+04 EE= 8.049643691916D+03
 Leave Link  502 at Thu May  3 13:00:10 2018, MaxMem= 14763950080 cpu:      9333.7
 (Enter /cm/shared/gaussian/g09.e01/intel64-sandybridge/g09/l601.exe)
 Copying SCF densities to generalized density rwf, IOpCl= 0 IROHF=0.

 **********************************************************************

            Population analysis using the SCF density.

 **********************************************************************

 Alpha  occ. eigenvalues -- -483.11892 -62.52128 -56.29377 -56.29373 -56.29358
 Alpha  occ. eigenvalues --  -19.15273 -19.14946 -19.14675 -19.14611 -19.14455
 Alpha  occ. eigenvalues --  -19.14262 -19.13962 -19.13791 -19.13204 -19.13070
 Alpha  occ. eigenvalues --  -19.12863 -19.12862 -19.12718 -19.12401 -19.11970
 Alpha  occ. eigenvalues --  -19.11644 -19.11638 -19.11537 -19.11443 -19.11343
 Alpha  occ. eigenvalues --  -19.11248 -19.11214 -19.11068 -19.10203 -19.10036
 Alpha  occ. eigenvalues --  -19.10026 -19.09894 -19.09779 -19.08641 -19.08260
 Alpha  occ. eigenvalues --  -19.08000 -19.06256  -8.62358  -6.42689  -6.42678
 Alpha  occ. eigenvalues --   -6.42629  -2.50966  -2.50965  -2.50928  -2.50918
 Alpha  occ. eigenvalues --   -2.50906  -0.98292  -0.98061  -0.97544  -0.97383
 Alpha  occ. eigenvalues --   -0.96992  -0.96763  -0.96365  -0.96291  -0.95936
 Alpha  occ. eigenvalues --   -0.95617  -0.95388  -0.95367  -0.95040  -0.94921
 Alpha  occ. eigenvalues --   -0.94700  -0.94339  -0.94118  -0.93877  -0.93830
 Alpha  occ. eigenvalues --   -0.93796  -0.93648  -0.93641  -0.92688  -0.92639
 Alpha  occ. eigenvalues --   -0.92532  -0.92432  -0.92267  -0.92091  -0.91130
 Alpha  occ. eigenvalues --   -0.90822  -0.90512  -0.88870  -0.61209  -0.50493
 Alpha  occ. eigenvalues --   -0.49333  -0.48372  -0.48273  -0.47812  -0.47220
 Alpha  occ. eigenvalues --   -0.46833  -0.46636  -0.46555  -0.46174  -0.45980
 Alpha  occ. eigenvalues --   -0.45652  -0.45386  -0.45184  -0.45036  -0.44887
 Alpha  occ. eigenvalues --   -0.44838  -0.44760  -0.44708  -0.44495  -0.44390
 Alpha  occ. eigenvalues --   -0.44306  -0.44115  -0.43631  -0.43337  -0.43129
 Alpha  occ. eigenvalues --   -0.42851  -0.42391  -0.41843  -0.41420  -0.40984
 Alpha  occ. eigenvalues --   -0.40412  -0.35763  -0.35147  -0.34965  -0.34860
 Alpha  occ. eigenvalues --   -0.34444  -0.33996  -0.33557  -0.33164  -0.32998
 Alpha  occ. eigenvalues --   -0.32621  -0.32151  -0.31923  -0.31689  -0.31446
 Alpha  occ. eigenvalues --   -0.31310  -0.31184  -0.30705  -0.30485  -0.30056
 Alpha  occ. eigenvalues --   -0.29865  -0.29664  -0.29586  -0.29542  -0.29382
 Alpha  occ. eigenvalues --   -0.29011  -0.28484  -0.28370  -0.28023  -0.27973
 Alpha  occ. eigenvalues --   -0.27030  -0.26486  -0.26173  -0.26082  -0.25814
 Alpha  occ. eigenvalues --   -0.25420  -0.25045  -0.25001  -0.24798  -0.24635
 Alpha  occ. eigenvalues --   -0.24389  -0.24325  -0.24084  -0.23867  -0.23702
 Alpha  occ. eigenvalues --   -0.23676  -0.23319  -0.23224  -0.22927  -0.22526
 Alpha  occ. eigenvalues --   -0.22272  -0.22153  -0.22151  -0.21892  -0.21750
 Alpha  occ. eigenvalues --   -0.21570  -0.21026  -0.20802  -0.20762  -0.20480
 Alpha  occ. eigenvalues --   -0.20346  -0.19541  -0.19226  -0.18974  -0.17262
 Alpha  occ. eigenvalues --   -0.16586  -0.16496  -0.15899
 Alpha virt. eigenvalues --    0.07744   0.10191   0.10720   0.11756   0.12953
 Alpha virt. eigenvalues --    0.13290   0.14127   0.14521   0.14716   0.15501
 Alpha virt. eigenvalues --    0.15980   0.16197   0.16744   0.17392   0.17669
 Alpha virt. eigenvalues --    0.18118   0.18482   0.19036   0.19664   0.19843
 Alpha virt. eigenvalues --    0.20360   0.20495   0.20926   0.21699   0.21872
 Alpha virt. eigenvalues --    0.22350   0.22702   0.23050   0.23458   0.23687
 Alpha virt. eigenvalues --    0.24117   0.24641   0.24747   0.25208   0.26349
 Alpha virt. eigenvalues --    0.26439   0.27177   0.27491   0.27761   0.28576
 Alpha virt. eigenvalues --    0.29045   0.29681   0.29933   0.30106   0.30457
 Alpha virt. eigenvalues --    0.30671   0.30828   0.31528   0.32035   0.32264
 Alpha virt. eigenvalues --    0.32493   0.33377   0.33678   0.34044   0.34604
 Alpha virt. eigenvalues --    0.34975   0.35340   0.35933   0.36394   0.36988
 Alpha virt. eigenvalues --    0.37386   0.38647   0.39045   0.42891   0.59133
 Alpha virt. eigenvalues --    0.60752   0.61264   0.61393   0.61943   0.62264
 Alpha virt. eigenvalues --    0.62615   0.62982   0.63239   0.63460   0.63638
 Alpha virt. eigenvalues --    0.63951   0.64670   0.64903   0.65014   0.65616
 Alpha virt. eigenvalues --    0.65778   0.66270   0.66419   0.66704   0.67230
 Alpha virt. eigenvalues --    0.67470   0.67872   0.68163   0.68543   0.68878
 Alpha virt. eigenvalues --    0.69352   0.69378   0.69847   0.69985   0.70347
 Alpha virt. eigenvalues --    0.70511   0.70586   0.70928   0.71181   0.71447
 Alpha virt. eigenvalues --    0.71577   0.71894   0.71955   0.72377   0.72471
 Alpha virt. eigenvalues --    0.73000   0.73257   0.73677   0.74061   0.74462
 Alpha virt. eigenvalues --    0.74597   0.75521   0.75588   0.75820   0.76157
 Alpha virt. eigenvalues --    0.76386   0.77045   0.77231   0.77746   0.78569
 Alpha virt. eigenvalues --    0.79043   0.79218   0.79251   0.79879   0.80162
 Alpha virt. eigenvalues --    0.80881   0.81538   0.82208   0.83232   0.83492
 Alpha virt. eigenvalues --    0.84477   0.85594   0.86695   0.87271   0.88240
 Alpha virt. eigenvalues --    0.89541   0.90837   0.91527   0.92291   0.94250
 Alpha virt. eigenvalues --    0.94935   0.95243   0.95938   0.96898   0.97385
 Alpha virt. eigenvalues --    0.98141   0.98737   0.99216   0.99718   0.99995
 Alpha virt. eigenvalues --    1.00329   1.00473   1.00650   1.01628   1.01803
 Alpha virt. eigenvalues --    1.02030   1.02409   1.02921   1.03228   1.03278
 Alpha virt. eigenvalues --    1.03713   1.04022   1.04285   1.04413   1.04885
 Alpha virt. eigenvalues --    1.04994   1.05327   1.05543   1.05660   1.05833
 Alpha virt. eigenvalues --    1.05973   1.06380   1.06466   1.06743   1.07152
 Alpha virt. eigenvalues --    1.07567   1.07812   1.08302   1.08745   1.08951
 Alpha virt. eigenvalues --    1.09182   1.09550   1.09776   1.09797   1.10053
 Alpha virt. eigenvalues --    1.10662   1.10839   1.10921   1.11091   1.11447
 Alpha virt. eigenvalues --    1.11691   1.12335   1.12552   1.12768   1.13183
 Alpha virt. eigenvalues --    1.13561   1.13730   1.13904   1.14327   1.14467
 Alpha virt. eigenvalues --    1.15071   1.15257   1.15411   1.15527   1.16158
 Alpha virt. eigenvalues --    1.16405   1.16734   1.17333   1.17617   1.17709
 Alpha virt. eigenvalues --    1.18384   1.18725   1.18971   1.19414   1.19769
 Alpha virt. eigenvalues --    1.20327   1.20543   1.20752   1.21540   1.21959
 Alpha virt. eigenvalues --    1.22039   1.22362   1.22422   1.23316   1.23702
 Alpha virt. eigenvalues --    1.24255   1.24967   1.25210   1.26207   1.26475
 Alpha virt. eigenvalues --    1.26972   1.27591   1.27942   1.28304   1.28989
 Alpha virt. eigenvalues --    1.29562   1.29762   1.29974   1.30079   1.30218
 Alpha virt. eigenvalues --    1.31206   1.31335   1.31740   1.32081   1.32266
 Alpha virt. eigenvalues --    1.32371   1.32489   1.32669   1.32910   1.33454
 Alpha virt. eigenvalues --    1.33607   1.33814   1.33895   1.34163   1.34672
 Alpha virt. eigenvalues --    1.34720   1.34859   1.35012   1.35188   1.35262
 Alpha virt. eigenvalues --    1.35951   1.36070   1.36229   1.36594   1.37051
 Alpha virt. eigenvalues --    1.37283   1.37929   1.38097   1.38299   1.38687
 Alpha virt. eigenvalues --    1.38829   1.39516   1.39679   1.39914   1.40389
 Alpha virt. eigenvalues --    1.40509   1.40814   1.41326   1.41581   1.41995
 Alpha virt. eigenvalues --    1.42396   1.42803   1.43153   1.43433   1.43883
 Alpha virt. eigenvalues --    1.44644   1.45193   1.45684   1.45869   1.46264
 Alpha virt. eigenvalues --    1.46477   1.47257   1.47538   1.48403   1.49383
 Alpha virt. eigenvalues --    1.49831   1.51183   1.51481   1.51612   1.52369
 Alpha virt. eigenvalues --    1.52778   1.53030   1.53675   1.54090   1.54505
 Alpha virt. eigenvalues --    1.54618   1.55019   1.55255   1.55700   1.55944
 Alpha virt. eigenvalues --    1.56036   1.57145   1.57388   1.57791   1.58328
 Alpha virt. eigenvalues --    1.59037   1.59687   1.59812   1.60359   1.60969
 Alpha virt. eigenvalues --    1.61319   1.62803   1.64057   1.64285   1.64678
 Alpha virt. eigenvalues --    1.65435   1.66021   1.66860   1.68565   1.69117
 Alpha virt. eigenvalues --    1.70257   1.71613   1.72506   1.73004   1.73634
 Alpha virt. eigenvalues --    1.74115   1.74425   1.75019   1.75536   1.75879
 Alpha virt. eigenvalues --    1.76385   1.76790   1.77257   1.77542   1.78078
 Alpha virt. eigenvalues --    1.78107   1.78382   1.78738   1.78851   1.79055
 Alpha virt. eigenvalues --    1.79186   1.79530   1.79670   1.80025   1.80224
 Alpha virt. eigenvalues --    1.80820   1.80942   1.81219   1.82180   1.82378
 Alpha virt. eigenvalues --    1.82662   1.82947   1.83441   1.83852   1.84252
 Alpha virt. eigenvalues --    1.85029   1.85656   1.85926   1.86299   1.86925
 Alpha virt. eigenvalues --    1.87488   1.87634   1.88245   1.88400   1.88994
 Alpha virt. eigenvalues --    1.89751   1.90639   1.90949   1.91616   1.92384
 Alpha virt. eigenvalues --    1.92412   1.92608   1.93636   1.94459   1.94790
 Alpha virt. eigenvalues --    1.95201   1.96390   1.97530   1.98789   2.00148
 Alpha virt. eigenvalues --    2.01488   2.02577   2.06174   2.19113   2.21209
 Alpha virt. eigenvalues --    2.21836   2.21974   2.22125   2.22427   2.22685
 Alpha virt. eigenvalues --    2.22968   2.23511   2.23916   2.24217   2.24324
 Alpha virt. eigenvalues --    2.24529   2.24699   2.24764   2.24859   2.25263
 Alpha virt. eigenvalues --    2.25322   2.25949   2.26083   2.26356   2.26593
 Alpha virt. eigenvalues --    2.26655   2.26918   2.26965   2.27054   2.27165
 Alpha virt. eigenvalues --    2.27673   2.27832   2.28096   2.28232   2.28600
 Alpha virt. eigenvalues --    2.28805   2.29085   2.29510   2.29611   2.29996
 Alpha virt. eigenvalues --    2.30546   2.31227   2.32197   2.32576   2.33072
 Alpha virt. eigenvalues --    2.33481   2.33727   2.34207   2.34907   2.35270
 Alpha virt. eigenvalues --    2.36084   2.36664   2.36980   2.39426   2.43249
 Alpha virt. eigenvalues --    2.45134   2.45586   2.45829   2.48684   2.49751
 Alpha virt. eigenvalues --    2.51575   2.52316   2.52832   2.55944   2.56767
 Alpha virt. eigenvalues --    2.63001   2.66592   2.97803   2.98259   2.99207
 Alpha virt. eigenvalues --    2.99437   2.99679   2.99861   2.99926   3.00600
 Alpha virt. eigenvalues --    3.00657   3.01044   3.01106   3.01195   3.01409
 Alpha virt. eigenvalues --    3.01530   3.01623   3.01869   3.01943   3.02200
 Alpha virt. eigenvalues --    3.02388   3.02567   3.02612   3.02745   3.02828
 Alpha virt. eigenvalues --    3.02884   3.03048   3.03208   3.03353   3.03810
 Alpha virt. eigenvalues --    3.03822   3.04211   3.04263   3.04468   3.05103
 Alpha virt. eigenvalues --    3.05154   3.05208   3.05294   3.05375   3.05466
 Alpha virt. eigenvalues --    3.05507   3.05742   3.05865   3.06219   3.06310
 Alpha virt. eigenvalues --    3.06445   3.06645   3.06827   3.06854   3.07136
 Alpha virt. eigenvalues --    3.07643   3.07788   3.07928   3.08080   3.08310
 Alpha virt. eigenvalues --    3.08428   3.08916   3.08991   3.09293   3.09393
 Alpha virt. eigenvalues --    3.09775   3.10786   3.11345   3.11774   3.14540
 Alpha virt. eigenvalues --    3.15134   3.19639   3.21175   3.21359   3.21743
 Alpha virt. eigenvalues --    3.22112   3.22348   3.22580   3.22699   3.22792
 Alpha virt. eigenvalues --    3.23231   3.23422   3.23743   3.23888   3.24081
 Alpha virt. eigenvalues --    3.24212   3.24455   3.24731   3.24903   3.24966
 Alpha virt. eigenvalues --    3.25312   3.25533   3.26000   3.26412   3.26708
 Alpha virt. eigenvalues --    3.27059   3.27316   3.27659   3.27923   3.28398
 Alpha virt. eigenvalues --    3.28635   3.29728   3.30014   3.55201   3.56842
 Alpha virt. eigenvalues --    3.57297   3.57816   3.58111   3.58252   3.58616
 Alpha virt. eigenvalues --    3.59063   3.59642   3.59853   3.60134   3.60353
 Alpha virt. eigenvalues --    3.60741   3.61053   3.61623   3.61846   3.62559
 Alpha virt. eigenvalues --    3.62923   3.62991   3.63447   3.63560   3.64047
 Alpha virt. eigenvalues --    3.64082   3.64975   3.65798   3.66496   3.67573
 Alpha virt. eigenvalues --    3.68224   3.68621   3.69118   3.69777   3.71120
 Alpha virt. eigenvalues --    3.83007   3.83784   3.85309   3.85795   3.86081
 Alpha virt. eigenvalues --    3.86243   3.86512   3.86657   3.87018   3.87916
 Alpha virt. eigenvalues --    3.88286   3.88502   3.88843   3.88968   3.89417
 Alpha virt. eigenvalues --    3.89649   3.90236   3.90438   3.90641   3.91088
 Alpha virt. eigenvalues --    3.91213   3.92130   3.92593   3.93047   3.93489
 Alpha virt. eigenvalues --    3.93667   3.95658   3.97337   3.98760   3.99725
 Alpha virt. eigenvalues --    4.00151   4.02796
          Condensed to atoms (all electrons):
 Mulliken charges:
               1
     1  Br  -0.747332
     2  O   -0.292510
     3  H    0.132606
     4  H    0.153561
     5  O   -0.278704
     6  H    0.154258
     7  H    0.141605
     8  O   -0.273284
     9  H    0.146568
    10  H    0.134807
    11  O   -0.261322
    12  H    0.116406
    13  H    0.137838
    14  O   -0.253311
    15  H    0.140332
    16  H    0.126317
    17  O   -0.303975
    18  H    0.142341
    19  H    0.154808
    20  O   -0.284587
    21  H    0.106479
    22  H    0.169357
    23  O   -0.269934
    24  H    0.109507
    25  H    0.145713
    26  O   -0.267537
    27  H    0.125734
    28  H    0.151659
    29  O   -0.252826
    30  H    0.139698
    31  H    0.141632
    32  O   -0.277337
    33  H    0.132385
    34  H    0.126130
    35  O   -0.301476
    36  H    0.141698
    37  H    0.131604
    38  O   -0.249831
    39  H    0.126202
    40  H    0.136604
    41  O   -0.267214
    42  H    0.130864
    43  H    0.121684
    44  O   -0.296398
    45  H    0.152970
    46  H    0.122999
    47  O   -0.245840
    48  H    0.138973
    49  H    0.113836
    50  O   -0.248809
    51  H    0.131924
    52  H    0.153433
    53  O   -0.237247
    54  H    0.135060
    55  H    0.143277
    56  O   -0.291688
    57  H    0.133219
    58  H    0.142845
    59  O   -0.260432
    60  H    0.151451
    61  H    0.142377
    62  O   -0.290248
    63  H    0.150364
    64  H    0.129385
    65  O   -0.304381
    66  H    0.117933
    67  H    0.119181
    68  O   -0.266248
    69  H    0.124416
    70  H    0.117316
    71  O   -0.288640
    72  H    0.146022
    73  H    0.149782
    74  O   -0.265167
    75  H    0.124332
    76  H    0.133650
    77  O   -0.303673
    78  H    0.099154
    79  H    0.123614
    80  O   -0.280938
    81  H    0.121388
    82  H    0.132029
    83  O   -0.292240
    84  H    0.111360
    85  H    0.143737
    86  O   -0.309798
    87  H    0.121095
    88  H    0.130333
    89  O   -0.256519
    90  H    0.138647
    91  H    0.142532
    92  O   -0.293638
    93  H    0.125115
    94  H    0.145518
    95  O   -0.274178
    96  H    0.140137
    97  H    0.119454
 Sum of Mulliken charges =  -1.00000
 Mulliken charges with hydrogens summed into heavy atoms:
               1
     1  Br  -0.747332
     2  O   -0.006343
     5  O    0.017159
     8  O    0.008091
    11  O   -0.007077
    14  O    0.013338
    17  O   -0.006825
    20  O   -0.008751
    23  O   -0.014714
    26  O    0.009857
    29  O    0.028504
    32  O   -0.018821
    35  O   -0.028174
    38  O    0.012975
    41  O   -0.014665
    44  O   -0.020428
    47  O    0.006969
    50  O    0.036548
    53  O    0.041091
    56  O   -0.015624
    59  O    0.033397
    62  O   -0.010499
    65  O   -0.067267
    68  O   -0.024516
    71  O    0.007164
    74  O   -0.007186
    77  O   -0.080904
    80  O   -0.027520
    83  O   -0.037143
    86  O   -0.058370
    89  O    0.024660
    92  O   -0.023005
    95  O   -0.014587
         Mulliken charges condensed to fragments:
      1     -0.747332
      2     -0.252668
 Electronic spatial extent (au):  <R**2>=        1545210.8860
 Charge=             -1.0000 electrons
 Dipole moment (field-independent basis, Debye):
    X=            -93.4649    Y=            -95.2909    Z=           -101.4503  Tot=            167.6551
 Quadrupole moment (field-independent basis, Debye-Ang):
   XX=          -2066.1503   YY=          -2188.6279   ZZ=          -2401.3051
   XY=          -1836.9505   XZ=          -1978.6192   YZ=          -2039.1151
 Traceless Quadrupole moment (field-independent basis, Debye-Ang):
   XX=            152.5441   YY=             30.0665   ZZ=           -182.6107
   XY=          -1836.9505   XZ=          -1978.6192   YZ=          -2039.1151
 Octapole moment (field-independent basis, Debye-Ang**2):
  XXX=         -50246.6521  YYY=         -55490.8532  ZZZ=         -60864.2967  XYY=         -41922.3199
  XXY=         -40283.8369  XXZ=         -43540.2585  XZZ=         -46935.6761  YZZ=         -48632.1702
  YYZ=         -47007.1905  XYZ=         -39286.7927
 Hexadecapole moment (field-independent basis, Debye-Ang**3):
 XXXX=       -1293121.1243 YYYY=       -1480847.7818 ZZZZ=       -1593566.5166 XXXY=        -975138.1697
 XXXZ=       -1049483.9192 YYYX=       -1060385.6378 YYYZ=       -1188450.3569 ZZZX=       -1190196.9131
 ZZZY=       -1235782.5362 XXYY=        -902139.0736 XXZZ=       -1020066.2310 YYZZ=       -1110237.8168
 XXYZ=        -853872.7607 YYXZ=        -897485.9482 ZZXY=        -938323.3292
 N-N= 6.100261968521D+03 E-N=-2.417007955402D+04  KE= 5.002919090830D+03
 No NMR shielding tensors so no spin-rotation constants.
 Leave Link  601 at Thu May  3 13:00:12 2018, MaxMem= 14763950080 cpu:        69.9
 (Enter /cm/shared/gaussian/g09.e01/intel64-sandybridge/g09/l701.exe)
 Compute integral first derivatives.
 ... and contract with generalized density number  0.
 Leave Link  701 at Thu May  3 13:00:14 2018, MaxMem= 14763950080 cpu:       152.8
 (Enter /cm/shared/gaussian/g09.e01/intel64-sandybridge/g09/l702.exe)
 L702 exits ... SP integral derivatives will be done elsewhere.
 Leave Link  702 at Thu May  3 13:00:14 2018, MaxMem= 14763950080 cpu:         2.6
 (Enter /cm/shared/gaussian/g09.e01/intel64-sandybridge/g09/l703.exe)
 Compute integral first derivatives, UseDBF=F ICtDFT=           0.
 Integral derivatives from FoFJK, PRISM(SPDF).
 Calling FoFJK, ICntrl=      2127 FMM=T ISym2X=0 I1Cent= 0 IOpClX= 0 NMat=1 NMatS=1 NMatT=0.
 FoFJK:  IHMeth= 1 ICntrl=    2127 DoSepK=F KAlg= 0 I1Cent=   0 FoldK=F
 IRaf=         0 NMat=   1 IRICut=       1 DoRegI=T DoRafI=F ISym2E= 0.
 FoFCou: FMM=T IPFlag=           0 FMFlag=      100000 FMFlg1=        2001
         NFxFlg=           0 DoJE=F BraDBF=F KetDBF=F FulRan=T
         wScrn=  0.000000 ICntrl=    2127 IOpCl=  0 I1Cent=           0 NGrid=           0
         NMat0=    1 NMatS0=      1 NMatT0=    0 NMatD0=    1 NMtDS0=    0 NMtDT0=    0
 Symmetry not used in FoFCou.
 FMM levels:  10  Number of levels for PrismC:   9
 Leave Link  703 at Thu May  3 13:00:32 2018, MaxMem= 14763950080 cpu:      1083.6
 (Enter /cm/shared/gaussian/g09.e01/intel64-sandybridge/g09/l716.exe)
 Dipole        =-3.67719359D+01-3.74903425D+01-3.99136357D+01
 Cartesian Forces:  Max     0.035355818 RMS     0.009961419
 Leave Link  716 at Thu May  3 13:00:32 2018, MaxMem= 14763950080 cpu:         4.6
 (Enter /cm/shared/gaussian/g09.e01/intel64-sandybridge/g09/l122.exe)
 CPIOFr:  IOpCl= 0 IRwI=-1 IRwCP=  731 ICalc= -1 LCPTot=     1005244 Len1MO=     2550559 IndFrg=     1005244
 CPIOFr:  IOpCl= 0 IRwI=-1 IRwCP=  731 ICalc=  0 LCPTot=     1005244 Len1MO=     2550559 IndFrg=     3555803
 Counterpoise: doing DCBS calculation for fragment   1 NewBq=T
 Leave Link  122 at Thu May  3 13:00:32 2018, MaxMem= 14763950080 cpu:         9.3
 (Enter /cm/shared/gaussian/g09.e01/intel64-sandybridge/g09/l301.exe)
 Basis read from rwf:  (5D, 7F)
 No pseudopotential information found on rwf file.
   795 basis functions,  1651 primitive gaussians,   829 cartesian basis functions
    18 alpha electrons       18 beta electrons
       nuclear repulsion energy         0.0000000000 Hartrees.
 IExCor= 1009 DFT=T Ex+Corr=PBE1PBE ExCW=0 ScaHFX=  0.250000
 ScaDFX=  0.750000  0.750000  1.000000  1.000000 ScalE2=  1.000000  1.000000
 IRadAn=      0 IRanWt=     -1 IRanGd=            0 ICorTp=0 IEmpDi=  4
 NAtoms=   97 NActive=   97 NUniq=   97 SFac= 1.00D+00 NAtFMM=   60 NAOKFM=T Big=T
 Integral buffers will be    131072 words long.
 Raffenetti 2 integral format.
 Two-electron integral symmetry is turned off.
 No density basis found on file   718.
 Leave Link  301 at Thu May  3 13:00:32 2018, MaxMem= 14763950080 cpu:         7.0
 (Enter /cm/shared/gaussian/g09.e01/intel64-sandybridge/g09/l302.exe)
 NPDir=0 NMtPBC=     1 NCelOv=     1 NCel=       1 NClECP=     1 NCelD=      1
         NCelK=      1 NCelE2=     1 NClLst=     1 CellRange=     0.0.
 One-electron integrals computed using PRISM.
 NBasis=   795 RedAO= T EigKep=  1.50D-02  NBF=   795
 NBsUse=   795 1.00D-06 EigRej= -1.00D+00 NBFU=   795
 Precomputing XC quadrature grid using
 IXCGrd= 4 IRadAn=           0 IRanWt=          -1 IRanGd=           0 AccXCQ= 0.00D+00.
 Generated NRdTot=       0 NPtTot=           0 NUsed=           0 NTot=          32
 NSgBfM=   723   728   737   737   737 MxSgAt=    97 MxSgA2=    97.
 Leave Link  302 at Thu May  3 13:00:36 2018, MaxMem= 14763950080 cpu:       270.4
 (Enter /cm/shared/gaussian/g09.e01/intel64-sandybridge/g09/l303.exe)
 DipDrv:  MaxL=1.
 Leave Link  303 at Thu May  3 13:00:38 2018, MaxMem= 14763950080 cpu:       113.2
 (Enter /cm/shared/gaussian/g09.e01/intel64-sandybridge/g09/l401.exe)
 ExpMin= 1.22D-01 ExpMax= 6.40D+05 ExpMxC= 6.18D+03 IAcc=2 IRadAn=         4 AccDes= 0.00D+00
 Harris functional with IExCor= 1009 and IRadAn=       4 diagonalized for initial guess.
 HarFok:  IExCor= 1009 AccDes= 0.00D+00 IRadAn=         4 IDoV= 1 UseB2=F ITyADJ=14
 ICtDFT=  3500011 ScaDFX=  1.000000  1.000000  1.000000  1.000000
 FoFCou: FMM=F IPFlag=           0 FMFlag=      100000 FMFlg1=        2001
         NFxFlg=           0 DoJE=T BraDBF=F KetDBF=T FulRan=T
         wScrn=  0.000000 ICntrl=     500 IOpCl=  0 I1Cent=   200000004 NGrid=           0
         NMat0=    1 NMatS0=      1 NMatT0=    0 NMatD0=    1 NMtDS0=    0 NMtDT0=    0
 Symmetry not used in FoFCou.
 Harris En= -2574.01935463431    
 JPrj=0 DoOrth=F DoCkMO=F.
 Leave Link  401 at Thu May  3 13:00:43 2018, MaxMem= 14763950080 cpu:       285.3
 (Enter /cm/shared/gaussian/g09.e01/intel64-sandybridge/g09/l502.exe)
 Closed shell SCF:
 Using DIIS extrapolation, IDIIS=  1040.
 Two-electron integral symmetry not used.
 IVT=     2138497 IEndB=     2138497 NGot= 14763950080 MDV= 14762516294
 LenX= 14762516294 LenY= 14761828224
 Requested convergence on RMS density matrix=1.00D-08 within 128 cycles.
 Requested convergence on MAX density matrix=1.00D-06.
 Requested convergence on             energy=1.00D-06.
 No special actions if energy rises.
 Fock matrices will be formed incrementally for  20 cycles.
 Integral accuracy reduced to 1.0D-05 until final iterations.

 Cycle   1  Pass 0  IDiag  1:
 FoFJK:  IHMeth= 1 ICntrl=       0 DoSepK=F KAlg= 0 I1Cent=   0 FoldK=F
 IRaf= 820000000 NMat=   1 IRICut=       1 DoRegI=T DoRafI=F ISym2E= 0.
 FoFCou: FMM=T IPFlag=           0 FMFlag=      100000 FMFlg1=        2001
         NFxFlg=           0 DoJE=F BraDBF=F KetDBF=F FulRan=T
         wScrn=  0.000000 ICntrl=       0 IOpCl=  0 I1Cent=           0 NGrid=           0
         NMat0=    1 NMatS0=      1 NMatT0=    0 NMatD0=    1 NMtDS0=    0 NMtDT0=    0
 Symmetry not used in FoFCou.
 FMM levels:  10  Number of levels for PrismC:   9
 E= -2573.87990939222    
 DIIS: error= 1.16D-02 at cycle   1 NSaved=   1.
 NSaved= 1 IEnMin= 1 EnMin= -2573.87990939222     IErMin= 1 ErrMin= 1.16D-02
 ErrMax= 1.16D-02  0.00D+00 EMaxC= 1.00D-01 BMatC= 3.67D-02 BMatP= 3.67D-02
 IDIUse=3 WtCom= 8.84D-01 WtEn= 1.16D-01
 Coeff-Com:  0.100D+01
 Coeff-En:   0.100D+01
 Coeff:      0.100D+01
 Gap=     0.174 Goal=   None    Shift=    0.000
 GapD=    0.174 DampG=1.000 DampE=0.500 DampFc=0.5000 IDamp=-1.
 Damping current iteration by 5.00D-01
 RMSDP=4.29D-04 MaxDP=6.95D-02              OVMax= 1.51D-01

 Cycle   2  Pass 0  IDiag  1:
 RMSU=  2.13D-04    CP:  9.96D-01
 E= -2573.89611831187     Delta-E=       -0.016208919645 Rises=F Damp=T
 DIIS: error= 7.18D-03 at cycle   2 NSaved=   2.
 NSaved= 2 IEnMin= 2 EnMin= -2573.89611831187     IErMin= 2 ErrMin= 7.18D-03
 ErrMax= 7.18D-03  0.00D+00 EMaxC= 1.00D-01 BMatC= 8.69D-03 BMatP= 3.67D-02
 IDIUse=3 WtCom= 9.28D-01 WtEn= 7.18D-02
 Coeff-Com: -0.565D+00 0.157D+01
 Coeff-En:   0.000D+00 0.100D+01
 Coeff:     -0.525D+00 0.152D+01
 Gap=     0.190 Goal=   None    Shift=    0.000
 RMSDP=1.45D-04 MaxDP=3.50D-02 DE=-1.62D-02 OVMax= 6.65D-02

 Cycle   3  Pass 0  IDiag  1:
 RMSU=  1.36D-04    CP:  9.97D-01  1.23D+00
 E= -2573.90922559691     Delta-E=       -0.013107285043 Rises=F Damp=F
 DIIS: error= 3.49D-03 at cycle   3 NSaved=   3.
 NSaved= 3 IEnMin= 3 EnMin= -2573.90922559691     IErMin= 3 ErrMin= 3.49D-03
 ErrMax= 3.49D-03  0.00D+00 EMaxC= 1.00D-01 BMatC= 2.34D-03 BMatP= 8.69D-03
 IDIUse=3 WtCom= 9.65D-01 WtEn= 3.49D-02
 Coeff-Com: -0.300D+00 0.708D+00 0.592D+00
 Coeff-En:   0.000D+00 0.000D+00 0.100D+01
 Coeff:     -0.290D+00 0.684D+00 0.606D+00
 Gap=     0.174 Goal=   None    Shift=    0.000
 RMSDP=7.07D-05 MaxDP=1.72D-02 DE=-1.31D-02 OVMax= 2.06D-02

 Cycle   4  Pass 0  IDiag  1:
 RMSU=  7.57D-06    CP:  9.95D-01  1.46D+00  6.34D-01
 E= -2573.91177694644     Delta-E=       -0.002551349524 Rises=F Damp=F
 DIIS: error= 1.22D-04 at cycle   4 NSaved=   4.
 NSaved= 4 IEnMin= 4 EnMin= -2573.91177694644     IErMin= 4 ErrMin= 1.22D-04
 ErrMax= 1.22D-04  0.00D+00 EMaxC= 1.00D-01 BMatC= 1.72D-06 BMatP= 2.34D-03
 IDIUse=3 WtCom= 9.99D-01 WtEn= 1.22D-03
 Coeff-Com: -0.152D-01 0.296D-01 0.449D-01 0.941D+00
 Coeff-En:   0.000D+00 0.000D+00 0.000D+00 0.100D+01
 Coeff:     -0.152D-01 0.295D-01 0.448D-01 0.941D+00
 Gap=     0.176 Goal=   None    Shift=    0.000
 RMSDP=2.12D-06 MaxDP=4.36D-04 DE=-2.55D-03 OVMax= 7.28D-04

 Initial convergence to 1.0D-05 achieved.  Increase integral accuracy.
 Cycle   5  Pass 1  IDiag  1:
 E= -2573.91264166593     Delta-E=       -0.000864719499 Rises=F Damp=F
 DIIS: error= 1.92D-05 at cycle   1 NSaved=   1.
 NSaved= 1 IEnMin= 1 EnMin= -2573.91264166593     IErMin= 1 ErrMin= 1.92D-05
 ErrMax= 1.92D-05  0.00D+00 EMaxC= 1.00D-01 BMatC= 2.03D-07 BMatP= 2.03D-07
 IDIUse=1 WtCom= 1.00D+00 WtEn= 0.00D+00
 Coeff-Com:  0.100D+01
 Coeff:      0.100D+01
 Gap=     0.176 Goal=   None    Shift=    0.000
 RMSDP=2.12D-06 MaxDP=4.36D-04 DE=-8.65D-04 OVMax= 4.07D-04

 Cycle   6  Pass 1  IDiag  1:
 RMSU=  2.05D-06    CP:  1.00D+00
 E= -2573.91264206015     Delta-E=       -0.000000394219 Rises=F Damp=F
 DIIS: error= 1.25D-05 at cycle   2 NSaved=   2.
 NSaved= 2 IEnMin= 2 EnMin= -2573.91264206015     IErMin= 2 ErrMin= 1.25D-05
 ErrMax= 1.25D-05  0.00D+00 EMaxC= 1.00D-01 BMatC= 3.71D-08 BMatP= 2.03D-07
 IDIUse=1 WtCom= 1.00D+00 WtEn= 0.00D+00
 Coeff-Com:  0.227D+00 0.773D+00
 Coeff:      0.227D+00 0.773D+00
 Gap=     0.176 Goal=   None    Shift=    0.000
 RMSDP=4.42D-07 MaxDP=1.04D-04 DE=-3.94D-07 OVMax= 1.42D-04

 Cycle   7  Pass 1  IDiag  1:
 RMSU=  4.36D-07    CP:  1.00D+00  9.68D-01
 E= -2573.91264209706     Delta-E=       -0.000000036906 Rises=F Damp=F
 DIIS: error= 6.34D-06 at cycle   3 NSaved=   3.
 NSaved= 3 IEnMin= 3 EnMin= -2573.91264209706     IErMin= 3 ErrMin= 6.34D-06
 ErrMax= 6.34D-06  0.00D+00 EMaxC= 1.00D-01 BMatC= 9.59D-09 BMatP= 3.71D-08
 IDIUse=1 WtCom= 1.00D+00 WtEn= 0.00D+00
 Coeff-Com: -0.247D-01 0.326D+00 0.698D+00
 Coeff:     -0.247D-01 0.326D+00 0.698D+00
 Gap=     0.176 Goal=   None    Shift=    0.000
 RMSDP=1.51D-07 MaxDP=3.92D-05 DE=-3.69D-08 OVMax= 4.53D-05

 Cycle   8  Pass 1  IDiag  1:
 RMSU=  5.86D-08    CP:  1.00D+00  1.01D+00  7.34D-01
 E= -2573.91264210831     Delta-E=       -0.000000011253 Rises=F Damp=F
 DIIS: error= 6.02D-07 at cycle   4 NSaved=   4.
 NSaved= 4 IEnMin= 4 EnMin= -2573.91264210831     IErMin= 4 ErrMin= 6.02D-07
 ErrMax= 6.02D-07  0.00D+00 EMaxC= 1.00D-01 BMatC= 4.38D-11 BMatP= 9.59D-09
 IDIUse=1 WtCom= 1.00D+00 WtEn= 0.00D+00
 Coeff-Com: -0.650D-02 0.741D-01 0.156D+00 0.776D+00
 Coeff:     -0.650D-02 0.741D-01 0.156D+00 0.776D+00
 Gap=     0.176 Goal=   None    Shift=    0.000
 RMSDP=1.30D-08 MaxDP=1.45D-06 DE=-1.13D-08 OVMax= 4.67D-06

 Cycle   9  Pass 1  IDiag  1:
 RMSU=  1.10D-08    CP:  1.00D+00  1.01D+00  7.39D-01  9.55D-01
 E= -2573.91264210837     Delta-E=       -0.000000000055 Rises=F Damp=F
 DIIS: error= 1.87D-07 at cycle   5 NSaved=   5.
 NSaved= 5 IEnMin= 5 EnMin= -2573.91264210837     IErMin= 5 ErrMin= 1.87D-07
 ErrMax= 1.87D-07  0.00D+00 EMaxC= 1.00D-01 BMatC= 5.12D-12 BMatP= 4.38D-11
 IDIUse=1 WtCom= 1.00D+00 WtEn= 0.00D+00
 Coeff-Com:  0.196D-03-0.123D-01-0.291D-01 0.225D+00 0.817D+00
 Coeff:      0.196D-03-0.123D-01-0.291D-01 0.225D+00 0.817D+00
 Gap=     0.176 Goal=   None    Shift=    0.000
 RMSDP=4.34D-09 MaxDP=6.27D-07 DE=-5.50D-11 OVMax= 1.62D-06

 SCF Done:  E(RPBE1PBE) =  -2573.91264211     A.U. after    9 cycles
            NFock=  9  Conv=0.43D-08     -V/T= 2.0013
 KE= 2.570513125533D+03 PE=-6.162893533310D+03 EE= 1.018467765669D+03
 Leave Link  502 at Thu May  3 13:02:25 2018, MaxMem= 14763950080 cpu:      6450.6
 (Enter /cm/shared/gaussian/g09.e01/intel64-sandybridge/g09/l601.exe)
 Copying SCF densities to generalized density rwf, IOpCl= 0 IROHF=0.

 **********************************************************************

            Population analysis using the SCF density.

 **********************************************************************

 Alpha  occ. eigenvalues -- -482.99032 -62.39187 -56.16442 -56.16437 -56.16435
 Alpha  occ. eigenvalues --   -8.49321  -6.29636  -6.29623  -6.29616  -2.37900
 Alpha  occ. eigenvalues --   -2.37897  -2.37892  -2.37881  -2.37880  -0.47322
 Alpha  occ. eigenvalues --   -0.03180  -0.03173  -0.03164
 Alpha virt. eigenvalues --    0.14406   0.15947   0.16252   0.17263   0.18170
 Alpha virt. eigenvalues --    0.18720   0.19385   0.19819   0.19971   0.21172
 Alpha virt. eigenvalues --    0.21715   0.22644   0.23158   0.23223   0.23653
 Alpha virt. eigenvalues --    0.23937   0.24915   0.25327   0.25677   0.26005
 Alpha virt. eigenvalues --    0.26601   0.27453   0.27779   0.28350   0.28743
 Alpha virt. eigenvalues --    0.29214   0.29310   0.30303   0.30694   0.31368
 Alpha virt. eigenvalues --    0.32127   0.32502   0.33167   0.33599   0.34082
 Alpha virt. eigenvalues --    0.34847   0.35115   0.35434   0.35957   0.37019
 Alpha virt. eigenvalues --    0.37153   0.37416   0.37937   0.38826   0.38882
 Alpha virt. eigenvalues --    0.39002   0.39926   0.40397   0.41608   0.41735
 Alpha virt. eigenvalues --    0.42203   0.42721   0.43418   0.43897   0.44198
 Alpha virt. eigenvalues --    0.44791   0.45699   0.46390   0.47475   0.47740
 Alpha virt. eigenvalues --    0.48460   0.48971   0.49200   0.51934   0.60696
 Alpha virt. eigenvalues --    0.62011   0.62527   0.63272   0.63469   0.63723
 Alpha virt. eigenvalues --    0.64607   0.64749   0.65487   0.65600   0.65996
 Alpha virt. eigenvalues --    0.66018   0.66587   0.67354   0.67619   0.68524
 Alpha virt. eigenvalues --    0.68904   0.69433   0.70141   0.70849   0.71053
 Alpha virt. eigenvalues --    0.71608   0.72014   0.72320   0.72627   0.73168
 Alpha virt. eigenvalues --    0.73748   0.73914   0.74159   0.74365   0.74802
 Alpha virt. eigenvalues --    0.74839   0.75293   0.75424   0.75731   0.76227
 Alpha virt. eigenvalues --    0.76292   0.76593   0.77454   0.77494   0.77870
 Alpha virt. eigenvalues --    0.78625   0.78826   0.79047   0.79212   0.79666
 Alpha virt. eigenvalues --    0.80020   0.80203   0.80506   0.81013   0.81411
 Alpha virt. eigenvalues --    0.81517   0.81803   0.82405   0.82552   0.82903
 Alpha virt. eigenvalues --    0.83280   0.83773   0.84117   0.84246   0.84495
 Alpha virt. eigenvalues --    0.84790   0.85153   0.85928   0.86164   0.86680
 Alpha virt. eigenvalues --    0.87075   0.87365   0.87992   0.88173   0.88667
 Alpha virt. eigenvalues --    0.89142   0.89430   0.90142   0.90467   0.90717
 Alpha virt. eigenvalues --    0.91016   0.91190   0.91882   0.92034   0.92695
 Alpha virt. eigenvalues --    0.92839   0.93328   0.93401   0.94280   0.94423
 Alpha virt. eigenvalues --    0.94700   0.95027   0.95297   0.95584   0.95794
 Alpha virt. eigenvalues --    0.96333   0.96600   0.96779   0.96881   0.97850
 Alpha virt. eigenvalues --    0.98467   0.99224   0.99303   0.99602   0.99970
 Alpha virt. eigenvalues --    1.00595   1.01333   1.01873   1.02822   1.03376
 Alpha virt. eigenvalues --    1.03815   1.04293   1.04589   1.05097   1.05289
 Alpha virt. eigenvalues --    1.05631   1.05843   1.06627   1.07297   1.07476
 Alpha virt. eigenvalues --    1.08006   1.08459   1.09754   1.10488   1.11684
 Alpha virt. eigenvalues --    1.12167   1.12344   1.12776   1.14481   1.14928
 Alpha virt. eigenvalues --    1.15689   1.16222   1.17167   1.17700   1.18786
 Alpha virt. eigenvalues --    1.19683   1.21237   1.21881   1.22462   1.25006
 Alpha virt. eigenvalues --    1.26212   1.64531   1.65519   1.66395   1.67325
 Alpha virt. eigenvalues --    1.67852   1.68592   1.69169   1.69331   1.69687
 Alpha virt. eigenvalues --    1.69896   1.70376   1.70619   1.71142   1.71365
 Alpha virt. eigenvalues --    1.71499   1.72092   1.72325   1.72872   1.73404
 Alpha virt. eigenvalues --    1.73533   1.74085   1.74338   1.74720   1.75051
 Alpha virt. eigenvalues --    1.75137   1.75668   1.75837   1.76166   1.76210
 Alpha virt. eigenvalues --    1.76556   1.76989   1.78218   1.78391   1.78675
 Alpha virt. eigenvalues --    1.79216   1.79454   1.79834   1.80151   1.80749
 Alpha virt. eigenvalues --    1.80924   1.81617   1.81799   1.82383   1.82672
 Alpha virt. eigenvalues --    1.82999   1.83192   1.84011   1.84449   1.85062
 Alpha virt. eigenvalues --    1.85500   1.86042   1.86398   1.87317   1.87645
 Alpha virt. eigenvalues --    1.88232   1.88630   1.89454   1.90331   1.91340
 Alpha virt. eigenvalues --    1.92536   1.92810   1.93905   1.94824   1.95895
 Alpha virt. eigenvalues --    1.96206   1.97097   1.97656   1.98335   1.99043
 Alpha virt. eigenvalues --    1.99151   1.99748   2.00418   2.00603   2.00847
 Alpha virt. eigenvalues --    2.00878   2.01317   2.01562   2.01751   2.01979
 Alpha virt. eigenvalues --    2.02110   2.02207   2.02470   2.02850   2.02884
 Alpha virt. eigenvalues --    2.03081   2.03264   2.03522   2.03717   2.04080
 Alpha virt. eigenvalues --    2.04296   2.04456   2.04482   2.05222   2.05633
 Alpha virt. eigenvalues --    2.06237   2.06751   2.07080   2.07311   2.07590
 Alpha virt. eigenvalues --    2.07938   2.08534   2.09145   2.09267   2.09834
 Alpha virt. eigenvalues --    2.10118   2.10906   2.11356   2.11843   2.11994
 Alpha virt. eigenvalues --    2.12770   2.13407   2.13559   2.13652   2.14265
 Alpha virt. eigenvalues --    2.14694   2.14903   2.15366   2.16146   2.16873
 Alpha virt. eigenvalues --    2.17171   2.17227   2.17498   2.17628   2.17809
 Alpha virt. eigenvalues --    2.18316   2.18559   2.18929   2.19198   2.19821
 Alpha virt. eigenvalues --    2.19972   2.20366   2.20666   2.21277   2.21815
 Alpha virt. eigenvalues --    2.22371   2.22835   2.23004   2.23572   2.24118
 Alpha virt. eigenvalues --    2.24874   2.24923   2.25830   2.26307   2.27117
 Alpha virt. eigenvalues --    2.27394   2.27820   2.28610   2.29979   2.30382
 Alpha virt. eigenvalues --    2.30920   2.31592   2.32085   2.33437   2.33709
 Alpha virt. eigenvalues --    2.34129   2.35105   2.36625   2.37731   2.38200
 Alpha virt. eigenvalues --    2.40022   2.40238   2.41262   2.41606   2.41640
 Alpha virt. eigenvalues --    2.41729   2.42060   2.42350   2.42845   2.43355
 Alpha virt. eigenvalues --    2.43711   2.44263   2.44647   2.44906   2.45443
 Alpha virt. eigenvalues --    2.45878   2.46399   2.46673   2.47026   2.47365
 Alpha virt. eigenvalues --    2.48362   2.48617   2.49075   2.49309   2.50795
 Alpha virt. eigenvalues --    2.51179   2.51756   2.52518   2.53023   2.54076
 Alpha virt. eigenvalues --    2.55454   2.58284   2.58766   2.68334   2.68660
 Alpha virt. eigenvalues --    2.69132   2.69574   2.69719   2.69946   2.70221
 Alpha virt. eigenvalues --    2.70574   2.71438   2.71588   2.71914   2.72354
 Alpha virt. eigenvalues --    2.72706   2.72982   2.73915   2.74348   2.75051
 Alpha virt. eigenvalues --    2.75254   2.75365   2.76133   2.76643   2.77531
 Alpha virt. eigenvalues --    2.78796   2.79274   2.80027   2.80803   2.81373
 Alpha virt. eigenvalues --    2.82987   2.83788   2.84055   2.84525   2.85113
 Alpha virt. eigenvalues --    2.85786   2.85955   2.87091   2.87864   2.88112
 Alpha virt. eigenvalues --    2.88369   2.88853   2.88998   2.89545   2.90272
 Alpha virt. eigenvalues --    2.90547   2.90847   2.91426   2.91903   2.92312
 Alpha virt. eigenvalues --    2.93183   2.93562   2.93771   2.95073   2.96078
 Alpha virt. eigenvalues --    2.97271   2.97772   2.99512   3.00368   3.01100
 Alpha virt. eigenvalues --    3.02001   3.03200   3.04434   3.05677   3.07285
 Alpha virt. eigenvalues --    3.07662   3.12299   3.13858   3.14466   3.15526
 Alpha virt. eigenvalues --    3.16754   3.17427   3.17837   3.20373   3.21250
 Alpha virt. eigenvalues --    3.21637   3.22295   3.23106   3.23376   3.24074
 Alpha virt. eigenvalues --    3.24907   3.26382   3.27907   3.28387   3.29578
 Alpha virt. eigenvalues --    3.32505   3.34019   3.35072   3.36676   3.39860
 Alpha virt. eigenvalues --    3.44699   3.45792   3.46459   3.47691   3.48963
 Alpha virt. eigenvalues --    3.50704   3.56519   3.56988   3.63201   4.51857
 Alpha virt. eigenvalues --    4.52213   4.52307   4.52315   4.52387   4.52464
 Alpha virt. eigenvalues --    4.52474   4.52741   4.52961   4.53050   4.53305
 Alpha virt. eigenvalues --    4.53369   4.53664   4.53902   4.54089   4.54146
 Alpha virt. eigenvalues --    4.54191   4.54336   4.54450   4.54521   4.54688
 Alpha virt. eigenvalues --    4.54888   4.54900   4.55430   4.55577   4.55636
 Alpha virt. eigenvalues --    4.55847   4.56028   4.56113   4.56713   4.57035
 Alpha virt. eigenvalues --    4.57561   4.60117   4.60135   4.60255   4.60484
 Alpha virt. eigenvalues --    4.60536   4.60579   4.60736   4.60776   4.60883
 Alpha virt. eigenvalues --    4.61007   4.61313   4.61553   4.61700   4.61866
 Alpha virt. eigenvalues --    4.61946   4.62002   4.62062   4.62229   4.62275
 Alpha virt. eigenvalues --    4.62576   4.62614   4.62758   4.62855   4.63461
 Alpha virt. eigenvalues --    4.63606   4.63696   4.64239   4.64336   4.64395
 Alpha virt. eigenvalues --    4.64631   4.64877   4.68248   4.74539   4.74590
 Alpha virt. eigenvalues --    4.75090   4.75463   4.75669   4.75738   4.76061
 Alpha virt. eigenvalues --    4.76280   4.76692   4.77071   4.77635   4.78114
 Alpha virt. eigenvalues --    4.78381   4.78620   4.79120   4.79526   4.79993
 Alpha virt. eigenvalues --    4.80117   4.80468   4.81364   4.81445   4.81878
 Alpha virt. eigenvalues --    4.81950   4.82475   4.83108   4.83287   4.83459
 Alpha virt. eigenvalues --    4.83963   4.84547   4.84723   4.85041   4.85283
 Alpha virt. eigenvalues --    4.86960   4.87260   4.87442   4.87784   4.88268
 Alpha virt. eigenvalues --    4.88473   4.88740   4.88760   4.88920   4.89050
 Alpha virt. eigenvalues --    4.89323   4.89518   4.89963   4.90206   4.90342
 Alpha virt. eigenvalues --    4.90881   4.91355   4.92297   4.92856   4.93049
 Alpha virt. eigenvalues --    4.93698   4.94001   4.94706   4.95197   4.96558
[...]
   Y22       43.27473  -0.00227   0.00000   0.02972   0.02948  43.30421
   Z22       38.09688  -0.02305   0.00000  -0.04898  -0.04712  38.04976
   X23       44.71092   0.01689   0.00000   0.01886   0.01830  44.72922
   Y23       40.00550   0.00806   0.00000   0.01130   0.01205  40.01755
   Z23       34.90324  -0.00064   0.00000   0.01011   0.01043  34.91368
   X24       44.35187  -0.00047   0.00000   0.01343   0.01272  44.36460
   Y24       39.60866  -0.00886   0.00000  -0.04481  -0.04342  39.56524
   Z24       33.16469   0.00178   0.00000   0.01961   0.01979  33.18449
   X25       43.23693  -0.01537   0.00000  -0.02390  -0.02441  43.21253
   Y25       39.45748   0.00082   0.00000   0.03158   0.03206  39.48954
   Z25       35.79141   0.00356   0.00000  -0.00305  -0.00280  35.78861
   X26       45.37232  -0.00091   0.00000   0.00328   0.00280  45.37512
   Y26       34.71427  -0.01335   0.00000  -0.01626  -0.01678  34.69749
   Z26       38.32365   0.00115   0.00000  -0.00189  -0.00355  38.32009
   X27       44.33298  -0.00073   0.00000   0.01277   0.01225  44.34522
   Y27       35.77252   0.00478   0.00000  -0.00161  -0.00170  35.77081
   Z27       37.28430  -0.00639   0.00000  -0.01689  -0.01808  37.26622
   X28       46.65734   0.00158   0.00000  -0.01451  -0.01490  46.64244
   Y28       35.82921   0.00735   0.00000   0.01247   0.01169  35.84089
   Z28       38.94726   0.00447   0.00000   0.01832   0.01698  38.96424
   X29       38.22916  -0.01156   0.00000  -0.00852  -0.00833  38.22083
   Y29       42.95348  -0.00320   0.00000  -0.01170  -0.01383  42.93964
   Z29       43.44480   0.01176   0.00000  -0.00873  -0.00685  43.43795
   X30       39.28741   0.01688   0.00000   0.04302   0.04310  39.33051
   Y30       43.06686   0.00635   0.00000   0.03382   0.03218  43.09903
   Z30       41.98971  -0.01291   0.00000  -0.00249  -0.00063  41.98908
   X31       39.21182  -0.00172   0.00000  -0.01318  -0.01294  39.19888
   Y31       41.98971  -0.00225   0.00000  -0.01008  -0.01268  41.97703
   Z31       44.63533  -0.00018   0.00000  -0.00233  -0.00088  44.63445
   X32       45.08887   0.01255   0.00000   0.01095   0.01091  45.09978
   Y32       40.28896  -0.01368   0.00000  -0.01720  -0.01893  40.27003
   Z32       41.70626  -0.00480   0.00000  -0.00614  -0.00575  41.70050
   X33       43.50150  -0.00847   0.00000  -0.00616  -0.00626  43.49524
   Y33       40.27006   0.00488   0.00000   0.01813   0.01677  40.28684
   Z33       40.83698  -0.00264   0.00000  -0.00352  -0.00301  40.83397
   X34       44.93769  -0.00441   0.00000  -0.00618  -0.00608  44.93161
   Y34       41.63067   0.00905   0.00000   0.00607   0.00391  41.63458
   Z34       42.89678   0.00496   0.00000  -0.00694  -0.00604  42.89074
   X35       38.47482   0.00905   0.00000   0.02001   0.01959  38.49442
   Y35       44.29518  -0.00330   0.00000  -0.00630  -0.00534  44.28984
   Z35       34.90324   0.01252   0.00000   0.01494   0.01729  34.92053
   X36       37.66224  -0.00834   0.00000  -0.02169  -0.02224  37.64000
   Y36       43.65267   0.00102   0.00000   0.02013   0.02166  43.67433
   Z36       33.41036  -0.00715   0.00000   0.00486   0.00704  33.41740
   X37       38.21026   0.00430   0.00000   0.03307   0.03271  38.24297
   Y37       46.09042   0.00605   0.00000   0.00562   0.00660  46.09702
   Z37       34.82765   0.00386   0.00000   0.02709   0.03011  34.85777
   X38       40.95037   0.01966   0.00000   0.04234   0.04147  40.99184
   Y38       40.11889  -0.01948   0.00000  -0.01916  -0.01676  40.10212
   Z38       30.72695  -0.01195   0.00000  -0.01229  -0.01165  30.71530
   X39       42.29207   0.00130   0.00000  -0.00771  -0.00854  42.28353
   Y39       41.32831   0.01356   0.00000   0.05031   0.05267  41.38098
   Z39       30.70805  -0.00025   0.00000  -0.00681  -0.00581  30.70224
   X40       39.57087  -0.01815   0.00000  -0.01509  -0.01588  39.55498
   Y40       40.98816   0.00790   0.00000  -0.02601  -0.02384  40.96432
   Z40       31.48284   0.00611   0.00000  -0.01958  -0.01852  31.46432
   X41       37.68114  -0.01533   0.00000  -0.02949  -0.03071  37.65043
   Y41       33.39146  -0.01001   0.00000   0.00156   0.00467  33.39614
   Z41       29.08289  -0.00907   0.00000  -0.01743  -0.01898  29.06391
   X42       38.11578   0.00669   0.00000   0.01439   0.01331  38.12909
   Y42       33.88279   0.00428   0.00000  -0.00528  -0.00280  33.87999
   Z42       30.76474   0.00620   0.00000  -0.00848  -0.00989  30.75486
   X43       38.64490   0.00933   0.00000   0.02315   0.02188  38.66678
   Y43       34.46860   0.00799   0.00000   0.00839   0.01185  34.48045
   Z43       28.00574   0.00004   0.00000   0.01315   0.01192  28.01766
   X44       33.69382  -0.00717   0.00000  -0.01392  -0.01495  33.67887
   Y44       38.43703   0.01811   0.00000   0.00499   0.00810  38.44513
   Z44       29.44193  -0.00180   0.00000   0.00130   0.00189  29.44383
   X45       33.48595  -0.00134   0.00000  -0.00534  -0.00631  33.47963
   Y45       37.15202  -0.01431   0.00000  -0.02454  -0.02189  37.13012
   Z45       30.70805   0.00859   0.00000   0.00571   0.00583  30.71388
   X46       34.63868   0.00719   0.00000   0.01500   0.01385  34.65253
   Y46       37.62445  -0.00835   0.00000  -0.01611  -0.01257  37.61188
   Z46       28.13802  -0.00310   0.00000   0.01324   0.01346  28.15148
   X47       42.40545   0.00020   0.00000   0.00313   0.00216  42.40761
   Y47       33.46705   0.01723   0.00000   0.00870   0.01047  33.47752
   Z47       32.31432   0.00032   0.00000   0.01303   0.01115  32.32547
   X48       41.78184  -0.00775   0.00000  -0.02339  -0.02436  41.75749
   Y48       31.93637  -0.01385   0.00000  -0.01056  -0.00903  31.92734
   Z48       33.03241   0.00568   0.00000   0.00828   0.00588  33.03830
   X49       43.69047   0.00193   0.00000  -0.00949  -0.01057  43.67990
   Y49       32.93793  -0.00776   0.00000  -0.02902  -0.02687  32.91106
   Z49       31.16158  -0.00320   0.00000   0.00096  -0.00122  31.16036
   X50       36.26384   0.01343   0.00000  -0.00696  -0.00774  36.25610
   Y50       42.84009   0.01074   0.00000   0.01572   0.01829  42.85838
   Z50       30.68915   0.00876   0.00000   0.00602   0.00802  30.69717
   X51       36.16936   0.00004   0.00000   0.00675   0.00585  36.17520
   Y51       43.35032   0.00130   0.00000  -0.00824  -0.00504  43.34528
   Z51       28.96950  -0.01204   0.00000  -0.01893  -0.01675  28.95276
   X52       34.80876  -0.01485   0.00000  -0.00506  -0.00586  34.80289
   Y52       41.80074  -0.01697   0.00000  -0.04430  -0.04177  41.75897
   Z52       30.95371   0.00012   0.00000  -0.01196  -0.01025  30.94346
   X53       34.97883   0.00924   0.00000   0.00091   0.00023  34.97906
   Y53       29.66870   0.01617   0.00000   0.01903   0.01907  29.68777
   Z53       37.73783  -0.00184   0.00000   0.01104   0.00835  37.74618
   X54       33.20249  -0.01757   0.00000  -0.02116  -0.02186  33.18063
   Y54       29.42304  -0.00060   0.00000   0.00797   0.00812  29.43115
   Z54       37.64334  -0.00252   0.00000  -0.00899  -0.01164  37.63170
   X55       35.64023   0.00650   0.00000   0.01197   0.01127  35.65150
   Y55       28.08133  -0.01181   0.00000  -0.00444  -0.00461  28.07672
   Z55       38.26695   0.00351   0.00000   0.00104  -0.00229  38.26467
   X56       27.91125  -0.01337   0.00000   0.00301   0.00270  27.91395
   Y56       40.53463  -0.00907   0.00000  -0.00164  -0.00143  40.53320
   Z56       37.88901   0.01515   0.00000   0.03206   0.03384  37.92285
   X57       29.47973   0.01454   0.00000   0.00238   0.00200  29.48173
   Y57       40.74250   0.00327   0.00000  -0.00299  -0.00248  40.74001
   Z57       37.00084  -0.01351   0.00000  -0.03132  -0.02957  36.97126
   X58       27.19316   0.00142   0.00000   0.01128   0.01103  27.20419
   Y58       42.19758   0.00727   0.00000   0.01283   0.01306  42.21065
   Z58       37.94570  -0.00237   0.00000  -0.01101  -0.00856  37.93714
   X59       30.65136  -0.00861   0.00000  -0.00492  -0.00520  30.64616
   Y59       32.61667   0.00101   0.00000  -0.00459  -0.00586  32.61082
   Z59       41.74405  -0.01307   0.00000  -0.01095  -0.01225  41.73180
   X60       29.59311   0.00114   0.00000   0.01671   0.01652  29.60963
   Y60       32.16314  -0.00306   0.00000  -0.00811  -0.00985  32.15329
   Z60       43.14245   0.00789   0.00000   0.01671   0.01532  43.15777
   X61       32.33321   0.01082   0.00000   0.00925   0.00902  32.34223
   Y61       32.57888   0.00319   0.00000   0.02407   0.02250  32.60138
   Z61       42.42435   0.00677   0.00000   0.00739   0.00595  42.43030
   X62       41.17713  -0.00387   0.00000  -0.02579  -0.02658  41.15055
   Y62       27.53331  -0.02470   0.00000  -0.02674  -0.02674  27.50657
   Z62       37.30319   0.00286   0.00000  -0.01637  -0.02033  37.28287
   X63       40.68580  -0.00335   0.00000   0.00705   0.00630  40.69210
   Y63       29.25296   0.02355   0.00000   0.02472   0.02482  29.27778
   Z63       37.05753  -0.00123   0.00000   0.01605   0.01278  37.07031
   X64       42.63222   0.00420   0.00000   0.00375   0.00287  42.63509
   Y64       27.32544   0.00080   0.00000   0.00007   0.00040  27.32584
   Z64       36.24495  -0.00279   0.00000   0.00457   0.00043  36.24538
   X65       44.93769   0.01567   0.00000   0.01362   0.01367  44.95136
   Y65       34.12845  -0.00538   0.00000   0.00358   0.00045  34.12890
   Z65       45.56130   0.00590   0.00000   0.00371   0.00187  45.56317
   X66       43.65267  -0.01261   0.00000  -0.01102  -0.01104  43.64163
   Y66       34.46860   0.00422   0.00000   0.00761   0.00497  34.47358
   Z66       44.33298  -0.00962   0.00000  -0.00612  -0.00773  44.32525
   X67       44.25739  -0.00429   0.00000  -0.00954  -0.00935  44.24804
   Y67       34.77096   0.00234   0.00000   0.00553   0.00186  34.77282
   Z67       47.11087   0.00266   0.00000   0.00091  -0.00064  47.11024
   X68       29.68760   0.01153   0.00000  -0.00263  -0.00265  29.68495
   Y68       38.51262   0.00544   0.00000   0.02538   0.02380  38.53642
   Z68       42.67002   0.01119   0.00000   0.01773   0.01865  42.68867
   X69       28.85612  -0.00498   0.00000   0.00394   0.00388  28.86000
   Y69       39.72204   0.00557   0.00000  -0.00478  -0.00592  39.71613
   Z69       41.61177  -0.01561   0.00000  -0.05471  -0.05329  41.55848
   X70       28.68604  -0.00202   0.00000   0.02610   0.02602  28.71206
   Y70       37.01973  -0.01048   0.00000  -0.01271  -0.01420  37.00554
   Z70       42.53774  -0.00469   0.00000  -0.01988  -0.01944  42.51830
   X71       29.70649   0.00309   0.00000   0.02160   0.02090  29.72739
   Y71       31.86078  -0.00960   0.00000  -0.00059   0.00003  31.86082
   Z71       36.64179  -0.02140   0.00000  -0.01495  -0.01646  36.62533
   X72       30.08444   0.00264   0.00000  -0.00258  -0.00313  30.08131
   Y72       32.08755   0.00637   0.00000   0.01448   0.01444  32.10199
   Z72       38.39924   0.02216   0.00000   0.02335   0.02191  38.42114
   X73       28.81832  -0.00386   0.00000  -0.00551  -0.00620  28.81213
   Y73       33.37256   0.00598   0.00000   0.00119   0.00200  33.37457
   Z73       36.18826   0.00006   0.00000   0.00020  -0.00069  36.18757
   X74       45.58019   0.02363   0.00000   0.01230   0.01126  45.59145
   Y74       37.34099   0.00711   0.00000   0.02484   0.02744  37.36843
   Z74       29.76319  -0.00734   0.00000  -0.01206  -0.01277  29.75042
   X75       43.93613  -0.02588   0.00000  -0.04688  -0.04787  43.88826
   Y75       37.96460  -0.00260   0.00000  -0.03328  -0.03075  37.93384
   Z75       30.12223  -0.00028   0.00000  -0.02532  -0.02569  30.09654
   X76       45.42902  -0.00177   0.00000   0.01429   0.01320  45.44222
   Y76       35.54575  -0.00192   0.00000   0.01650   0.01906  35.56481
   Z76       29.85767   0.00309   0.00000   0.01251   0.01115  29.86883
   X77       36.98194   0.00349   0.00000   0.00799   0.00687  36.98881
   Y77       27.68449  -0.01105   0.00000  -0.01954  -0.01782  27.66667
   Z77       32.95682  -0.01439   0.00000  -0.00704  -0.01063  32.94620
   X78       38.09688   0.00443   0.00000   0.01338   0.01235  38.10923
   Y78       27.23095   0.00295   0.00000   0.01407   0.01526  27.24621
   Z78       34.31743   0.00761   0.00000   0.01328   0.00946  34.32689
   X79       35.96149  -0.00221   0.00000   0.01604   0.01503  35.97651
   Y79       29.00730   0.00806   0.00000   0.00101   0.00251  29.00980
   Z79       33.63713   0.00879   0.00000   0.01575   0.01273  33.64985
   X80       40.59132  -0.00468   0.00000  -0.01771  -0.01778  40.57354
   Y80       48.71714   0.02008   0.00000   0.04751   0.04745  48.76459
   Z80       37.51106  -0.01177   0.00000  -0.00828  -0.00447  37.50660
   X81       42.21648   0.00136   0.00000   0.00857   0.00853  42.22501
   Y81       49.52972  -0.00162   0.00000  -0.00583  -0.00597  49.52376
   Z81       37.58665  -0.00136   0.00000  -0.01351  -0.00954  37.57711
   X82       40.70470  -0.00287   0.00000  -0.02680  -0.02682  40.67788
   Y82       47.39433  -0.01140   0.00000   0.00097   0.00047  47.39480
   Z82       38.73939   0.00874   0.00000  -0.01557  -0.01226  38.72713
   X83       31.04820   0.00561   0.00000   0.01628   0.01659  31.06479
   Y83       37.41658  -0.00956   0.00000  -0.00368  -0.00704  37.40953
   Z83       47.45102   0.02107   0.00000   0.03304   0.03345  47.48447
   X84       29.42304  -0.00112   0.00000   0.00907   0.00941  29.43244
   Y84       38.21026   0.00326   0.00000   0.00319  -0.00015  38.21012
   Z84       47.56441  -0.00702   0.00000  -0.01819  -0.01737  47.54704
   X85       31.63402  -0.00367   0.00000  -0.02084  -0.02064  31.61337
   Y85       37.81342   0.00623   0.00000   0.01007   0.00730  37.82072
   Z85       45.78806  -0.01103   0.00000   0.00121   0.00173  45.78980
   X86       34.73317  -0.01265   0.00000  -0.00424  -0.00385  34.72932
   Y86       46.82741   0.01715   0.00000   0.02603   0.02366  46.85107
   Z86       44.38967   0.00717   0.00000   0.01643   0.02000  44.40967
   X87       33.37256   0.00306   0.00000   0.00355   0.00396  33.37653
   Y87       45.86365  -0.00244   0.00000  -0.00605  -0.00863  45.85502
   Z87       45.12666  -0.00365   0.00000  -0.01832  -0.01501  45.11165
   X88       35.99928   0.00956   0.00000  -0.00014   0.00018  35.99946
   Y88       45.59909  -0.01345   0.00000  -0.00500  -0.00727  45.59182
   Z88       44.01172  -0.00221   0.00000  -0.00074   0.00227  44.01399
   X89       45.69358  -0.01120   0.00000  -0.00203  -0.00232  45.69125
   Y89       45.18335   0.02243   0.00000   0.03172   0.03201  45.21536
   Z89       36.11267   0.00191   0.00000  -0.00820  -0.00606  36.10661
   X90       47.14867   0.00926   0.00000   0.00490   0.00469  47.15335
   Y90       45.08887  -0.00548   0.00000  -0.01608  -0.01623  45.07263
   Z90       37.17091   0.00621   0.00000   0.00725   0.00923  37.18014
   X91       45.71248  -0.00305   0.00000  -0.03100  -0.03142  45.68106
   Y91       43.65267  -0.01917   0.00000  -0.02917  -0.02855  43.62412
   Z91       35.14891  -0.00144   0.00000   0.03420   0.03576  35.18467
   X92       33.27808  -0.01570   0.00000  -0.01394  -0.01386  33.26422
   Y92       31.89858  -0.01430   0.00000  -0.01345  -0.01670  31.88187
   Z92       46.97859   0.00206   0.00000  -0.01723  -0.01900  46.95959
   X93       34.60089   0.00534   0.00000   0.00690   0.00701  34.60789
   Y93       30.87813  -0.00146   0.00000   0.00464   0.00109  30.87921
   Z93       47.67779  -0.00028   0.00000  -0.00869  -0.01092  47.66687
   X94       34.12845   0.00883   0.00000  -0.00168  -0.00160  34.12685
   Y94       33.29697   0.01747   0.00000   0.02897   0.02596  33.32293
   Z94       46.22270  -0.00652   0.00000   0.00284   0.00154  46.22424
   X95       31.25607  -0.00653   0.00000  -0.02222  -0.02237  31.23370
   Y95       47.73448  -0.00103   0.00000  -0.00661  -0.00613  47.72835
   Z95       36.88745   0.00869   0.00000  -0.00127   0.00288  36.89033
   X96       32.25763   0.00414   0.00000   0.00875   0.00850  32.26613
   Y96       46.35498  -0.00351   0.00000  -0.00183  -0.00117  46.35382
   Z96       36.26384   0.00008   0.00000   0.01263   0.01620  36.28004
   X97       31.10489   0.00173   0.00000   0.01057   0.01035  31.11524
   Y97       48.86832   0.00246   0.00000  -0.00533  -0.00433  48.86399
   Z97       35.48906  -0.00773   0.00000  -0.01775  -0.01318  35.47588
         Item               Value     Threshold  Converged?
 Maximum Force            0.035347     0.000450     NO 
 RMS     Force            0.009987     0.000300     NO 
 Maximum Displacement     0.053289     0.001800     NO 
 RMS     Displacement     0.017512     0.001200     NO 
 Predicted change in Energy=-2.484114D-02
 GradGradGradGradGradGradGradGradGradGradGradGradGradGradGradGradGradGrad

 Leave Link  103 at Thu May  3 13:07:41 2018, MaxMem= 14763950080 cpu:        66.4
 (Enter /cm/shared/gaussian/g09.e01/intel64-sandybridge/g09/l9999.exe)
 1\1\GINC-POPLE03\Force\RPBE1PBE\CC-pVDZ\Br1H64O32(1-)\M.PELUSO\03-May-
 2018\0\\#p PBE1PBE/cc-pvDZ force Counterpoise=2 noSymm\\forces on chlo
 ride comput - NWATER: 32\\-1,1\Br,20.,20.,20.\O,21.79,17.95,22.\H,21.3
 3,18.5,21.36\H,22.58,17.66,21.54\O,20.85,17.09,19.31\H,19.98,17.17,19.
 72\H,21.01,17.95,18.93\O,18.99,18.72,23.04\H,18.82,19.36,22.35\H,19.87
 ,18.4,22.86\O,17.74,18.34,17.66\H,17.15,17.73,18.09\H,18.52,18.36,18.2
 2\O,18.01,22.56,20.86\H,18.87,22.44,21.25\H,17.61,21.68,20.87\O,17.21,
 21.74,18.45\H,17.59,20.87,18.3\H,17.78,22.13,19.12\O,21.9,23.31,20.78\
 H,22.61,23.65,20.24\H,21.3,22.9,20.16\O,23.66,21.17,18.47\H,23.47,20.9
 6,17.55\H,22.88,20.88,18.94\O,24.01,18.37,20.28\H,23.46,18.93,19.73\H,
 24.69,18.96,20.61\O,20.23,22.73,22.99\H,20.79,22.79,22.22\H,20.75,22.2
 2,23.62\O,23.86,21.32,22.07\H,23.02,21.31,21.61\H,23.78,22.03,22.7\O,2
 0.36,23.44,18.47\H,19.93,23.1,17.68\H,20.22,24.39,18.43\O,21.67,21.23,
 16.26\H,22.38,21.87,16.25\H,20.94,21.69,16.66\O,19.94,17.67,15.39\H,20
 .17,17.93,16.28\H,20.45,18.24,14.82\O,17.83,20.34,15.58\H,17.72,19.66,
 16.25\H,18.33,19.91,14.89\O,22.44,17.71,17.1\H,22.11,16.9,17.48\H,23.1
 2,17.43,16.49\O,19.19,22.67,16.24\H,19.14,22.94,15.33\H,18.42,22.12,16
 .38\O,18.51,15.7,19.97\H,17.57,15.57,19.92\H,18.86,14.86,20.25\O,14.77
 ,21.45,20.05\H,15.6,21.56,19.58\H,14.39,22.33,20.08\O,16.22,17.26,22.0
 9\H,15.66,17.02,22.83\H,17.11,17.24,22.45\O,21.79,14.57,19.74\H,21.53,
 15.48,19.61\H,22.56,14.46,19.18\O,23.78,18.06,24.11\H,23.1,18.24,23.46
 \H,23.42,18.4,24.93\O,15.71,20.38,22.58\H,15.27,21.02,22.02\H,15.18,19
 .59,22.51\O,15.72,16.86,19.39\H,15.92,16.98,20.32\H,15.25,17.66,19.15\
 O,24.12,19.76,15.75\H,23.25,20.09,15.94\H,24.04,18.81,15.8\O,19.57,14.
 65,17.44\H,20.16,14.41,18.16\H,19.03,15.35,17.8\O,21.48,25.78,19.85\H,
 22.34,26.21,19.89\H,21.54,25.08,20.5\O,16.43,19.8,25.11\H,15.57,20.22,
 25.17\H,16.74,20.01,24.23\O,18.38,24.78,23.49\H,17.66,24.27,23.88\H,19
 .05,24.13,23.29\O,24.18,23.91,19.11\H,24.95,23.86,19.67\H,24.19,23.1,1
 8.6\O,17.61,16.88,24.86\H,18.31,16.34,25.23\H,18.06,17.62,24.46\O,16.5
 4,25.26,19.52\H,17.07,24.53,19.19\H,16.46,25.86,18.78\\Version=ES64L-G
 09RevE.01\HF=-2443.2297401\RMSD=2.639e-09\RMSF=9.987e-03\Dipole=0.7804
 45,0.3592624,-2.2273911\Quadrupole=115.9428381,19.8851542,-135.8279923
 ,-1365.0555229,-1468.9867698,-1516.6172343\PG=C01 [X(Br1H64O32)]\\@


      HUMANKIND PERIODICALLY GOES THROUGH A SPEEDUP OF ITS AFFAIRS, 
      THEREBY EXPERIENCING THE RACE BETWEEN THE RENEWABLE VITALITY
      OF THE LIVING, AND THE BECKONING VITIATION OF DECADENCE.
      IN THIS PERIODIC RACE, ANY PAUSE BECOMES A LUXURY.
      ONLY THEN CAN ONE REFLECT THAT ALL IS PERMITTED;
      ALL IS POSSIBLE.

                              -- THE APOCRYPHA OF MUAD'DIB
                                 CHILDREN OF DUNE, BY FRANK HERBERT
 Job cpu time:       0 days 10 hours 40 minutes 38.3 seconds.
 File lengths (MBytes):  RWF=    482 Int=      0 D2E=      0 Chk=    160 Scr=      1
 Normal termination of Gaussian 09 at Thu May  3 13:07:42 2018.
