 Entering Gaussian System, Link 0=/cm/shared/gaussian/g09.e01/intel64-sandybridge/g09/g09
 Initial command:
 /cm/shared/gaussian/g09.e01/intel64-sandybridge/g09/l1.exe "/local/scratch/m.peluso/32_wat/Gau-16451.inp" -scrdir="/local/scratch/m.peluso/32_wat/"
 Entering Link 1 = /cm/shared/gaussian/g09.e01/intel64-sandybridge/g09/l1.exe PID=     16452.
  
 Copyright (c) 1988,1990,1992,1993,1995,1998,2003,2009,2015,
            Gaussian, Inc.  All Rights Reserved.
  
 This is part of the Gaussian(R) 09 program.  It is based on
 the Gaussian(R) 03 system (copyright 2003, Gaussian, Inc.),
 the Gaussian(R) 98 system (copyright 1998, Gaussian, Inc.),
 the Gaussian(R) 94 system (copyright 1995, Gaussian, Inc.),
 the Gaussian 92(TM) system (copyright 1992, Gaussian, Inc.),
 the Gaussian 90(TM) system (copyright 1990, Gaussian, Inc.),
 the Gaussian 88(TM) system (copyright 1988, Gaussian, Inc.),
 the Gaussian 86(TM) system (copyright 1986, Carnegie Mellon
 University), and the Gaussian 82(TM) system (copyright 1983,
 Carnegie Mellon University). Gaussian is a federally registered
 trademark of Gaussian, Inc.
  
 This software contains proprietary and confidential information,
 including trade secrets, belonging to Gaussian, Inc.
  
 This software is provided under written license and may be
 used, copied, transmitted, or stored only in accord with that
 written license.
  
 The following legend is applicable only to US Government
 contracts under FAR:
  
                    RESTRICTED RIGHTS LEGEND
  
 Use, reproduction and disclosure by the US Government is
 subject to restrictions as set forth in subparagraphs (a)
 and (c) of the Commercial Computer Software - Restricted
 Rights clause in FAR 52.227-19.
  
 Gaussian, Inc.
 340 Quinnipiac St., Bldg. 40, Wallingford CT 06492
  
  
 ---------------------------------------------------------------
 Warning -- This program may not be used in any manner that
 competes with the business of Gaussian, Inc. or will provide
 assistance to any competitor of Gaussian, Inc.  The licensee
 of this program is prohibited from giving any competitor of
 Gaussian, Inc. access to this program.  By using this program,
 the user acknowledges that Gaussian, Inc. is engaged in the
 business of creating and licensing software in the field of
 computational chemistry and represents and warrants to the
 licensee that it is not a competitor of Gaussian, Inc. and that
 it will not use this program in any manner prohibited above.
 ---------------------------------------------------------------
  

 Cite this work as:
 Gaussian 09, Revision E.01,
 M. J. Frisch, G. W. Trucks, H. B. Schlegel, G. E. Scuseria, 
 M. A. Robb, J. R. Cheeseman, G. Scalmani, V. Barone, B. Mennucci, 
 G. A. Petersson, H. Nakatsuji, M. Caricato, X. Li, H. P. Hratchian, 
 A. F. Izmaylov, J. Bloino, G. Zheng, J. L. Sonnenberg, M. Hada, 
 M. Ehara, K. Toyota, R. Fukuda, J. Hasegawa, M. Ishida, T. Nakajima, 
 Y. Honda, O. Kitao, H. Nakai, T. Vreven, J. A. Montgomery, Jr., 
 J. E. Peralta, F. Ogliaro, M. Bearpark, J. J. Heyd, E. Brothers, 
 K. N. Kudin, V. N. Staroverov, T. Keith, R. Kobayashi, J. Normand, 
 K. Raghavachari, A. Rendell, J. C. Burant, S. S. Iyengar, J. Tomasi, 
 M. Cossi, N. Rega, J. M. Millam, M. Klene, J. E. Knox, J. B. Cross, 
 V. Bakken, C. Adamo, J. Jaramillo, R. Gomperts, R. E. Stratmann, 
 O. Yazyev, A. J. Austin, R. Cammi, C. Pomelli, J. W. Ochterski, 
 R. L. Martin, K. Morokuma, V. G. Zakrzewski, G. A. Voth, 
 P. Salvador, J. J. Dannenberg, S. Dapprich, A. D. Daniels, 
 O. Farkas, J. B. Foresman, J. V. Ortiz, J. Cioslowski, 
 and D. J. Fox, Gaussian, Inc., Wallingford CT, 2013.
 
 ******************************************
 Gaussian 09:  ES64L-G09RevE.01 30-Nov-2015
                 2-May-2018 
 ******************************************
 %Mem=110GB
 %NProcShared=64
 Will use up to   64 processors via shared memory.
 %chk=snap47.chk
 ----------------------------------------------
 #p PBE1PBE/cc-pvDZ force Counterpoise=2 noSymm
 ----------------------------------------------
 1/10=7,30=1,38=1,62=2/1,3;
 2/12=2,15=1,17=6,18=5,40=1/2;
 1/10=7,30=1,38=1,53=2,62=2,63=101/22;
 3/5=16,11=2,16=1,25=1,30=1,71=1,74=-13/1,2,3;
 4//1;
 5/5=2,38=5/2;
 6/7=2,8=2,9=2,10=2,28=1/1;
 7/7=1,29=1,30=1,33=-1/1,2,3,16;
 1/10=7,30=1,53=2,62=2,63=101/22;
 3/5=7,6=11,11=2,16=1,25=1,30=1,71=1,74=-13,82=7/1,2,3;
 4//1;
 5/5=2,38=5/2;
 6/7=2,8=2,9=2,10=2,28=1/1;
 7/7=1,29=1,30=1,33=-1/1,2,3,16;
 1/10=7,30=1,53=2,62=2,63=101/22(-5);
 7/9=1,29=1,44=-1/16;
 1/10=7,30=1,62=2/3;
 99//99;
 Leave Link    1 at Wed May  2 17:38:57 2018, MaxMem= 14763950080 cpu:         4.3
 (Enter /cm/shared/gaussian/g09.e01/intel64-sandybridge/g09/l101.exe)
 --------------------------------------
 forces on chloride comput - NWATER: 32
 --------------------------------------
 Symbolic Z-matrix:
 Charge = -1 Multiplicity = 1 in supermolecule
 Charge = -1 Multiplicity = 1 in fragment      1.
 Charge =  0 Multiplicity = 1 in fragment      2.
 Br(Fragment=1)        20.       20.       20. 
 O(Fragment=2)         18.48     22.1      21.9 
 H(Fragment=2)         17.73     21.99     21.32 
 H(Fragment=2)         19.19     21.63     21.47 
 O(Fragment=2)         21.57     17.03     19.49 
 H(Fragment=2)         21.16     17.89     19.58 
 H(Fragment=2)         21.94     16.86     20.36 
 O(Fragment=2)         16.69     21.02     20.32 
 H(Fragment=2)         17.56     20.66     20.12 
 H(Fragment=2)         16.2      20.93     19.5 
 O(Fragment=2)         20.47     19.26     23.31 
 H(Fragment=2)         21.12     18.6      23.54 
 H(Fragment=2)         20.69     19.52     22.42 
 O(Fragment=2)         23.35     20.55     18.65 
 H(Fragment=2)         22.47     20.29     18.9 
 H(Fragment=2)         23.74     19.77     18.27 
 O(Fragment=2)         18.8      21.87     16.73 
 H(Fragment=2)         19.22     21.63     17.56 
 H(Fragment=2)         18.46     21.04     16.39 
 O(Fragment=2)         17.86     17.19     21.87 
 H(Fragment=2)         18.27     17.9      21.38 
 H(Fragment=2)         16.98     17.12     21.5 
 O(Fragment=2)         22.44     22.42     16.8 
 H(Fragment=2)         22.97     22.13     16.06 
 H(Fragment=2)         22.66     21.81     17.5 
 O(Fragment=2)         17.1      17.25     16.52 
 H(Fragment=2)         17.82     17.54     17.07 
 H(Fragment=2)         16.58     18.04     16.37 
 O(Fragment=2)         18.44     20.07     24.95 
 H(Fragment=2)         18.86     20.17     25.8 
 H(Fragment=2)         19.16     19.91     24.34 
 O(Fragment=2)         20.85     19.84     15.56 
 H(Fragment=2)         20.47     20.71     15.62 
 H(Fragment=2)         21.74     19.99     15.23 
 O(Fragment=2)         24.65     22.52     19.98 
 H(Fragment=2)         24.02     21.98     19.51 
 H(Fragment=2)         24.52     23.4      19.63 
 O(Fragment=2)         22.81     16.33     17.23 
 H(Fragment=2)         23.57     16.92     17.18 
 H(Fragment=2)         22.42     16.51     18.08 
 O(Fragment=2)         16.85     22.26     24.08 
 H(Fragment=2)         16.86     21.53     24.7 
 H(Fragment=2)         17.36     21.96     23.33 
 O(Fragment=2)         20.17     14.52     19.51 
 H(Fragment=2)         20.44     15.36     19.14 
 H(Fragment=2)         19.24     14.45     19.29 
 O(Fragment=2)         22.52     23.41     22.61 
 H(Fragment=2)         21.67     23.28     23.04 
 H(Fragment=2)         22.96     22.56     22.68 
 O(Fragment=2)         19.53     16.27     23.83 
 H(Fragment=2)         19.01     16.48     23.05 
 H(Fragment=2)         20.41     16.6      23.61 
 O(Fragment=2)         16.25     22.7      17.36 
 H(Fragment=2)         16.01     23.59     17.09 
 H(Fragment=2)         17.19     22.64     17.17 
 O(Fragment=2)         21.25     24.62     17.93 
 H(Fragment=2)         21.65     23.85     17.53 
 H(Fragment=2)         21.79     24.82     18.69 
 O(Fragment=2)         20.39     22.36     24.89 
 H(Fragment=2)         19.47     22.12     24.98 
 H(Fragment=2)         20.82     21.57     24.58 
 O(Fragment=2)         22.23     17.3      23.89 
 H(Fragment=2)         22.58     16.6      24.45 
 H(Fragment=2)         22.61     17.12     23.03 
 O(Fragment=2)         20.8      17.06     15.44 
 H(Fragment=2)         21.58     16.96     15.99 
 H(Fragment=2)         20.56     17.98     15.52 
 O(Fragment=2)         18.74     24.52     23.54 
 H(Fragment=2)         18.24     24.52     24.36 
 H(Fragment=2)         18.57     23.66     23.16 
 O(Fragment=2)         18.72     25.28     18.52 
 H(Fragment=2)         19.52     24.77     18.41 
 H(Fragment=2)         18.48     25.17     19.44 
 O(Fragment=2)         23.44     16.67     21.61 
 H(Fragment=2)         24.16     17.01     21.07 
 H(Fragment=2)         23.8      15.88     22.02 
 O(Fragment=2)         15.52     17.71     20.6 
 H(Fragment=2)         15.09     17.61     19.75 
 H(Fragment=2)         14.87     18.12     21.16 
 O(Fragment=2)         22.88     24.83     20.19 
 H(Fragment=2)         22.84     24.24     20.94 
 H(Fragment=2)         23.35     25.6      20.51 
 O(Fragment=2)         24.77     21.17     22.53 
 H(Fragment=2)         25.47     21.52     23.07 
 H(Fragment=2)         24.72     21.76     21.78 
 O(Fragment=2)         23.85     19.65     24.45 
 H(Fragment=2)         23.33     18.95     24.06 
 H(Fragment=2)         24.44     19.92     23.76 
 O(Fragment=2)         14.25     21.25     21.99 
 H(Fragment=2)         15.14     21.53     21.81 
 H(Fragment=2)         13.86     21.11     21.13 
 O(Fragment=2)         16.84     20.35     15.62 
 H(Fragment=2)         15.89     20.49     15.64 
 H(Fragment=2)         17.04     20.16     14.71 
 O(Fragment=2)         19.35     22.42     14.14 
 H(Fragment=2)         18.96     22.23     15. 
 H(Fragment=2)         20.01     23.08     14.32 
 
 NAtoms=     97 NQM=       97 NQMF=       0 NMMI=      0 NMMIF=      0
                NMic=       0 NMicF=      0.
                    Isotopes and Nuclear Properties:
 (Nuclear quadrupole moments (NQMom) in fm**2, nuclear magnetic moments (NMagM)
  in nuclear magnetons)

  Atom         1           2           3           4           5           6           7           8           9          10
 IAtWgt=          79          16           1           1          16           1           1          16           1           1
 AtmWgt=  78.9183361  15.9949146   1.0078250   1.0078250  15.9949146   1.0078250   1.0078250  15.9949146   1.0078250   1.0078250
 NucSpn=           3           0           1           1           0           1           1           0           1           1
 AtZEff=   0.0000000   0.0000000   0.0000000   0.0000000   0.0000000   0.0000000   0.0000000   0.0000000   0.0000000   0.0000000
 NQMom=   31.3000000   0.0000000   0.0000000   0.0000000   0.0000000   0.0000000   0.0000000   0.0000000   0.0000000   0.0000000
 NMagM=    2.1063990   0.0000000   2.7928460   2.7928460   0.0000000   2.7928460   2.7928460   0.0000000   2.7928460   2.7928460
 AtZNuc=  35.0000000   8.0000000   1.0000000   1.0000000   8.0000000   1.0000000   1.0000000   8.0000000   1.0000000   1.0000000

  Atom        11          12          13          14          15          16          17          18          19          20
 IAtWgt=          16           1           1          16           1           1          16           1           1          16
 AtmWgt=  15.9949146   1.0078250   1.0078250  15.9949146   1.0078250   1.0078250  15.9949146   1.0078250   1.0078250  15.9949146
 NucSpn=           0           1           1           0           1           1           0           1           1           0
 AtZEff=   0.0000000   0.0000000   0.0000000   0.0000000   0.0000000   0.0000000   0.0000000   0.0000000   0.0000000   0.0000000
 NQMom=    0.0000000   0.0000000   0.0000000   0.0000000   0.0000000   0.0000000   0.0000000   0.0000000   0.0000000   0.0000000
 NMagM=    0.0000000   2.7928460   2.7928460   0.0000000   2.7928460   2.7928460   0.0000000   2.7928460   2.7928460   0.0000000
 AtZNuc=   8.0000000   1.0000000   1.0000000   8.0000000   1.0000000   1.0000000   8.0000000   1.0000000   1.0000000   8.0000000

  Atom        21          22          23          24          25          26          27          28          29          30
 IAtWgt=           1           1          16           1           1          16           1           1          16           1
 AtmWgt=   1.0078250   1.0078250  15.9949146   1.0078250   1.0078250  15.9949146   1.0078250   1.0078250  15.9949146   1.0078250
 NucSpn=           1           1           0           1           1           0           1           1           0           1
 AtZEff=   0.0000000   0.0000000   0.0000000   0.0000000   0.0000000   0.0000000   0.0000000   0.0000000   0.0000000   0.0000000
 NQMom=    0.0000000   0.0000000   0.0000000   0.0000000   0.0000000   0.0000000   0.0000000   0.0000000   0.0000000   0.0000000
 NMagM=    2.7928460   2.7928460   0.0000000   2.7928460   2.7928460   0.0000000   2.7928460   2.7928460   0.0000000   2.7928460
 AtZNuc=   1.0000000   1.0000000   8.0000000   1.0000000   1.0000000   8.0000000   1.0000000   1.0000000   8.0000000   1.0000000

  Atom        31          32          33          34          35          36          37          38          39          40
 IAtWgt=           1          16           1           1          16           1           1          16           1           1
 AtmWgt=   1.0078250  15.9949146   1.0078250   1.0078250  15.9949146   1.0078250   1.0078250  15.9949146   1.0078250   1.0078250
 NucSpn=           1           0           1           1           0           1           1           0           1           1
 AtZEff=   0.0000000   0.0000000   0.0000000   0.0000000   0.0000000   0.0000000   0.0000000   0.0000000   0.0000000   0.0000000
 NQMom=    0.0000000   0.0000000   0.0000000   0.0000000   0.0000000   0.0000000   0.0000000   0.0000000   0.0000000   0.0000000
 NMagM=    2.7928460   0.0000000   2.7928460   2.7928460   0.0000000   2.7928460   2.7928460   0.0000000   2.7928460   2.7928460
 AtZNuc=   1.0000000   8.0000000   1.0000000   1.0000000   8.0000000   1.0000000   1.0000000   8.0000000   1.0000000   1.0000000

  Atom        41          42          43          44          45          46          47          48          49          50
 IAtWgt=          16           1           1          16           1           1          16           1           1          16
 AtmWgt=  15.9949146   1.0078250   1.0078250  15.9949146   1.0078250   1.0078250  15.9949146   1.0078250   1.0078250  15.9949146
 NucSpn=           0           1           1           0           1           1           0           1           1           0
 AtZEff=   0.0000000   0.0000000   0.0000000   0.0000000   0.0000000   0.0000000   0.0000000   0.0000000   0.0000000   0.0000000
 NQMom=    0.0000000   0.0000000   0.0000000   0.0000000   0.0000000   0.0000000   0.0000000   0.0000000   0.0000000   0.0000000
 NMagM=    0.0000000   2.7928460   2.7928460   0.0000000   2.7928460   2.7928460   0.0000000   2.7928460   2.7928460   0.0000000
 AtZNuc=   8.0000000   1.0000000   1.0000000   8.0000000   1.0000000   1.0000000   8.0000000   1.0000000   1.0000000   8.0000000

  Atom        51          52          53          54          55          56          57          58          59          60
 IAtWgt=           1           1          16           1           1          16           1           1          16           1
 AtmWgt=   1.0078250   1.0078250  15.9949146   1.0078250   1.0078250  15.9949146   1.0078250   1.0078250  15.9949146   1.0078250
 NucSpn=           1           1           0           1           1           0           1           1           0           1
 AtZEff=   0.0000000   0.0000000   0.0000000   0.0000000   0.0000000   0.0000000   0.0000000   0.0000000   0.0000000   0.0000000
 NQMom=    0.0000000   0.0000000   0.0000000   0.0000000   0.0000000   0.0000000   0.0000000   0.0000000   0.0000000   0.0000000
 NMagM=    2.7928460   2.7928460   0.0000000   2.7928460   2.7928460   0.0000000   2.7928460   2.7928460   0.0000000   2.7928460
 AtZNuc=   1.0000000   1.0000000   8.0000000   1.0000000   1.0000000   8.0000000   1.0000000   1.0000000   8.0000000   1.0000000

  Atom        61          62          63          64          65          66          67          68          69          70
 IAtWgt=           1          16           1           1          16           1           1          16           1           1
 AtmWgt=   1.0078250  15.9949146   1.0078250   1.0078250  15.9949146   1.0078250   1.0078250  15.9949146   1.0078250   1.0078250
 NucSpn=           1           0           1           1           0           1           1           0           1           1
 AtZEff=   0.0000000   0.0000000   0.0000000   0.0000000   0.0000000   0.0000000   0.0000000   0.0000000   0.0000000   0.0000000
 NQMom=    0.0000000   0.0000000   0.0000000   0.0000000   0.0000000   0.0000000   0.0000000   0.0000000   0.0000000   0.0000000
 NMagM=    2.7928460   0.0000000   2.7928460   2.7928460   0.0000000   2.7928460   2.7928460   0.0000000   2.7928460   2.7928460
 AtZNuc=   1.0000000   8.0000000   1.0000000   1.0000000   8.0000000   1.0000000   1.0000000   8.0000000   1.0000000   1.0000000

  Atom        71          72          73          74          75          76          77          78          79          80
 IAtWgt=          16           1           1          16           1           1          16           1           1          16
 AtmWgt=  15.9949146   1.0078250   1.0078250  15.9949146   1.0078250   1.0078250  15.9949146   1.0078250   1.0078250  15.9949146
 NucSpn=           0           1           1           0           1           1           0           1           1           0
 AtZEff=   0.0000000   0.0000000   0.0000000   0.0000000   0.0000000   0.0000000   0.0000000   0.0000000   0.0000000   0.0000000
 NQMom=    0.0000000   0.0000000   0.0000000   0.0000000   0.0000000   0.0000000   0.0000000   0.0000000   0.0000000   0.0000000
 NMagM=    0.0000000   2.7928460   2.7928460   0.0000000   2.7928460   2.7928460   0.0000000   2.7928460   2.7928460   0.0000000
 AtZNuc=   8.0000000   1.0000000   1.0000000   8.0000000   1.0000000   1.0000000   8.0000000   1.0000000   1.0000000   8.0000000

  Atom        81          82          83          84          85          86          87          88          89          90
 IAtWgt=           1           1          16           1           1          16           1           1          16           1
 AtmWgt=   1.0078250   1.0078250  15.9949146   1.0078250   1.0078250  15.9949146   1.0078250   1.0078250  15.9949146   1.0078250
 NucSpn=           1           1           0           1           1           0           1           1           0           1
 AtZEff=   0.0000000   0.0000000   0.0000000   0.0000000   0.0000000   0.0000000   0.0000000   0.0000000   0.0000000   0.0000000
 NQMom=    0.0000000   0.0000000   0.0000000   0.0000000   0.0000000   0.0000000   0.0000000   0.0000000   0.0000000   0.0000000
 NMagM=    2.7928460   2.7928460   0.0000000   2.7928460   2.7928460   0.0000000   2.7928460   2.7928460   0.0000000   2.7928460
 AtZNuc=   1.0000000   1.0000000   8.0000000   1.0000000   1.0000000   8.0000000   1.0000000   1.0000000   8.0000000   1.0000000

  Atom        91          92          93          94          95          96          97
 IAtWgt=           1          16           1           1          16           1           1
 AtmWgt=   1.0078250  15.9949146   1.0078250   1.0078250  15.9949146   1.0078250   1.0078250
 NucSpn=           1           0           1           1           0           1           1
 AtZEff=   0.0000000   0.0000000   0.0000000   0.0000000   0.0000000   0.0000000   0.0000000
 NQMom=    0.0000000   0.0000000   0.0000000   0.0000000   0.0000000   0.0000000   0.0000000
 NMagM=    2.7928460   0.0000000   2.7928460   2.7928460   0.0000000   2.7928460   2.7928460
 AtZNuc=   1.0000000   8.0000000   1.0000000   1.0000000   8.0000000   1.0000000   1.0000000
 Leave Link  101 at Wed May  2 17:38:58 2018, MaxMem= 14763950080 cpu:        12.6
 (Enter /cm/shared/gaussian/g09.e01/intel64-sandybridge/g09/l103.exe)

 GradGradGradGradGradGradGradGradGradGradGradGradGradGradGradGradGradGrad
 Berny optimization.
 Initialization pass.
 Trust Radius=3.00D-01 FncErr=1.00D-07 GrdErr=1.00D-07
 Number of steps in this run=      2 maximum allowed number of steps=      2.
 GradGradGradGradGradGradGradGradGradGradGradGradGradGradGradGradGradGrad

 Leave Link  103 at Wed May  2 17:38:58 2018, MaxMem= 14763950080 cpu:         1.7
 (Enter /cm/shared/gaussian/g09.e01/intel64-sandybridge/g09/l202.exe)
 Symmetry turned off by external request.
 Stoichiometry    BrH64O32(1-)
 Framework group  C1[X(BrH64O32)]
 Deg. of freedom   285
 Full point group                 C1      NOp   1
                          Input orientation:                          
 ---------------------------------------------------------------------
 Center     Atomic      Atomic             Coordinates (Angstroms)
 Number     Number       Type             X           Y           Z
 ---------------------------------------------------------------------
      1         35           0       20.000000   20.000000   20.000000
      2          8           0       18.480000   22.100000   21.900000
      3          1           0       17.730000   21.990000   21.320000
      4          1           0       19.190000   21.630000   21.470000
      5          8           0       21.570000   17.030000   19.490000
      6          1           0       21.160000   17.890000   19.580000
      7          1           0       21.940000   16.860000   20.360000
      8          8           0       16.690000   21.020000   20.320000
      9          1           0       17.560000   20.660000   20.120000
     10          1           0       16.200000   20.930000   19.500000
     11          8           0       20.470000   19.260000   23.310000
     12          1           0       21.120000   18.600000   23.540000
     13          1           0       20.690000   19.520000   22.420000
     14          8           0       23.350000   20.550000   18.650000
     15          1           0       22.470000   20.290000   18.900000
     16          1           0       23.740000   19.770000   18.270000
     17          8           0       18.800000   21.870000   16.730000
     18          1           0       19.220000   21.630000   17.560000
     19          1           0       18.460000   21.040000   16.390000
     20          8           0       17.860000   17.190000   21.870000
     21          1           0       18.270000   17.900000   21.380000
     22          1           0       16.980000   17.120000   21.500000
     23          8           0       22.440000   22.420000   16.800000
     24          1           0       22.970000   22.130000   16.060000
     25          1           0       22.660000   21.810000   17.500000
     26          8           0       17.100000   17.250000   16.520000
     27          1           0       17.820000   17.540000   17.070000
     28          1           0       16.580000   18.040000   16.370000
     29          8           0       18.440000   20.070000   24.950000
     30          1           0       18.860000   20.170000   25.800000
     31          1           0       19.160000   19.910000   24.340000
     32          8           0       20.850000   19.840000   15.560000
     33          1           0       20.470000   20.710000   15.620000
     34          1           0       21.740000   19.990000   15.230000
     35          8           0       24.650000   22.520000   19.980000
     36          1           0       24.020000   21.980000   19.510000
     37          1           0       24.520000   23.400000   19.630000
     38          8           0       22.810000   16.330000   17.230000
     39          1           0       23.570000   16.920000   17.180000
     40          1           0       22.420000   16.510000   18.080000
     41          8           0       16.850000   22.260000   24.080000
     42          1           0       16.860000   21.530000   24.700000
     43          1           0       17.360000   21.960000   23.330000
     44          8           0       20.170000   14.520000   19.510000
     45          1           0       20.440000   15.360000   19.140000
     46          1           0       19.240000   14.450000   19.290000
     47          8           0       22.520000   23.410000   22.610000
     48          1           0       21.670000   23.280000   23.040000
     49          1           0       22.960000   22.560000   22.680000
     50          8           0       19.530000   16.270000   23.830000
     51          1           0       19.010000   16.480000   23.050000
     52          1           0       20.410000   16.600000   23.610000
     53          8           0       16.250000   22.700000   17.360000
     54          1           0       16.010000   23.590000   17.090000
     55          1           0       17.190000   22.640000   17.170000
     56          8           0       21.250000   24.620000   17.930000
     57          1           0       21.650000   23.850000   17.530000
     58          1           0       21.790000   24.820000   18.690000
     59          8           0       20.390000   22.360000   24.890000
     60          1           0       19.470000   22.120000   24.980000
     61          1           0       20.820000   21.570000   24.580000
     62          8           0       22.230000   17.300000   23.890000
     63          1           0       22.580000   16.600000   24.450000
     64          1           0       22.610000   17.120000   23.030000
     65          8           0       20.800000   17.060000   15.440000
     66          1           0       21.580000   16.960000   15.990000
     67          1           0       20.560000   17.980000   15.520000
     68          8           0       18.740000   24.520000   23.540000
     69          1           0       18.240000   24.520000   24.360000
     70          1           0       18.570000   23.660000   23.160000
     71          8           0       18.720000   25.280000   18.520000
     72          1           0       19.520000   24.770000   18.410000
     73          1           0       18.480000   25.170000   19.440000
     74          8           0       23.440000   16.670000   21.610000
     75          1           0       24.160000   17.010000   21.070000
     76          1           0       23.800000   15.880000   22.020000
     77          8           0       15.520000   17.710000   20.600000
     78          1           0       15.090000   17.610000   19.750000
     79          1           0       14.870000   18.120000   21.160000
     80          8           0       22.880000   24.830000   20.190000
     81          1           0       22.840000   24.240000   20.940000
     82          1           0       23.350000   25.600000   20.510000
     83          8           0       24.770000   21.170000   22.530000
     84          1           0       25.470000   21.520000   23.070000
     85          1           0       24.720000   21.760000   21.780000
     86          8           0       23.850000   19.650000   24.450000
     87          1           0       23.330000   18.950000   24.060000
     88          1           0       24.440000   19.920000   23.760000
     89          8           0       14.250000   21.250000   21.990000
     90          1           0       15.140000   21.530000   21.810000
     91          1           0       13.860000   21.110000   21.130000
     92          8           0       16.840000   20.350000   15.620000
     93          1           0       15.890000   20.490000   15.640000
     94          1           0       17.040000   20.160000   14.710000
     95          8           0       19.350000   22.420000   14.140000
     96          1           0       18.960000   22.230000   15.000000
     97          1           0       20.010000   23.080000   14.320000
 ---------------------------------------------------------------------
 Rotational constants (GHZ):      0.0560452      0.0503978      0.0483671
 Leave Link  202 at Wed May  2 17:38:58 2018, MaxMem= 14763950080 cpu:         0.6
 (Enter /cm/shared/gaussian/g09.e01/intel64-sandybridge/g09/l122.exe)
 Counterpoise: doing full dimer calculation.
 Leave Link  122 at Wed May  2 17:38:58 2018, MaxMem= 14763950080 cpu:         0.1
 (Enter /cm/shared/gaussian/g09.e01/intel64-sandybridge/g09/l301.exe)
 Standard basis: CC-pVDZ (5D, 7F)
 Ernie: Thresh=  0.10000D-02 Tol=  0.10000D-05 Strict=F.
 Ernie:  87 primitive shells out of 1114 were deleted.
   795 basis functions,  1651 primitive gaussians,   829 cartesian basis functions
   178 alpha electrons      178 beta electrons
       nuclear repulsion energy      5915.0898228006 Hartrees.
 IExCor= 1009 DFT=T Ex+Corr=PBE1PBE ExCW=0 ScaHFX=  0.250000
 ScaDFX=  0.750000  0.750000  1.000000  1.000000 ScalE2=  1.000000  1.000000
 IRadAn=      0 IRanWt=     -1 IRanGd=            0 ICorTp=0 IEmpDi=  4
 NAtoms=   97 NActive=   97 NUniq=   97 SFac= 1.00D+00 NAtFMM=   60 NAOKFM=T Big=T
 Integral buffers will be    131072 words long.
 Raffenetti 2 integral format.
 Two-electron integral symmetry is turned off.
 Leave Link  301 at Wed May  2 17:38:58 2018, MaxMem= 14763950080 cpu:         4.3
 (Enter /cm/shared/gaussian/g09.e01/intel64-sandybridge/g09/l302.exe)
 NPDir=0 NMtPBC=     1 NCelOv=     1 NCel=       1 NClECP=     1 NCelD=      1
         NCelK=      1 NCelE2=     1 NClLst=     1 CellRange=     0.0.
 One-electron integrals computed using PRISM.
 NBasis=   795 RedAO= T EigKep=  1.73D-02  NBF=   795
 NBsUse=   795 1.00D-06 EigRej= -1.00D+00 NBFU=   795
 Precomputing XC quadrature grid using
 IXCGrd= 4 IRadAn=           0 IRanWt=          -1 IRanGd=           0 AccXCQ= 0.00D+00.
 Generated NRdTot=       0 NPtTot=           0 NUsed=           0 NTot=          32
 NSgBfM=   709   719   719   732   732 MxSgAt=    97 MxSgA2=    97.
 Leave Link  302 at Wed May  2 17:39:04 2018, MaxMem= 14763950080 cpu:       410.3
 (Enter /cm/shared/gaussian/g09.e01/intel64-sandybridge/g09/l303.exe)
 DipDrv:  MaxL=1.
 Leave Link  303 at Wed May  2 17:39:05 2018, MaxMem= 14763950080 cpu:        28.5
 (Enter /cm/shared/gaussian/g09.e01/intel64-sandybridge/g09/l401.exe)
 ExpMin= 1.22D-01 ExpMax= 6.40D+05 ExpMxC= 6.18D+03 IAcc=2 IRadAn=         4 AccDes= 0.00D+00
 Harris functional with IExCor= 1009 and IRadAn=       4 diagonalized for initial guess.
 HarFok:  IExCor= 1009 AccDes= 0.00D+00 IRadAn=         4 IDoV= 1 UseB2=F ITyADJ=14
 ICtDFT=  3500011 ScaDFX=  1.000000  1.000000  1.000000  1.000000
 FoFCou: FMM=F IPFlag=           0 FMFlag=      100000 FMFlg1=        2001
         NFxFlg=           0 DoJE=T BraDBF=F KetDBF=T FulRan=T
         wScrn=  0.000000 ICntrl=     500 IOpCl=  0 I1Cent=   200000004 NGrid=           0
         NMat0=    1 NMatS0=      1 NMatT0=    0 NMatD0=    1 NMtDS0=    0 NMtDT0=    0
 Symmetry not used in FoFCou.
 Harris En= -5018.46142001348    
 JPrj=0 DoOrth=F DoCkMO=F.
 Leave Link  401 at Wed May  2 17:39:10 2018, MaxMem= 14763950080 cpu:       304.3
 (Enter /cm/shared/gaussian/g09.e01/intel64-sandybridge/g09/l502.exe)
 Closed shell SCF:
 Using DIIS extrapolation, IDIIS=  1040.
 Two-electron integral symmetry not used.
 IVT=     2138497 IEndB=     2138497 NGot= 14763950080 MDV= 14762516294
 LenX= 14762516294 LenY= 14761828224
 Requested convergence on RMS density matrix=1.00D-08 within 128 cycles.
 Requested convergence on MAX density matrix=1.00D-06.
 Requested convergence on             energy=1.00D-06.
 No special actions if energy rises.
 Fock matrices will be formed incrementally for  20 cycles.
 Integral accuracy reduced to 1.0D-05 until final iterations.

 Cycle   1  Pass 0  IDiag  1:
 FoFJK:  IHMeth= 1 ICntrl=       0 DoSepK=F KAlg= 0 I1Cent=   0 FoldK=F
 IRaf= 780000000 NMat=   1 IRICut=       1 DoRegI=T DoRafI=F ISym2E= 0.
 FoFCou: FMM=T IPFlag=           0 FMFlag=      100000 FMFlg1=        2001
         NFxFlg=           0 DoJE=F BraDBF=F KetDBF=F FulRan=T
         wScrn=  0.000000 ICntrl=       0 IOpCl=  0 I1Cent=           0 NGrid=           0
         NMat0=    1 NMatS0=      1 NMatT0=    0 NMatD0=    1 NMtDS0=    0 NMtDT0=    0
 Symmetry not used in FoFCou.
 FMM levels:  10  Number of levels for PrismC:   9
 E= -5015.29252066727    
 DIIS: error= 3.66D-02 at cycle   1 NSaved=   1.
 NSaved= 1 IEnMin= 1 EnMin= -5015.29252066727     IErMin= 1 ErrMin= 3.66D-02
 ErrMax= 3.66D-02  0.00D+00 EMaxC= 1.00D-01 BMatC= 2.71D+00 BMatP= 2.71D+00
 IDIUse=3 WtCom= 6.34D-01 WtEn= 3.66D-01
 Coeff-Com:  0.100D+01
 Coeff-En:   0.100D+01
 Coeff:      0.100D+01
 Gap=     0.293 Goal=   None    Shift=    0.000
 GapD=    0.293 DampG=1.000 DampE=0.500 DampFc=0.5000 IDamp=-1.
 Damping current iteration by 5.00D-01
 RMSDP=2.84D-03 MaxDP=1.56D-01              OVMax= 1.79D-01

 Cycle   2  Pass 0  IDiag  1:
 RMSU=  1.41D-03    CP:  9.85D-01
 E= -5016.09606831707     Delta-E=       -0.803547649795 Rises=F Damp=T
 DIIS: error= 9.13D-03 at cycle   2 NSaved=   2.
 NSaved= 2 IEnMin= 2 EnMin= -5016.09606831707     IErMin= 2 ErrMin= 9.13D-03
 ErrMax= 9.13D-03  0.00D+00 EMaxC= 1.00D-01 BMatC= 8.18D-02 BMatP= 2.71D+00
 IDIUse=3 WtCom= 9.09D-01 WtEn= 9.13D-02
 Coeff-Com:  0.115D+00 0.885D+00
 Coeff-En:   0.205D+00 0.795D+00
 Coeff:      0.123D+00 0.877D+00
 Gap=     0.186 Goal=   None    Shift=    0.000
 RMSDP=3.40D-04 MaxDP=2.07D-02 DE=-8.04D-01 OVMax= 9.80D-02

 Cycle   3  Pass 0  IDiag  1:
 RMSU=  2.77D-04    CP:  9.87D-01  8.62D-01
 E= -5017.23601393918     Delta-E=       -1.139945622112 Rises=F Damp=F
 DIIS: error= 8.69D-04 at cycle   3 NSaved=   3.
 NSaved= 3 IEnMin= 3 EnMin= -5017.23601393918     IErMin= 3 ErrMin= 8.69D-04
 ErrMax= 8.69D-04  0.00D+00 EMaxC= 1.00D-01 BMatC= 1.26D-03 BMatP= 8.18D-02
 IDIUse=3 WtCom= 9.91D-01 WtEn= 8.69D-03
 Coeff-Com:  0.838D-02 0.474D-01 0.944D+00
 Coeff-En:   0.000D+00 0.000D+00 0.100D+01
 Coeff:      0.831D-02 0.470D-01 0.945D+00
 Gap=     0.202 Goal=   None    Shift=    0.000
 RMSDP=8.23D-05 MaxDP=1.34D-02 DE=-1.14D+00 OVMax= 1.69D-02

 Cycle   4  Pass 0  IDiag  1:
 RMSU=  7.48D-05    CP:  9.88D-01  8.60D-01  8.77D-01
 E= -5017.23630589978     Delta-E=       -0.000291960599 Rises=F Damp=F
 DIIS: error= 8.28D-04 at cycle   4 NSaved=   4.
 NSaved= 4 IEnMin= 4 EnMin= -5017.23630589978     IErMin= 4 ErrMin= 8.28D-04
 ErrMax= 8.28D-04  0.00D+00 EMaxC= 1.00D-01 BMatC= 1.25D-03 BMatP= 1.26D-03
 IDIUse=3 WtCom= 9.92D-01 WtEn= 8.28D-03
 Coeff-Com:  0.265D-02 0.488D-02 0.499D+00 0.494D+00
 Coeff-En:   0.000D+00 0.000D+00 0.432D+00 0.568D+00
 Coeff:      0.263D-02 0.484D-02 0.498D+00 0.494D+00
 Gap=     0.201 Goal=   None    Shift=    0.000
 RMSDP=3.59D-05 MaxDP=5.17D-03 DE=-2.92D-04 OVMax= 5.56D-03

 Cycle   5  Pass 0  IDiag  1:
 RMSU=  1.46D-05    CP:  9.87D-01  8.59D-01  9.26D-01  6.02D-01
 E= -5017.23730281443     Delta-E=       -0.000996914652 Rises=F Damp=F
 DIIS: error= 9.73D-05 at cycle   5 NSaved=   5.
 NSaved= 5 IEnMin= 5 EnMin= -5017.23730281443     IErMin= 5 ErrMin= 9.73D-05
 ErrMax= 9.73D-05  0.00D+00 EMaxC= 1.00D-01 BMatC= 2.63D-05 BMatP= 1.25D-03
 IDIUse=1 WtCom= 1.00D+00 WtEn= 0.00D+00
 Coeff-Com:  0.806D-03-0.194D-02 0.126D+00 0.168D+00 0.707D+00
 Coeff:      0.806D-03-0.194D-02 0.126D+00 0.168D+00 0.707D+00
 Gap=     0.200 Goal=   None    Shift=    0.000
 RMSDP=7.23D-06 MaxDP=1.09D-03 DE=-9.97D-04 OVMax= 1.24D-03

 Cycle   6  Pass 0  IDiag  1:
 RMSU=  5.16D-06    CP:  9.87D-01  8.58D-01  9.35D-01  5.81D-01  7.23D-01
 E= -5017.23732003700     Delta-E=       -0.000017222570 Rises=F Damp=F
 DIIS: error= 9.29D-05 at cycle   6 NSaved=   6.
 NSaved= 6 IEnMin= 6 EnMin= -5017.23732003700     IErMin= 6 ErrMin= 9.29D-05
 ErrMax= 9.29D-05  0.00D+00 EMaxC= 1.00D-01 BMatC= 4.31D-06 BMatP= 2.63D-05
 IDIUse=1 WtCom= 1.00D+00 WtEn= 0.00D+00
 Coeff-Com:  0.186D-03-0.198D-02 0.311D-01 0.457D-01 0.324D+00 0.601D+00
 Coeff:      0.186D-03-0.198D-02 0.311D-01 0.457D-01 0.324D+00 0.601D+00
 Gap=     0.201 Goal=   None    Shift=    0.000
 RMSDP=2.49D-06 MaxDP=4.74D-04 DE=-1.72D-05 OVMax= 4.39D-04

 Initial convergence to 1.0D-05 achieved.  Increase integral accuracy.
 Cycle   7  Pass 1  IDiag  1:
 E= -5017.23808619118     Delta-E=       -0.000766154175 Rises=F Damp=F
 DIIS: error= 1.83D-05 at cycle   1 NSaved=   1.
 NSaved= 1 IEnMin= 1 EnMin= -5017.23808619118     IErMin= 1 ErrMin= 1.83D-05
 ErrMax= 1.83D-05  0.00D+00 EMaxC= 1.00D-01 BMatC= 1.05D-06 BMatP= 1.05D-06
 IDIUse=1 WtCom= 1.00D+00 WtEn= 0.00D+00
 Coeff-Com:  0.100D+01
 Coeff:      0.100D+01
 Gap=     0.201 Goal=   None    Shift=    0.000
 RMSDP=2.49D-06 MaxDP=4.74D-04 DE=-7.66D-04 OVMax= 1.93D-04

 Cycle   8  Pass 1  IDiag  1:
 RMSU=  3.45D-06    CP:  1.00D+00
 E= -5017.23808712981     Delta-E=       -0.000000938631 Rises=F Damp=F
 DIIS: error= 1.21D-05 at cycle   2 NSaved=   2.
 NSaved= 2 IEnMin= 2 EnMin= -5017.23808712981     IErMin= 2 ErrMin= 1.21D-05
 ErrMax= 1.21D-05  0.00D+00 EMaxC= 1.00D-01 BMatC= 2.81D-07 BMatP= 1.05D-06
 IDIUse=1 WtCom= 1.00D+00 WtEn= 0.00D+00
 Coeff-Com:  0.278D+00 0.722D+00
 Coeff:      0.278D+00 0.722D+00
 Gap=     0.201 Goal=   None    Shift=    0.000
 RMSDP=7.36D-07 MaxDP=7.61D-05 DE=-9.39D-07 OVMax= 6.86D-05

 Cycle   9  Pass 1  IDiag  1:
 RMSU=  7.32D-07    CP:  1.00D+00  9.77D-01
 E= -5017.23808723915     Delta-E=       -0.000000109339 Rises=F Damp=F
 DIIS: error= 8.79D-06 at cycle   3 NSaved=   3.
 NSaved= 3 IEnMin= 3 EnMin= -5017.23808723915     IErMin= 3 ErrMin= 8.79D-06
 ErrMax= 8.79D-06  0.00D+00 EMaxC= 1.00D-01 BMatC= 1.37D-07 BMatP= 2.81D-07
 IDIUse=1 WtCom= 1.00D+00 WtEn= 0.00D+00
 Coeff-Com: -0.468D-02 0.411D+00 0.594D+00
 Coeff:     -0.468D-02 0.411D+00 0.594D+00
 Gap=     0.201 Goal=   None    Shift=    0.000
 RMSDP=2.97D-07 MaxDP=3.78D-05 DE=-1.09D-07 OVMax= 3.32D-05

 Cycle  10  Pass 1  IDiag  1:
 RMSU=  9.95D-08    CP:  1.00D+00  1.00D+00  6.38D-01
 E= -5017.23808733668     Delta-E=       -0.000000097527 Rises=F Damp=F
 DIIS: error= 1.38D-06 at cycle   4 NSaved=   4.
 NSaved= 4 IEnMin= 4 EnMin= -5017.23808733668     IErMin= 4 ErrMin= 1.38D-06
 ErrMax= 1.38D-06  0.00D+00 EMaxC= 1.00D-01 BMatC= 1.36D-09 BMatP= 1.37D-07
 IDIUse=1 WtCom= 1.00D+00 WtEn= 0.00D+00
 Coeff-Com: -0.527D-02 0.190D+00 0.286D+00 0.530D+00
 Coeff:     -0.527D-02 0.190D+00 0.286D+00 0.530D+00
 Gap=     0.201 Goal=   None    Shift=    0.000
 RMSDP=4.32D-08 MaxDP=7.93D-06 DE=-9.75D-08 OVMax= 7.70D-06

 Cycle  11  Pass 1  IDiag  1:
 RMSU=  2.70D-08    CP:  1.00D+00  1.00D+00  6.32D-01  6.68D-01
 E= -5017.23808733785     Delta-E=       -0.000000001171 Rises=F Damp=F
 DIIS: error= 1.80D-07 at cycle   5 NSaved=   5.
 NSaved= 5 IEnMin= 5 EnMin= -5017.23808733785     IErMin= 5 ErrMin= 1.80D-07
 ErrMax= 1.80D-07  0.00D+00 EMaxC= 1.00D-01 BMatC= 4.91D-11 BMatP= 1.36D-09
 IDIUse=1 WtCom= 1.00D+00 WtEn= 0.00D+00
 Coeff-Com: -0.186D-02 0.538D-01 0.820D-01 0.214D+00 0.652D+00
 Coeff:     -0.186D-02 0.538D-01 0.820D-01 0.214D+00 0.652D+00
 Gap=     0.201 Goal=   None    Shift=    0.000
 RMSDP=7.54D-09 MaxDP=8.52D-07 DE=-1.17D-09 OVMax= 7.98D-07

 SCF Done:  E(RPBE1PBE) =  -5017.23808734     A.U. after   11 cycles
            NFock= 11  Conv=0.75D-08     -V/T= 2.0028
 KE= 5.003436333724D+03 PE=-2.379815560887D+04 EE= 7.862391365011D+03
 Leave Link  502 at Wed May  2 17:40:56 2018, MaxMem= 14763950080 cpu:      6733.1
 (Enter /cm/shared/gaussian/g09.e01/intel64-sandybridge/g09/l601.exe)
 Copying SCF densities to generalized density rwf, IOpCl= 0 IROHF=0.

 **********************************************************************

            Population analysis using the SCF density.

 **********************************************************************

 Alpha  occ. eigenvalues -- -483.14607 -62.54842 -56.32104 -56.32077 -56.32068
 Alpha  occ. eigenvalues --  -19.23728 -19.20202 -19.18378 -19.17733 -19.16129
 Alpha  occ. eigenvalues --  -19.15946 -19.15672 -19.15520 -19.15123 -19.14785
 Alpha  occ. eigenvalues --  -19.13732 -19.13588 -19.13537 -19.13344 -19.11895
 Alpha  occ. eigenvalues --  -19.11423 -19.11407 -19.11331 -19.10109 -19.09755
 Alpha  occ. eigenvalues --  -19.09648 -19.09106 -19.09069 -19.09034 -19.08788
 Alpha  occ. eigenvalues --  -19.08649 -19.08015 -19.06185 -19.05725 -19.05536
 Alpha  occ. eigenvalues --  -19.05049 -19.04558  -8.65072  -6.45472  -6.45349
 Alpha  occ. eigenvalues --   -6.45317  -2.53730  -2.53701  -2.53678  -2.53575
 Alpha  occ. eigenvalues --   -2.53573  -1.06132  -1.03144  -1.01259  -1.00274
 Alpha  occ. eigenvalues --   -0.98805  -0.98692  -0.98502  -0.98247  -0.98128
 Alpha  occ. eigenvalues --   -0.97260  -0.96598  -0.96492  -0.96017  -0.95838
 Alpha  occ. eigenvalues --   -0.94381  -0.94057  -0.93996  -0.93911  -0.92845
 Alpha  occ. eigenvalues --   -0.92437  -0.92375  -0.92193  -0.92065  -0.91658
 Alpha  occ. eigenvalues --   -0.91483  -0.91295  -0.91254  -0.88759  -0.88721
 Alpha  occ. eigenvalues --   -0.88231  -0.87477  -0.87203  -0.63952  -0.56451
 Alpha  occ. eigenvalues --   -0.53352  -0.52114  -0.50817  -0.49515  -0.49487
 Alpha  occ. eigenvalues --   -0.49429  -0.48707  -0.48551  -0.47862  -0.47759
 Alpha  occ. eigenvalues --   -0.47583  -0.47550  -0.46643  -0.46305  -0.44649
 Alpha  occ. eigenvalues --   -0.44641  -0.44378  -0.43996  -0.43623  -0.43555
 Alpha  occ. eigenvalues --   -0.43383  -0.43168  -0.42963  -0.42880  -0.42764
 Alpha  occ. eigenvalues --   -0.42250  -0.42116  -0.40958  -0.40205  -0.39803
 Alpha  occ. eigenvalues --   -0.39405  -0.39306  -0.38219  -0.37481  -0.37346
 Alpha  occ. eigenvalues --   -0.36282  -0.35950  -0.35109  -0.34874  -0.34728
 Alpha  occ. eigenvalues --   -0.34136  -0.33631  -0.33548  -0.33486  -0.32313
 Alpha  occ. eigenvalues --   -0.31766  -0.31227  -0.30808  -0.30752  -0.30274
 Alpha  occ. eigenvalues --   -0.30146  -0.30064  -0.29822  -0.28975  -0.28169
 Alpha  occ. eigenvalues --   -0.28106  -0.28045  -0.27912  -0.27642  -0.27608
 Alpha  occ. eigenvalues --   -0.27528  -0.26725  -0.26589  -0.26414  -0.26348
 Alpha  occ. eigenvalues --   -0.26244  -0.26116  -0.25806  -0.25753  -0.25340
 Alpha  occ. eigenvalues --   -0.25205  -0.24276  -0.24242  -0.23818  -0.23397
 Alpha  occ. eigenvalues --   -0.23269  -0.23022  -0.22631  -0.22458  -0.22448
 Alpha  occ. eigenvalues --   -0.22090  -0.21132  -0.21032  -0.20460  -0.20262
 Alpha  occ. eigenvalues --   -0.20111  -0.19975  -0.19907  -0.19798  -0.19627
 Alpha  occ. eigenvalues --   -0.19587  -0.18826  -0.18748  -0.17356  -0.17239
 Alpha  occ. eigenvalues --   -0.16840  -0.15851  -0.15799
 Alpha virt. eigenvalues --    0.04259   0.06467   0.08473   0.10119   0.10866
 Alpha virt. eigenvalues --    0.11555   0.12677   0.13242   0.14013   0.14426
 Alpha virt. eigenvalues --    0.15197   0.15321   0.15745   0.16506   0.17035
 Alpha virt. eigenvalues --    0.17514   0.18114   0.18886   0.19278   0.19509
 Alpha virt. eigenvalues --    0.19560   0.20284   0.20442   0.20621   0.21195
 Alpha virt. eigenvalues --    0.21478   0.22246   0.22870   0.23205   0.23971
 Alpha virt. eigenvalues --    0.24318   0.24775   0.25040   0.25904   0.26031
 Alpha virt. eigenvalues --    0.26617   0.26985   0.28016   0.28348   0.28987
 Alpha virt. eigenvalues --    0.29249   0.29563   0.29913   0.30289   0.30454
 Alpha virt. eigenvalues --    0.31022   0.31633   0.31722   0.31945   0.32723
 Alpha virt. eigenvalues --    0.33489   0.34169   0.34261   0.35428   0.36031
 Alpha virt. eigenvalues --    0.36415   0.36762   0.37951   0.38407   0.38707
 Alpha virt. eigenvalues --    0.39337   0.39742   0.40887   0.41826   0.53772
 Alpha virt. eigenvalues --    0.57342   0.58427   0.58956   0.59293   0.59843
 Alpha virt. eigenvalues --    0.60502   0.60858   0.61079   0.61764   0.62009
 Alpha virt. eigenvalues --    0.62423   0.63097   0.63713   0.64471   0.64800
 Alpha virt. eigenvalues --    0.65017   0.65529   0.65988   0.66158   0.66531
 Alpha virt. eigenvalues --    0.66574   0.66824   0.67134   0.67322   0.67512
 Alpha virt. eigenvalues --    0.67759   0.68266   0.68771   0.69195   0.69357
 Alpha virt. eigenvalues --    0.69396   0.69618   0.69858   0.70352   0.70492
 Alpha virt. eigenvalues --    0.70811   0.70947   0.71070   0.71525   0.71925
 Alpha virt. eigenvalues --    0.72081   0.72836   0.73140   0.73531   0.73870
 Alpha virt. eigenvalues --    0.74204   0.74519   0.74996   0.75234   0.75389
 Alpha virt. eigenvalues --    0.75832   0.76107   0.76255   0.76675   0.77122
 Alpha virt. eigenvalues --    0.77292   0.77608   0.78215   0.79055   0.79264
 Alpha virt. eigenvalues --    0.79646   0.80275   0.80533   0.81675   0.82063
 Alpha virt. eigenvalues --    0.82813   0.83397   0.84177   0.84777   0.86054
 Alpha virt. eigenvalues --    0.87422   0.91071   0.93355   0.94623   0.94736
 Alpha virt. eigenvalues --    0.95077   0.95803   0.96110   0.96152   0.96831
 Alpha virt. eigenvalues --    0.97269   0.97891   0.98217   0.99059   0.99210
 Alpha virt. eigenvalues --    0.99360   0.99391   0.99933   1.00389   1.01011
 Alpha virt. eigenvalues --    1.01369   1.01417   1.01744   1.02023   1.02124
 Alpha virt. eigenvalues --    1.02514   1.02607   1.02901   1.03300   1.03456
 Alpha virt. eigenvalues --    1.03686   1.04088   1.04627   1.04923   1.04991
 Alpha virt. eigenvalues --    1.05365   1.05717   1.06356   1.06505   1.07123
 Alpha virt. eigenvalues --    1.07348   1.07597   1.07896   1.08196   1.08555
 Alpha virt. eigenvalues --    1.08661   1.08874   1.09179   1.09274   1.09481
 Alpha virt. eigenvalues --    1.09930   1.10217   1.10691   1.10905   1.11126
 Alpha virt. eigenvalues --    1.11407   1.11555   1.11758   1.11967   1.12398
 Alpha virt. eigenvalues --    1.13181   1.13286   1.13741   1.13845   1.14058
 Alpha virt. eigenvalues --    1.14108   1.14513   1.14815   1.14903   1.15199
 Alpha virt. eigenvalues --    1.15635   1.15951   1.16593   1.17094   1.17511
 Alpha virt. eigenvalues --    1.17737   1.18010   1.18149   1.18204   1.18856
 Alpha virt. eigenvalues --    1.19496   1.19728   1.20016   1.20355   1.21268
 Alpha virt. eigenvalues --    1.21627   1.21868   1.22267   1.22519   1.23174
 Alpha virt. eigenvalues --    1.23653   1.24059   1.24747   1.25145   1.25550
 Alpha virt. eigenvalues --    1.26205   1.26426   1.26817   1.27341   1.27946
 Alpha virt. eigenvalues --    1.28562   1.28689   1.28949   1.29030   1.29440
 Alpha virt. eigenvalues --    1.29871   1.29932   1.30350   1.30832   1.31087
 Alpha virt. eigenvalues --    1.31554   1.32058   1.32151   1.32440   1.33005
 Alpha virt. eigenvalues --    1.33122   1.33273   1.33732   1.34179   1.34246
 Alpha virt. eigenvalues --    1.34770   1.34939   1.35286   1.35787   1.36009
 Alpha virt. eigenvalues --    1.36243   1.36494   1.37197   1.37394   1.37549
 Alpha virt. eigenvalues --    1.37868   1.38075   1.38267   1.38328   1.38745
 Alpha virt. eigenvalues --    1.38815   1.39384   1.39622   1.39959   1.40306
 Alpha virt. eigenvalues --    1.40859   1.41059   1.41606   1.41905   1.42434
 Alpha virt. eigenvalues --    1.42779   1.43989   1.44140   1.45232   1.45820
 Alpha virt. eigenvalues --    1.46422   1.46715   1.46752   1.46857   1.47970
 Alpha virt. eigenvalues --    1.48180   1.48546   1.48961   1.49168   1.49790
 Alpha virt. eigenvalues --    1.50233   1.50512   1.50847   1.51423   1.51830
 Alpha virt. eigenvalues --    1.52331   1.52596   1.53548   1.54019   1.54456
 Alpha virt. eigenvalues --    1.54751   1.55004   1.55157   1.55677   1.56435
 Alpha virt. eigenvalues --    1.56644   1.56884   1.57366   1.57488   1.58148
 Alpha virt. eigenvalues --    1.58871   1.59231   1.59957   1.60635   1.61633
 Alpha virt. eigenvalues --    1.61853   1.63300   1.63625   1.64582   1.65290
 Alpha virt. eigenvalues --    1.65530   1.65734   1.66203   1.66947   1.67272
 Alpha virt. eigenvalues --    1.67808   1.68253   1.68544   1.69127   1.70266
 Alpha virt. eigenvalues --    1.71182   1.71948   1.72860   1.73108   1.73637
 Alpha virt. eigenvalues --    1.73984   1.75309   1.75699   1.76029   1.76350
 Alpha virt. eigenvalues --    1.76795   1.76890   1.77292   1.78135   1.78742
 Alpha virt. eigenvalues --    1.78839   1.79609   1.79705   1.80785   1.80970
 Alpha virt. eigenvalues --    1.81324   1.81568   1.81688   1.82001   1.82848
 Alpha virt. eigenvalues --    1.82946   1.83584   1.84255   1.84441   1.85051
 Alpha virt. eigenvalues --    1.85969   1.86071   1.86209   1.86888   1.87674
 Alpha virt. eigenvalues --    1.87775   1.87838   1.88317   1.88746   1.88935
 Alpha virt. eigenvalues --    1.89666   1.90322   1.90656   1.91297   1.91687
 Alpha virt. eigenvalues --    1.92509   1.92737   1.93918   1.94904   1.95136
 Alpha virt. eigenvalues --    1.96286   1.96701   1.98163   1.99539   2.00264
 Alpha virt. eigenvalues --    2.00753   2.02702   2.08114   2.12264   2.14348
 Alpha virt. eigenvalues --    2.15528   2.16277   2.18683   2.19582   2.19799
 Alpha virt. eigenvalues --    2.20192   2.21221   2.21744   2.22099   2.22283
 Alpha virt. eigenvalues --    2.22758   2.23045   2.23674   2.24574   2.24782
 Alpha virt. eigenvalues --    2.25004   2.25027   2.25582   2.25809   2.25927
 Alpha virt. eigenvalues --    2.26125   2.26395   2.26937   2.27915   2.28208
 Alpha virt. eigenvalues --    2.28836   2.29092   2.29448   2.29760   2.29934
 Alpha virt. eigenvalues --    2.30329   2.30712   2.31675   2.31948   2.32130
 Alpha virt. eigenvalues --    2.32259   2.33127   2.33503   2.35788   2.37103
 Alpha virt. eigenvalues --    2.39174   2.40453   2.41227   2.47553   2.47711
 Alpha virt. eigenvalues --    2.48224   2.48818   2.48876   2.49681   2.49810
 Alpha virt. eigenvalues --    2.51594   2.52966   2.53344   2.56605   2.58655
 Alpha virt. eigenvalues --    2.59343   2.59920   2.61229   2.62349   2.62376
 Alpha virt. eigenvalues --    2.63168   2.73623   2.91339   2.94283   2.95286
 Alpha virt. eigenvalues --    2.96329   2.97481   2.97932   2.98365   2.98827
 Alpha virt. eigenvalues --    2.98938   2.98997   2.99468   2.99591   3.00317
 Alpha virt. eigenvalues --    3.00366   3.00695   3.01185   3.01538   3.01639
 Alpha virt. eigenvalues --    3.02080   3.02195   3.02411   3.02742   3.02823
 Alpha virt. eigenvalues --    3.02837   3.03058   3.03313   3.03602   3.03620
 Alpha virt. eigenvalues --    3.03799   3.03978   3.04027   3.04405   3.04467
 Alpha virt. eigenvalues --    3.04569   3.05089   3.05512   3.05652   3.06187
 Alpha virt. eigenvalues --    3.06308   3.06596   3.07089   3.07397   3.07522
 Alpha virt. eigenvalues --    3.08034   3.08180   3.08329   3.08409   3.08634
 Alpha virt. eigenvalues --    3.09223   3.09239   3.09414   3.09648   3.09798
 Alpha virt. eigenvalues --    3.10088   3.10295   3.10325   3.10884   3.12640
 Alpha virt. eigenvalues --    3.12983   3.13399   3.14251   3.14591   3.14858
 Alpha virt. eigenvalues --    3.14949   3.17584   3.17926   3.18469   3.19766
 Alpha virt. eigenvalues --    3.20175   3.20306   3.20776   3.20812   3.21272
 Alpha virt. eigenvalues --    3.22187   3.22206   3.22940   3.23371   3.23782
 Alpha virt. eigenvalues --    3.24764   3.25088   3.25537   3.26396   3.26839
 Alpha virt. eigenvalues --    3.27081   3.27207   3.27420   3.28160   3.28729
 Alpha virt. eigenvalues --    3.29031   3.29397   3.30157   3.30799   3.31015
 Alpha virt. eigenvalues --    3.31121   3.31149   3.35258   3.48092   3.54482
 Alpha virt. eigenvalues --    3.55518   3.55894   3.56743   3.57363   3.57447
 Alpha virt. eigenvalues --    3.57910   3.58931   3.59285   3.60600   3.61092
 Alpha virt. eigenvalues --    3.61219   3.61693   3.62177   3.62581   3.63212
 Alpha virt. eigenvalues --    3.63367   3.63550   3.63700   3.63973   3.64422
 Alpha virt. eigenvalues --    3.65025   3.66160   3.66255   3.66513   3.66733
 Alpha virt. eigenvalues --    3.68869   3.69271   3.69475   3.70125   3.72501
 Alpha virt. eigenvalues --    3.77266   3.80244   3.81351   3.82964   3.85375
 Alpha virt. eigenvalues --    3.85591   3.86587   3.86825   3.87554   3.87960
 Alpha virt. eigenvalues --    3.88590   3.88874   3.89308   3.89639   3.90058
 Alpha virt. eigenvalues --    3.90483   3.90931   3.91648   3.91801   3.92048
 Alpha virt. eigenvalues --    3.92283   3.92669   3.92868   3.93353   3.93815
 Alpha virt. eigenvalues --    3.94813   3.95116   3.95747   3.95806   3.96455
 Alpha virt. eigenvalues --    3.99887   4.01835
          Condensed to atoms (all electrons):
 Mulliken charges:
               1
     1  Br  -0.709968
     2  O   -0.266484
     3  H    0.136112
     4  H    0.140319
     5  O   -0.262794
     6  H    0.141236
     7  H    0.139513
     8  O   -0.247817
     9  H    0.140616
    10  H    0.130617
    11  O   -0.255681
    12  H    0.142066
    13  H    0.124884
    14  O   -0.220348
    15  H    0.151198
    16  H    0.140198
    17  O   -0.245825
    18  H    0.160805
    19  H    0.157509
    20  O   -0.266189
    21  H    0.126336
    22  H    0.130246
    23  O   -0.244917
    24  H    0.123616
    25  H    0.120586
    26  O   -0.277254
    27  H    0.138153
    28  H    0.106954
    29  O   -0.270180
    30  H    0.117962
    31  H    0.148002
    32  O   -0.244343
    33  H    0.089716
    34  H    0.123068
    35  O   -0.283418
    36  H    0.141677
    37  H    0.122593
    38  O   -0.257126
    39  H    0.112146
    40  H    0.136931
    41  O   -0.315276
    42  H    0.135204
    43  H    0.132808
    44  O   -0.301972
    45  H    0.129953
    46  H    0.132333
    47  O   -0.285050
    48  H    0.162564
    49  H    0.119734
    50  O   -0.338723
    51  H    0.136399
    52  H    0.090247
    53  O   -0.315692
    54  H    0.136070
    55  H    0.136736
    56  O   -0.300458
    57  H    0.127282
    58  H    0.126001
    59  O   -0.270681
    60  H    0.100712
    61  H    0.113882
    62  O   -0.229193
    63  H    0.153685
    64  H    0.141316
    65  O   -0.335413
    66  H    0.102011
    67  H    0.118819
    68  O   -0.308197
    69  H    0.122159
    70  H    0.139803
    71  O   -0.321684
    72  H    0.126514
    73  H    0.125623
    74  O   -0.211504
    75  H    0.165960
    76  H    0.163435
    77  O   -0.230923
    78  H    0.135255
    79  H    0.142927
    80  O   -0.254922
    81  H    0.133991
    82  H    0.139763
    83  O   -0.245500
    84  H    0.139084
    85  H    0.131931
    86  O   -0.308227
    87  H    0.097553
    88  H    0.105419
    89  O   -0.277210
    90  H    0.141140
    91  H    0.110832
    92  O   -0.226131
    93  H    0.146429
    94  H    0.152572
    95  O   -0.300755
    96  H    0.138561
    97  H    0.132094
 Sum of Mulliken charges =  -1.00000
 Mulliken charges with hydrogens summed into heavy atoms:
               1
     1  Br  -0.709968
     2  O    0.009947
     5  O    0.017954
     8  O    0.023416
    11  O    0.011268
    14  O    0.071048
    17  O    0.072489
    20  O   -0.009607
    23  O   -0.000716
    26  O   -0.032147
    29  O   -0.004216
    32  O   -0.031559
    35  O   -0.019148
    38  O   -0.008049
    41  O   -0.047264
    44  O   -0.039686
    47  O   -0.002752
    50  O   -0.112077
    53  O   -0.042887
    56  O   -0.047175
    59  O   -0.056087
    62  O    0.065807
    65  O   -0.114583
    68  O   -0.046235
    71  O   -0.069547
    74  O    0.117892
    77  O    0.047259
    80  O    0.018832
    83  O    0.025515
    86  O   -0.105255
    89  O   -0.025239
    92  O    0.072870
    95  O   -0.030100
         Mulliken charges condensed to fragments:
      1     -0.709968
      2     -0.290032
 Electronic spatial extent (au):  <R**2>=        1583772.9333
 Charge=             -1.0000 electrons
 Dipole moment (field-independent basis, Debye):
    X=            -85.1327    Y=           -101.5315    Z=           -102.8539  Tot=            167.7353
 Quadrupole moment (field-independent basis, Debye-Ang):
   XX=          -1664.1212   YY=          -2478.8606   ZZ=          -2510.4643
   XY=          -1810.4483   XZ=          -1809.6013   YZ=          -2200.0093
 Traceless Quadrupole moment (field-independent basis, Debye-Ang):
   XX=            553.6942   YY=           -261.0452   ZZ=           -292.6489
   XY=          -1810.4483   XZ=          -1809.6013   YZ=          -2200.0093
 Octapole moment (field-independent basis, Debye-Ang**2):
  XXX=         -36034.7293  YYY=         -65588.2460  ZZZ=         -65774.5023  XYY=         -44970.9232
  XXY=         -35632.5821  XXZ=         -35080.7565  XZZ=         -44637.1968  YZZ=         -53774.9760
  YYZ=         -53550.4472  XYZ=         -39087.5910
 Hexadecapole moment (field-independent basis, Debye-Ang**3):
 XXXX=        -852952.9861 YYYY=       -1791419.7949 ZZZZ=       -1773890.2980 XXXY=        -775765.5351
 XXXZ=        -753959.2321 YYYX=       -1211689.9222 YYYZ=       -1401510.2492 ZZZX=       -1191136.9013
 ZZZY=       -1402222.0200 XXYY=        -891129.6516 XXZZ=        -866348.6933 YYZZ=       -1284036.6339
 XXYZ=        -765188.1602 YYXZ=        -969670.3997 ZZXY=        -966195.6975
 N-N= 5.915089822801D+03 E-N=-2.379815554954D+04  KE= 5.003436333724D+03
 No NMR shielding tensors so no spin-rotation constants.
 Leave Link  601 at Wed May  2 17:40:59 2018, MaxMem= 14763950080 cpu:       141.4
 (Enter /cm/shared/gaussian/g09.e01/intel64-sandybridge/g09/l701.exe)
 Compute integral first derivatives.
 ... and contract with generalized density number  0.
 Leave Link  701 at Wed May  2 17:41:01 2018, MaxMem= 14763950080 cpu:       120.9
 (Enter /cm/shared/gaussian/g09.e01/intel64-sandybridge/g09/l702.exe)
 L702 exits ... SP integral derivatives will be done elsewhere.
 Leave Link  702 at Wed May  2 17:41:01 2018, MaxMem= 14763950080 cpu:         1.7
 (Enter /cm/shared/gaussian/g09.e01/intel64-sandybridge/g09/l703.exe)
 Compute integral first derivatives, UseDBF=F ICtDFT=           0.
 Integral derivatives from FoFJK, PRISM(SPDF).
 Calling FoFJK, ICntrl=      2127 FMM=T ISym2X=0 I1Cent= 0 IOpClX= 0 NMat=1 NMatS=1 NMatT=0.
 FoFJK:  IHMeth= 1 ICntrl=    2127 DoSepK=F KAlg= 0 I1Cent=   0 FoldK=F
 IRaf=         0 NMat=   1 IRICut=       1 DoRegI=T DoRafI=F ISym2E= 0.
 FoFCou: FMM=T IPFlag=           0 FMFlag=      100000 FMFlg1=        2001
         NFxFlg=           0 DoJE=F BraDBF=F KetDBF=F FulRan=T
         wScrn=  0.000000 ICntrl=    2127 IOpCl=  0 I1Cent=           0 NGrid=           0
         NMat0=    1 NMatS0=      1 NMatT0=    0 NMatD0=    1 NMtDS0=    0 NMtDT0=    0
 Symmetry not used in FoFCou.
 FMM levels:  10  Number of levels for PrismC:   9
 Leave Link  703 at Wed May  2 17:41:15 2018, MaxMem= 14763950080 cpu:       869.0
 (Enter /cm/shared/gaussian/g09.e01/intel64-sandybridge/g09/l716.exe)
 Dipole        =-3.34937782D+01-3.99455754D+01-4.04658322D+01
 Cartesian Forces:  Max     0.027823267 RMS     0.009889617
 Leave Link  716 at Wed May  2 17:41:15 2018, MaxMem= 14763950080 cpu:         3.5
 (Enter /cm/shared/gaussian/g09.e01/intel64-sandybridge/g09/l122.exe)
 CPIOFr:  IOpCl= 0 IRwI=-1 IRwCP=  731 ICalc= -1 LCPTot=     1005244 Len1MO=     2550559 IndFrg=     1005244
 CPIOFr:  IOpCl= 0 IRwI=-1 IRwCP=  731 ICalc=  0 LCPTot=     1005244 Len1MO=     2550559 IndFrg=     3555803
 Counterpoise: doing DCBS calculation for fragment   1 NewBq=T
 Leave Link  122 at Wed May  2 17:41:15 2018, MaxMem= 14763950080 cpu:         7.1
 (Enter /cm/shared/gaussian/g09.e01/intel64-sandybridge/g09/l301.exe)
 Basis read from rwf:  (5D, 7F)
 No pseudopotential information found on rwf file.
   795 basis functions,  1651 primitive gaussians,   829 cartesian basis functions
    18 alpha electrons       18 beta electrons
       nuclear repulsion energy         0.0000000000 Hartrees.
 IExCor= 1009 DFT=T Ex+Corr=PBE1PBE ExCW=0 ScaHFX=  0.250000
 ScaDFX=  0.750000  0.750000  1.000000  1.000000 ScalE2=  1.000000  1.000000
 IRadAn=      0 IRanWt=     -1 IRanGd=            0 ICorTp=0 IEmpDi=  4
 NAtoms=   97 NActive=   97 NUniq=   97 SFac= 1.00D+00 NAtFMM=   60 NAOKFM=T Big=T
 Integral buffers will be    131072 words long.
 Raffenetti 2 integral format.
 Two-electron integral symmetry is turned off.
 No density basis found on file   718.
 Leave Link  301 at Wed May  2 17:41:15 2018, MaxMem= 14763950080 cpu:         4.5
 (Enter /cm/shared/gaussian/g09.e01/intel64-sandybridge/g09/l302.exe)
 NPDir=0 NMtPBC=     1 NCelOv=     1 NCel=       1 NClECP=     1 NCelD=      1
         NCelK=      1 NCelE2=     1 NClLst=     1 CellRange=     0.0.
 One-electron integrals computed using PRISM.
 NBasis=   795 RedAO= T EigKep=  1.73D-02  NBF=   795
 NBsUse=   795 1.00D-06 EigRej= -1.00D+00 NBFU=   795
 Precomputing XC quadrature grid using
 IXCGrd= 4 IRadAn=           0 IRanWt=          -1 IRanGd=           0 AccXCQ= 0.00D+00.
 Generated NRdTot=       0 NPtTot=           0 NUsed=           0 NTot=          32
 NSgBfM=   709   719   719   732   732 MxSgAt=    97 MxSgA2=    97.
 Leave Link  302 at Wed May  2 17:41:19 2018, MaxMem= 14763950080 cpu:       242.8
 (Enter /cm/shared/gaussian/g09.e01/intel64-sandybridge/g09/l303.exe)
 DipDrv:  MaxL=1.
 Leave Link  303 at Wed May  2 17:41:19 2018, MaxMem= 14763950080 cpu:        27.9
 (Enter /cm/shared/gaussian/g09.e01/intel64-sandybridge/g09/l401.exe)
 ExpMin= 1.22D-01 ExpMax= 6.40D+05 ExpMxC= 6.18D+03 IAcc=2 IRadAn=         4 AccDes= 0.00D+00
 Harris functional with IExCor= 1009 and IRadAn=       4 diagonalized for initial guess.
 HarFok:  IExCor= 1009 AccDes= 0.00D+00 IRadAn=         4 IDoV= 1 UseB2=F ITyADJ=14
 ICtDFT=  3500011 ScaDFX=  1.000000  1.000000  1.000000  1.000000
 FoFCou: FMM=F IPFlag=           0 FMFlag=      100000 FMFlg1=        2001
         NFxFlg=           0 DoJE=T BraDBF=F KetDBF=T FulRan=T
         wScrn=  0.000000 ICntrl=     500 IOpCl=  0 I1Cent=   200000004 NGrid=           0
         NMat0=    1 NMatS0=      1 NMatT0=    0 NMatD0=    1 NMtDS0=    0 NMtDT0=    0
 Symmetry not used in FoFCou.
 Harris En= -2574.01912463212    
 JPrj=0 DoOrth=F DoCkMO=F.
 Leave Link  401 at Wed May  2 17:41:24 2018, MaxMem= 14763950080 cpu:       318.4
 (Enter /cm/shared/gaussian/g09.e01/intel64-sandybridge/g09/l502.exe)
 Closed shell SCF:
 Using DIIS extrapolation, IDIIS=  1040.
 Two-electron integral symmetry not used.
 IVT=     2138497 IEndB=     2138497 NGot= 14763950080 MDV= 14762516294
 LenX= 14762516294 LenY= 14761828224
 Requested convergence on RMS density matrix=1.00D-08 within 128 cycles.
 Requested convergence on MAX density matrix=1.00D-06.
 Requested convergence on             energy=1.00D-06.
 No special actions if energy rises.
 Fock matrices will be formed incrementally for  20 cycles.
 Integral accuracy reduced to 1.0D-05 until final iterations.

 Cycle   1  Pass 0  IDiag  1:
 FoFJK:  IHMeth= 1 ICntrl=       0 DoSepK=F KAlg= 0 I1Cent=   0 FoldK=F
 IRaf= 780000000 NMat=   1 IRICut=       1 DoRegI=T DoRafI=F ISym2E= 0.
 FoFCou: FMM=T IPFlag=           0 FMFlag=      100000 FMFlg1=        2001
         NFxFlg=           0 DoJE=F BraDBF=F KetDBF=F FulRan=T
         wScrn=  0.000000 ICntrl=       0 IOpCl=  0 I1Cent=           0 NGrid=           0
         NMat0=    1 NMatS0=      1 NMatT0=    0 NMatD0=    1 NMtDS0=    0 NMtDT0=    0
 Symmetry not used in FoFCou.
 FMM levels:  10  Number of levels for PrismC:   9
 E= -2573.87816767764    
 DIIS: error= 1.06D-02 at cycle   1 NSaved=   1.
 NSaved= 1 IEnMin= 1 EnMin= -2573.87816767764     IErMin= 1 ErrMin= 1.06D-02
 ErrMax= 1.06D-02  0.00D+00 EMaxC= 1.00D-01 BMatC= 3.69D-02 BMatP= 3.69D-02
 IDIUse=3 WtCom= 8.94D-01 WtEn= 1.06D-01
 Coeff-Com:  0.100D+01
 Coeff-En:   0.100D+01
 Coeff:      0.100D+01
 Gap=     0.187 Goal=   None    Shift=    0.000
 GapD=    0.187 DampG=1.000 DampE=0.500 DampFc=0.5000 IDamp=-1.
 Damping current iteration by 5.00D-01
 RMSDP=4.66D-04 MaxDP=6.76D-02              OVMax= 1.42D-01

 Cycle   2  Pass 0  IDiag  1:
 RMSU=  2.32D-04    CP:  9.96D-01
 E= -2573.89386335354     Delta-E=       -0.015695675894 Rises=F Damp=T
 DIIS: error= 6.43D-03 at cycle   2 NSaved=   2.
 NSaved= 2 IEnMin= 2 EnMin= -2573.89386335354     IErMin= 2 ErrMin= 6.43D-03
 ErrMax= 6.43D-03  0.00D+00 EMaxC= 1.00D-01 BMatC= 8.60D-03 BMatP= 3.69D-02
 IDIUse=3 WtCom= 9.36D-01 WtEn= 6.43D-02
 Coeff-Com: -0.604D+00 0.160D+01
 Coeff-En:   0.000D+00 0.100D+01
 Coeff:     -0.565D+00 0.157D+01
 Gap=     0.184 Goal=   None    Shift=    0.000
 RMSDP=1.55D-04 MaxDP=3.40D-02 DE=-1.57D-02 OVMax= 5.82D-02

 Cycle   3  Pass 0  IDiag  1:
 RMSU=  1.34D-04    CP:  9.96D-01  1.34D+00
 E= -2573.90660066502     Delta-E=       -0.012737311480 Rises=F Damp=F
 DIIS: error= 3.00D-03 at cycle   3 NSaved=   3.
 NSaved= 3 IEnMin= 3 EnMin= -2573.90660066502     IErMin= 3 ErrMin= 3.00D-03
 ErrMax= 3.00D-03  0.00D+00 EMaxC= 1.00D-01 BMatC= 1.99D-03 BMatP= 8.60D-03
 IDIUse=3 WtCom= 9.70D-01 WtEn= 3.00D-02
 Coeff-Com: -0.303D+00 0.710D+00 0.593D+00
 Coeff-En:   0.000D+00 0.000D+00 0.100D+01
 Coeff:     -0.294D+00 0.689D+00 0.605D+00
 Gap=     0.168 Goal=   None    Shift=    0.000
 RMSDP=6.67D-05 MaxDP=1.59D-02 DE=-1.27D-02 OVMax= 1.89D-02

 Cycle   4  Pass 0  IDiag  1:
 RMSU=  7.71D-06    CP:  9.94D-01  1.54D+00  6.45D-01
 E= -2573.90871635643     Delta-E=       -0.002115691412 Rises=F Damp=F
 DIIS: error= 1.00D-04 at cycle   4 NSaved=   4.
 NSaved= 4 IEnMin= 4 EnMin= -2573.90871635643     IErMin= 4 ErrMin= 1.00D-04
 ErrMax= 1.00D-04  0.00D+00 EMaxC= 1.00D-01 BMatC= 1.50D-06 BMatP= 1.99D-03
 IDIUse=3 WtCom= 9.99D-01 WtEn= 1.00D-03
 Coeff-Com: -0.113D-01 0.210D-01 0.388D-01 0.951D+00
 Coeff-En:   0.000D+00 0.000D+00 0.000D+00 0.100D+01
 Coeff:     -0.113D-01 0.210D-01 0.387D-01 0.952D+00
 Gap=     0.170 Goal=   None    Shift=    0.000
 RMSDP=2.11D-06 MaxDP=4.31D-04 DE=-2.12D-03 OVMax= 6.60D-04

 Initial convergence to 1.0D-05 achieved.  Increase integral accuracy.
 Cycle   5  Pass 1  IDiag  1:
 E= -2573.90959782844     Delta-E=       -0.000881472011 Rises=F Damp=F
 DIIS: error= 1.33D-05 at cycle   1 NSaved=   1.
 NSaved= 1 IEnMin= 1 EnMin= -2573.90959782844     IErMin= 1 ErrMin= 1.33D-05
 ErrMax= 1.33D-05  0.00D+00 EMaxC= 1.00D-01 BMatC= 6.20D-08 BMatP= 6.20D-08
 IDIUse=1 WtCom= 1.00D+00 WtEn= 0.00D+00
 Coeff-Com:  0.100D+01
 Coeff:      0.100D+01
 Gap=     0.170 Goal=   None    Shift=    0.000
 RMSDP=2.11D-06 MaxDP=4.31D-04 DE=-8.81D-04 OVMax= 2.02D-04

 Cycle   6  Pass 1  IDiag  1:
 RMSU=  1.01D-06    CP:  1.00D+00
 E= -2573.90959792393     Delta-E=       -0.000000095490 Rises=F Damp=F
 DIIS: error= 8.05D-06 at cycle   2 NSaved=   2.
 NSaved= 2 IEnMin= 2 EnMin= -2573.90959792393     IErMin= 2 ErrMin= 8.05D-06
 ErrMax= 8.05D-06  0.00D+00 EMaxC= 1.00D-01 BMatC= 1.88D-08 BMatP= 6.20D-08
 IDIUse=1 WtCom= 1.00D+00 WtEn= 0.00D+00
 Coeff-Com:  0.327D+00 0.673D+00
 Coeff:      0.327D+00 0.673D+00
 Gap=     0.170 Goal=   None    Shift=    0.000
 RMSDP=2.62D-07 MaxDP=5.03D-05 DE=-9.55D-08 OVMax= 8.13D-05

 Cycle   7  Pass 1  IDiag  1:
 RMSU=  2.55D-07    CP:  1.00D+00  9.45D-01
 E= -2573.90959794703     Delta-E=       -0.000000023103 Rises=F Damp=F
 DIIS: error= 1.94D-06 at cycle   3 NSaved=   3.
 NSaved= 3 IEnMin= 3 EnMin= -2573.90959794703     IErMin= 3 ErrMin= 1.94D-06
 ErrMax= 1.94D-06  0.00D+00 EMaxC= 1.00D-01 BMatC= 1.40D-09 BMatP= 1.88D-08
 IDIUse=1 WtCom= 1.00D+00 WtEn= 0.00D+00
 Coeff-Com: -0.277D-01 0.185D+00 0.843D+00
 Coeff:     -0.277D-01 0.185D+00 0.843D+00
 Gap=     0.170 Goal=   None    Shift=    0.000
 RMSDP=6.90D-08 MaxDP=1.51D-05 DE=-2.31D-08 OVMax= 1.71D-05

 Cycle   8  Pass 1  IDiag  1:
 RMSU=  3.03D-08    CP:  1.00D+00  9.96D-01  8.67D-01
 E= -2573.90959794863     Delta-E=       -0.000000001595 Rises=F Damp=F
 DIIS: error= 4.85D-07 at cycle   4 NSaved=   4.
 NSaved= 4 IEnMin= 4 EnMin= -2573.90959794863     IErMin= 4 ErrMin= 4.85D-07
 ErrMax= 4.85D-07  0.00D+00 EMaxC= 1.00D-01 BMatC= 3.97D-11 BMatP= 1.40D-09
 IDIUse=1 WtCom= 1.00D+00 WtEn= 0.00D+00
 Coeff-Com: -0.146D-01 0.619D-01 0.311D+00 0.641D+00
 Coeff:     -0.146D-01 0.619D-01 0.311D+00 0.641D+00
 Gap=     0.170 Goal=   None    Shift=    0.000
 RMSDP=1.02D-08 MaxDP=1.49D-06 DE=-1.59D-09 OVMax= 3.25D-06

 Cycle   9  Pass 1  IDiag  1:
 RMSU=  8.25D-09    CP:  1.00D+00  9.98D-01  8.78D-01  8.39D-01
 E= -2573.90959794868     Delta-E=       -0.000000000052 Rises=F Damp=F
 DIIS: error= 4.59D-08 at cycle   5 NSaved=   5.
 NSaved= 5 IEnMin= 5 EnMin= -2573.90959794868     IErMin= 5 ErrMin= 4.59D-08
 ErrMax= 4.59D-08  0.00D+00 EMaxC= 1.00D-01 BMatC= 5.70D-13 BMatP= 3.97D-11
 IDIUse=1 WtCom= 1.00D+00 WtEn= 0.00D+00
 Coeff-Com:  0.897D-03-0.797D-02-0.405D-01 0.389D-01 0.101D+01
 Coeff:      0.897D-03-0.797D-02-0.405D-01 0.389D-01 0.101D+01
 Gap=     0.170 Goal=   None    Shift=    0.000
 RMSDP=2.30D-09 MaxDP=2.83D-07 DE=-5.18D-11 OVMax= 1.03D-06

 SCF Done:  E(RPBE1PBE) =  -2573.90959795     A.U. after    9 cycles
            NFock=  9  Conv=0.23D-08     -V/T= 2.0013
 KE= 2.570534662264D+03 PE=-6.163140215152D+03 EE= 1.018695954939D+03
 Leave Link  502 at Wed May  2 17:42:43 2018, MaxMem= 14763950080 cpu:      4975.0
 (Enter /cm/shared/gaussian/g09.e01/intel64-sandybridge/g09/l601.exe)
 Copying SCF densities to generalized density rwf, IOpCl= 0 IROHF=0.

 **********************************************************************

            Population analysis using the SCF density.

 **********************************************************************

 Alpha  occ. eigenvalues -- -482.98323 -62.38487 -56.15743 -56.15741 -56.15729
 Alpha  occ. eigenvalues --   -8.48633  -6.28953  -6.28949  -6.28910  -2.37226
 Alpha  occ. eigenvalues --   -2.37225  -2.37194  -2.37190  -2.37181  -0.46767
 Alpha  occ. eigenvalues --   -0.02676  -0.02675  -0.02630
 Alpha virt. eigenvalues --    0.14403   0.15676   0.16461   0.16597   0.17963
 Alpha virt. eigenvalues --    0.18255   0.18919   0.19695   0.20092   0.21343
 Alpha virt. eigenvalues --    0.21938   0.22198   0.22696   0.22945   0.23160
 Alpha virt. eigenvalues --    0.23803   0.24600   0.25125   0.25956   0.26231
 Alpha virt. eigenvalues --    0.26713   0.26790   0.27449   0.28095   0.28287
 Alpha virt. eigenvalues --    0.28753   0.30177   0.30250   0.30499   0.31564
 Alpha virt. eigenvalues --    0.31875   0.32449   0.32762   0.33800   0.34168
 Alpha virt. eigenvalues --    0.34677   0.34963   0.35368   0.35631   0.36240
 Alpha virt. eigenvalues --    0.36737   0.37233   0.37779   0.38491   0.38965
 Alpha virt. eigenvalues --    0.39102   0.39912   0.40046   0.40286   0.40812
 Alpha virt. eigenvalues --    0.41125   0.41682   0.41755   0.41891   0.43561
 Alpha virt. eigenvalues --    0.44142   0.44227   0.44343   0.45685   0.45916
 Alpha virt. eigenvalues --    0.46430   0.47149   0.47886   0.50298   0.60673
 Alpha virt. eigenvalues --    0.61660   0.62770   0.63426   0.63650   0.64515
 Alpha virt. eigenvalues --    0.64786   0.65184   0.65898   0.66300   0.66684
 Alpha virt. eigenvalues --    0.67161   0.67421   0.67722   0.68590   0.69507
 Alpha virt. eigenvalues --    0.69630   0.70573   0.70825   0.71490   0.71874
 Alpha virt. eigenvalues --    0.72218   0.72566   0.72881   0.73226   0.73294
 Alpha virt. eigenvalues --    0.73754   0.73978   0.74380   0.74668   0.74827
 Alpha virt. eigenvalues --    0.75120   0.75431   0.75628   0.75937   0.76072
 Alpha virt. eigenvalues --    0.76627   0.76718   0.77389   0.77802   0.78356
 Alpha virt. eigenvalues --    0.78461   0.78844   0.79066   0.79222   0.79398
 Alpha virt. eigenvalues --    0.79859   0.80181   0.81060   0.81317   0.81678
 Alpha virt. eigenvalues --    0.81971   0.82374   0.82563   0.83193   0.83286
 Alpha virt. eigenvalues --    0.83461   0.83617   0.83872   0.84314   0.84714
 Alpha virt. eigenvalues --    0.85145   0.85517   0.86048   0.86363   0.86609
 Alpha virt. eigenvalues --    0.87326   0.87860   0.88187   0.88447   0.88657
 Alpha virt. eigenvalues --    0.88859   0.89163   0.89476   0.90203   0.90492
 Alpha virt. eigenvalues --    0.90891   0.91363   0.91483   0.91628   0.92240
 Alpha virt. eigenvalues --    0.92684   0.92820   0.93272   0.93924   0.94240
 Alpha virt. eigenvalues --    0.94758   0.94894   0.95520   0.95699   0.96155
 Alpha virt. eigenvalues --    0.96561   0.96707   0.97183   0.97549   0.98001
 Alpha virt. eigenvalues --    0.98264   0.98327   0.98662   0.99195   0.99966
 Alpha virt. eigenvalues --    1.00706   1.00960   1.01150   1.01680   1.02153
 Alpha virt. eigenvalues --    1.03053   1.03263   1.04226   1.04754   1.04874
 Alpha virt. eigenvalues --    1.05568   1.05995   1.06027   1.07766   1.08120
 Alpha virt. eigenvalues --    1.08691   1.09305   1.10179   1.10396   1.11151
 Alpha virt. eigenvalues --    1.11406   1.11890   1.13181   1.13741   1.14403
 Alpha virt. eigenvalues --    1.15652   1.16272   1.17295   1.17603   1.18213
 Alpha virt. eigenvalues --    1.19135   1.20043   1.21379   1.22412   1.23112
 Alpha virt. eigenvalues --    1.23963   1.63185   1.65807   1.66020   1.66453
 Alpha virt. eigenvalues --    1.67297   1.67807   1.68571   1.68976   1.69415
 Alpha virt. eigenvalues --    1.70013   1.70251   1.70639   1.70845   1.71275
 Alpha virt. eigenvalues --    1.71657   1.72063   1.72216   1.72422   1.72486
 Alpha virt. eigenvalues --    1.72571   1.73241   1.73787   1.74165   1.74404
 Alpha virt. eigenvalues --    1.74622   1.74791   1.75491   1.75510   1.75873
 Alpha virt. eigenvalues --    1.76206   1.76277   1.76535   1.77175   1.77230
 Alpha virt. eigenvalues --    1.77497   1.77632   1.78071   1.78239   1.78659
 Alpha virt. eigenvalues --    1.78957   1.79150   1.79188   1.79716   1.80031
 Alpha virt. eigenvalues --    1.80548   1.80891   1.81626   1.81826   1.81938
 Alpha virt. eigenvalues --    1.82231   1.82797   1.83609   1.84073   1.84421
 Alpha virt. eigenvalues --    1.85663   1.86071   1.86295   1.88372   1.88659
 Alpha virt. eigenvalues --    1.89852   1.90808   1.91684   1.92120   1.94775
 Alpha virt. eigenvalues --    1.97366   1.97776   1.98638   1.99154   1.99536
 Alpha virt. eigenvalues --    1.99763   1.99886   2.00738   2.00826   2.01126
 Alpha virt. eigenvalues --    2.01356   2.01537   2.01711   2.01837   2.02303
 Alpha virt. eigenvalues --    2.02433   2.02591   2.02821   2.02883   2.03033
 Alpha virt. eigenvalues --    2.03314   2.03366   2.03564   2.03846   2.04282
 Alpha virt. eigenvalues --    2.04484   2.04994   2.05274   2.05586   2.05636
 Alpha virt. eigenvalues --    2.05856   2.06120   2.06289   2.07107   2.07176
 Alpha virt. eigenvalues --    2.07353   2.07762   2.08074   2.08371   2.08520
 Alpha virt. eigenvalues --    2.09004   2.09229   2.10111   2.10316   2.10520
 Alpha virt. eigenvalues --    2.10858   2.11647   2.12425   2.13222   2.13790
 Alpha virt. eigenvalues --    2.14064   2.14585   2.15119   2.15668   2.15762
 Alpha virt. eigenvalues --    2.16271   2.16808   2.17086   2.17679   2.18085
 Alpha virt. eigenvalues --    2.18491   2.19322   2.19446   2.19833   2.19880
 Alpha virt. eigenvalues --    2.20285   2.20478   2.20913   2.21114   2.21436
 Alpha virt. eigenvalues --    2.21813   2.22810   2.23472   2.23666   2.23997
 Alpha virt. eigenvalues --    2.24993   2.25101   2.26025   2.26894   2.27751
 Alpha virt. eigenvalues --    2.28736   2.28999   2.29602   2.30018   2.30355
 Alpha virt. eigenvalues --    2.31221   2.31800   2.32855   2.33419   2.33494
 Alpha virt. eigenvalues --    2.34578   2.35452   2.35709   2.36319   2.39148
 Alpha virt. eigenvalues --    2.40012   2.40667   2.41664   2.42170   2.42346
 Alpha virt. eigenvalues --    2.42720   2.43406   2.43448   2.44033   2.44394
 Alpha virt. eigenvalues --    2.44649   2.44973   2.46251   2.46615   2.47277
 Alpha virt. eigenvalues --    2.47811   2.47877   2.48362   2.49036   2.49215
 Alpha virt. eigenvalues --    2.49961   2.50995   2.51374   2.51826   2.52877
 Alpha virt. eigenvalues --    2.53257   2.53319   2.53987   2.55353   2.55836
 Alpha virt. eigenvalues --    2.57131   2.58078   2.58576   2.68315   2.68833
 Alpha virt. eigenvalues --    2.69313   2.69616   2.70044   2.70499   2.70870
 Alpha virt. eigenvalues --    2.71427   2.71550   2.71897   2.72241   2.72798
 Alpha virt. eigenvalues --    2.73370   2.73394   2.75015   2.75313   2.75729
 Alpha virt. eigenvalues --    2.76098   2.76734   2.77470   2.78865   2.79225
 Alpha virt. eigenvalues --    2.80526   2.81131   2.82077   2.82711   2.82962
 Alpha virt. eigenvalues --    2.83955   2.84625   2.85049   2.85189   2.86082
 Alpha virt. eigenvalues --    2.86347   2.87006   2.87219   2.87453   2.87496
 Alpha virt. eigenvalues --    2.87983   2.88065   2.88435   2.88552   2.88723
 Alpha virt. eigenvalues --    2.90246   2.90690   2.91324   2.91903   2.92761
 Alpha virt. eigenvalues --    2.94155   2.94359   2.95144   2.95904   2.96802
 Alpha virt. eigenvalues --    2.97252   2.98162   2.99101   2.99975   3.01775
 Alpha virt. eigenvalues --    3.02728   3.03673   3.04532   3.05258   3.06600
 Alpha virt. eigenvalues --    3.09515   3.09629   3.13941   3.15955   3.16892
 Alpha virt. eigenvalues --    3.17644   3.17779   3.18734   3.19076   3.20084
 Alpha virt. eigenvalues --    3.22862   3.23725   3.25919   3.26979   3.28467
 Alpha virt. eigenvalues --    3.29710   3.30301   3.30976   3.34455   3.34723
 Alpha virt. eigenvalues --    3.36372   3.38207   3.40301   3.43799   3.47099
 Alpha virt. eigenvalues --    3.47883   3.49723   3.52510   3.53584   3.55452
 Alpha virt. eigenvalues --    3.56211   3.59417   3.61814   3.66920   4.51209
 Alpha virt. eigenvalues --    4.51903   4.52019   4.52317   4.52379   4.52521
 Alpha virt. eigenvalues --    4.52574   4.52719   4.52770   4.52820   4.53092
 Alpha virt. eigenvalues --    4.53185   4.53353   4.53464   4.53574   4.53743
 Alpha virt. eigenvalues --    4.53789   4.54019   4.54368   4.54394   4.54504
 Alpha virt. eigenvalues --    4.54755   4.54852   4.55063   4.55383   4.55582
 Alpha virt. eigenvalues --    4.55702   4.56858   4.56922   4.56959   4.57677
 Alpha virt. eigenvalues --    4.58487   4.59701   4.60353   4.60433   4.60474
 Alpha virt. eigenvalues --    4.60719   4.60760   4.60974   4.61011   4.61151
 Alpha virt. eigenvalues --    4.61160   4.61354   4.61392   4.61469   4.61560
 Alpha virt. eigenvalues --    4.61802   4.61960   4.61987   4.62013   4.62334
 Alpha virt. eigenvalues --    4.62678   4.62809   4.63096   4.63424   4.64088
 Alpha virt. eigenvalues --    4.64205   4.64832   4.65050   4.65448   4.65634
 Alpha virt. eigenvalues --    4.65917   4.66383   4.69129   4.75103   4.75200
 Alpha virt. eigenvalues --    4.75419   4.75729   4.75859   4.76016   4.76036
 Alpha virt. eigenvalues --    4.76422   4.77013   4.77550   4.77883   4.78205
 Alpha virt. eigenvalues --    4.78487   4.78577   4.79701   4.80072   4.80266
 Alpha virt. eigenvalues --    4.80427   4.80587   4.80758   4.81449   4.81870
 Alpha virt. eigenvalues --    4.82270   4.82555   4.82778   4.82831   4.83990
 Alpha virt. eigenvalues --    4.84481   4.84525   4.84832   4.85113   4.86176
 Alpha virt. eigenvalues --    4.87003   4.87192   4.87279   4.87943   4.88047
 Alpha virt. eigenvalues --    4.88348   4.88513   4.89089   4.89243   4.89423
 Alpha virt. eigenvalues --    4.89948   4.91212   4.91455   4.92196   4.92404
 Alpha virt. eigenvalues --    4.93205   4.93501   4.93650   4.94681   4.94820
 Alpha virt. eigenvalues --    4.95517   4.96165   4.96693   4.97276   4.97708
 Alpha virt. eigenvalues --    4.99064   4.99447   5.01231   5.01539   5.03031
 Alpha virt. eigenvalues --    5.03576   5.04380   5.04848   5.05246   5.05475
 Alpha virt. eigenvalues --    5.05730   5.06328   5.06654   5.07016   5.08286
 Alpha virt. eigenvalues --    5.09242   5.09309   5.09455   5.10682   5.11051
 Alpha virt. eigenvalues --    5.11271   5.12929   5.13646   5.14348   5.14657
 Alpha virt. eigenvalues --    5.14921   5.15284   5.17310   5.18107   5.19319
 Alpha virt. eigenvalues --    5.20117   5.21033   5.21687   5.23195   5.23596
 Alpha virt. eigenvalues --    5.23925   5.26407   5.27413   5.31389   5.36231
 Alpha virt. eigenvalues --    5.37220   5.37283   5.37852   5.38319   5.39176
 Alpha virt. eigenvalues --    5.39484   5.39714   5.40816   5.41629   5.42462
[...]
   Y20       32.48439  -0.01052   0.00000  -0.01694  -0.01824  32.46615
   Z20       41.32831   0.00894   0.00000  -0.00941  -0.00774  41.32057
   X21       34.52530   0.00319   0.00000   0.00247   0.00471  34.53001
   Y21       33.82610   0.01016   0.00000   0.01951   0.01811  33.84421
   Z21       40.40234  -0.00484   0.00000   0.00073   0.00192  40.40426
   X22       32.08755  -0.00936   0.00000  -0.00246   0.00011  32.08766
   Y22       32.35211   0.00180   0.00000   0.00873   0.00691  32.35902
   Z22       40.62911  -0.00707   0.00000  -0.01295  -0.01099  40.61812
   X23       42.40545  -0.01060   0.00000  -0.01457  -0.01533  42.39013
   Y23       42.36766   0.01164   0.00000  -0.00314  -0.00531  42.36235
   Z23       31.74740  -0.01065   0.00000  -0.01106  -0.01334  31.73406
   X24       43.40701   0.00525   0.00000   0.01186   0.01100  43.41801
   Y24       41.81964   0.00004   0.00000   0.01309   0.01076  41.83040
   Z24       30.34900  -0.00544   0.00000  -0.00986  -0.01215  30.33685
   X25       42.82119   0.00722   0.00000   0.01561   0.01529  42.83648
   Y25       41.21493  -0.01519   0.00000  -0.02229  -0.02400  41.19092
   Z25       33.07021   0.01127   0.00000   0.00137  -0.00067  33.06954
   X26       32.31432  -0.01227   0.00000  -0.02515  -0.02405  32.29027
   Y26       32.59778  -0.01400   0.00000  -0.00846  -0.01276  32.58501
   Z26       31.21828  -0.00602   0.00000   0.00530   0.00717  31.22544
   X27       33.67492   0.01177   0.00000   0.01275   0.01390  33.68882
   Y27       33.14580   0.00587   0.00000   0.00277  -0.00098  33.14482
   Z27       32.25763   0.00573   0.00000  -0.01071  -0.00921  32.24842
   X28       31.33166   0.00202   0.00000   0.01847   0.01923  31.35089
   Y28       34.09066   0.01031   0.00000   0.02925   0.02468  34.11534
   Z28       30.93482  -0.00060   0.00000  -0.00565  -0.00405  30.93077
   X29       34.84655  -0.02250   0.00000  -0.02120  -0.01875  34.82780
   Y29       37.92680   0.00867   0.00000   0.03080   0.03127  37.95807
   Z29       47.14867   0.00832   0.00000   0.01383   0.01388  47.16254
   X30       35.64023   0.00750   0.00000   0.01639   0.01906  35.65929
   Y30       38.11578  -0.00152   0.00000  -0.01173  -0.01066  38.10512
   Z30       48.75493   0.00865   0.00000   0.01425   0.01413  48.76906
   X31       36.20715   0.01286   0.00000  -0.01271  -0.01036  36.19679
   Y31       37.62445  -0.01012   0.00000  -0.03678  -0.03635  37.58810
   Z31       45.99593  -0.01364   0.00000  -0.01190  -0.01196  45.98397
   X32       39.40079   0.00620   0.00000   0.00773   0.00759  39.40838
   Y32       37.49217  -0.01435   0.00000   0.00528   0.00191  37.49407
   Z32       29.40414   0.00354   0.00000   0.02130   0.02077  29.42491
   X33       38.68269  -0.00572   0.00000  -0.00172  -0.00218  38.68051
   Y33       39.13623   0.01914   0.00000   0.03106   0.02757  39.16379
   Z33       29.51752  -0.00125   0.00000  -0.00988  -0.01075  29.50678
   X34       41.08265  -0.00025   0.00000  -0.00286  -0.00316  41.07949
   Y34       37.77563   0.00083   0.00000   0.00261  -0.00061  37.77501
   Z34       28.78053  -0.00243   0.00000  -0.01130  -0.01216  28.76837
   X35       46.58175   0.01876   0.00000   0.02843   0.02855  46.61030
   Y35       42.55663  -0.00012   0.00000   0.00199   0.00228  42.55891
   Z35       37.75673   0.01614   0.00000   0.02056   0.01759  37.77432
   X36       45.39122  -0.00821   0.00000   0.01535   0.01554  45.40676
   Y36       41.53618  -0.01200   0.00000  -0.01952  -0.01971  41.51647
   Z36       36.86856  -0.00799   0.00000   0.00473   0.00222  36.87077
   X37       46.33608  -0.00769   0.00000  -0.02794  -0.02825  46.30783
   Y37       44.21959   0.01209   0.00000   0.01666   0.01672  44.23632
   Z37       37.09532   0.00088   0.00000   0.02949   0.02611  37.12144
   X38       43.10465   0.01791   0.00000   0.02738   0.02903  43.13368
   Y38       30.85923  -0.00553   0.00000  -0.00665  -0.00844  30.85078
   Z38       32.55998  -0.02685   0.00000  -0.02028  -0.01958  32.54040
   X39       44.54084   0.00012   0.00000   0.01229   0.01371  44.55455
   Y39       31.97417  -0.00048   0.00000   0.00624   0.00470  31.97887
   Z39       32.46549   0.00114   0.00000   0.00191   0.00208  32.46758
   X40       42.36766  -0.01333   0.00000  -0.01882  -0.01700  42.35066
   Y40       31.19938   0.00751   0.00000   0.01292   0.01140  31.21078
   Z40       34.16625   0.02347   0.00000   0.00381   0.00452  34.17077
   X41       31.84189  -0.01744   0.00000  -0.02968  -0.02829  31.81359
   Y41       42.06530   0.02046   0.00000   0.02130   0.02074  42.08604
   Z41       45.50461   0.01147   0.00000   0.01031   0.00970  45.51431
   X42       31.86078   0.00636   0.00000   0.01836   0.02020  31.88098
   Y42       40.68580  -0.01015   0.00000  -0.01486  -0.01510  40.67070
   Z42       46.67624  -0.00187   0.00000  -0.01563  -0.01587  46.66036
   X43       32.80565   0.01354   0.00000   0.02080   0.02209  32.82773
   Y43       41.49839  -0.00990   0.00000  -0.00326  -0.00400  41.49439
   Z43       44.08731  -0.00728   0.00000   0.01771   0.01710  44.10441
   X44       38.11578   0.00362   0.00000   0.00407   0.00706  38.12283
   Y44       27.43882  -0.01393   0.00000  -0.01797  -0.01960  27.41922
   Z44       36.86856   0.00522   0.00000  -0.00804  -0.00566  36.86289
   X45       38.62600   0.00219   0.00000  -0.00013   0.00243  38.62844
   Y45       29.02619   0.01174   0.00000   0.01353   0.01181  29.03801
   Z45       36.16936  -0.00176   0.00000   0.01231   0.01417  36.18353
   X46       36.35833  -0.00504   0.00000  -0.00736  -0.00441  36.35392
   Y46       27.30654   0.00218   0.00000   0.00917   0.00708  27.31362
   Z46       36.45282  -0.00112   0.00000  -0.00029   0.00238  36.45520
   X47       42.55663   0.00705   0.00000   0.00386   0.00439  42.56102
   Y47       44.23849   0.00751   0.00000  -0.00314  -0.00233  44.23616
   Z47       42.72671  -0.00923   0.00000  -0.01596  -0.01877  42.70794
   X48       40.95037  -0.01027   0.00000  -0.00648  -0.00577  40.94459
   Y48       43.99282   0.00095   0.00000   0.01330   0.01402  44.00685
   Z48       43.53929   0.00646   0.00000   0.01051   0.00801  43.54730
   X49       43.38811   0.00393   0.00000   0.00540   0.00628  43.39439
   Y49       42.63222  -0.00846   0.00000  -0.01307  -0.01205  42.62017
   Z49       42.85899   0.00424   0.00000   0.02001   0.01751  42.87650
   X50       36.90635   0.01262   0.00000   0.01062   0.01419  36.92054
   Y50       30.74584  -0.00883   0.00000  -0.03828  -0.03796  30.70788
   Z50       45.03217   0.01021   0.00000   0.00106   0.00273  45.03491
   X51       35.92369  -0.01200   0.00000  -0.02889  -0.02563  35.89807
   Y51       31.14269   0.00494   0.00000   0.01183   0.01155  31.15424
   Z51       43.55819  -0.00726   0.00000   0.01322   0.01493  43.57312
   X52       38.56931  -0.00435   0.00000  -0.01035  -0.00698  38.56233
   Y52       31.36945   0.00005   0.00000   0.00528   0.00582  31.37527
   Z52       44.61643   0.00225   0.00000   0.00675   0.00800  44.62443
   X53       30.70805  -0.01837   0.00000  -0.02575  -0.02645  30.68160
   Y53       42.89678  -0.00619   0.00000  -0.00876  -0.01296  42.88382
   Z53       32.80565   0.00302   0.00000  -0.00515  -0.00580  32.79984
   X54       30.25452   0.00211   0.00000   0.00741   0.00630  30.26081
   Y54       44.57864   0.00407   0.00000   0.01095   0.00653  44.58517
   Z54       32.29542   0.00171   0.00000   0.01499   0.01395  32.30937
   X55       32.48439   0.01221   0.00000   0.00080   0.00006  32.48446
   Y55       42.78340   0.00013   0.00000  -0.00046  -0.00439  42.77901
   Z55       32.44660  -0.00124   0.00000   0.00940   0.00851  32.45511
   X56       40.15668  -0.01806   0.00000  -0.01180  -0.01306  40.14362
   Y56       46.52506   0.00807   0.00000   0.00991   0.00787  46.53293
   Z56       33.88279  -0.00977   0.00000  -0.00243  -0.00550  33.87729
   X57       40.91257   0.00702   0.00000   0.00835   0.00727  40.91984
   Y57       45.06997  -0.00936   0.00000   0.00103  -0.00106  45.06891
   Z57       33.12690  -0.00709   0.00000  -0.01413  -0.01692  33.10998
   X58       41.17713   0.01072   0.00000   0.00641   0.00530  41.18243
   Y58       46.90300   0.00170   0.00000  -0.00348  -0.00491  46.89809
   Z58       35.31898   0.01662   0.00000   0.02334   0.02002  35.33900
   X59       38.53152   0.01337   0.00000   0.02161   0.02319  38.55470
   Y59       42.25428   0.01793   0.00000   0.00326   0.00445  42.25872
   Z59       47.03528   0.00566   0.00000   0.01366   0.01199  47.04727
   X60       36.79297  -0.01334   0.00000  -0.00706  -0.00537  36.78760
   Y60       41.80074  -0.00513   0.00000   0.00164   0.00251  41.80325
   Z60       47.20536  -0.00674   0.00000  -0.03699  -0.03828  47.16708
   X61       39.34410   0.00281   0.00000  -0.00374  -0.00194  39.34215
   Y61       40.76139  -0.01701   0.00000  -0.03058  -0.02940  40.73200
   Z61       46.44947  -0.00414   0.00000  -0.00039  -0.00178  46.44769
   X62       42.00861  -0.00015   0.00000   0.01149   0.01468  42.02330
   Y62       32.69226  -0.00013   0.00000  -0.00395  -0.00258  32.68968
   Z62       45.14556   0.01217   0.00000   0.00401   0.00437  45.14993
   X63       42.67002  -0.00275   0.00000  -0.01108  -0.00746  42.66255
   Y63       31.36945   0.00111   0.00000   0.00040   0.00217  31.37163
   Z63       46.20380   0.00603   0.00000   0.02322   0.02384  46.22765
   X64       42.72671   0.00797   0.00000   0.01735   0.02036  42.74707
   Y64       32.35211  -0.00023   0.00000   0.00289   0.00395  32.35607
   Z64       43.52039  -0.01655   0.00000  -0.02105  -0.02071  43.49969
   X65       39.30630  -0.00782   0.00000  -0.00806  -0.00719  39.29911
   Y65       32.23873  -0.01163   0.00000  -0.00369  -0.00716  32.23156
   Z65       29.17737  -0.01134   0.00000  -0.02228  -0.02137  29.15600
   X66       40.78029   0.00654   0.00000  -0.01080  -0.00973  40.77056
   Y66       32.04976  -0.00466   0.00000  -0.02021  -0.02310  32.02665
   Z66       30.21672   0.00859   0.00000   0.01172   0.01245  30.22917
   X67       38.85277  -0.00258   0.00000  -0.00249  -0.00195  38.85082
   Y67       33.97728   0.01271   0.00000   0.01494   0.01143  33.98870
   Z67       29.32855   0.00163   0.00000   0.00116   0.00166  29.33021
   X68       35.41347   0.00684   0.00000   0.00605   0.00643  35.41990
   Y68       46.33608   0.02004   0.00000   0.02686   0.02673  46.36282
   Z68       44.48415   0.00111   0.00000  -0.00194  -0.00424  44.47991
   X69       34.46860  -0.00309   0.00000  -0.00667  -0.00605  34.46255
   Y69       46.33608  -0.00640   0.00000  -0.02170  -0.02160  46.31448
   Z69       46.03373   0.00007   0.00000  -0.00532  -0.00746  46.02627
   X70       35.09221  -0.00261   0.00000   0.00608   0.00668  35.09889
   Y70       44.71092  -0.01199   0.00000   0.00334   0.00296  44.71388
   Z70       43.76606  -0.00518   0.00000  -0.00833  -0.01014  43.75592
   X71       35.37567  -0.02455   0.00000  -0.04086  -0.04220  35.33347
   Y71       47.77228   0.00978   0.00000  -0.00627  -0.00896  47.76332
   Z71       34.99773  -0.00445   0.00000  -0.00349  -0.00616  34.99157
   X72       36.88745   0.02058   0.00000   0.02185   0.02066  36.90812
   Y72       46.80852  -0.00558   0.00000   0.02863   0.02619  46.83471
   Z72       34.78986  -0.00430   0.00000  -0.01351  -0.01616  34.77370
   X73       34.92214   0.00003   0.00000   0.00326   0.00223  34.92437
   Y73       47.56441  -0.00276   0.00000  -0.00767  -0.00997  47.55444
   Z73       36.73628   0.00731   0.00000   0.01621   0.01366  36.74994
   X74       44.29518  -0.00190   0.00000   0.00111   0.00389  44.29907
   Y74       31.50173   0.00054   0.00000  -0.01187  -0.01122  31.49052
   Z74       40.83698  -0.00206   0.00000  -0.00886  -0.00851  40.82847
   X75       45.65578   0.00251   0.00000   0.00342   0.00591  45.66169
   Y75       32.14424   0.00392   0.00000   0.01366   0.01432  32.15856
   Z75       39.81653  -0.00104   0.00000   0.00226   0.00222  39.81875
   X76       44.97548   0.00239   0.00000   0.00389   0.00708  44.98256
   Y76       30.00885  -0.00878   0.00000  -0.02680  -0.02580  29.98305
   Z76       41.61177  -0.00180   0.00000  -0.02105  -0.02041  41.59136
   X77       29.32855   0.00902   0.00000  -0.00439  -0.00229  29.32626
   Y77       33.46705  -0.00596   0.00000  -0.00109  -0.00392  33.46313
   Z77       38.92836  -0.00509   0.00000  -0.00628  -0.00420  38.92416
   X78       28.51597  -0.00190   0.00000  -0.00553  -0.00363  28.51233
   Y78       33.27808  -0.00167   0.00000  -0.00373  -0.00715  33.27093
   Z78       37.32209  -0.00508   0.00000  -0.01198  -0.00973  37.31236
   X79       28.10023  -0.00920   0.00000  -0.00594  -0.00384  28.09638
   Y79       34.24184   0.01076   0.00000   0.02936   0.02657  34.26841
   Z79       39.98660   0.00946   0.00000   0.00687   0.00892  39.99552
   X80       43.23693   0.00655   0.00000   0.04432   0.04363  43.28057
   Y80       46.92190   0.00776   0.00000  -0.01355  -0.01382  46.90808
   Z80       38.15357  -0.02591   0.00000  -0.02254  -0.02617  38.12740
   X81       43.16134  -0.00798   0.00000  -0.03816  -0.03841  43.12294
   Y81       45.80696  -0.01399   0.00000  -0.00229  -0.00220  45.80476
   Z81       39.57087   0.02439   0.00000   0.03330   0.02998  39.60085
   X82       44.12511   0.00094   0.00000  -0.00578  -0.00667  44.11844
   Y82       48.37699   0.00536   0.00000   0.01131   0.01138  48.38837
   Z82       38.75828   0.00445   0.00000   0.01435   0.01019  38.76847
   X83       46.80852  -0.00669   0.00000   0.00352   0.00487  46.81339
   Y83       40.00550  -0.01191   0.00000   0.00840   0.01002  40.01552
   Z83       42.57553   0.00228   0.00000  -0.01553  -0.01786  42.55767
   X84       48.13132   0.00946   0.00000   0.00353   0.00490  48.13622
   Y84       40.66691   0.01047   0.00000   0.03109   0.03325  40.70016
   Z84       43.59598   0.00764   0.00000   0.00586   0.00315  43.59913
   X85       46.71403   0.00232   0.00000   0.01668   0.01758  46.73161
   Y85       41.12044   0.01135   0.00000   0.00684   0.00806  41.12850
   Z85       41.15824  -0.02337   0.00000  -0.05405  -0.05666  41.10158
   X86       45.06997  -0.00283   0.00000   0.01542   0.01790  45.08787
   Y86       37.13312  -0.00359   0.00000  -0.03235  -0.03008  37.10304
   Z86       46.20380   0.02650   0.00000   0.04582   0.04454  46.24834
   X87       44.08731  -0.00731   0.00000  -0.02184  -0.01922  44.06809
   Y87       35.81031  -0.00708   0.00000  -0.00937  -0.00751  35.80280
   Z87       45.46681  -0.00070   0.00000   0.02058   0.01981  45.48662
   X88       46.18491   0.00388   0.00000  -0.03244  -0.03027  46.15463
   Y88       37.64334   0.00608   0.00000   0.01106   0.01317  37.65651
   Z88       44.89989  -0.01702   0.00000  -0.01807  -0.01966  44.88024
   X89       26.92860  -0.01789   0.00000  -0.02046  -0.01929  26.90931
   Y89       40.15668  -0.00720   0.00000  -0.01077  -0.01337  40.14331
   Z89       41.55508   0.01360   0.00000   0.01015   0.01081  41.56589
   X90       28.61045   0.01691   0.00000   0.00904   0.01005  28.62051
   Y90       40.68580   0.00257   0.00000  -0.00984  -0.01219  40.67362
   Z90       41.21493  -0.00363   0.00000   0.00657   0.00682  41.22175
   X91       26.19160   0.00038   0.00000   0.00614   0.00711  26.19871
   Y91       39.89212   0.00100   0.00000   0.00910   0.00592  39.89803
   Z91       39.92991  -0.00944   0.00000  -0.01709  -0.01626  39.91365
   X92       31.82299   0.00242   0.00000   0.00655   0.00624  31.82923
   Y92       38.45593  -0.00790   0.00000  -0.04170  -0.04655  38.40938
   Z92       29.51752   0.01141   0.00000   0.00233   0.00271  29.52023
   X93       30.02775  -0.00205   0.00000   0.01138   0.01102  30.03876
   Y93       38.72049   0.00811   0.00000   0.04188   0.03668  38.75717
   Z93       29.55532   0.00283   0.00000   0.01211   0.01266  29.56798
   X94       32.20093   0.00240   0.00000  -0.00122  -0.00173  32.19921
   Y94       38.09688  -0.00484   0.00000  -0.00977  -0.01502  38.08186
   Z94       27.79787  -0.01621   0.00000  -0.02722  -0.02682  27.77105
   X95       36.56620  -0.00717   0.00000   0.00795   0.00644  36.57264
   Y95       42.36766  -0.01480   0.00000  -0.01619  -0.02086  42.34680
   Z95       26.72073  -0.01726   0.00000  -0.02355  -0.02495  26.69578
   X96       35.82921   0.00309   0.00000   0.01447   0.01327  35.84248
   Y96       42.00861   0.00879   0.00000   0.03933   0.03496  42.04357
   Z96       28.34589   0.00631   0.00000   0.00167   0.00047  28.34636
   X97       37.81342   0.00758   0.00000   0.00146  -0.00025  37.81317
   Y97       43.61488   0.01032   0.00000   0.01240   0.00808  43.62296
   Z97       27.06088   0.00771   0.00000   0.00826   0.00633  27.06721
         Item               Value     Threshold  Converged?
 Maximum Force            0.027529     0.000450     NO 
 RMS     Force            0.009896     0.000300     NO 
 Maximum Displacement     0.056659     0.001800     NO 
 RMS     Displacement     0.017488     0.001200     NO 
 Predicted change in Energy=-2.616463D-02
 GradGradGradGradGradGradGradGradGradGradGradGradGradGradGradGradGradGrad

 Leave Link  103 at Wed May  2 17:47:13 2018, MaxMem= 14763950080 cpu:        53.4
 (Enter /cm/shared/gaussian/g09.e01/intel64-sandybridge/g09/l9999.exe)
 1\1\GINC-POPLE03\Force\RPBE1PBE\CC-pVDZ\Br1H64O32(1-)\M.PELUSO\02-May-
 2018\0\\#p PBE1PBE/cc-pvDZ force Counterpoise=2 noSymm\\forces on chlo
 ride comput - NWATER: 32\\-1,1\Br,20.,20.,20.\O,18.48,22.1,21.9\H,17.7
 3,21.99,21.32\H,19.19,21.63,21.47\O,21.57,17.03,19.49\H,21.16,17.89,19
 .58\H,21.94,16.86,20.36\O,16.69,21.02,20.32\H,17.56,20.66,20.12\H,16.2
 ,20.93,19.5\O,20.47,19.26,23.31\H,21.12,18.6,23.54\H,20.69,19.52,22.42
 \O,23.35,20.55,18.65\H,22.47,20.29,18.9\H,23.74,19.77,18.27\O,18.8,21.
 87,16.73\H,19.22,21.63,17.56\H,18.46,21.04,16.39\O,17.86,17.19,21.87\H
 ,18.27,17.9,21.38\H,16.98,17.12,21.5\O,22.44,22.42,16.8\H,22.97,22.13,
 16.06\H,22.66,21.81,17.5\O,17.1,17.25,16.52\H,17.82,17.54,17.07\H,16.5
 8,18.04,16.37\O,18.44,20.07,24.95\H,18.86,20.17,25.8\H,19.16,19.91,24.
 34\O,20.85,19.84,15.56\H,20.47,20.71,15.62\H,21.74,19.99,15.23\O,24.65
 ,22.52,19.98\H,24.02,21.98,19.51\H,24.52,23.4,19.63\O,22.81,16.33,17.2
 3\H,23.57,16.92,17.18\H,22.42,16.51,18.08\O,16.85,22.26,24.08\H,16.86,
 21.53,24.7\H,17.36,21.96,23.33\O,20.17,14.52,19.51\H,20.44,15.36,19.14
 \H,19.24,14.45,19.29\O,22.52,23.41,22.61\H,21.67,23.28,23.04\H,22.96,2
 2.56,22.68\O,19.53,16.27,23.83\H,19.01,16.48,23.05\H,20.41,16.6,23.61\
 O,16.25,22.7,17.36\H,16.01,23.59,17.09\H,17.19,22.64,17.17\O,21.25,24.
 62,17.93\H,21.65,23.85,17.53\H,21.79,24.82,18.69\O,20.39,22.36,24.89\H
 ,19.47,22.12,24.98\H,20.82,21.57,24.58\O,22.23,17.3,23.89\H,22.58,16.6
 ,24.45\H,22.61,17.12,23.03\O,20.8,17.06,15.44\H,21.58,16.96,15.99\H,20
 .56,17.98,15.52\O,18.74,24.52,23.54\H,18.24,24.52,24.36\H,18.57,23.66,
 23.16\O,18.72,25.28,18.52\H,19.52,24.77,18.41\H,18.48,25.17,19.44\O,23
 .44,16.67,21.61\H,24.16,17.01,21.07\H,23.8,15.88,22.02\O,15.52,17.71,2
 0.6\H,15.09,17.61,19.75\H,14.87,18.12,21.16\O,22.88,24.83,20.19\H,22.8
 4,24.24,20.94\H,23.35,25.6,20.51\O,24.77,21.17,22.53\H,25.47,21.52,23.
 07\H,24.72,21.76,21.78\O,23.85,19.65,24.45\H,23.33,18.95,24.06\H,24.44
 ,19.92,23.76\O,14.25,21.25,21.99\H,15.14,21.53,21.81\H,13.86,21.11,21.
 13\O,16.84,20.35,15.62\H,15.89,20.49,15.64\H,17.04,20.16,14.71\O,19.35
 ,22.42,14.14\H,18.96,22.23,15.\H,20.01,23.08,14.32\\Version=ES64L-G09R
 evE.01\HF=-2443.1851937\RMSD=2.429e-09\RMSF=9.896e-03\Dipole=4.4040156
 ,-1.5654052,-2.2994113\Quadrupole=409.4709509,-196.8841283,-212.586822
 6,-1348.4525303,-1344.0072003,-1634.4726985\PG=C01 [X(Br1H64O32)]\\@


 MYSTERY IS THE WISDOM OF BLOCKHEADS... HORACE WALPOLE 
 Job cpu time:       0 days  8 hours 37 minutes 18.7 seconds.
 File lengths (MBytes):  RWF=    482 Int=      0 D2E=      0 Chk=    160 Scr=      1
 Normal termination of Gaussian 09 at Wed May  2 17:47:13 2018.
