 Entering Gaussian System, Link 0=/cm/shared/gaussian/g09.e01/intel64-sandybridge/g09/g09
 Initial command:
 /cm/shared/gaussian/g09.e01/intel64-sandybridge/g09/l1.exe "/local/scratch/m.peluso/32_wat/Gau-17540.inp" -scrdir="/local/scratch/m.peluso/32_wat/"
 Entering Link 1 = /cm/shared/gaussian/g09.e01/intel64-sandybridge/g09/l1.exe PID=     17541.
  
 Copyright (c) 1988,1990,1992,1993,1995,1998,2003,2009,2015,
            Gaussian, Inc.  All Rights Reserved.
  
 This is part of the Gaussian(R) 09 program.  It is based on
 the Gaussian(R) 03 system (copyright 2003, Gaussian, Inc.),
 the Gaussian(R) 98 system (copyright 1998, Gaussian, Inc.),
 the Gaussian(R) 94 system (copyright 1995, Gaussian, Inc.),
 the Gaussian 92(TM) system (copyright 1992, Gaussian, Inc.),
 the Gaussian 90(TM) system (copyright 1990, Gaussian, Inc.),
 the Gaussian 88(TM) system (copyright 1988, Gaussian, Inc.),
 the Gaussian 86(TM) system (copyright 1986, Carnegie Mellon
 University), and the Gaussian 82(TM) system (copyright 1983,
 Carnegie Mellon University). Gaussian is a federally registered
 trademark of Gaussian, Inc.
  
 This software contains proprietary and confidential information,
 including trade secrets, belonging to Gaussian, Inc.
  
 This software is provided under written license and may be
 used, copied, transmitted, or stored only in accord with that
 written license.
  
 The following legend is applicable only to US Government
 contracts under FAR:
  
                    RESTRICTED RIGHTS LEGEND
  
 Use, reproduction and disclosure by the US Government is
 subject to restrictions as set forth in subparagraphs (a)
 and (c) of the Commercial Computer Software - Restricted
 Rights clause in FAR 52.227-19.
  
 Gaussian, Inc.
 340 Quinnipiac St., Bldg. 40, Wallingford CT 06492
  
  
 ---------------------------------------------------------------
 Warning -- This program may not be used in any manner that
 competes with the business of Gaussian, Inc. or will provide
 assistance to any competitor of Gaussian, Inc.  The licensee
 of this program is prohibited from giving any competitor of
 Gaussian, Inc. access to this program.  By using this program,
 the user acknowledges that Gaussian, Inc. is engaged in the
 business of creating and licensing software in the field of
 computational chemistry and represents and warrants to the
 licensee that it is not a competitor of Gaussian, Inc. and that
 it will not use this program in any manner prohibited above.
 ---------------------------------------------------------------
  

 Cite this work as:
 Gaussian 09, Revision E.01,
 M. J. Frisch, G. W. Trucks, H. B. Schlegel, G. E. Scuseria, 
 M. A. Robb, J. R. Cheeseman, G. Scalmani, V. Barone, B. Mennucci, 
 G. A. Petersson, H. Nakatsuji, M. Caricato, X. Li, H. P. Hratchian, 
 A. F. Izmaylov, J. Bloino, G. Zheng, J. L. Sonnenberg, M. Hada, 
 M. Ehara, K. Toyota, R. Fukuda, J. Hasegawa, M. Ishida, T. Nakajima, 
 Y. Honda, O. Kitao, H. Nakai, T. Vreven, J. A. Montgomery, Jr., 
 J. E. Peralta, F. Ogliaro, M. Bearpark, J. J. Heyd, E. Brothers, 
 K. N. Kudin, V. N. Staroverov, T. Keith, R. Kobayashi, J. Normand, 
 K. Raghavachari, A. Rendell, J. C. Burant, S. S. Iyengar, J. Tomasi, 
 M. Cossi, N. Rega, J. M. Millam, M. Klene, J. E. Knox, J. B. Cross, 
 V. Bakken, C. Adamo, J. Jaramillo, R. Gomperts, R. E. Stratmann, 
 O. Yazyev, A. J. Austin, R. Cammi, C. Pomelli, J. W. Ochterski, 
 R. L. Martin, K. Morokuma, V. G. Zakrzewski, G. A. Voth, 
 P. Salvador, J. J. Dannenberg, S. Dapprich, A. D. Daniels, 
 O. Farkas, J. B. Foresman, J. V. Ortiz, J. Cioslowski, 
 and D. J. Fox, Gaussian, Inc., Wallingford CT, 2013.
 
 ******************************************
 Gaussian 09:  ES64L-G09RevE.01 30-Nov-2015
                 3-May-2018 
 ******************************************
 %Mem=110GB
 %NProcShared=64
 Will use up to   64 processors via shared memory.
 %chk=snap99.chk
 ----------------------------------------------
 #p PBE1PBE/cc-pvDZ force Counterpoise=2 noSymm
 ----------------------------------------------
 1/10=7,30=1,38=1,62=2/1,3;
 2/12=2,15=1,17=6,18=5,40=1/2;
 1/10=7,30=1,38=1,53=2,62=2,63=101/22;
 3/5=16,11=2,16=1,25=1,30=1,71=1,74=-13/1,2,3;
 4//1;
 5/5=2,38=5/2;
 6/7=2,8=2,9=2,10=2,28=1/1;
 7/7=1,29=1,30=1,33=-1/1,2,3,16;
 1/10=7,30=1,53=2,62=2,63=101/22;
 3/5=7,6=11,11=2,16=1,25=1,30=1,71=1,74=-13,82=7/1,2,3;
 4//1;
 5/5=2,38=5/2;
 6/7=2,8=2,9=2,10=2,28=1/1;
 7/7=1,29=1,30=1,33=-1/1,2,3,16;
 1/10=7,30=1,53=2,62=2,63=101/22(-5);
 7/9=1,29=1,44=-1/16;
 1/10=7,30=1,62=2/3;
 99//99;
 Leave Link    1 at Thu May  3 12:24:47 2018, MaxMem= 14763950080 cpu:         4.3
 (Enter /cm/shared/gaussian/g09.e01/intel64-sandybridge/g09/l101.exe)
 --------------------------------------
 forces on chloride comput - NWATER: 32
 --------------------------------------
 Symbolic Z-matrix:
 Charge = -1 Multiplicity = 1 in supermolecule
 Charge = -1 Multiplicity = 1 in fragment      1.
 Charge =  0 Multiplicity = 1 in fragment      2.
 Br(Fragment=1)        20.       20.       20. 
 O(Fragment=2)         21.5      19.06     22.68 
 H(Fragment=2)         21.5      18.1      22.72 
 H(Fragment=2)         20.87     19.27     21.99 
 O(Fragment=2)         19.06     17.03     21.15 
 H(Fragment=2)         19.32     17.92     20.92 
 H(Fragment=2)         18.11     17.02     21.07 
 O(Fragment=2)         21.21     22.08     17.65 
 H(Fragment=2)         21.1      21.31     18.21 
 H(Fragment=2)         20.47     22.65     17.88 
 O(Fragment=2)         20.75     22.83     21.05 
 H(Fragment=2)         19.96     22.82     20.5 
 H(Fragment=2)         21.22     22.04     20.8 
 O(Fragment=2)         18.55     20.4      16.92 
 H(Fragment=2)         19.13     19.76     16.51 
 H(Fragment=2)         18.66     20.25     17.86 
 O(Fragment=2)         18.64     17.37     18.36 
 H(Fragment=2)         19.42     17.49     18.89 
 H(Fragment=2)         18.95     16.89     17.58 
 O(Fragment=2)         18.       19.87     23.16 
 H(Fragment=2)         18.47     20.08     22.36 
 H(Fragment=2)         17.47     19.11     22.94 
 O(Fragment=2)         21.42     16.99     18.79 
 H(Fragment=2)         21.76     17.64     19.41 
 H(Fragment=2)         22.12     16.33     18.73 
 O(Fragment=2)         16.69     22.       19.49 
 H(Fragment=2)         17.54     22.17     19.09 
 H(Fragment=2)         16.84     21.25     20.06 
 O(Fragment=2)         16.63     19.08     20.52 
 H(Fragment=2)         16.88     18.57     19.75 
 H(Fragment=2)         15.67     19.08     20.5 
 O(Fragment=2)         23.3      18.41     20.17 
 H(Fragment=2)         23.95     17.71     20.19 
 H(Fragment=2)         23.37     18.82     21.04 
 O(Fragment=2)         23.35     19.76     16.93 
 H(Fragment=2)         22.94     19.76     16.07 
 H(Fragment=2)         22.73     19.29     17.49 
 O(Fragment=2)         19.16     23.55     18.86 
 H(Fragment=2)         18.45     23.95     19.36 
 H(Fragment=2)         19.32     24.17     18.15 
 O(Fragment=2)         24.22     21.43     19.05 
 H(Fragment=2)         23.71     20.95     19.71 
 H(Fragment=2)         23.81     21.2      18.22 
 O(Fragment=2)         22.83     21.55     23.18 
 H(Fragment=2)         22.19     22.26     23.27 
 H(Fragment=2)         22.3      20.77     23.03 
 O(Fragment=2)         20.57     18.53     15.99 
 H(Fragment=2)         20.24     17.85     15.41 
 H(Fragment=2)         20.9      18.05     16.75 
 O(Fragment=2)         21.82     16.38     22.01 
 H(Fragment=2)         22.28     15.62     21.67 
 H(Fragment=2)         21.07     16.49     21.42 
 O(Fragment=2)         18.66     23.84     22.32 
 H(Fragment=2)         18.81     23.15     22.97 
 H(Fragment=2)         19.49     23.89     21.84 
 O(Fragment=2)         19.03     22.17     24.36 
 H(Fragment=2)         18.92     21.24     24.15 
 H(Fragment=2)         19.72     22.18     25.02 
 O(Fragment=2)         20.54     19.34     25.19 
 H(Fragment=2)         21.22     19.04     25.78 
 H(Fragment=2)         20.94     19.32     24.32 
 O(Fragment=2)         19.63     16.8      23.97 
 H(Fragment=2)         19.93     16.51     23.11 
 H(Fragment=2)         19.65     17.76     23.92 
 O(Fragment=2)         21.2      21.12     14.97 
 H(Fragment=2)         20.79     20.44     15.5 
 H(Fragment=2)         20.82     21.94     15.28 
 O(Fragment=2)         16.38     22.35     22.83 
 H(Fragment=2)         17.04     21.72     23.11 
 H(Fragment=2)         16.44     22.35     21.88 
 O(Fragment=2)         16.08     17.3      17.2 
 H(Fragment=2)         17.02     17.34     17.41 
 H(Fragment=2)         15.83     16.4      17.43 
 O(Fragment=2)         22.38     25.16     20.3 
 H(Fragment=2)         23.24     24.76     20.35 
 H(Fragment=2)         21.77     24.45     20.51 
 O(Fragment=2)         16.26     19.6      15.47 
 H(Fragment=2)         17.13     19.8      15.81 
 H(Fragment=2)         16.05     18.74     15.84 
 O(Fragment=2)         22.65     23.79     16.12 
 H(Fragment=2)         22.6      23.01     16.68 
 H(Fragment=2)         21.75     23.94     15.84 
 O(Fragment=2)         24.89     23.92     20.11 
 H(Fragment=2)         25.61     24.16     19.52 
 H(Fragment=2)         24.66     23.02     19.85 
 O(Fragment=2)         25.16     17.82     16.89 
 H(Fragment=2)         25.9      17.92     17.5 
 H(Fragment=2)         24.63     18.61     17.03 
 O(Fragment=2)         14.06     22.71     18.96 
 H(Fragment=2)         13.61     22.5      19.78 
 H(Fragment=2)         14.98     22.53     19.14 
 O(Fragment=2)         18.99     16.45     15.54 
 H(Fragment=2)         19.1      16.56     14.6 
 H(Fragment=2)         18.98     15.51     15.67 
 O(Fragment=2)         16.92     24.91     19.55 
 H(Fragment=2)         17.07     25.85     19.64 
 H(Fragment=2)         16.22     24.72     20.17 
 
 NAtoms=     97 NQM=       97 NQMF=       0 NMMI=      0 NMMIF=      0
                NMic=       0 NMicF=      0.
                    Isotopes and Nuclear Properties:
 (Nuclear quadrupole moments (NQMom) in fm**2, nuclear magnetic moments (NMagM)
  in nuclear magnetons)

  Atom         1           2           3           4           5           6           7           8           9          10
 IAtWgt=          79          16           1           1          16           1           1          16           1           1
 AtmWgt=  78.9183361  15.9949146   1.0078250   1.0078250  15.9949146   1.0078250   1.0078250  15.9949146   1.0078250   1.0078250
 NucSpn=           3           0           1           1           0           1           1           0           1           1
 AtZEff=   0.0000000   0.0000000   0.0000000   0.0000000   0.0000000   0.0000000   0.0000000   0.0000000   0.0000000   0.0000000
 NQMom=   31.3000000   0.0000000   0.0000000   0.0000000   0.0000000   0.0000000   0.0000000   0.0000000   0.0000000   0.0000000
 NMagM=    2.1063990   0.0000000   2.7928460   2.7928460   0.0000000   2.7928460   2.7928460   0.0000000   2.7928460   2.7928460
 AtZNuc=  35.0000000   8.0000000   1.0000000   1.0000000   8.0000000   1.0000000   1.0000000   8.0000000   1.0000000   1.0000000

  Atom        11          12          13          14          15          16          17          18          19          20
 IAtWgt=          16           1           1          16           1           1          16           1           1          16
 AtmWgt=  15.9949146   1.0078250   1.0078250  15.9949146   1.0078250   1.0078250  15.9949146   1.0078250   1.0078250  15.9949146
 NucSpn=           0           1           1           0           1           1           0           1           1           0
 AtZEff=   0.0000000   0.0000000   0.0000000   0.0000000   0.0000000   0.0000000   0.0000000   0.0000000   0.0000000   0.0000000
 NQMom=    0.0000000   0.0000000   0.0000000   0.0000000   0.0000000   0.0000000   0.0000000   0.0000000   0.0000000   0.0000000
 NMagM=    0.0000000   2.7928460   2.7928460   0.0000000   2.7928460   2.7928460   0.0000000   2.7928460   2.7928460   0.0000000
 AtZNuc=   8.0000000   1.0000000   1.0000000   8.0000000   1.0000000   1.0000000   8.0000000   1.0000000   1.0000000   8.0000000

  Atom        21          22          23          24          25          26          27          28          29          30
 IAtWgt=           1           1          16           1           1          16           1           1          16           1
 AtmWgt=   1.0078250   1.0078250  15.9949146   1.0078250   1.0078250  15.9949146   1.0078250   1.0078250  15.9949146   1.0078250
 NucSpn=           1           1           0           1           1           0           1           1           0           1
 AtZEff=   0.0000000   0.0000000   0.0000000   0.0000000   0.0000000   0.0000000   0.0000000   0.0000000   0.0000000   0.0000000
 NQMom=    0.0000000   0.0000000   0.0000000   0.0000000   0.0000000   0.0000000   0.0000000   0.0000000   0.0000000   0.0000000
 NMagM=    2.7928460   2.7928460   0.0000000   2.7928460   2.7928460   0.0000000   2.7928460   2.7928460   0.0000000   2.7928460
 AtZNuc=   1.0000000   1.0000000   8.0000000   1.0000000   1.0000000   8.0000000   1.0000000   1.0000000   8.0000000   1.0000000

  Atom        31          32          33          34          35          36          37          38          39          40
 IAtWgt=           1          16           1           1          16           1           1          16           1           1
 AtmWgt=   1.0078250  15.9949146   1.0078250   1.0078250  15.9949146   1.0078250   1.0078250  15.9949146   1.0078250   1.0078250
 NucSpn=           1           0           1           1           0           1           1           0           1           1
 AtZEff=   0.0000000   0.0000000   0.0000000   0.0000000   0.0000000   0.0000000   0.0000000   0.0000000   0.0000000   0.0000000
 NQMom=    0.0000000   0.0000000   0.0000000   0.0000000   0.0000000   0.0000000   0.0000000   0.0000000   0.0000000   0.0000000
 NMagM=    2.7928460   0.0000000   2.7928460   2.7928460   0.0000000   2.7928460   2.7928460   0.0000000   2.7928460   2.7928460
 AtZNuc=   1.0000000   8.0000000   1.0000000   1.0000000   8.0000000   1.0000000   1.0000000   8.0000000   1.0000000   1.0000000

  Atom        41          42          43          44          45          46          47          48          49          50
 IAtWgt=          16           1           1          16           1           1          16           1           1          16
 AtmWgt=  15.9949146   1.0078250   1.0078250  15.9949146   1.0078250   1.0078250  15.9949146   1.0078250   1.0078250  15.9949146
 NucSpn=           0           1           1           0           1           1           0           1           1           0
 AtZEff=   0.0000000   0.0000000   0.0000000   0.0000000   0.0000000   0.0000000   0.0000000   0.0000000   0.0000000   0.0000000
 NQMom=    0.0000000   0.0000000   0.0000000   0.0000000   0.0000000   0.0000000   0.0000000   0.0000000   0.0000000   0.0000000
 NMagM=    0.0000000   2.7928460   2.7928460   0.0000000   2.7928460   2.7928460   0.0000000   2.7928460   2.7928460   0.0000000
 AtZNuc=   8.0000000   1.0000000   1.0000000   8.0000000   1.0000000   1.0000000   8.0000000   1.0000000   1.0000000   8.0000000

  Atom        51          52          53          54          55          56          57          58          59          60
 IAtWgt=           1           1          16           1           1          16           1           1          16           1
 AtmWgt=   1.0078250   1.0078250  15.9949146   1.0078250   1.0078250  15.9949146   1.0078250   1.0078250  15.9949146   1.0078250
 NucSpn=           1           1           0           1           1           0           1           1           0           1
 AtZEff=   0.0000000   0.0000000   0.0000000   0.0000000   0.0000000   0.0000000   0.0000000   0.0000000   0.0000000   0.0000000
 NQMom=    0.0000000   0.0000000   0.0000000   0.0000000   0.0000000   0.0000000   0.0000000   0.0000000   0.0000000   0.0000000
 NMagM=    2.7928460   2.7928460   0.0000000   2.7928460   2.7928460   0.0000000   2.7928460   2.7928460   0.0000000   2.7928460
 AtZNuc=   1.0000000   1.0000000   8.0000000   1.0000000   1.0000000   8.0000000   1.0000000   1.0000000   8.0000000   1.0000000

  Atom        61          62          63          64          65          66          67          68          69          70
 IAtWgt=           1          16           1           1          16           1           1          16           1           1
 AtmWgt=   1.0078250  15.9949146   1.0078250   1.0078250  15.9949146   1.0078250   1.0078250  15.9949146   1.0078250   1.0078250
 NucSpn=           1           0           1           1           0           1           1           0           1           1
 AtZEff=   0.0000000   0.0000000   0.0000000   0.0000000   0.0000000   0.0000000   0.0000000   0.0000000   0.0000000   0.0000000
 NQMom=    0.0000000   0.0000000   0.0000000   0.0000000   0.0000000   0.0000000   0.0000000   0.0000000   0.0000000   0.0000000
 NMagM=    2.7928460   0.0000000   2.7928460   2.7928460   0.0000000   2.7928460   2.7928460   0.0000000   2.7928460   2.7928460
 AtZNuc=   1.0000000   8.0000000   1.0000000   1.0000000   8.0000000   1.0000000   1.0000000   8.0000000   1.0000000   1.0000000

  Atom        71          72          73          74          75          76          77          78          79          80
 IAtWgt=          16           1           1          16           1           1          16           1           1          16
 AtmWgt=  15.9949146   1.0078250   1.0078250  15.9949146   1.0078250   1.0078250  15.9949146   1.0078250   1.0078250  15.9949146
 NucSpn=           0           1           1           0           1           1           0           1           1           0
 AtZEff=   0.0000000   0.0000000   0.0000000   0.0000000   0.0000000   0.0000000   0.0000000   0.0000000   0.0000000   0.0000000
 NQMom=    0.0000000   0.0000000   0.0000000   0.0000000   0.0000000   0.0000000   0.0000000   0.0000000   0.0000000   0.0000000
 NMagM=    0.0000000   2.7928460   2.7928460   0.0000000   2.7928460   2.7928460   0.0000000   2.7928460   2.7928460   0.0000000
 AtZNuc=   8.0000000   1.0000000   1.0000000   8.0000000   1.0000000   1.0000000   8.0000000   1.0000000   1.0000000   8.0000000

  Atom        81          82          83          84          85          86          87          88          89          90
 IAtWgt=           1           1          16           1           1          16           1           1          16           1
 AtmWgt=   1.0078250   1.0078250  15.9949146   1.0078250   1.0078250  15.9949146   1.0078250   1.0078250  15.9949146   1.0078250
 NucSpn=           1           1           0           1           1           0           1           1           0           1
 AtZEff=   0.0000000   0.0000000   0.0000000   0.0000000   0.0000000   0.0000000   0.0000000   0.0000000   0.0000000   0.0000000
 NQMom=    0.0000000   0.0000000   0.0000000   0.0000000   0.0000000   0.0000000   0.0000000   0.0000000   0.0000000   0.0000000
 NMagM=    2.7928460   2.7928460   0.0000000   2.7928460   2.7928460   0.0000000   2.7928460   2.7928460   0.0000000   2.7928460
 AtZNuc=   1.0000000   1.0000000   8.0000000   1.0000000   1.0000000   8.0000000   1.0000000   1.0000000   8.0000000   1.0000000

  Atom        91          92          93          94          95          96          97
 IAtWgt=           1          16           1           1          16           1           1
 AtmWgt=   1.0078250  15.9949146   1.0078250   1.0078250  15.9949146   1.0078250   1.0078250
 NucSpn=           1           0           1           1           0           1           1
 AtZEff=   0.0000000   0.0000000   0.0000000   0.0000000   0.0000000   0.0000000   0.0000000
 NQMom=    0.0000000   0.0000000   0.0000000   0.0000000   0.0000000   0.0000000   0.0000000
 NMagM=    2.7928460   0.0000000   2.7928460   2.7928460   0.0000000   2.7928460   2.7928460
 AtZNuc=   1.0000000   8.0000000   1.0000000   1.0000000   8.0000000   1.0000000   1.0000000
 Leave Link  101 at Thu May  3 12:24:47 2018, MaxMem= 14763950080 cpu:        15.1
 (Enter /cm/shared/gaussian/g09.e01/intel64-sandybridge/g09/l103.exe)

 GradGradGradGradGradGradGradGradGradGradGradGradGradGradGradGradGradGrad
 Berny optimization.
 Initialization pass.
 Trust Radius=3.00D-01 FncErr=1.00D-07 GrdErr=1.00D-07
 Number of steps in this run=      2 maximum allowed number of steps=      2.
 GradGradGradGradGradGradGradGradGradGradGradGradGradGradGradGradGradGrad

 Leave Link  103 at Thu May  3 12:24:47 2018, MaxMem= 14763950080 cpu:         2.3
 (Enter /cm/shared/gaussian/g09.e01/intel64-sandybridge/g09/l202.exe)
 Symmetry turned off by external request.
 Stoichiometry    BrH64O32(1-)
 Framework group  C1[X(BrH64O32)]
 Deg. of freedom   285
 Full point group                 C1      NOp   1
                          Input orientation:                          
 ---------------------------------------------------------------------
 Center     Atomic      Atomic             Coordinates (Angstroms)
 Number     Number       Type             X           Y           Z
 ---------------------------------------------------------------------
      1         35           0       20.000000   20.000000   20.000000
      2          8           0       21.500000   19.060000   22.680000
      3          1           0       21.500000   18.100000   22.720000
      4          1           0       20.870000   19.270000   21.990000
      5          8           0       19.060000   17.030000   21.150000
      6          1           0       19.320000   17.920000   20.920000
      7          1           0       18.110000   17.020000   21.070000
      8          8           0       21.210000   22.080000   17.650000
      9          1           0       21.100000   21.310000   18.210000
     10          1           0       20.470000   22.650000   17.880000
     11          8           0       20.750000   22.830000   21.050000
     12          1           0       19.960000   22.820000   20.500000
     13          1           0       21.220000   22.040000   20.800000
     14          8           0       18.550000   20.400000   16.920000
     15          1           0       19.130000   19.760000   16.510000
     16          1           0       18.660000   20.250000   17.860000
     17          8           0       18.640000   17.370000   18.360000
     18          1           0       19.420000   17.490000   18.890000
     19          1           0       18.950000   16.890000   17.580000
     20          8           0       18.000000   19.870000   23.160000
     21          1           0       18.470000   20.080000   22.360000
     22          1           0       17.470000   19.110000   22.940000
     23          8           0       21.420000   16.990000   18.790000
     24          1           0       21.760000   17.640000   19.410000
     25          1           0       22.120000   16.330000   18.730000
     26          8           0       16.690000   22.000000   19.490000
     27          1           0       17.540000   22.170000   19.090000
     28          1           0       16.840000   21.250000   20.060000
     29          8           0       16.630000   19.080000   20.520000
     30          1           0       16.880000   18.570000   19.750000
     31          1           0       15.670000   19.080000   20.500000
     32          8           0       23.300000   18.410000   20.170000
     33          1           0       23.950000   17.710000   20.190000
     34          1           0       23.370000   18.820000   21.040000
     35          8           0       23.350000   19.760000   16.930000
     36          1           0       22.940000   19.760000   16.070000
     37          1           0       22.730000   19.290000   17.490000
     38          8           0       19.160000   23.550000   18.860000
     39          1           0       18.450000   23.950000   19.360000
     40          1           0       19.320000   24.170000   18.150000
     41          8           0       24.220000   21.430000   19.050000
     42          1           0       23.710000   20.950000   19.710000
     43          1           0       23.810000   21.200000   18.220000
     44          8           0       22.830000   21.550000   23.180000
     45          1           0       22.190000   22.260000   23.270000
     46          1           0       22.300000   20.770000   23.030000
     47          8           0       20.570000   18.530000   15.990000
     48          1           0       20.240000   17.850000   15.410000
     49          1           0       20.900000   18.050000   16.750000
     50          8           0       21.820000   16.380000   22.010000
     51          1           0       22.280000   15.620000   21.670000
     52          1           0       21.070000   16.490000   21.420000
     53          8           0       18.660000   23.840000   22.320000
     54          1           0       18.810000   23.150000   22.970000
     55          1           0       19.490000   23.890000   21.840000
     56          8           0       19.030000   22.170000   24.360000
     57          1           0       18.920000   21.240000   24.150000
     58          1           0       19.720000   22.180000   25.020000
     59          8           0       20.540000   19.340000   25.190000
     60          1           0       21.220000   19.040000   25.780000
     61          1           0       20.940000   19.320000   24.320000
     62          8           0       19.630000   16.800000   23.970000
     63          1           0       19.930000   16.510000   23.110000
     64          1           0       19.650000   17.760000   23.920000
     65          8           0       21.200000   21.120000   14.970000
     66          1           0       20.790000   20.440000   15.500000
     67          1           0       20.820000   21.940000   15.280000
     68          8           0       16.380000   22.350000   22.830000
     69          1           0       17.040000   21.720000   23.110000
     70          1           0       16.440000   22.350000   21.880000
     71          8           0       16.080000   17.300000   17.200000
     72          1           0       17.020000   17.340000   17.410000
     73          1           0       15.830000   16.400000   17.430000
     74          8           0       22.380000   25.160000   20.300000
     75          1           0       23.240000   24.760000   20.350000
     76          1           0       21.770000   24.450000   20.510000
     77          8           0       16.260000   19.600000   15.470000
     78          1           0       17.130000   19.800000   15.810000
     79          1           0       16.050000   18.740000   15.840000
     80          8           0       22.650000   23.790000   16.120000
     81          1           0       22.600000   23.010000   16.680000
     82          1           0       21.750000   23.940000   15.840000
     83          8           0       24.890000   23.920000   20.110000
     84          1           0       25.610000   24.160000   19.520000
     85          1           0       24.660000   23.020000   19.850000
     86          8           0       25.160000   17.820000   16.890000
     87          1           0       25.900000   17.920000   17.500000
     88          1           0       24.630000   18.610000   17.030000
     89          8           0       14.060000   22.710000   18.960000
     90          1           0       13.610000   22.500000   19.780000
     91          1           0       14.980000   22.530000   19.140000
     92          8           0       18.990000   16.450000   15.540000
     93          1           0       19.100000   16.560000   14.600000
     94          1           0       18.980000   15.510000   15.670000
     95          8           0       16.920000   24.910000   19.550000
     96          1           0       17.070000   25.850000   19.640000
     97          1           0       16.220000   24.720000   20.170000
 ---------------------------------------------------------------------
 Rotational constants (GHZ):      0.0618813      0.0585141      0.0556691
 Leave Link  202 at Thu May  3 12:24:47 2018, MaxMem= 14763950080 cpu:         0.6
 (Enter /cm/shared/gaussian/g09.e01/intel64-sandybridge/g09/l122.exe)
 Counterpoise: doing full dimer calculation.
 Leave Link  122 at Thu May  3 12:24:47 2018, MaxMem= 14763950080 cpu:         0.0
 (Enter /cm/shared/gaussian/g09.e01/intel64-sandybridge/g09/l301.exe)
 Standard basis: CC-pVDZ (5D, 7F)
 Ernie: Thresh=  0.10000D-02 Tol=  0.10000D-05 Strict=F.
 Ernie:  87 primitive shells out of 1114 were deleted.
   795 basis functions,  1651 primitive gaussians,   829 cartesian basis functions
   178 alpha electrons      178 beta electrons
       nuclear repulsion energy      6343.3744239408 Hartrees.
 IExCor= 1009 DFT=T Ex+Corr=PBE1PBE ExCW=0 ScaHFX=  0.250000
 ScaDFX=  0.750000  0.750000  1.000000  1.000000 ScalE2=  1.000000  1.000000
 IRadAn=      0 IRanWt=     -1 IRanGd=            0 ICorTp=0 IEmpDi=  4
 NAtoms=   97 NActive=   97 NUniq=   97 SFac= 1.00D+00 NAtFMM=   60 NAOKFM=T Big=T
 Integral buffers will be    131072 words long.
 Raffenetti 2 integral format.
 Two-electron integral symmetry is turned off.
 Leave Link  301 at Thu May  3 12:24:47 2018, MaxMem= 14763950080 cpu:         6.4
 (Enter /cm/shared/gaussian/g09.e01/intel64-sandybridge/g09/l302.exe)
 NPDir=0 NMtPBC=     1 NCelOv=     1 NCel=       1 NClECP=     1 NCelD=      1
         NCelK=      1 NCelE2=     1 NClLst=     1 CellRange=     0.0.
 One-electron integrals computed using PRISM.
 NBasis=   795 RedAO= T EigKep=  1.58D-02  NBF=   795
 NBsUse=   795 1.00D-06 EigRej= -1.00D+00 NBFU=   795
 Precomputing XC quadrature grid using
 IXCGrd= 4 IRadAn=           0 IRanWt=          -1 IRanGd=           0 AccXCQ= 0.00D+00.
 Generated NRdTot=       0 NPtTot=           0 NUsed=           0 NTot=          32
 NSgBfM=   741   744   745   746   749 MxSgAt=    97 MxSgA2=    97.
 Leave Link  302 at Thu May  3 12:24:54 2018, MaxMem= 14763950080 cpu:       412.0
 (Enter /cm/shared/gaussian/g09.e01/intel64-sandybridge/g09/l303.exe)
 DipDrv:  MaxL=1.
 Leave Link  303 at Thu May  3 12:24:54 2018, MaxMem= 14763950080 cpu:        31.4
 (Enter /cm/shared/gaussian/g09.e01/intel64-sandybridge/g09/l401.exe)
 ExpMin= 1.22D-01 ExpMax= 6.40D+05 ExpMxC= 6.18D+03 IAcc=2 IRadAn=         4 AccDes= 0.00D+00
 Harris functional with IExCor= 1009 and IRadAn=       4 diagonalized for initial guess.
 HarFok:  IExCor= 1009 AccDes= 0.00D+00 IRadAn=         4 IDoV= 1 UseB2=F ITyADJ=14
 ICtDFT=  3500011 ScaDFX=  1.000000  1.000000  1.000000  1.000000
 FoFCou: FMM=F IPFlag=           0 FMFlag=      100000 FMFlg1=        2001
         NFxFlg=           0 DoJE=T BraDBF=F KetDBF=T FulRan=T
         wScrn=  0.000000 ICntrl=     500 IOpCl=  0 I1Cent=   200000004 NGrid=           0
         NMat0=    1 NMatS0=      1 NMatT0=    0 NMatD0=    1 NMtDS0=    0 NMtDT0=    0
 Symmetry not used in FoFCou.
 Harris En= -5018.40832344038    
 JPrj=0 DoOrth=F DoCkMO=F.
 Leave Link  401 at Thu May  3 12:25:00 2018, MaxMem= 14763950080 cpu:       361.0
 (Enter /cm/shared/gaussian/g09.e01/intel64-sandybridge/g09/l502.exe)
 Closed shell SCF:
 Using DIIS extrapolation, IDIIS=  1040.
 Two-electron integral symmetry not used.
 IVT=     2138497 IEndB=     2138497 NGot= 14763950080 MDV= 14762516294
 LenX= 14762516294 LenY= 14761828224
 Requested convergence on RMS density matrix=1.00D-08 within 128 cycles.
 Requested convergence on MAX density matrix=1.00D-06.
 Requested convergence on             energy=1.00D-06.
 No special actions if energy rises.
 Fock matrices will be formed incrementally for  20 cycles.
 Integral accuracy reduced to 1.0D-05 until final iterations.

 Cycle   1  Pass 0  IDiag  1:
 FoFJK:  IHMeth= 1 ICntrl=       0 DoSepK=F KAlg= 0 I1Cent=   0 FoldK=F
 IRaf= 880000000 NMat=   1 IRICut=       1 DoRegI=T DoRafI=F ISym2E= 0.
 FoFCou: FMM=T IPFlag=           0 FMFlag=      100000 FMFlg1=        2001
         NFxFlg=           0 DoJE=F BraDBF=F KetDBF=F FulRan=T
         wScrn=  0.000000 ICntrl=       0 IOpCl=  0 I1Cent=           0 NGrid=           0
         NMat0=    1 NMatS0=      1 NMatT0=    0 NMatD0=    1 NMtDS0=    0 NMtDT0=    0
 Symmetry not used in FoFCou.
 FMM levels:  10  Number of levels for PrismC:   9
 E= -5015.34182796331    
 DIIS: error= 3.48D-02 at cycle   1 NSaved=   1.
 NSaved= 1 IEnMin= 1 EnMin= -5015.34182796331     IErMin= 1 ErrMin= 3.48D-02
 ErrMax= 3.48D-02  0.00D+00 EMaxC= 1.00D-01 BMatC= 2.67D+00 BMatP= 2.67D+00
 IDIUse=3 WtCom= 6.52D-01 WtEn= 3.48D-01
 Coeff-Com:  0.100D+01
 Coeff-En:   0.100D+01
 Coeff:      0.100D+01
 Gap=     0.301 Goal=   None    Shift=    0.000
 GapD=    0.301 DampG=1.000 DampE=0.500 DampFc=0.5000 IDamp=-1.
 Damping current iteration by 5.00D-01
 RMSDP=2.83D-03 MaxDP=1.60D-01              OVMax= 1.72D-01

 Cycle   2  Pass 0  IDiag  1:
 RMSU=  1.40D-03    CP:  9.86D-01
 E= -5016.12399087181     Delta-E=       -0.782162908505 Rises=F Damp=T
 DIIS: error= 6.84D-03 at cycle   2 NSaved=   2.
 NSaved= 2 IEnMin= 2 EnMin= -5016.12399087181     IErMin= 2 ErrMin= 6.84D-03
 ErrMax= 6.84D-03  0.00D+00 EMaxC= 1.00D-01 BMatC= 8.29D-02 BMatP= 2.67D+00
 IDIUse=3 WtCom= 9.32D-01 WtEn= 6.84D-02
 Coeff-Com:  0.116D+00 0.884D+00
 Coeff-En:   0.209D+00 0.791D+00
 Coeff:      0.123D+00 0.877D+00
 Gap=     0.171 Goal=   None    Shift=    0.000
 RMSDP=3.59D-04 MaxDP=1.92D-02 DE=-7.82D-01 OVMax= 1.05D-01

 Cycle   3  Pass 0  IDiag  1:
 RMSU=  2.88D-04    CP:  9.88D-01  8.49D-01
 E= -5017.24475953779     Delta-E=       -1.120768665980 Rises=F Damp=F
 DIIS: error= 9.15D-04 at cycle   3 NSaved=   3.
 NSaved= 3 IEnMin= 3 EnMin= -5017.24475953779     IErMin= 3 ErrMin= 9.15D-04
 ErrMax= 9.15D-04  0.00D+00 EMaxC= 1.00D-01 BMatC= 1.84D-03 BMatP= 8.29D-02
 IDIUse=3 WtCom= 9.91D-01 WtEn= 9.15D-03
 Coeff-Com:  0.789D-02 0.726D-01 0.919D+00
 Coeff-En:   0.000D+00 0.000D+00 0.100D+01
 Coeff:      0.782D-02 0.720D-01 0.920D+00
 Gap=     0.194 Goal=   None    Shift=    0.000
 RMSDP=1.02D-04 MaxDP=1.52D-02 DE=-1.12D+00 OVMax= 1.80D-02

 Cycle   4  Pass 0  IDiag  1:
 RMSU=  8.79D-05    CP:  9.88D-01  8.53D-01  8.22D-01
 E= -5017.24539519778     Delta-E=       -0.000635659982 Rises=F Damp=F
 DIIS: error= 1.00D-03 at cycle   4 NSaved=   4.
 NSaved= 4 IEnMin= 4 EnMin= -5017.24539519778     IErMin= 3 ErrMin= 9.15D-04
 ErrMax= 1.00D-03  0.00D+00 EMaxC= 1.00D-01 BMatC= 1.61D-03 BMatP= 1.84D-03
 IDIUse=3 WtCom= 9.90D-01 WtEn= 1.00D-02
 Coeff-Com:  0.135D-02 0.927D-02 0.481D+00 0.508D+00
 Coeff-En:   0.000D+00 0.000D+00 0.398D+00 0.602D+00
 Coeff:      0.133D-02 0.918D-02 0.480D+00 0.509D+00
 Gap=     0.188 Goal=   None    Shift=    0.000
 RMSDP=4.28D-05 MaxDP=6.13D-03 DE=-6.36D-04 OVMax= 5.77D-03

 Cycle   5  Pass 0  IDiag  1:
 RMSU=  1.70D-05    CP:  9.88D-01  8.50D-01  8.88D-01  6.11D-01
 E= -5017.24671354611     Delta-E=       -0.001318348330 Rises=F Damp=F
 DIIS: error= 9.86D-05 at cycle   5 NSaved=   5.
 NSaved= 5 IEnMin= 5 EnMin= -5017.24671354611     IErMin= 5 ErrMin= 9.86D-05
 ErrMax= 9.86D-05  0.00D+00 EMaxC= 1.00D-01 BMatC= 4.07D-05 BMatP= 1.61D-03
 IDIUse=1 WtCom= 1.00D+00 WtEn= 0.00D+00
 Coeff-Com:  0.457D-03-0.797D-03 0.149D+00 0.195D+00 0.656D+00
 Coeff:      0.457D-03-0.797D-03 0.149D+00 0.195D+00 0.656D+00
 Gap=     0.189 Goal=   None    Shift=    0.000
 RMSDP=8.32D-06 MaxDP=1.06D-03 DE=-1.32D-03 OVMax= 1.08D-03

 Cycle   6  Pass 0  IDiag  1:
 RMSU=  5.73D-06    CP:  9.88D-01  8.50D-01  8.99D-01  5.93D-01  7.11D-01
 E= -5017.24674256061     Delta-E=       -0.000029014509 Rises=F Damp=F
 DIIS: error= 9.50D-05 at cycle   6 NSaved=   6.
 NSaved= 6 IEnMin= 6 EnMin= -5017.24674256061     IErMin= 6 ErrMin= 9.50D-05
 ErrMax= 9.50D-05  0.00D+00 EMaxC= 1.00D-01 BMatC= 4.87D-06 BMatP= 4.07D-05
 IDIUse=1 WtCom= 1.00D+00 WtEn= 0.00D+00
 Coeff-Com:  0.638D-04-0.189D-02 0.336D-01 0.459D-01 0.288D+00 0.634D+00
 Coeff:      0.638D-04-0.189D-02 0.336D-01 0.459D-01 0.288D+00 0.634D+00
 Gap=     0.189 Goal=   None    Shift=    0.000
 RMSDP=2.50D-06 MaxDP=4.46D-04 DE=-2.90D-05 OVMax= 3.51D-04

 Initial convergence to 1.0D-05 achieved.  Increase integral accuracy.
 Cycle   7  Pass 1  IDiag  1:
 E= -5017.24700912798     Delta-E=       -0.000266567367 Rises=F Damp=F
 DIIS: error= 3.74D-05 at cycle   1 NSaved=   1.
 NSaved= 1 IEnMin= 1 EnMin= -5017.24700912798     IErMin= 1 ErrMin= 3.74D-05
 ErrMax= 3.74D-05  0.00D+00 EMaxC= 1.00D-01 BMatC= 2.30D-06 BMatP= 2.30D-06
 IDIUse=1 WtCom= 1.00D+00 WtEn= 0.00D+00
 Coeff-Com:  0.100D+01
 Coeff:      0.100D+01
 Gap=     0.189 Goal=   None    Shift=    0.000
 RMSDP=2.50D-06 MaxDP=4.46D-04 DE=-2.67D-04 OVMax= 3.45D-04

 Cycle   8  Pass 1  IDiag  1:
 RMSU=  6.09D-06    CP:  1.00D+00
 E= -5017.24701169527     Delta-E=       -0.000002567287 Rises=F Damp=F
 DIIS: error= 1.33D-05 at cycle   2 NSaved=   2.
 NSaved= 2 IEnMin= 2 EnMin= -5017.24701169527     IErMin= 2 ErrMin= 1.33D-05
 ErrMax= 1.33D-05  0.00D+00 EMaxC= 1.00D-01 BMatC= 2.74D-07 BMatP= 2.30D-06
 IDIUse=1 WtCom= 1.00D+00 WtEn= 0.00D+00
 Coeff-Com:  0.149D+00 0.851D+00
 Coeff:      0.149D+00 0.851D+00
 Gap=     0.189 Goal=   None    Shift=    0.000
 RMSDP=8.62D-07 MaxDP=9.09D-05 DE=-2.57D-06 OVMax= 8.56D-05

 Cycle   9  Pass 1  IDiag  1:
 RMSU=  8.61D-07    CP:  1.00D+00  9.97D-01
 E= -5017.24701172962     Delta-E=       -0.000000034350 Rises=F Damp=F
 DIIS: error= 1.23D-05 at cycle   3 NSaved=   3.
 NSaved= 3 IEnMin= 3 EnMin= -5017.24701172962     IErMin= 3 ErrMin= 1.23D-05
 ErrMax= 1.23D-05  0.00D+00 EMaxC= 1.00D-01 BMatC= 2.49D-07 BMatP= 2.74D-07
 IDIUse=1 WtCom= 1.00D+00 WtEn= 0.00D+00
 Coeff-Com: -0.101D-01 0.489D+00 0.521D+00
 Coeff:     -0.101D-01 0.489D+00 0.521D+00
 Gap=     0.189 Goal=   None    Shift=    0.000
 RMSDP=4.07D-07 MaxDP=5.04D-05 DE=-3.43D-08 OVMax= 4.48D-05

 Cycle  10  Pass 1  IDiag  1:
 RMSU=  1.44D-07    CP:  1.00D+00  1.01D+00  5.75D-01
 E= -5017.24701190979     Delta-E=       -0.000000180173 Rises=F Damp=F
 DIIS: error= 2.34D-06 at cycle   4 NSaved=   4.
 NSaved= 4 IEnMin= 4 EnMin= -5017.24701190979     IErMin= 4 ErrMin= 2.34D-06
 ErrMax= 2.34D-06  0.00D+00 EMaxC= 1.00D-01 BMatC= 2.02D-09 BMatP= 2.49D-07
 IDIUse=1 WtCom= 1.00D+00 WtEn= 0.00D+00
 Coeff-Com: -0.596D-02 0.205D+00 0.229D+00 0.572D+00
 Coeff:     -0.596D-02 0.205D+00 0.229D+00 0.572D+00
 Gap=     0.189 Goal=   None    Shift=    0.000
 RMSDP=5.69D-08 MaxDP=4.44D-06 DE=-1.80D-07 OVMax= 8.82D-06

 Cycle  11  Pass 1  IDiag  1:
 RMSU=  4.56D-08    CP:  1.00D+00  1.02D+00  5.70D-01  7.87D-01
 E= -5017.24701191157     Delta-E=       -0.000000001777 Rises=F Damp=F
 DIIS: error= 2.26D-07 at cycle   5 NSaved=   5.
 NSaved= 5 IEnMin= 5 EnMin= -5017.24701191157     IErMin= 5 ErrMin= 2.26D-07
 ErrMax= 2.26D-07  0.00D+00 EMaxC= 1.00D-01 BMatC= 1.05D-10 BMatP= 2.02D-09
 IDIUse=1 WtCom= 1.00D+00 WtEn= 0.00D+00
 Coeff-Com: -0.111D-02 0.238D-01 0.291D-01 0.194D+00 0.755D+00
 Coeff:     -0.111D-02 0.238D-01 0.291D-01 0.194D+00 0.755D+00
 Gap=     0.189 Goal=   None    Shift=    0.000
 RMSDP=1.30D-08 MaxDP=1.36D-06 DE=-1.78D-09 OVMax= 1.40D-06

 Cycle  12  Pass 1  IDiag  1:
 RMSU=  1.10D-08    CP:  1.00D+00  1.02D+00  5.70D-01  8.30D-01  1.00D+00
 E= -5017.24701191170     Delta-E=       -0.000000000127 Rises=F Damp=F
 DIIS: error= 1.64D-07 at cycle   6 NSaved=   6.
 NSaved= 6 IEnMin= 6 EnMin= -5017.24701191170     IErMin= 6 ErrMin= 1.64D-07
 ErrMax= 1.64D-07  0.00D+00 EMaxC= 1.00D-01 BMatC= 2.37D-11 BMatP= 1.05D-10
 IDIUse=1 WtCom= 1.00D+00 WtEn= 0.00D+00
 Coeff-Com:  0.788D-04-0.106D-01-0.105D-01 0.350D-01 0.381D+00 0.605D+00
 Coeff:      0.788D-04-0.106D-01-0.105D-01 0.350D-01 0.381D+00 0.605D+00
 Gap=     0.189 Goal=   None    Shift=    0.000
 RMSDP=5.13D-09 MaxDP=4.33D-07 DE=-1.27D-10 OVMax= 7.02D-07

 SCF Done:  E(RPBE1PBE) =  -5017.24701191     A.U. after   12 cycles
            NFock= 12  Conv=0.51D-08     -V/T= 2.0028
 KE= 5.003337733766D+03 PE=-2.465455829567D+04 EE= 8.290599126054D+03
 Leave Link  502 at Thu May  3 12:27:50 2018, MaxMem= 14763950080 cpu:     10755.1
 (Enter /cm/shared/gaussian/g09.e01/intel64-sandybridge/g09/l601.exe)
 Copying SCF densities to generalized density rwf, IOpCl= 0 IROHF=0.

 **********************************************************************

            Population analysis using the SCF density.

 **********************************************************************

 Alpha  occ. eigenvalues -- -483.15001 -62.55269 -56.32528 -56.32496 -56.32491
 Alpha  occ. eigenvalues --  -19.21500 -19.18396 -19.18048 -19.17657 -19.16881
 Alpha  occ. eigenvalues --  -19.16585 -19.16161 -19.15879 -19.15409 -19.14479
 Alpha  occ. eigenvalues --  -19.14382 -19.14048 -19.13806 -19.13398 -19.12182
 Alpha  occ. eigenvalues --  -19.11946 -19.11209 -19.10777 -19.10697 -19.10408
 Alpha  occ. eigenvalues --  -19.10322 -19.10286 -19.09378 -19.09371 -19.09103
 Alpha  occ. eigenvalues --  -19.08863 -19.07546 -19.07409 -19.06622 -19.05000
 Alpha  occ. eigenvalues --  -19.03721 -19.02081  -8.65548  -6.45958  -6.45818
 Alpha  occ. eigenvalues --   -6.45792  -2.54217  -2.54188  -2.54163  -2.54049
 Alpha  occ. eigenvalues --   -2.54048  -1.04577  -1.01174  -1.00681  -0.99725
 Alpha  occ. eigenvalues --   -0.99443  -0.99149  -0.98687  -0.98456  -0.98037
 Alpha  occ. eigenvalues --   -0.97170  -0.97100  -0.97044  -0.95956  -0.95763
 Alpha  occ. eigenvalues --   -0.94648  -0.94476  -0.93959  -0.93681  -0.93237
 Alpha  occ. eigenvalues --   -0.93215  -0.93202  -0.92886  -0.91922  -0.91844
 Alpha  occ. eigenvalues --   -0.91602  -0.91255  -0.90313  -0.89912  -0.89565
 Alpha  occ. eigenvalues --   -0.87867  -0.86464  -0.85166  -0.64897  -0.55429
 Alpha  occ. eigenvalues --   -0.52207  -0.50836  -0.50562  -0.49836  -0.49344
 Alpha  occ. eigenvalues --   -0.49177  -0.48856  -0.48580  -0.48273  -0.48085
 Alpha  occ. eigenvalues --   -0.48012  -0.46610  -0.45968  -0.45545  -0.45350
 Alpha  occ. eigenvalues --   -0.45075  -0.44908  -0.44773  -0.44484  -0.44282
 Alpha  occ. eigenvalues --   -0.43219  -0.43051  -0.42599  -0.42434  -0.42176
 Alpha  occ. eigenvalues --   -0.41662  -0.41038  -0.40846  -0.40192  -0.39382
 Alpha  occ. eigenvalues --   -0.39035  -0.38437  -0.38109  -0.37033  -0.36446
 Alpha  occ. eigenvalues --   -0.35939  -0.35850  -0.35728  -0.35632  -0.35123
 Alpha  occ. eigenvalues --   -0.34374  -0.34009  -0.32933  -0.32495  -0.32148
 Alpha  occ. eigenvalues --   -0.31945  -0.31755  -0.31557  -0.31011  -0.30768
 Alpha  occ. eigenvalues --   -0.30202  -0.30153  -0.29796  -0.29605  -0.29062
 Alpha  occ. eigenvalues --   -0.28825  -0.28571  -0.27975  -0.27863  -0.27628
 Alpha  occ. eigenvalues --   -0.27328  -0.27062  -0.27043  -0.26853  -0.26446
 Alpha  occ. eigenvalues --   -0.26298  -0.26196  -0.25689  -0.25385  -0.25111
 Alpha  occ. eigenvalues --   -0.25034  -0.24721  -0.24433  -0.24207  -0.24054
 Alpha  occ. eigenvalues --   -0.23942  -0.23208  -0.22657  -0.22332  -0.22208
 Alpha  occ. eigenvalues --   -0.22033  -0.22025  -0.21181  -0.20798  -0.20422
 Alpha  occ. eigenvalues --   -0.20262  -0.20036  -0.19895  -0.19435  -0.19339
 Alpha  occ. eigenvalues --   -0.19230  -0.18680  -0.18437  -0.18197  -0.17588
 Alpha  occ. eigenvalues --   -0.16386  -0.14993  -0.13716
 Alpha virt. eigenvalues --    0.05160   0.06783   0.09325   0.10743   0.12127
 Alpha virt. eigenvalues --    0.12337   0.12914   0.13687   0.14295   0.15104
 Alpha virt. eigenvalues --    0.15353   0.15946   0.16171   0.16815   0.17607
 Alpha virt. eigenvalues --    0.17793   0.18264   0.18789   0.19056   0.19570
 Alpha virt. eigenvalues --    0.20324   0.20583   0.21011   0.21263   0.22176
 Alpha virt. eigenvalues --    0.22360   0.22802   0.23789   0.23868   0.24534
 Alpha virt. eigenvalues --    0.25045   0.25322   0.25521   0.26166   0.26355
 Alpha virt. eigenvalues --    0.26992   0.27902   0.28298   0.28881   0.29319
 Alpha virt. eigenvalues --    0.29580   0.30466   0.30991   0.31266   0.31401
 Alpha virt. eigenvalues --    0.31857   0.32205   0.32720   0.33150   0.33489
 Alpha virt. eigenvalues --    0.34195   0.34351   0.35282   0.35668   0.36016
 Alpha virt. eigenvalues --    0.36178   0.36743   0.37590   0.38538   0.39264
 Alpha virt. eigenvalues --    0.39552   0.40183   0.41084   0.44652   0.56479
 Alpha virt. eigenvalues --    0.58235   0.58975   0.60232   0.60514   0.61170
 Alpha virt. eigenvalues --    0.61507   0.61650   0.62256   0.62664   0.62898
 Alpha virt. eigenvalues --    0.63296   0.63688   0.64233   0.64965   0.65305
 Alpha virt. eigenvalues --    0.65499   0.65969   0.66517   0.66661   0.66857
 Alpha virt. eigenvalues --    0.67113   0.67641   0.67880   0.68248   0.68394
 Alpha virt. eigenvalues --    0.68722   0.69151   0.69248   0.69600   0.69831
 Alpha virt. eigenvalues --    0.69996   0.70261   0.70604   0.70933   0.71435
 Alpha virt. eigenvalues --    0.71641   0.71797   0.72408   0.72643   0.73140
 Alpha virt. eigenvalues --    0.73330   0.73555   0.73727   0.74492   0.75233
 Alpha virt. eigenvalues --    0.75677   0.75963   0.76055   0.76306   0.76465
 Alpha virt. eigenvalues --    0.76834   0.77462   0.77722   0.78322   0.78524
 Alpha virt. eigenvalues --    0.79242   0.79494   0.80034   0.80634   0.81084
 Alpha virt. eigenvalues --    0.81814   0.82272   0.82591   0.83321   0.83683
 Alpha virt. eigenvalues --    0.84286   0.85145   0.86788   0.87265   0.88051
 Alpha virt. eigenvalues --    0.90594   0.91129   0.91980   0.93602   0.94840
 Alpha virt. eigenvalues --    0.95440   0.95808   0.96349   0.97100   0.97212
 Alpha virt. eigenvalues --    0.98473   0.98674   0.99383   0.99627   1.00320
 Alpha virt. eigenvalues --    1.00506   1.00680   1.01218   1.01466   1.01860
 Alpha virt. eigenvalues --    1.02310   1.02439   1.03068   1.03139   1.03453
 Alpha virt. eigenvalues --    1.03606   1.04002   1.04430   1.04754   1.04898
 Alpha virt. eigenvalues --    1.05119   1.05473   1.05655   1.05980   1.06353
 Alpha virt. eigenvalues --    1.06619   1.06932   1.07271   1.07517   1.08253
 Alpha virt. eigenvalues --    1.08453   1.08551   1.08931   1.09017   1.09551
 Alpha virt. eigenvalues --    1.09891   1.10151   1.10556   1.10844   1.11064
 Alpha virt. eigenvalues --    1.11648   1.11815   1.12210   1.12493   1.12542
 Alpha virt. eigenvalues --    1.12967   1.13345   1.13573   1.13659   1.14027
 Alpha virt. eigenvalues --    1.14249   1.14697   1.14739   1.15627   1.15731
 Alpha virt. eigenvalues --    1.16103   1.16461   1.16931   1.17394   1.17975
 Alpha virt. eigenvalues --    1.18184   1.18487   1.18586   1.18835   1.19380
 Alpha virt. eigenvalues --    1.19629   1.19892   1.20731   1.21272   1.21766
 Alpha virt. eigenvalues --    1.21924   1.22289   1.22907   1.23348   1.23709
 Alpha virt. eigenvalues --    1.24460   1.24574   1.24654   1.25028   1.25441
 Alpha virt. eigenvalues --    1.25564   1.26272   1.26737   1.27214   1.27230
 Alpha virt. eigenvalues --    1.27474   1.28026   1.28458   1.28727   1.29022
 Alpha virt. eigenvalues --    1.29458   1.29908   1.30169   1.30547   1.30981
 Alpha virt. eigenvalues --    1.31299   1.31499   1.32120   1.32336   1.32689
 Alpha virt. eigenvalues --    1.32988   1.33479   1.33548   1.33776   1.33962
 Alpha virt. eigenvalues --    1.34304   1.34906   1.35034   1.35275   1.35432
 Alpha virt. eigenvalues --    1.35801   1.36031   1.36098   1.36455   1.36645
 Alpha virt. eigenvalues --    1.36843   1.37637   1.38013   1.38071   1.38331
 Alpha virt. eigenvalues --    1.39039   1.39161   1.40028   1.40278   1.40330
 Alpha virt. eigenvalues --    1.40694   1.40966   1.41723   1.41893   1.42476
 Alpha virt. eigenvalues --    1.42670   1.43125   1.43150   1.43528   1.44119
 Alpha virt. eigenvalues --    1.44579   1.44727   1.45768   1.46058   1.46667
 Alpha virt. eigenvalues --    1.46928   1.47733   1.48044   1.48909   1.49210
 Alpha virt. eigenvalues --    1.49615   1.49970   1.50217   1.50578   1.51285
 Alpha virt. eigenvalues --    1.51806   1.52332   1.52884   1.52953   1.53371
 Alpha virt. eigenvalues --    1.53659   1.53847   1.54570   1.55004   1.55066
 Alpha virt. eigenvalues --    1.55639   1.55914   1.56991   1.57457   1.57876
 Alpha virt. eigenvalues --    1.57922   1.58258   1.58718   1.59222   1.59521
 Alpha virt. eigenvalues --    1.59887   1.60734   1.61129   1.62367   1.62714
 Alpha virt. eigenvalues --    1.63156   1.64017   1.64324   1.64907   1.65621
 Alpha virt. eigenvalues --    1.65913   1.66360   1.67005   1.67770   1.68069
 Alpha virt. eigenvalues --    1.68594   1.69352   1.69611   1.70768   1.71324
 Alpha virt. eigenvalues --    1.72376   1.73199   1.73446   1.73922   1.74865
 Alpha virt. eigenvalues --    1.75651   1.75805   1.76584   1.76746   1.77579
 Alpha virt. eigenvalues --    1.78219   1.78698   1.79306   1.79794   1.80239
 Alpha virt. eigenvalues --    1.80448   1.81037   1.81861   1.82574   1.82895
 Alpha virt. eigenvalues --    1.83025   1.84110   1.84521   1.84899   1.85180
 Alpha virt. eigenvalues --    1.85977   1.86381   1.86681   1.86966   1.87304
 Alpha virt. eigenvalues --    1.87768   1.88633   1.89154   1.89355   1.90145
 Alpha virt. eigenvalues --    1.90417   1.91787   1.92235   1.92397   1.92972
 Alpha virt. eigenvalues --    1.93300   1.93579   1.94172   1.94510   1.96204
 Alpha virt. eigenvalues --    1.96516   1.97363   1.97915   1.99078   1.99655
 Alpha virt. eigenvalues --    2.00941   2.02975   2.03640   2.03836   2.05145
 Alpha virt. eigenvalues --    2.06689   2.08116   2.12706   2.14693   2.16630
 Alpha virt. eigenvalues --    2.18520   2.19402   2.20047   2.20192   2.20428
 Alpha virt. eigenvalues --    2.20600   2.21511   2.21878   2.22849   2.22933
 Alpha virt. eigenvalues --    2.23359   2.23833   2.24336   2.24611   2.24740
 Alpha virt. eigenvalues --    2.24824   2.25729   2.25979   2.26168   2.26219
 Alpha virt. eigenvalues --    2.26547   2.26764   2.26994   2.27334   2.27633
 Alpha virt. eigenvalues --    2.27968   2.28412   2.28757   2.29581   2.30072
 Alpha virt. eigenvalues --    2.30302   2.31591   2.31713   2.32355   2.32441
 Alpha virt. eigenvalues --    2.33610   2.33800   2.34823   2.35949   2.36481
 Alpha virt. eigenvalues --    2.36802   2.36975   2.37339   2.38297   2.39748
 Alpha virt. eigenvalues --    2.42868   2.43685   2.44984   2.47289   2.50434
 Alpha virt. eigenvalues --    2.51815   2.52649   2.52910   2.53165   2.53601
 Alpha virt. eigenvalues --    2.54351   2.55601   2.58987   2.59998   2.62140
 Alpha virt. eigenvalues --    2.63207   2.67995   2.91331   2.93284   2.95046
 Alpha virt. eigenvalues --    2.95929   2.96765   2.97339   2.97924   2.98147
 Alpha virt. eigenvalues --    2.98253   2.98362   2.98645   2.99376   2.99578
 Alpha virt. eigenvalues --    2.99772   3.00067   3.00287   3.00789   3.01322
 Alpha virt. eigenvalues --    3.01752   3.01898   3.02393   3.02414   3.02524
 Alpha virt. eigenvalues --    3.03004   3.03235   3.03380   3.03552   3.04005
 Alpha virt. eigenvalues --    3.04128   3.04303   3.04424   3.04574   3.04800
 Alpha virt. eigenvalues --    3.04878   3.05129   3.05199   3.05314   3.05502
 Alpha virt. eigenvalues --    3.05619   3.05742   3.06598   3.06662   3.07620
 Alpha virt. eigenvalues --    3.08020   3.08139   3.08511   3.08678   3.08850
 Alpha virt. eigenvalues --    3.09094   3.09234   3.09571   3.09632   3.10520
 Alpha virt. eigenvalues --    3.10742   3.10963   3.11128   3.11247   3.11327
 Alpha virt. eigenvalues --    3.11894   3.12495   3.13736   3.14319   3.16611
 Alpha virt. eigenvalues --    3.16787   3.17911   3.17931   3.18677   3.19498
 Alpha virt. eigenvalues --    3.21537   3.21825   3.22309   3.22384   3.22870
 Alpha virt. eigenvalues --    3.22977   3.23501   3.23793   3.24103   3.24315
 Alpha virt. eigenvalues --    3.24926   3.25707   3.25928   3.26497   3.26621
 Alpha virt. eigenvalues --    3.26777   3.26958   3.27438   3.27924   3.28281
 Alpha virt. eigenvalues --    3.28356   3.28455   3.29514   3.29808   3.31227
 Alpha virt. eigenvalues --    3.31478   3.33037   3.35182   3.51966   3.53122
 Alpha virt. eigenvalues --    3.55831   3.56751   3.57200   3.57687   3.58417
 Alpha virt. eigenvalues --    3.58791   3.59246   3.59853   3.60473   3.61032
 Alpha virt. eigenvalues --    3.61839   3.62008   3.62564   3.62881   3.63021
 Alpha virt. eigenvalues --    3.63517   3.64055   3.64412   3.65281   3.65437
 Alpha virt. eigenvalues --    3.66490   3.66860   3.67300   3.67533   3.68151
 Alpha virt. eigenvalues --    3.69641   3.70436   3.70905   3.72827   3.73920
 Alpha virt. eigenvalues --    3.82354   3.83995   3.84482   3.84600   3.85948
 Alpha virt. eigenvalues --    3.86616   3.87004   3.88007   3.88214   3.89514
 Alpha virt. eigenvalues --    3.89605   3.90041   3.90339   3.90601   3.91063
 Alpha virt. eigenvalues --    3.91260   3.91525   3.92720   3.93178   3.93730
 Alpha virt. eigenvalues --    3.94992   3.95818   3.96690   3.97117   3.97475
 Alpha virt. eigenvalues --    3.98813   3.99573   3.99805   4.01258   4.01525
 Alpha virt. eigenvalues --    4.03495   4.06148
          Condensed to atoms (all electrons):
 Mulliken charges:
               1
     1  Br  -0.713297
     2  O   -0.274528
     3  H    0.130637
     4  H    0.145714
     5  O   -0.261318
     6  H    0.127802
     7  H    0.133439
     8  O   -0.286431
     9  H    0.126191
    10  H    0.126809
    11  O   -0.265020
    12  H    0.145001
    13  H    0.122871
    14  O   -0.276792
    15  H    0.111102
    16  H    0.144545
    17  O   -0.280770
    18  H    0.139958
    19  H    0.121152
    20  O   -0.231290
    21  H    0.141558
    22  H    0.140953
    23  O   -0.280686
    24  H    0.167712
    25  H    0.131005
    26  O   -0.259202
    27  H    0.143672
    28  H    0.120267
    29  O   -0.250947
    30  H    0.147632
    31  H    0.151870
    32  O   -0.241072
    33  H    0.129693
    34  H    0.160220
    35  O   -0.238021
    36  H    0.158210
    37  H    0.144925
    38  O   -0.253493
    39  H    0.147445
    40  H    0.146928
    41  O   -0.275606
    42  H    0.135213
    43  H    0.154317
    44  O   -0.304096
    45  H    0.139438
    46  H    0.131743
    47  O   -0.240080
    48  H    0.130095
    49  H    0.124350
    50  O   -0.240521
    51  H    0.129529
    52  H    0.135020
    53  O   -0.327042
    54  H    0.116401
    55  H    0.129584
    56  O   -0.248840
    57  H    0.144778
    58  H    0.133048
    59  O   -0.276824
    60  H    0.121647
    61  H    0.135180
    62  O   -0.302459
    63  H    0.113555
    64  H    0.105160
    65  O   -0.289801
    66  H    0.134076
    67  H    0.119288
    68  O   -0.286185
    69  H    0.115675
    70  H    0.098495
    71  O   -0.267557
    72  H    0.137104
    73  H    0.121513
    74  O   -0.348090
    75  H    0.117034
    76  H    0.109821
    77  O   -0.330142
    78  H    0.118397
    79  H    0.115373
    80  O   -0.292968
    81  H    0.151554
    82  H    0.114754
    83  O   -0.276367
    84  H    0.128795
    85  H    0.139951
    86  O   -0.331989
    87  H    0.121683
    88  H    0.132765
    89  O   -0.306789
    90  H    0.111804
    91  H    0.138686
    92  O   -0.211431
    93  H    0.149810
    94  H    0.142405
    95  O   -0.229198
    96  H    0.140614
    97  H    0.152883
 Sum of Mulliken charges =  -1.00000
 Mulliken charges with hydrogens summed into heavy atoms:
               1
     1  Br  -0.713297
     2  O    0.001823
     5  O   -0.000078
     8  O   -0.033431
    11  O    0.002852
    14  O   -0.021144
    17  O   -0.019660
    20  O    0.051221
    23  O    0.018031
    26  O    0.004737
    29  O    0.048556
    32  O    0.048841
    35  O    0.065115
    38  O    0.040880
    41  O    0.013924
    44  O   -0.032915
    47  O    0.014365
    50  O    0.024027
    53  O   -0.081056
    56  O    0.028986
    59  O   -0.019997
    62  O   -0.083744
    65  O   -0.036438
    68  O   -0.072015
    71  O   -0.008941
    74  O   -0.121235
    77  O   -0.096372
    80  O   -0.026660
    83  O   -0.007621
    86  O   -0.077541
    89  O   -0.056299
    92  O    0.080783
    95  O    0.064300
         Mulliken charges condensed to fragments:
      1     -0.713297
      2     -0.286703
 Electronic spatial extent (au):  <R**2>=        1556748.8933
 Charge=             -1.0000 electrons
 Dipole moment (field-independent basis, Debye):
    X=            -93.5635    Y=           -117.9415    Z=            -97.0792  Tot=            179.1332
 Quadrupole moment (field-independent basis, Debye-Ang):
   XX=          -2115.5780   YY=          -3041.7613   ZZ=          -2268.7932
   XY=          -2325.3500   XZ=          -1885.9620   YZ=          -2352.7129
 Traceless Quadrupole moment (field-independent basis, Debye-Ang):
   XX=            359.7995   YY=           -566.3838   ZZ=            206.5843
   XY=          -2325.3500   XZ=          -1885.9620   YZ=          -2352.7129
 Octapole moment (field-independent basis, Debye-Ang**2):
  XXX=         -52952.5613  YYY=         -80018.8073  ZZZ=         -57842.0854  XYY=         -60653.3883
  XXY=         -52059.1092  XXZ=         -42189.8167  XZZ=         -44079.5751  YZZ=         -53320.8479
  YYZ=         -60342.9609  XYZ=         -46313.6192
 Hexadecapole moment (field-independent basis, Debye-Ang**3):
 XXXX=       -1394830.1567 YYYY=       -2115722.5228 ZZZZ=       -1531349.7243 XXXY=       -1273478.8004
 XXXZ=       -1042650.5162 YYYX=       -1610528.7778 YYYZ=       -1586143.9929 ZZZX=       -1125117.7257
 ZZZY=       -1314377.0449 XXYY=       -1343947.5367 XXZZ=        -966035.3153 YYZZ=       -1333003.3354
 XXYZ=       -1030022.7412 YYXZ=       -1202087.8726 ZZXY=       -1048559.6119
 N-N= 6.343374423941D+03 E-N=-2.465455828663D+04  KE= 5.003337733766D+03
 No NMR shielding tensors so no spin-rotation constants.
 Leave Link  601 at Thu May  3 12:27:52 2018, MaxMem= 14763950080 cpu:        71.9
 (Enter /cm/shared/gaussian/g09.e01/intel64-sandybridge/g09/l701.exe)
 Compute integral first derivatives.
 ... and contract with generalized density number  0.
 Leave Link  701 at Thu May  3 12:27:54 2018, MaxMem= 14763950080 cpu:       157.8
 (Enter /cm/shared/gaussian/g09.e01/intel64-sandybridge/g09/l702.exe)
 L702 exits ... SP integral derivatives will be done elsewhere.
 Leave Link  702 at Thu May  3 12:27:54 2018, MaxMem= 14763950080 cpu:         2.6
 (Enter /cm/shared/gaussian/g09.e01/intel64-sandybridge/g09/l703.exe)
 Compute integral first derivatives, UseDBF=F ICtDFT=           0.
 Integral derivatives from FoFJK, PRISM(SPDF).
 Calling FoFJK, ICntrl=      2127 FMM=T ISym2X=0 I1Cent= 0 IOpClX= 0 NMat=1 NMatS=1 NMatT=0.
 FoFJK:  IHMeth= 1 ICntrl=    2127 DoSepK=F KAlg= 0 I1Cent=   0 FoldK=F
 IRaf=         0 NMat=   1 IRICut=       1 DoRegI=T DoRafI=F ISym2E= 0.
 FoFCou: FMM=T IPFlag=           0 FMFlag=      100000 FMFlg1=        2001
         NFxFlg=           0 DoJE=F BraDBF=F KetDBF=F FulRan=T
         wScrn=  0.000000 ICntrl=    2127 IOpCl=  0 I1Cent=           0 NGrid=           0
         NMat0=    1 NMatS0=      1 NMatT0=    0 NMatD0=    1 NMtDS0=    0 NMtDT0=    0
 Symmetry not used in FoFCou.
 FMM levels:  10  Number of levels for PrismC:   9
 Leave Link  703 at Thu May  3 12:28:15 2018, MaxMem= 14763950080 cpu:      1330.6
 (Enter /cm/shared/gaussian/g09.e01/intel64-sandybridge/g09/l716.exe)
 Dipole        =-3.68107040D+01-4.64017551D+01-3.81939116D+01
 Cartesian Forces:  Max     0.022686239 RMS     0.009298934
 Leave Link  716 at Thu May  3 12:28:16 2018, MaxMem= 14763950080 cpu:         4.6
 (Enter /cm/shared/gaussian/g09.e01/intel64-sandybridge/g09/l122.exe)
 CPIOFr:  IOpCl= 0 IRwI=-1 IRwCP=  731 ICalc= -1 LCPTot=     1005244 Len1MO=     2550559 IndFrg=     1005244
 CPIOFr:  IOpCl= 0 IRwI=-1 IRwCP=  731 ICalc=  0 LCPTot=     1005244 Len1MO=     2550559 IndFrg=     3555803
 Counterpoise: doing DCBS calculation for fragment   1 NewBq=T
 Leave Link  122 at Thu May  3 12:28:16 2018, MaxMem= 14763950080 cpu:         9.4
 (Enter /cm/shared/gaussian/g09.e01/intel64-sandybridge/g09/l301.exe)
 Basis read from rwf:  (5D, 7F)
 No pseudopotential information found on rwf file.
   795 basis functions,  1651 primitive gaussians,   829 cartesian basis functions
    18 alpha electrons       18 beta electrons
       nuclear repulsion energy         0.0000000000 Hartrees.
 IExCor= 1009 DFT=T Ex+Corr=PBE1PBE ExCW=0 ScaHFX=  0.250000
 ScaDFX=  0.750000  0.750000  1.000000  1.000000 ScalE2=  1.000000  1.000000
 IRadAn=      0 IRanWt=     -1 IRanGd=            0 ICorTp=0 IEmpDi=  4
 NAtoms=   97 NActive=   97 NUniq=   97 SFac= 1.00D+00 NAtFMM=   60 NAOKFM=T Big=T
 Integral buffers will be    131072 words long.
 Raffenetti 2 integral format.
 Two-electron integral symmetry is turned off.
 No density basis found on file   718.
 Leave Link  301 at Thu May  3 12:28:16 2018, MaxMem= 14763950080 cpu:         7.1
 (Enter /cm/shared/gaussian/g09.e01/intel64-sandybridge/g09/l302.exe)
 NPDir=0 NMtPBC=     1 NCelOv=     1 NCel=       1 NClECP=     1 NCelD=      1
         NCelK=      1 NCelE2=     1 NClLst=     1 CellRange=     0.0.
 One-electron integrals computed using PRISM.
 NBasis=   795 RedAO= T EigKep=  1.58D-02  NBF=   795
 NBsUse=   795 1.00D-06 EigRej= -1.00D+00 NBFU=   795
 Precomputing XC quadrature grid using
 IXCGrd= 4 IRadAn=           0 IRanWt=          -1 IRanGd=           0 AccXCQ= 0.00D+00.
 Generated NRdTot=       0 NPtTot=           0 NUsed=           0 NTot=          32
 NSgBfM=   741   744   745   746   749 MxSgAt=    97 MxSgA2=    97.
 Leave Link  302 at Thu May  3 12:28:20 2018, MaxMem= 14763950080 cpu:       276.5
 (Enter /cm/shared/gaussian/g09.e01/intel64-sandybridge/g09/l303.exe)
 DipDrv:  MaxL=1.
 Leave Link  303 at Thu May  3 12:28:21 2018, MaxMem= 14763950080 cpu:        30.8
 (Enter /cm/shared/gaussian/g09.e01/intel64-sandybridge/g09/l401.exe)
 ExpMin= 1.22D-01 ExpMax= 6.40D+05 ExpMxC= 6.18D+03 IAcc=2 IRadAn=         4 AccDes= 0.00D+00
 Harris functional with IExCor= 1009 and IRadAn=       4 diagonalized for initial guess.
 HarFok:  IExCor= 1009 AccDes= 0.00D+00 IRadAn=         4 IDoV= 1 UseB2=F ITyADJ=14
 ICtDFT=  3500011 ScaDFX=  1.000000  1.000000  1.000000  1.000000
 FoFCou: FMM=F IPFlag=           0 FMFlag=      100000 FMFlg1=        2001
         NFxFlg=           0 DoJE=T BraDBF=F KetDBF=T FulRan=T
         wScrn=  0.000000 ICntrl=     500 IOpCl=  0 I1Cent=   200000004 NGrid=           0
         NMat0=    1 NMatS0=      1 NMatT0=    0 NMatD0=    1 NMtDS0=    0 NMtDT0=    0
 Symmetry not used in FoFCou.
 Harris En= -2574.02014164760    
 JPrj=0 DoOrth=F DoCkMO=F.
 Leave Link  401 at Thu May  3 12:28:26 2018, MaxMem= 14763950080 cpu:       296.7
 (Enter /cm/shared/gaussian/g09.e01/intel64-sandybridge/g09/l502.exe)
 Closed shell SCF:
 Using DIIS extrapolation, IDIIS=  1040.
 Two-electron integral symmetry not used.
 IVT=     2138497 IEndB=     2138497 NGot= 14763950080 MDV= 14762516294
 LenX= 14762516294 LenY= 14761828224
 Requested convergence on RMS density matrix=1.00D-08 within 128 cycles.
 Requested convergence on MAX density matrix=1.00D-06.
 Requested convergence on             energy=1.00D-06.
 No special actions if energy rises.
 Fock matrices will be formed incrementally for  20 cycles.
 Integral accuracy reduced to 1.0D-05 until final iterations.

 Cycle   1  Pass 0  IDiag  1:
 FoFJK:  IHMeth= 1 ICntrl=       0 DoSepK=F KAlg= 0 I1Cent=   0 FoldK=F
 IRaf= 880000000 NMat=   1 IRICut=       1 DoRegI=T DoRafI=F ISym2E= 0.
 FoFCou: FMM=T IPFlag=           0 FMFlag=      100000 FMFlg1=        2001
         NFxFlg=           0 DoJE=F BraDBF=F KetDBF=F FulRan=T
         wScrn=  0.000000 ICntrl=       0 IOpCl=  0 I1Cent=           0 NGrid=           0
         NMat0=    1 NMatS0=      1 NMatT0=    0 NMatD0=    1 NMtDS0=    0 NMtDT0=    0
 Symmetry not used in FoFCou.
 FMM levels:  10  Number of levels for PrismC:   9
 E= -2573.88052879306    
 DIIS: error= 1.09D-02 at cycle   1 NSaved=   1.
 NSaved= 1 IEnMin= 1 EnMin= -2573.88052879306     IErMin= 1 ErrMin= 1.09D-02
 ErrMax= 1.09D-02  0.00D+00 EMaxC= 1.00D-01 BMatC= 3.83D-02 BMatP= 3.83D-02
 IDIUse=3 WtCom= 8.91D-01 WtEn= 1.09D-01
 Coeff-Com:  0.100D+01
 Coeff-En:   0.100D+01
 Coeff:      0.100D+01
 Gap=     0.174 Goal=   None    Shift=    0.000
 GapD=    0.174 DampG=1.000 DampE=0.500 DampFc=0.5000 IDamp=-1.
 Damping current iteration by 5.00D-01
 RMSDP=4.52D-04 MaxDP=7.02D-02              OVMax= 1.54D-01

 Cycle   2  Pass 0  IDiag  1:
 RMSU=  2.24D-04    CP:  9.95D-01
 E= -2573.89765669602     Delta-E=       -0.017127902954 Rises=F Damp=T
 DIIS: error= 6.78D-03 at cycle   2 NSaved=   2.
 NSaved= 2 IEnMin= 2 EnMin= -2573.89765669602     IErMin= 2 ErrMin= 6.78D-03
 ErrMax= 6.78D-03  0.00D+00 EMaxC= 1.00D-01 BMatC= 9.16D-03 BMatP= 3.83D-02
 IDIUse=3 WtCom= 9.32D-01 WtEn= 6.78D-02
 Coeff-Com: -0.545D+00 0.155D+01
 Coeff-En:   0.000D+00 0.100D+01
 Coeff:     -0.508D+00 0.151D+01
 Gap=     0.194 Goal=   None    Shift=    0.000
 RMSDP=1.62D-04 MaxDP=3.93D-02 DE=-1.71D-02 OVMax= 7.22D-02

 Cycle   3  Pass 0  IDiag  1:
 RMSU=  1.50D-04    CP:  9.95D-01  1.28D+00
 E= -2573.91139023691     Delta-E=       -0.013733540893 Rises=F Damp=F
 DIIS: error= 3.50D-03 at cycle   3 NSaved=   3.
 NSaved= 3 IEnMin= 3 EnMin= -2573.91139023691     IErMin= 3 ErrMin= 3.50D-03
 ErrMax= 3.50D-03  0.00D+00 EMaxC= 1.00D-01 BMatC= 2.79D-03 BMatP= 9.16D-03
 IDIUse=3 WtCom= 9.65D-01 WtEn= 3.50D-02
 Coeff-Com: -0.301D+00 0.717D+00 0.584D+00
 Coeff-En:   0.000D+00 0.000D+00 0.100D+01
 Coeff:     -0.291D+00 0.692D+00 0.599D+00
 Gap=     0.176 Goal=   None    Shift=    0.000
 RMSDP=7.43D-05 MaxDP=1.85D-02 DE=-1.37D-02 OVMax= 2.29D-02

 Cycle   4  Pass 0  IDiag  1:
 RMSU=  8.25D-06    CP:  9.93D-01  1.49D+00  6.22D-01
 E= -2573.91447323321     Delta-E=       -0.003082996297 Rises=F Damp=F
 DIIS: error= 1.16D-04 at cycle   4 NSaved=   4.
 NSaved= 4 IEnMin= 4 EnMin= -2573.91447323321     IErMin= 4 ErrMin= 1.16D-04
 ErrMax= 1.16D-04  0.00D+00 EMaxC= 1.00D-01 BMatC= 1.67D-06 BMatP= 2.79D-03
 IDIUse=3 WtCom= 9.99D-01 WtEn= 1.16D-03
 Coeff-Com: -0.178D-01 0.342D-01 0.432D-01 0.940D+00
 Coeff-En:   0.000D+00 0.000D+00 0.000D+00 0.100D+01
 Coeff:     -0.178D-01 0.342D-01 0.432D-01 0.940D+00
 Gap=     0.178 Goal=   None    Shift=    0.000
 RMSDP=2.16D-06 MaxDP=4.28D-04 DE=-3.08D-03 OVMax= 7.37D-04

 Initial convergence to 1.0D-05 achieved.  Increase integral accuracy.
 Cycle   5  Pass 1  IDiag  1:
 E= -2573.91485141348     Delta-E=       -0.000378180279 Rises=F Damp=F
 DIIS: error= 3.62D-05 at cycle   1 NSaved=   1.
 NSaved= 1 IEnMin= 1 EnMin= -2573.91485141348     IErMin= 1 ErrMin= 3.62D-05
 ErrMax= 3.62D-05  0.00D+00 EMaxC= 1.00D-01 BMatC= 2.77D-07 BMatP= 2.77D-07
 IDIUse=1 WtCom= 1.00D+00 WtEn= 0.00D+00
 Coeff-Com:  0.100D+01
 Coeff:      0.100D+01
 Gap=     0.178 Goal=   None    Shift=    0.000
 RMSDP=2.16D-06 MaxDP=4.28D-04 DE=-3.78D-04 OVMax= 4.98D-04

 Cycle   6  Pass 1  IDiag  1:
 RMSU=  2.55D-06    CP:  1.00D+00
 E= -2573.91485200787     Delta-E=       -0.000000594388 Rises=F Damp=F
 DIIS: error= 1.08D-05 at cycle   2 NSaved=   2.
 NSaved= 2 IEnMin= 2 EnMin= -2573.91485200787     IErMin= 2 ErrMin= 1.08D-05
 ErrMax= 1.08D-05  0.00D+00 EMaxC= 1.00D-01 BMatC= 1.99D-08 BMatP= 2.77D-07
 IDIUse=1 WtCom= 1.00D+00 WtEn= 0.00D+00
 Coeff-Com:  0.876D-01 0.912D+00
 Coeff:      0.876D-01 0.912D+00
 Gap=     0.178 Goal=   None    Shift=    0.000
 RMSDP=3.40D-07 MaxDP=3.10D-05 DE=-5.94D-07 OVMax= 1.02D-04

 Cycle   7  Pass 1  IDiag  1:
 RMSU=  3.34D-07    CP:  1.00D+00  9.74D-01
 E= -2573.91485203012     Delta-E=       -0.000000022249 Rises=F Damp=F
 DIIS: error= 5.78D-06 at cycle   3 NSaved=   3.
 NSaved= 3 IEnMin= 3 EnMin= -2573.91485203012     IErMin= 3 ErrMin= 5.78D-06
 ErrMax= 5.78D-06  0.00D+00 EMaxC= 1.00D-01 BMatC= 6.24D-09 BMatP= 1.99D-08
 IDIUse=1 WtCom= 1.00D+00 WtEn= 0.00D+00
 Coeff-Com: -0.192D-01 0.353D+00 0.666D+00
 Coeff:     -0.192D-01 0.353D+00 0.666D+00
 Gap=     0.178 Goal=   None    Shift=    0.000
 RMSDP=1.14D-07 MaxDP=1.24D-05 DE=-2.22D-08 OVMax= 3.47D-05

 Cycle   8  Pass 1  IDiag  1:
 RMSU=  4.58D-08    CP:  1.00D+00  1.00D+00  7.77D-01
 E= -2573.91485203865     Delta-E=       -0.000000008524 Rises=F Damp=F
 DIIS: error= 1.95D-07 at cycle   4 NSaved=   4.
 NSaved= 4 IEnMin= 4 EnMin= -2573.91485203865     IErMin= 4 ErrMin= 1.95D-07
 ErrMax= 1.95D-07  0.00D+00 EMaxC= 1.00D-01 BMatC= 1.47D-11 BMatP= 6.24D-09
 IDIUse=1 WtCom= 1.00D+00 WtEn= 0.00D+00
 Coeff-Com: -0.189D-02 0.705D-02 0.115D-01 0.983D+00
 Coeff:     -0.189D-02 0.705D-02 0.115D-01 0.983D+00
 Gap=     0.178 Goal=   None    Shift=    0.000
 RMSDP=1.27D-08 MaxDP=2.65D-06 DE=-8.52D-09 OVMax= 4.86D-06

 Cycle   9  Pass 1  IDiag  1:
 RMSU=  1.05D-08    CP:  1.00D+00  1.00D+00  7.91D-01  1.07D+00
 E= -2573.91485203866     Delta-E=       -0.000000000019 Rises=F Damp=F
 DIIS: error= 1.92D-07 at cycle   5 NSaved=   5.
 NSaved= 5 IEnMin= 5 EnMin= -2573.91485203866     IErMin= 5 ErrMin= 1.92D-07
 ErrMax= 1.92D-07  0.00D+00 EMaxC= 1.00D-01 BMatC= 9.96D-12 BMatP= 1.47D-11
 IDIUse=1 WtCom= 1.00D+00 WtEn= 0.00D+00
 Coeff-Com:  0.228D-03-0.162D-01-0.332D-01 0.474D+00 0.576D+00
 Coeff:      0.228D-03-0.162D-01-0.332D-01 0.474D+00 0.576D+00
 Gap=     0.178 Goal=   None    Shift=    0.000
 RMSDP=4.70D-09 MaxDP=1.16D-06 DE=-1.86D-11 OVMax= 1.65D-06

 Cycle  10  Pass 1  IDiag  1:
 RMSU=  1.68D-09    CP:  1.00D+00  1.00D+00  7.91D-01  1.11D+00  6.24D-01
 E= -2573.91485203869     Delta-E=       -0.000000000027 Rises=F Damp=F
 DIIS: error= 9.94D-09 at cycle   6 NSaved=   6.
 NSaved= 6 IEnMin= 6 EnMin= -2573.91485203869     IErMin= 6 ErrMin= 9.94D-09
 ErrMax= 9.94D-09  0.00D+00 EMaxC= 1.00D-01 BMatC= 1.19D-14 BMatP= 9.96D-12
 IDIUse=1 WtCom= 1.00D+00 WtEn= 0.00D+00
 Coeff-Com:  0.272D-04 0.524D-03 0.116D-02-0.519D-01-0.347D-01 0.108D+01
 Coeff:      0.272D-04 0.524D-03 0.116D-02-0.519D-01-0.347D-01 0.108D+01
 Gap=     0.178 Goal=   None    Shift=    0.000
 RMSDP=4.84D-10 MaxDP=4.30D-08 DE=-2.68D-11 OVMax= 2.41D-07

 SCF Done:  E(RPBE1PBE) =  -2573.91485204     A.U. after   10 cycles
            NFock= 10  Conv=0.48D-09     -V/T= 2.0013
 KE= 2.570498266994D+03 PE=-6.162738414316D+03 EE= 1.018325295283D+03
 Leave Link  502 at Thu May  3 12:30:37 2018, MaxMem= 14763950080 cpu:      8292.5
 (Enter /cm/shared/gaussian/g09.e01/intel64-sandybridge/g09/l601.exe)
 Copying SCF densities to generalized density rwf, IOpCl= 0 IROHF=0.

 **********************************************************************

            Population analysis using the SCF density.

 **********************************************************************

 Alpha  occ. eigenvalues -- -482.99473 -62.39615 -56.16869 -56.16868 -56.16867
 Alpha  occ. eigenvalues --   -8.49746  -6.30052  -6.30049  -6.30044  -2.38318
 Alpha  occ. eigenvalues --   -2.38318  -2.38314  -2.38312  -2.38311  -0.47696
 Alpha  occ. eigenvalues --   -0.03536  -0.03513  -0.03503
 Alpha virt. eigenvalues --    0.14279   0.16035   0.16578   0.16921   0.18076
 Alpha virt. eigenvalues --    0.19086   0.19555   0.19853   0.21129   0.21400
 Alpha virt. eigenvalues --    0.22164   0.22915   0.23121   0.23832   0.24052
 Alpha virt. eigenvalues --    0.24610   0.25499   0.26043   0.26436   0.26911
 Alpha virt. eigenvalues --    0.27462   0.27944   0.28768   0.29559   0.29659
 Alpha virt. eigenvalues --    0.30189   0.30476   0.31126   0.31663   0.32084
 Alpha virt. eigenvalues --    0.33167   0.33611   0.34052   0.34236   0.35241
 Alpha virt. eigenvalues --    0.35470   0.35950   0.36322   0.36891   0.37341
 Alpha virt. eigenvalues --    0.37883   0.38519   0.39137   0.39259   0.39659
 Alpha virt. eigenvalues --    0.40092   0.40717   0.41322   0.41980   0.42372
 Alpha virt. eigenvalues --    0.42655   0.43940   0.44460   0.45494   0.45824
 Alpha virt. eigenvalues --    0.47106   0.47809   0.48787   0.49020   0.49496
 Alpha virt. eigenvalues --    0.50103   0.50762   0.51178   0.53292   0.61101
 Alpha virt. eigenvalues --    0.62105   0.62689   0.63452   0.63917   0.64381
 Alpha virt. eigenvalues --    0.65251   0.65499   0.66062   0.66735   0.67138
 Alpha virt. eigenvalues --    0.67417   0.68650   0.68758   0.68980   0.69117
 Alpha virt. eigenvalues --    0.69742   0.70038   0.70883   0.71110   0.71885
 Alpha virt. eigenvalues --    0.72477   0.72747   0.73416   0.73529   0.73919
 Alpha virt. eigenvalues --    0.74144   0.74532   0.74807   0.75332   0.75697
 Alpha virt. eigenvalues --    0.75745   0.75954   0.76170   0.76538   0.77171
 Alpha virt. eigenvalues --    0.77447   0.77667   0.77998   0.78069   0.78575
 Alpha virt. eigenvalues --    0.78923   0.79188   0.79549   0.79779   0.80489
 Alpha virt. eigenvalues --    0.80505   0.81358   0.81652   0.82012   0.82060
 Alpha virt. eigenvalues --    0.82627   0.82882   0.83343   0.83772   0.84085
 Alpha virt. eigenvalues --    0.84641   0.84885   0.85621   0.86055   0.86511
 Alpha virt. eigenvalues --    0.86828   0.86992   0.87152   0.87508   0.87725
 Alpha virt. eigenvalues --    0.88140   0.88861   0.89583   0.89813   0.90862
 Alpha virt. eigenvalues --    0.91133   0.91408   0.91864   0.92185   0.92353
 Alpha virt. eigenvalues --    0.93045   0.93224   0.93873   0.94386   0.94672
 Alpha virt. eigenvalues --    0.95092   0.95133   0.96071   0.96549   0.96716
 Alpha virt. eigenvalues --    0.96953   0.97494   0.98176   0.98394   0.98877
 Alpha virt. eigenvalues --    0.99432   0.99726   0.99958   1.00251   1.00702
 Alpha virt. eigenvalues --    1.01348   1.01391   1.02312   1.02670   1.02920
 Alpha virt. eigenvalues --    1.03179   1.04013   1.04416   1.04767   1.05237
 Alpha virt. eigenvalues --    1.06012   1.06542   1.07012   1.07403   1.08133
 Alpha virt. eigenvalues --    1.09553   1.09728   1.10152   1.11014   1.12037
 Alpha virt. eigenvalues --    1.12412   1.12858   1.13848   1.14038   1.14604
 Alpha virt. eigenvalues --    1.15510   1.17190   1.17403   1.17771   1.18733
 Alpha virt. eigenvalues --    1.18932   1.19379   1.20100   1.21011   1.22095
 Alpha virt. eigenvalues --    1.23107   1.24292   1.24655   1.26098   1.27684
 Alpha virt. eigenvalues --    1.32088   1.66021   1.66299   1.66677   1.66947
 Alpha virt. eigenvalues --    1.67352   1.68145   1.68542   1.68904   1.69550
 Alpha virt. eigenvalues --    1.70331   1.71282   1.71817   1.71898   1.72239
 Alpha virt. eigenvalues --    1.72869   1.73064   1.73683   1.74064   1.74297
 Alpha virt. eigenvalues --    1.74403   1.74945   1.75208   1.75595   1.75755
 Alpha virt. eigenvalues --    1.76230   1.76593   1.76720   1.76936   1.77304
 Alpha virt. eigenvalues --    1.77571   1.77982   1.78746   1.78997   1.79552
 Alpha virt. eigenvalues --    1.79859   1.80069   1.80712   1.80944   1.81171
 Alpha virt. eigenvalues --    1.81358   1.81951   1.82151   1.83103   1.83276
 Alpha virt. eigenvalues --    1.83343   1.84258   1.84793   1.85508   1.85855
 Alpha virt. eigenvalues --    1.86354   1.87347   1.88540   1.88603   1.89185
 Alpha virt. eigenvalues --    1.90275   1.90884   1.91563   1.92777   1.93195
 Alpha virt. eigenvalues --    1.93459   1.95106   1.95711   1.96228   1.97330
 Alpha virt. eigenvalues --    1.98214   1.98572   1.99251   1.99435   1.99943
 Alpha virt. eigenvalues --    2.00261   2.00593   2.00961   2.01235   2.01524
 Alpha virt. eigenvalues --    2.01786   2.02099   2.02253   2.02548   2.02624
 Alpha virt. eigenvalues --    2.02912   2.03379   2.03384   2.03696   2.03814
 Alpha virt. eigenvalues --    2.04285   2.04484   2.04781   2.05008   2.05526
 Alpha virt. eigenvalues --    2.05741   2.06231   2.06468   2.06913   2.07057
 Alpha virt. eigenvalues --    2.07399   2.08142   2.08762   2.09160   2.09299
 Alpha virt. eigenvalues --    2.09556   2.09872   2.10118   2.10595   2.11421
 Alpha virt. eigenvalues --    2.11646   2.12121   2.12541   2.12904   2.12996
 Alpha virt. eigenvalues --    2.13559   2.13991   2.14872   2.14926   2.15395
 Alpha virt. eigenvalues --    2.15642   2.16430   2.16513   2.17055   2.17149
 Alpha virt. eigenvalues --    2.17446   2.17902   2.18124   2.18599   2.18840
 Alpha virt. eigenvalues --    2.19177   2.19545   2.20060   2.20829   2.21072
 Alpha virt. eigenvalues --    2.21975   2.23214   2.23750   2.24099   2.24653
 Alpha virt. eigenvalues --    2.25248   2.25366   2.25738   2.26080   2.26959
 Alpha virt. eigenvalues --    2.27419   2.28779   2.28867   2.29587   2.30012
 Alpha virt. eigenvalues --    2.30697   2.31041   2.31428   2.31979   2.32456
 Alpha virt. eigenvalues --    2.32976   2.33218   2.34550   2.34622   2.35291
 Alpha virt. eigenvalues --    2.35624   2.35921   2.36371   2.37236   2.37882
 Alpha virt. eigenvalues --    2.39962   2.40475   2.40843   2.41745   2.42020
 Alpha virt. eigenvalues --    2.42657   2.42732   2.43795   2.44146   2.44275
 Alpha virt. eigenvalues --    2.44811   2.45088   2.45324   2.45744   2.46322
 Alpha virt. eigenvalues --    2.47111   2.47573   2.49554   2.50159   2.50775
 Alpha virt. eigenvalues --    2.51010   2.51653   2.51909   2.52415   2.53753
 Alpha virt. eigenvalues --    2.54326   2.54622   2.54857   2.55403   2.56399
 Alpha virt. eigenvalues --    2.57446   2.57807   2.60217   2.66953   2.67385
 Alpha virt. eigenvalues --    2.68593   2.69285   2.70378   2.70962   2.71234
 Alpha virt. eigenvalues --    2.72870   2.73243   2.74008   2.74589   2.75013
 Alpha virt. eigenvalues --    2.75258   2.75698   2.76070   2.76582   2.76706
 Alpha virt. eigenvalues --    2.77763   2.78921   2.79299   2.80409   2.80499
 Alpha virt. eigenvalues --    2.82016   2.82144   2.83127   2.84276   2.84610
 Alpha virt. eigenvalues --    2.84642   2.85452   2.85758   2.86087   2.86462
 Alpha virt. eigenvalues --    2.87347   2.87686   2.87911   2.88245   2.88921
 Alpha virt. eigenvalues --    2.89271   2.90129   2.90412   2.90737   2.91862
 Alpha virt. eigenvalues --    2.92487   2.93436   2.93625   2.94473   2.95143
 Alpha virt. eigenvalues --    2.96033   2.96554   2.97965   2.98703   2.99968
 Alpha virt. eigenvalues --    3.00367   3.01565   3.02198   3.02684   3.04085
 Alpha virt. eigenvalues --    3.06134   3.06785   3.07322   3.09049   3.11034
 Alpha virt. eigenvalues --    3.13241   3.13884   3.14208   3.14735   3.16736
 Alpha virt. eigenvalues --    3.18772   3.20229   3.22580   3.23767   3.24058
 Alpha virt. eigenvalues --    3.26115   3.26941   3.28528   3.29571   3.30220
 Alpha virt. eigenvalues --    3.31318   3.33702   3.34668   3.37567   3.38870
 Alpha virt. eigenvalues --    3.39886   3.41204   3.43275   3.43921   3.46684
 Alpha virt. eigenvalues --    3.46881   3.48319   3.48796   3.50585   3.51606
 Alpha virt. eigenvalues --    3.57768   3.59187   3.60759   3.62292   4.51483
 Alpha virt. eigenvalues --    4.51857   4.52123   4.52231   4.52332   4.52447
 Alpha virt. eigenvalues --    4.52478   4.52770   4.52869   4.53007   4.53197
 Alpha virt. eigenvalues --    4.53482   4.53655   4.53772   4.53989   4.54075
 Alpha virt. eigenvalues --    4.54297   4.54749   4.54880   4.54911   4.55126
 Alpha virt. eigenvalues --    4.55397   4.55578   4.55842   4.56054   4.56403
 Alpha virt. eigenvalues --    4.56605   4.56830   4.57051   4.57098   4.57458
 Alpha virt. eigenvalues --    4.58604   4.58752   4.59748   4.60171   4.60376
 Alpha virt. eigenvalues --    4.60417   4.60707   4.60711   4.61149   4.61173
 Alpha virt. eigenvalues --    4.61575   4.61796   4.61873   4.61979   4.62081
 Alpha virt. eigenvalues --    4.62260   4.62529   4.62706   4.62808   4.62921
 Alpha virt. eigenvalues --    4.62986   4.63253   4.63642   4.63654   4.63853
 Alpha virt. eigenvalues --    4.63989   4.64384   4.64482   4.64670   4.65282
 Alpha virt. eigenvalues --    4.66806   4.67045   4.67187   4.75202   4.75782
 Alpha virt. eigenvalues --    4.75793   4.76546   4.76774   4.76947   4.77073
 Alpha virt. eigenvalues --    4.77144   4.77678   4.78761   4.78969   4.79415
 Alpha virt. eigenvalues --    4.80084   4.80768   4.80800   4.81331   4.81354
 Alpha virt. eigenvalues --    4.81479   4.82452   4.82590   4.82698   4.82947
[...]
   X21       34.90324   0.00657   0.00000   0.00024  -0.00065  34.90260
   Y21       37.94570   0.00117   0.00000  -0.00380  -0.00354  37.94216
   Z21       42.25428  -0.02137   0.00000  -0.04000  -0.04102  42.21326
   X22       33.01352  -0.00679   0.00000  -0.00481  -0.00587  33.00764
   Y22       36.11267  -0.00856   0.00000   0.00360   0.00393  36.11660
   Z22       43.35032  -0.00571   0.00000  -0.00504  -0.00625  43.34406
   X23       40.47793  -0.00983   0.00000  -0.00908  -0.00789  40.47005
   Y23       32.10645  -0.01089   0.00000   0.00084   0.00032  32.10676
   Z23       35.50795  -0.01531   0.00000  -0.01988  -0.01851  35.48944
   X24       41.12044   0.01173   0.00000   0.02311   0.02393  41.14437
   Y24       33.33477   0.01330   0.00000   0.01508   0.01479  33.34956
   Z24       36.67958   0.01009   0.00000  -0.00557  -0.00423  36.67535
   X25       41.80074   0.00094   0.00000  -0.00236  -0.00107  41.79967
   Y25       30.85923   0.00164   0.00000   0.00583   0.00537  30.86460
   Z25       35.39457  -0.00051   0.00000  -0.00942  -0.00752  35.38705
   X26       31.53953  -0.01544   0.00000  -0.00649  -0.00622  31.53331
   Y26       41.57397   0.00699   0.00000   0.00556   0.00474  41.57871
   Z26       36.83076   0.00489   0.00000   0.03391   0.03143  36.86219
   X27       33.14580   0.01233   0.00000  -0.00196  -0.00150  33.14430
   Y27       41.89523   0.00515   0.00000   0.01413   0.01327  41.90850
   Z27       36.07487  -0.00860   0.00000  -0.01271  -0.01484  36.06003
   X28       31.82299   0.00346   0.00000   0.00940   0.00949  31.83248
   Y28       40.15668  -0.01744   0.00000  -0.04705  -0.04768  40.10900
   Z28       37.90791   0.00499   0.00000  -0.00711  -0.00928  37.89862
   X29       31.42615   0.00301   0.00000   0.00271   0.00282  31.42897
   Y29       36.05597   0.00293   0.00000  -0.02248  -0.02299  36.03298
   Z29       38.77718   0.01547   0.00000   0.02734   0.02573  38.80291
   X30       31.89858   0.00353   0.00000   0.00573   0.00628  31.90485
   Y30       35.09221  -0.00311   0.00000   0.01930   0.01857  35.11078
   Z30       37.32209  -0.01523   0.00000  -0.02661  -0.02795  37.29415
   X31       29.61201  -0.00582   0.00000  -0.00536  -0.00524  29.60677
   Y31       36.05597  -0.00001   0.00000   0.00258   0.00195  36.05793
   Z31       38.73939  -0.00216   0.00000  -0.00594  -0.00802  38.73137
   X32       44.03062  -0.00418   0.00000   0.00794   0.00830  44.03891
   Y32       34.78986   0.00647   0.00000   0.01277   0.01289  34.80275
   Z32       38.11578  -0.00619   0.00000  -0.01272  -0.01088  38.10489
   X33       45.25894   0.00917   0.00000   0.01948   0.01991  45.27885
   Y33       33.46705  -0.00504   0.00000   0.00431   0.00451  33.47156
   Z33       38.15357   0.00020   0.00000  -0.00107   0.00131  38.15488
   X34       44.16290  -0.00603   0.00000  -0.03401  -0.03412  44.12878
   Y34       35.56465   0.00097   0.00000  -0.00620  -0.00581  35.55884
   Z34       39.75984   0.00616   0.00000   0.00919   0.01093  39.77077
   X35       44.12511   0.01027   0.00000  -0.00632  -0.00455  44.12056
   Y35       37.34099   0.00429   0.00000   0.00866   0.00778  37.34877
   Z35       31.99306   0.01451   0.00000   0.01316   0.01460  32.00767
   X36       43.35032  -0.01171   0.00000  -0.02579  -0.02359  43.32673
   Y36       37.34099   0.00743   0.00000   0.04053   0.03933  37.38032
   Z36       30.36790  -0.01650   0.00000  -0.00956  -0.00833  30.35957
   X37       42.95348  -0.00667   0.00000  -0.01692  -0.01536  42.93811
   Y37       36.45282  -0.00335   0.00000  -0.00288  -0.00365  36.44916
   Z37       33.05131   0.00506   0.00000   0.00906   0.01035  33.06166
   X38       36.20715   0.01283   0.00000  -0.01444  -0.01402  36.19314
   Y38       44.50305  -0.01758   0.00000  -0.00954  -0.01029  44.49277
   Z38       35.64023  -0.00599   0.00000  -0.00253  -0.00429  35.63594
   X39       34.86545  -0.02266   0.00000  -0.03820  -0.03807  34.82738
   Y39       45.25894   0.01406   0.00000   0.02235   0.02167  45.28061
   Z39       36.58510   0.01144   0.00000   0.00925   0.00700  36.59210
   X40       36.50951  -0.00068   0.00000  -0.00501  -0.00432  36.50519
   Y40       45.67468   0.00929   0.00000   0.01906   0.01811  45.69279
   Z40       34.29853  -0.00408   0.00000   0.00652   0.00464  34.30317
   X41       45.76917   0.01144   0.00000   0.01294   0.01350  45.78267
   Y41       40.49683   0.00500   0.00000  -0.00268  -0.00280  40.49403
   Z41       35.99928   0.01793   0.00000   0.01841   0.01976  36.01904
   X42       44.80541  -0.00244   0.00000  -0.00778  -0.00748  44.79792
   Y42       39.58976  -0.00268   0.00000  -0.01044  -0.01042  39.57934
   Z42       37.24650  -0.00032   0.00000  -0.00119   0.00007  37.24657
   X43       44.99438  -0.00775   0.00000  -0.00035   0.00064  44.99502
   Y43       40.06219  -0.00434   0.00000   0.00138   0.00095  40.06314
   Z43       34.43081  -0.01552   0.00000  -0.00958  -0.00836  34.42245
   X44       43.14245   0.01230   0.00000   0.01132   0.00987  43.15231
   Y44       40.72360   0.00687   0.00000   0.00570   0.00669  40.73029
   Z44       43.80385   0.00105   0.00000  -0.00237  -0.00173  43.80212
   X45       41.93302  -0.00574   0.00000  -0.00897  -0.01055  41.92248
   Y45       42.06530   0.00328   0.00000   0.00107   0.00202  42.06733
   Z45       43.97393  -0.00308   0.00000  -0.01821  -0.01810  43.95582
   X46       42.14089  -0.00672   0.00000   0.00096  -0.00034  42.14056
   Y46       39.24961  -0.01033   0.00000  -0.01206  -0.01117  39.23844
   Z46       43.52039  -0.00049   0.00000   0.00580   0.00642  43.52682
   X47       38.87167   0.00959   0.00000   0.04579   0.04816  38.91983
   Y47       35.01663   0.02232   0.00000   0.03090   0.02943  35.04605
   Z47       30.21672  -0.00188   0.00000   0.00039   0.00087  30.21759
   X48       38.24806  -0.00279   0.00000  -0.00040   0.00233  38.25039
   Y48       33.73161  -0.00856   0.00000   0.00616   0.00447  33.73608
   Z48       29.12068  -0.00018   0.00000   0.02456   0.02509  29.14577
   X49       39.49528   0.00033   0.00000  -0.01441  -0.01236  39.48292
   Y49       34.10956  -0.00784   0.00000  -0.00219  -0.00339  34.10616
   Z49       31.65291   0.01228   0.00000   0.02838   0.02916  31.68207
   X50       41.23382   0.00120   0.00000  -0.00607  -0.00637  41.22745
   Y50       30.95371   0.00884   0.00000   0.00880   0.00932  30.96304
   Z50       41.59287   0.00705   0.00000  -0.01455  -0.01280  41.58007
   X51       42.10310   0.00527   0.00000   0.00413   0.00407  42.10716
   Y51       29.51752  -0.01024   0.00000  -0.01411  -0.01364  29.50388
   Z51       40.95037  -0.00270   0.00000   0.00356   0.00577  40.95613
   X52       39.81653  -0.01109   0.00000  -0.02248  -0.02251  39.79402
   Y52       31.16158  -0.00268   0.00000  -0.01929  -0.01904  31.14255
   Z52       40.47793  -0.01016   0.00000  -0.02519  -0.02384  40.45409
   X53       35.26229  -0.01109   0.00000  -0.02395  -0.02523  35.23706
   Y53       45.05107   0.01888   0.00000   0.02976   0.03002  45.08109
   Z53       42.17869  -0.01865   0.00000  -0.03930  -0.04141  42.13728
   X54       35.54575   0.00296   0.00000  -0.01066  -0.01219  35.53356
   Y54       43.74716  -0.00380   0.00000   0.03727   0.03776  43.78491
   Z54       43.40701   0.00942   0.00000   0.00439   0.00257  43.40958
   X55       36.83076   0.00471   0.00000   0.01996   0.01888  36.84964
   Y55       45.14556   0.00164   0.00000   0.02026   0.02048  45.16604
   Z55       41.27162   0.00824   0.00000   0.03580   0.03409  41.30571
   X56       35.96149  -0.00157   0.00000   0.01011   0.00801  35.96950
   Y56       41.89523   0.00459   0.00000  -0.01662  -0.01568  41.87955
   Z56       46.03373  -0.00043   0.00000   0.01024   0.00884  46.04257
   X57       35.75362  -0.00252   0.00000  -0.00761  -0.00950  35.74411
   Y57       40.13778  -0.01333   0.00000  -0.03307  -0.03221  40.10558
   Z57       45.63689   0.00381   0.00000   0.03015   0.02899  45.66588
   X58       37.26540   0.00729   0.00000   0.02079   0.01837  37.28377
   Y58       41.91413  -0.00179   0.00000  -0.01112  -0.00989  41.90423
   Z58       47.28095   0.00563   0.00000   0.01202   0.01096  47.29191
   X59       38.81497  -0.02230   0.00000  -0.01661  -0.01880  38.79618
   Y59       36.54730   0.01100   0.00000   0.02742   0.02878  36.57609
   Z59       47.60220   0.00921   0.00000   0.01461   0.01481  47.61701
   X60       40.09999   0.01106   0.00000   0.00432   0.00188  40.10187
   Y60       35.98039  -0.00646   0.00000  -0.01283  -0.01121  35.96918
   Z60       48.71714   0.00773   0.00000   0.00604   0.00667  48.72381
   X61       39.57087   0.00898   0.00000   0.00634   0.00458  39.57545
   Y61       36.50951   0.00225   0.00000   0.01622   0.01736  36.52687
   Z61       45.95814  -0.01377   0.00000  -0.00439  -0.00399  45.95415
   X62       37.09532  -0.00233   0.00000   0.00196   0.00064  37.09596
   Y62       31.74740  -0.00525   0.00000  -0.01171  -0.01082  31.73658
   Z62       45.29674   0.01077   0.00000   0.02190   0.02245  45.31919
   X63       37.66224  -0.00139   0.00000  -0.01791  -0.01877  37.64347
   Y63       31.19938  -0.00104   0.00000   0.00188   0.00253  31.20191
   Z63       43.67157  -0.00617   0.00000  -0.00217  -0.00139  43.67018
   X64       37.13312  -0.00191   0.00000  -0.01075  -0.01215  37.12097
   Y64       33.56154   0.00480   0.00000  -0.00202  -0.00115  33.56039
   Z64       45.20225   0.00427   0.00000   0.02637   0.02663  45.22888
   X65       40.06219   0.01165   0.00000  -0.00196   0.00064  40.06283
   Y65       39.91102  -0.00382   0.00000  -0.01519  -0.01692  39.89409
   Z65       28.28920  -0.02121   0.00000  -0.04889  -0.04890  28.24030
   X66       39.28741  -0.00651   0.00000  -0.00399  -0.00159  39.28582
   Y66       38.62600  -0.00392   0.00000   0.00339   0.00178  38.62778
   Z66       29.29076   0.00789   0.00000   0.00421   0.00420  29.29495
   X67       39.34410   0.00005   0.00000   0.02622   0.02855  39.37265
   Y67       41.46059   0.00223   0.00000  -0.01391  -0.01557  41.44502
   Z67       28.87502   0.00960   0.00000   0.02538   0.02493  28.89995
   X68       30.95371  -0.02228   0.00000  -0.06365  -0.06503  30.88869
   Y68       42.23538   0.00296   0.00000  -0.03180  -0.03164  42.20374
   Z68       43.14245   0.01038   0.00000   0.00720   0.00445  43.14689
   X69       32.20093   0.00605   0.00000  -0.00910  -0.01054  32.19039
   Y69       41.04485  -0.00804   0.00000  -0.00376  -0.00343  41.04142
   Z69       43.67157   0.00235   0.00000   0.00650   0.00428  43.67585
   X70       31.06710   0.00766   0.00000   0.03046   0.02955  31.09665
   Y70       42.23538   0.00373   0.00000   0.02656   0.02645  42.26183
   Z70       41.34721  -0.01297   0.00000  -0.00692  -0.00963  41.33758
   X71       30.38680  -0.00706   0.00000  -0.01065  -0.00872  30.37807
   Y71       32.69226  -0.00015   0.00000   0.00049  -0.00112  32.69114
   Z71       32.50329  -0.00173   0.00000   0.00066  -0.00067  32.50262
   X72       32.16314   0.00521   0.00000  -0.00496  -0.00315  32.15999
   Y72       32.76785   0.00421   0.00000   0.02148   0.02005  32.78790
   Z72       32.90013   0.00533   0.00000   0.02218   0.02130  32.92143
   X73       29.91436   0.00025   0.00000   0.00125   0.00316  29.91753
   Y73       30.99151  -0.00129   0.00000  -0.00368  -0.00524  30.98627
   Z73       32.93793   0.00020   0.00000   0.00124   0.00007  32.93800
   X74       42.29207  -0.01815   0.00000  -0.02010  -0.02056  42.27151
   Y74       47.54551   0.02090   0.00000   0.02124   0.02130  47.56681
   Z74       38.36144  -0.00226   0.00000   0.00719   0.00648  38.36793
   X75       43.91724   0.02014   0.00000   0.01276   0.01232  43.92956
   Y75       46.78962  -0.00912   0.00000   0.00479   0.00496  46.79458
   Z75       38.45593  -0.00166   0.00000  -0.01666  -0.01681  38.43912
   X76       41.13934  -0.00343   0.00000   0.00088   0.00040  41.13973
   Y76       46.20380  -0.00986   0.00000  -0.01738  -0.01732  46.18648
   Z76       38.75828   0.00174   0.00000  -0.00004  -0.00081  38.75747
   X77       30.72695  -0.01279   0.00000  -0.00416  -0.00164  30.72531
   Y77       37.03863  -0.00056   0.00000  -0.01851  -0.02064  37.01800
   Z77       29.23406  -0.01859   0.00000  -0.05008  -0.05202  29.18204
   X78       32.37101   0.00856   0.00000  -0.02370  -0.02139  32.34961
   Y78       37.41658   0.00715   0.00000   0.03079   0.02888  37.44546
   Z78       29.87657   0.01304   0.00000   0.04027   0.03867  29.91524
   X79       30.33010  -0.00073   0.00000  -0.00612  -0.00370  30.32641
   Y79       35.41347  -0.00512   0.00000   0.00053  -0.00150  35.41197
   Z79       29.93326   0.00623   0.00000   0.01914   0.01736  29.95062
   X80       42.80230   0.01687   0.00000   0.02424   0.02597  42.82826
   Y80       44.95658   0.00989   0.00000   0.00929   0.00809  44.96467
   Z80       30.46239  -0.00811   0.00000  -0.02210  -0.02224  30.44015
   X81       42.70781  -0.00958   0.00000  -0.03028  -0.02874  42.67907
   Y81       43.48260  -0.00389   0.00000   0.01425   0.01321  43.49581
   Z81       31.52063   0.00471   0.00000   0.00412   0.00418  31.52482
   X82       41.10154  -0.00723   0.00000   0.00115   0.00299  41.10453
   Y82       45.24004  -0.00168   0.00000   0.00194   0.00054  45.24059
   Z82       29.93326   0.00107   0.00000   0.00646   0.00584  29.93910
   X83       47.03528   0.00493   0.00000   0.02468   0.02445  47.05973
   Y83       45.20225   0.00831   0.00000  -0.00858  -0.00829  45.19396
   Z83       38.00239   0.01131   0.00000   0.03314   0.03405  38.03645
   X84       48.39589  -0.00147   0.00000  -0.01241  -0.01237  48.38351
   Y84       45.65578  -0.00005   0.00000   0.00453   0.00470  45.66049
   Z84       36.88745  -0.00319   0.00000  -0.01042  -0.00924  36.87822
   X85       46.60065  -0.00287   0.00000  -0.00886  -0.00885  46.59179
   Y85       43.50150  -0.00869   0.00000  -0.00036  -0.00019  43.50130
   Z85       37.51106  -0.00887   0.00000  -0.02933  -0.02825  37.48281
   X86       47.54551   0.01099   0.00000   0.00382   0.00583  47.55134
   Y86       33.67492  -0.01984   0.00000  -0.03951  -0.04019  33.63473
   Z86       31.91747   0.00347   0.00000   0.02034   0.02327  31.94075
   X87       48.94391  -0.00031   0.00000   0.00869   0.01040  48.95431
   Y87       33.86389   0.00208   0.00000   0.00918   0.00877  33.87266
   Z87       33.07021  -0.00108   0.00000  -0.00063   0.00262  33.07283
   X88       46.54395  -0.00643   0.00000   0.00436   0.00623  46.55018
   Y88       35.16780   0.01218   0.00000   0.00099   0.00028  35.16809
   Z88       32.18204  -0.00222   0.00000  -0.02715  -0.02472  32.15731
   X89       26.56955  -0.01985   0.00000  -0.01799  -0.01752  26.55202
   Y89       42.91568   0.00853   0.00000   0.02374   0.02246  42.93814
   Z89       35.82921  -0.00683   0.00000   0.00619   0.00220  35.83140
   X90       25.71917   0.00021   0.00000   0.00441   0.00449  25.72367
   Y90       42.51884  -0.00143   0.00000  -0.00315  -0.00423  42.51461
   Z90       37.37878   0.00530   0.00000   0.01719   0.01305  37.39184
   X91       28.30810   0.01958   0.00000   0.01207   0.01247  28.32057
   Y91       42.57553  -0.00602   0.00000  -0.01249  -0.01362  42.56191
   Z91       36.16936   0.00103   0.00000  -0.01420  -0.01767  36.15169
   X92       35.88590  -0.00168   0.00000  -0.00743  -0.00460  35.88130
   Y92       31.08599   0.00870   0.00000  -0.01102  -0.01281  31.07318
   Z92       29.36634   0.01022   0.00000   0.00128   0.00163  29.36797
   X93       36.09377  -0.00561   0.00000  -0.03901  -0.03573  36.05804
   Y93       31.29386  -0.00063   0.00000  -0.00624  -0.00832  31.28555
   Z93       27.59000  -0.01495   0.00000  -0.02151  -0.02115  27.56886
   X94       35.86700   0.00033   0.00000   0.00030   0.00317  35.87017
   Y94       29.30965  -0.01831   0.00000  -0.03337  -0.03513  29.27453
   Z94       29.61201  -0.00049   0.00000  -0.00885  -0.00821  29.60380
   X95       31.97417   0.00819   0.00000   0.00508   0.00502  31.97918
   Y95       47.07308  -0.00178   0.00000   0.00885   0.00806  47.08114
   Z95       36.94415  -0.01176   0.00000  -0.01570  -0.01897  36.92517
   X96       32.25763   0.00100   0.00000   0.00115   0.00093  32.25855
   Y96       48.84942   0.00843   0.00000   0.01628   0.01554  48.86496
   Z96       37.11422   0.00340   0.00000   0.01740   0.01391  37.12813
   X97       30.65136  -0.00641   0.00000   0.00903   0.00868  30.66004
   Y97       46.71403  -0.00648   0.00000  -0.02326  -0.02392  46.69011
   Z97       38.11578   0.00836   0.00000   0.00872   0.00517  38.12095
         Item               Value     Threshold  Converged?
 Maximum Force            0.022659     0.000450     NO 
 RMS     Force            0.009329     0.000300     NO 
 Maximum Displacement     0.065027     0.001800     NO 
 RMS     Displacement     0.017539     0.001200     NO 
 Predicted change in Energy=-2.471250D-02
 GradGradGradGradGradGradGradGradGradGradGradGradGradGradGradGradGradGrad

 Leave Link  103 at Thu May  3 12:37:31 2018, MaxMem= 14763950080 cpu:        67.2
 (Enter /cm/shared/gaussian/g09.e01/intel64-sandybridge/g09/l9999.exe)
 1\1\GINC-POPLE03\Force\RPBE1PBE\CC-pVDZ\Br1H64O32(1-)\M.PELUSO\03-May-
 2018\0\\#p PBE1PBE/cc-pvDZ force Counterpoise=2 noSymm\\forces on chlo
 ride comput - NWATER: 32\\-1,1\Br,20.,20.,20.\O,21.5,19.06,22.68\H,21.
 5,18.1,22.72\H,20.87,19.27,21.99\O,19.06,17.03,21.15\H,19.32,17.92,20.
 92\H,18.11,17.02,21.07\O,21.21,22.08,17.65\H,21.1,21.31,18.21\H,20.47,
 22.65,17.88\O,20.75,22.83,21.05\H,19.96,22.82,20.5\H,21.22,22.04,20.8\
 O,18.55,20.4,16.92\H,19.13,19.76,16.51\H,18.66,20.25,17.86\O,18.64,17.
 37,18.36\H,19.42,17.49,18.89\H,18.95,16.89,17.58\O,18.,19.87,23.16\H,1
 8.47,20.08,22.36\H,17.47,19.11,22.94\O,21.42,16.99,18.79\H,21.76,17.64
 ,19.41\H,22.12,16.33,18.73\O,16.69,22.,19.49\H,17.54,22.17,19.09\H,16.
 84,21.25,20.06\O,16.63,19.08,20.52\H,16.88,18.57,19.75\H,15.67,19.08,2
 0.5\O,23.3,18.41,20.17\H,23.95,17.71,20.19\H,23.37,18.82,21.04\O,23.35
 ,19.76,16.93\H,22.94,19.76,16.07\H,22.73,19.29,17.49\O,19.16,23.55,18.
 86\H,18.45,23.95,19.36\H,19.32,24.17,18.15\O,24.22,21.43,19.05\H,23.71
 ,20.95,19.71\H,23.81,21.2,18.22\O,22.83,21.55,23.18\H,22.19,22.26,23.2
 7\H,22.3,20.77,23.03\O,20.57,18.53,15.99\H,20.24,17.85,15.41\H,20.9,18
 .05,16.75\O,21.82,16.38,22.01\H,22.28,15.62,21.67\H,21.07,16.49,21.42\
 O,18.66,23.84,22.32\H,18.81,23.15,22.97\H,19.49,23.89,21.84\O,19.03,22
 .17,24.36\H,18.92,21.24,24.15\H,19.72,22.18,25.02\O,20.54,19.34,25.19\
 H,21.22,19.04,25.78\H,20.94,19.32,24.32\O,19.63,16.8,23.97\H,19.93,16.
 51,23.11\H,19.65,17.76,23.92\O,21.2,21.12,14.97\H,20.79,20.44,15.5\H,2
 0.82,21.94,15.28\O,16.38,22.35,22.83\H,17.04,21.72,23.11\H,16.44,22.35
 ,21.88\O,16.08,17.3,17.2\H,17.02,17.34,17.41\H,15.83,16.4,17.43\O,22.3
 8,25.16,20.3\H,23.24,24.76,20.35\H,21.77,24.45,20.51\O,16.26,19.6,15.4
 7\H,17.13,19.8,15.81\H,16.05,18.74,15.84\O,22.65,23.79,16.12\H,22.6,23
 .01,16.68\H,21.75,23.94,15.84\O,24.89,23.92,20.11\H,25.61,24.16,19.52\
 H,24.66,23.02,19.85\O,25.16,17.82,16.89\H,25.9,17.92,17.5\H,24.63,18.6
 1,17.03\O,14.06,22.71,18.96\H,13.61,22.5,19.78\H,14.98,22.53,19.14\O,1
 8.99,16.45,15.54\H,19.1,16.56,14.6\H,18.98,15.51,15.67\O,16.92,24.91,1
 9.55\H,17.07,25.85,19.64\H,16.22,24.72,20.17\\Version=ES64L-G09RevE.01
 \HF=-2443.1991491\RMSD=4.447e-09\RMSF=9.329e-03\Dipole=1.01034,-7.9775
 507,-0.9392911\Quadrupole=267.6427066,-422.8057612,155.1630547,-1730.5
 615256,-1402.2535232,-1750.3344557\PG=C01 [X(Br1H64O32)]\\@


 THE DIFFICULTY IN SCIENCE IS OFTEN NOT SO MUCH HOW
 TO MAKE A DISCOVERY BUT RATHER TO KNOW ONE HAS MADE IT.

                                                   -- J. D. BERNAL
 Job cpu time:       0 days 13 hours 21 minutes 11.6 seconds.
 File lengths (MBytes):  RWF=    482 Int=      0 D2E=      0 Chk=    160 Scr=      1
 Normal termination of Gaussian 09 at Thu May  3 12:37:31 2018.
