 Entering Gaussian System, Link 0=/cm/shared/gaussian/g09.e01/intel64-sandybridge/g09/g09
 Initial command:
 /cm/shared/gaussian/g09.e01/intel64-sandybridge/g09/l1.exe "/local/scratch/m.peluso/32_wat/Gau-51944.inp" -scrdir="/local/scratch/m.peluso/32_wat/"
 Entering Link 1 = /cm/shared/gaussian/g09.e01/intel64-sandybridge/g09/l1.exe PID=     51945.
  
 Copyright (c) 1988,1990,1992,1993,1995,1998,2003,2009,2015,
            Gaussian, Inc.  All Rights Reserved.
  
 This is part of the Gaussian(R) 09 program.  It is based on
 the Gaussian(R) 03 system (copyright 2003, Gaussian, Inc.),
 the Gaussian(R) 98 system (copyright 1998, Gaussian, Inc.),
 the Gaussian(R) 94 system (copyright 1995, Gaussian, Inc.),
 the Gaussian 92(TM) system (copyright 1992, Gaussian, Inc.),
 the Gaussian 90(TM) system (copyright 1990, Gaussian, Inc.),
 the Gaussian 88(TM) system (copyright 1988, Gaussian, Inc.),
 the Gaussian 86(TM) system (copyright 1986, Carnegie Mellon
 University), and the Gaussian 82(TM) system (copyright 1983,
 Carnegie Mellon University). Gaussian is a federally registered
 trademark of Gaussian, Inc.
  
 This software contains proprietary and confidential information,
 including trade secrets, belonging to Gaussian, Inc.
  
 This software is provided under written license and may be
 used, copied, transmitted, or stored only in accord with that
 written license.
  
 The following legend is applicable only to US Government
 contracts under FAR:
  
                    RESTRICTED RIGHTS LEGEND
  
 Use, reproduction and disclosure by the US Government is
 subject to restrictions as set forth in subparagraphs (a)
 and (c) of the Commercial Computer Software - Restricted
 Rights clause in FAR 52.227-19.
  
 Gaussian, Inc.
 340 Quinnipiac St., Bldg. 40, Wallingford CT 06492
  
  
 ---------------------------------------------------------------
 Warning -- This program may not be used in any manner that
 competes with the business of Gaussian, Inc. or will provide
 assistance to any competitor of Gaussian, Inc.  The licensee
 of this program is prohibited from giving any competitor of
 Gaussian, Inc. access to this program.  By using this program,
 the user acknowledges that Gaussian, Inc. is engaged in the
 business of creating and licensing software in the field of
 computational chemistry and represents and warrants to the
 licensee that it is not a competitor of Gaussian, Inc. and that
 it will not use this program in any manner prohibited above.
 ---------------------------------------------------------------
  

 Cite this work as:
 Gaussian 09, Revision E.01,
 M. J. Frisch, G. W. Trucks, H. B. Schlegel, G. E. Scuseria, 
 M. A. Robb, J. R. Cheeseman, G. Scalmani, V. Barone, B. Mennucci, 
 G. A. Petersson, H. Nakatsuji, M. Caricato, X. Li, H. P. Hratchian, 
 A. F. Izmaylov, J. Bloino, G. Zheng, J. L. Sonnenberg, M. Hada, 
 M. Ehara, K. Toyota, R. Fukuda, J. Hasegawa, M. Ishida, T. Nakajima, 
 Y. Honda, O. Kitao, H. Nakai, T. Vreven, J. A. Montgomery, Jr., 
 J. E. Peralta, F. Ogliaro, M. Bearpark, J. J. Heyd, E. Brothers, 
 K. N. Kudin, V. N. Staroverov, T. Keith, R. Kobayashi, J. Normand, 
 K. Raghavachari, A. Rendell, J. C. Burant, S. S. Iyengar, J. Tomasi, 
 M. Cossi, N. Rega, J. M. Millam, M. Klene, J. E. Knox, J. B. Cross, 
 V. Bakken, C. Adamo, J. Jaramillo, R. Gomperts, R. E. Stratmann, 
 O. Yazyev, A. J. Austin, R. Cammi, C. Pomelli, J. W. Ochterski, 
 R. L. Martin, K. Morokuma, V. G. Zakrzewski, G. A. Voth, 
 P. Salvador, J. J. Dannenberg, S. Dapprich, A. D. Daniels, 
 O. Farkas, J. B. Foresman, J. V. Ortiz, J. Cioslowski, 
 and D. J. Fox, Gaussian, Inc., Wallingford CT, 2013.
 
 ******************************************
 Gaussian 09:  ES64L-G09RevE.01 30-Nov-2015
                 3-May-2018 
 ******************************************
 %Mem=110GB
 %NProcShared=64
 Will use up to   64 processors via shared memory.
 %chk=snap70.chk
 ----------------------------------------------
 #p PBE1PBE/cc-pvDZ force Counterpoise=2 noSymm
 ----------------------------------------------
 1/10=7,30=1,38=1,62=2/1,3;
 2/12=2,15=1,17=6,18=5,40=1/2;
 1/10=7,30=1,38=1,53=2,62=2,63=101/22;
 3/5=16,11=2,16=1,25=1,30=1,71=1,74=-13/1,2,3;
 4//1;
 5/5=2,38=5/2;
 6/7=2,8=2,9=2,10=2,28=1/1;
 7/7=1,29=1,30=1,33=-1/1,2,3,16;
 1/10=7,30=1,53=2,62=2,63=101/22;
 3/5=7,6=11,11=2,16=1,25=1,30=1,71=1,74=-13,82=7/1,2,3;
 4//1;
 5/5=2,38=5/2;
 6/7=2,8=2,9=2,10=2,28=1/1;
 7/7=1,29=1,30=1,33=-1/1,2,3,16;
 1/10=7,30=1,53=2,62=2,63=101/22(-5);
 7/9=1,29=1,44=-1/16;
 1/10=7,30=1,62=2/3;
 99//99;
 Leave Link    1 at Thu May  3 01:24:23 2018, MaxMem= 14763950080 cpu:         4.3
 (Enter /cm/shared/gaussian/g09.e01/intel64-sandybridge/g09/l101.exe)
 --------------------------------------
 forces on chloride comput - NWATER: 32
 --------------------------------------
 Symbolic Z-matrix:
 Charge = -1 Multiplicity = 1 in supermolecule
 Charge = -1 Multiplicity = 1 in fragment      1.
 Charge =  0 Multiplicity = 1 in fragment      2.
 Br(Fragment=1)        20.       20.       20. 
 O(Fragment=2)         17.42     21.67     18.83 
 H(Fragment=2)         17.56     22.6      18.95 
 H(Fragment=2)         18.24     21.26     19.12 
 O(Fragment=2)         19.5      16.8      20.62 
 H(Fragment=2)         19.6      17.67     20.24 
 H(Fragment=2)         19.35     16.23     19.87 
 O(Fragment=2)         22.72     18.05     20.12 
 H(Fragment=2)         21.98     18.64     19.96 
 H(Fragment=2)         22.56     17.69     20.99 
 O(Fragment=2)         19.37     23.08     21.28 
 H(Fragment=2)         19.6      22.3      20.77 
 H(Fragment=2)         19.85     22.97     22.11 
 O(Fragment=2)         18.02     19.77     22.74 
 H(Fragment=2)         18.49     20.03     21.94 
 H(Fragment=2)         17.64     18.92     22.52 
 O(Fragment=2)         19.4      19.99     16.63 
 H(Fragment=2)         19.49     19.77     17.56 
 H(Fragment=2)         19.83     20.84     16.55 
 O(Fragment=2)         16.       18.77     20.58 
 H(Fragment=2)         16.76     19.22     20.22 
 H(Fragment=2)         15.28     19.       19.99 
 O(Fragment=2)         21.37     20.04     24.05 
 H(Fragment=2)         21.09     20.31     23.18 
 H(Fragment=2)         21.03     19.15     24.15 
 O(Fragment=2)         22.22     22.97     18. 
 H(Fragment=2)         22.44     22.51     17.19 
 H(Fragment=2)         22.24     22.29     18.67 
 O(Fragment=2)         24.16     19.47     18.33 
 H(Fragment=2)         23.75     19.05     19.08 
 H(Fragment=2)         24.24     20.39     18.59 
 O(Fragment=2)         20.83     16.77     23. 
 H(Fragment=2)         20.31     16.7      22.2 
 H(Fragment=2)         20.25     16.45     23.69 
 O(Fragment=2)         18.86     24.29     18.89 
 H(Fragment=2)         19.17     23.94     19.72 
 H(Fragment=2)         18.49     25.14     19.1 
 O(Fragment=2)         22.32     18.33     16.41 
 H(Fragment=2)         22.88     17.87     15.78 
 H(Fragment=2)         22.93     18.87     16.92 
 O(Fragment=2)         20.12     23.42     16.3 
 H(Fragment=2)         19.36     23.96     16.53 
 H(Fragment=2)         20.63     23.36     17.11 
 O(Fragment=2)         22.76     24.25     21.12 
 H(Fragment=2)         23.71     24.38     21.16 
 H(Fragment=2)         22.62     23.75     20.32 
 O(Fragment=2)         19.08     17.42     15.21 
 H(Fragment=2)         19.78     16.84     15.52 
 H(Fragment=2)         19.34     18.28     15.53 
 O(Fragment=2)         17.14     22.65     24. 
 H(Fragment=2)         17.03     22.33     23.1 
 H(Fragment=2)         17.55     21.93     24.47 
 O(Fragment=2)         17.54     21.04     14.58 
 H(Fragment=2)         16.72     21.37     14.96 
 H(Fragment=2)         18.07     20.79     15.34 
 O(Fragment=2)         15.66     15.89     20.39 
 H(Fragment=2)         16.19     15.26     20.88 
 H(Fragment=2)         16.08     16.74     20.57 
 O(Fragment=2)         15.64     23.63     20.91 
 H(Fragment=2)         15.35     23.03     20.22 
 H(Fragment=2)         16.57     23.77     20.73 
 O(Fragment=2)         15.05     22.06     17.07 
 H(Fragment=2)         15.91     21.76     17.35 
 H(Fragment=2)         14.71     21.36     16.53 
 O(Fragment=2)         20.78     23.63     23.62 
 H(Fragment=2)         21.59     24.11     23.8 
 H(Fragment=2)         20.55     23.22     24.45 
 O(Fragment=2)         17.76     20.27     25.64 
 H(Fragment=2)         18.42     19.65     25.94 
 H(Fragment=2)         17.77     20.19     24.69 
 O(Fragment=2)         24.81     16.72     17.86 
 H(Fragment=2)         24.39     16.77     17. 
 H(Fragment=2)         24.4      17.43     18.37 
 O(Fragment=2)         23.8      22.22     24.43 
 H(Fragment=2)         23.3      21.58     23.92 
 H(Fragment=2)         23.29     22.34     25.23 
 O(Fragment=2)         18.08     16.09     23.93 
 H(Fragment=2)         17.41     15.44     24.13 
 H(Fragment=2)         18.35     15.89     23.03 
 O(Fragment=2)         20.78     19.74     13.77 
 H(Fragment=2)         20.89     19.53     14.7 
 H(Fragment=2)         20.42     18.94     13.38 
 O(Fragment=2)         20.29     25.74     21.71 
 H(Fragment=2)         20.01     24.95     22.18 
 H(Fragment=2)         21.23     25.61     21.57 
 O(Fragment=2)         14.94     19.31     23.37 
 H(Fragment=2)         14.4      20.03     23.07 
 H(Fragment=2)         15.33     18.95     22.57 
 O(Fragment=2)         23.57     21.54     16.15 
 H(Fragment=2)         24.46     21.19     16.1 
 H(Fragment=2)         23.42     21.95     15.3 
 O(Fragment=2)         21.77     21.49     26.16 
 H(Fragment=2)         21.42     21.31     25.29 
 H(Fragment=2)         21.55     20.71     26.68 
 O(Fragment=2)         21.86     14.32     19.21 
 H(Fragment=2)         22.32     14.85     19.85 
 H(Fragment=2)         22.5      14.19     18.5 
 
 NAtoms=     97 NQM=       97 NQMF=       0 NMMI=      0 NMMIF=      0
                NMic=       0 NMicF=      0.
                    Isotopes and Nuclear Properties:
 (Nuclear quadrupole moments (NQMom) in fm**2, nuclear magnetic moments (NMagM)
  in nuclear magnetons)

  Atom         1           2           3           4           5           6           7           8           9          10
 IAtWgt=          79          16           1           1          16           1           1          16           1           1
 AtmWgt=  78.9183361  15.9949146   1.0078250   1.0078250  15.9949146   1.0078250   1.0078250  15.9949146   1.0078250   1.0078250
 NucSpn=           3           0           1           1           0           1           1           0           1           1
 AtZEff=   0.0000000   0.0000000   0.0000000   0.0000000   0.0000000   0.0000000   0.0000000   0.0000000   0.0000000   0.0000000
 NQMom=   31.3000000   0.0000000   0.0000000   0.0000000   0.0000000   0.0000000   0.0000000   0.0000000   0.0000000   0.0000000
 NMagM=    2.1063990   0.0000000   2.7928460   2.7928460   0.0000000   2.7928460   2.7928460   0.0000000   2.7928460   2.7928460
 AtZNuc=  35.0000000   8.0000000   1.0000000   1.0000000   8.0000000   1.0000000   1.0000000   8.0000000   1.0000000   1.0000000

  Atom        11          12          13          14          15          16          17          18          19          20
 IAtWgt=          16           1           1          16           1           1          16           1           1          16
 AtmWgt=  15.9949146   1.0078250   1.0078250  15.9949146   1.0078250   1.0078250  15.9949146   1.0078250   1.0078250  15.9949146
 NucSpn=           0           1           1           0           1           1           0           1           1           0
 AtZEff=   0.0000000   0.0000000   0.0000000   0.0000000   0.0000000   0.0000000   0.0000000   0.0000000   0.0000000   0.0000000
 NQMom=    0.0000000   0.0000000   0.0000000   0.0000000   0.0000000   0.0000000   0.0000000   0.0000000   0.0000000   0.0000000
 NMagM=    0.0000000   2.7928460   2.7928460   0.0000000   2.7928460   2.7928460   0.0000000   2.7928460   2.7928460   0.0000000
 AtZNuc=   8.0000000   1.0000000   1.0000000   8.0000000   1.0000000   1.0000000   8.0000000   1.0000000   1.0000000   8.0000000

  Atom        21          22          23          24          25          26          27          28          29          30
 IAtWgt=           1           1          16           1           1          16           1           1          16           1
 AtmWgt=   1.0078250   1.0078250  15.9949146   1.0078250   1.0078250  15.9949146   1.0078250   1.0078250  15.9949146   1.0078250
 NucSpn=           1           1           0           1           1           0           1           1           0           1
 AtZEff=   0.0000000   0.0000000   0.0000000   0.0000000   0.0000000   0.0000000   0.0000000   0.0000000   0.0000000   0.0000000
 NQMom=    0.0000000   0.0000000   0.0000000   0.0000000   0.0000000   0.0000000   0.0000000   0.0000000   0.0000000   0.0000000
 NMagM=    2.7928460   2.7928460   0.0000000   2.7928460   2.7928460   0.0000000   2.7928460   2.7928460   0.0000000   2.7928460
 AtZNuc=   1.0000000   1.0000000   8.0000000   1.0000000   1.0000000   8.0000000   1.0000000   1.0000000   8.0000000   1.0000000

  Atom        31          32          33          34          35          36          37          38          39          40
 IAtWgt=           1          16           1           1          16           1           1          16           1           1
 AtmWgt=   1.0078250  15.9949146   1.0078250   1.0078250  15.9949146   1.0078250   1.0078250  15.9949146   1.0078250   1.0078250
 NucSpn=           1           0           1           1           0           1           1           0           1           1
 AtZEff=   0.0000000   0.0000000   0.0000000   0.0000000   0.0000000   0.0000000   0.0000000   0.0000000   0.0000000   0.0000000
 NQMom=    0.0000000   0.0000000   0.0000000   0.0000000   0.0000000   0.0000000   0.0000000   0.0000000   0.0000000   0.0000000
 NMagM=    2.7928460   0.0000000   2.7928460   2.7928460   0.0000000   2.7928460   2.7928460   0.0000000   2.7928460   2.7928460
 AtZNuc=   1.0000000   8.0000000   1.0000000   1.0000000   8.0000000   1.0000000   1.0000000   8.0000000   1.0000000   1.0000000

  Atom        41          42          43          44          45          46          47          48          49          50
 IAtWgt=          16           1           1          16           1           1          16           1           1          16
 AtmWgt=  15.9949146   1.0078250   1.0078250  15.9949146   1.0078250   1.0078250  15.9949146   1.0078250   1.0078250  15.9949146
 NucSpn=           0           1           1           0           1           1           0           1           1           0
 AtZEff=   0.0000000   0.0000000   0.0000000   0.0000000   0.0000000   0.0000000   0.0000000   0.0000000   0.0000000   0.0000000
 NQMom=    0.0000000   0.0000000   0.0000000   0.0000000   0.0000000   0.0000000   0.0000000   0.0000000   0.0000000   0.0000000
 NMagM=    0.0000000   2.7928460   2.7928460   0.0000000   2.7928460   2.7928460   0.0000000   2.7928460   2.7928460   0.0000000
 AtZNuc=   8.0000000   1.0000000   1.0000000   8.0000000   1.0000000   1.0000000   8.0000000   1.0000000   1.0000000   8.0000000

  Atom        51          52          53          54          55          56          57          58          59          60
 IAtWgt=           1           1          16           1           1          16           1           1          16           1
 AtmWgt=   1.0078250   1.0078250  15.9949146   1.0078250   1.0078250  15.9949146   1.0078250   1.0078250  15.9949146   1.0078250
 NucSpn=           1           1           0           1           1           0           1           1           0           1
 AtZEff=   0.0000000   0.0000000   0.0000000   0.0000000   0.0000000   0.0000000   0.0000000   0.0000000   0.0000000   0.0000000
 NQMom=    0.0000000   0.0000000   0.0000000   0.0000000   0.0000000   0.0000000   0.0000000   0.0000000   0.0000000   0.0000000
 NMagM=    2.7928460   2.7928460   0.0000000   2.7928460   2.7928460   0.0000000   2.7928460   2.7928460   0.0000000   2.7928460
 AtZNuc=   1.0000000   1.0000000   8.0000000   1.0000000   1.0000000   8.0000000   1.0000000   1.0000000   8.0000000   1.0000000

  Atom        61          62          63          64          65          66          67          68          69          70
 IAtWgt=           1          16           1           1          16           1           1          16           1           1
 AtmWgt=   1.0078250  15.9949146   1.0078250   1.0078250  15.9949146   1.0078250   1.0078250  15.9949146   1.0078250   1.0078250
 NucSpn=           1           0           1           1           0           1           1           0           1           1
 AtZEff=   0.0000000   0.0000000   0.0000000   0.0000000   0.0000000   0.0000000   0.0000000   0.0000000   0.0000000   0.0000000
 NQMom=    0.0000000   0.0000000   0.0000000   0.0000000   0.0000000   0.0000000   0.0000000   0.0000000   0.0000000   0.0000000
 NMagM=    2.7928460   0.0000000   2.7928460   2.7928460   0.0000000   2.7928460   2.7928460   0.0000000   2.7928460   2.7928460
 AtZNuc=   1.0000000   8.0000000   1.0000000   1.0000000   8.0000000   1.0000000   1.0000000   8.0000000   1.0000000   1.0000000

  Atom        71          72          73          74          75          76          77          78          79          80
 IAtWgt=          16           1           1          16           1           1          16           1           1          16
 AtmWgt=  15.9949146   1.0078250   1.0078250  15.9949146   1.0078250   1.0078250  15.9949146   1.0078250   1.0078250  15.9949146
 NucSpn=           0           1           1           0           1           1           0           1           1           0
 AtZEff=   0.0000000   0.0000000   0.0000000   0.0000000   0.0000000   0.0000000   0.0000000   0.0000000   0.0000000   0.0000000
 NQMom=    0.0000000   0.0000000   0.0000000   0.0000000   0.0000000   0.0000000   0.0000000   0.0000000   0.0000000   0.0000000
 NMagM=    0.0000000   2.7928460   2.7928460   0.0000000   2.7928460   2.7928460   0.0000000   2.7928460   2.7928460   0.0000000
 AtZNuc=   8.0000000   1.0000000   1.0000000   8.0000000   1.0000000   1.0000000   8.0000000   1.0000000   1.0000000   8.0000000

  Atom        81          82          83          84          85          86          87          88          89          90
 IAtWgt=           1           1          16           1           1          16           1           1          16           1
 AtmWgt=   1.0078250   1.0078250  15.9949146   1.0078250   1.0078250  15.9949146   1.0078250   1.0078250  15.9949146   1.0078250
 NucSpn=           1           1           0           1           1           0           1           1           0           1
 AtZEff=   0.0000000   0.0000000   0.0000000   0.0000000   0.0000000   0.0000000   0.0000000   0.0000000   0.0000000   0.0000000
 NQMom=    0.0000000   0.0000000   0.0000000   0.0000000   0.0000000   0.0000000   0.0000000   0.0000000   0.0000000   0.0000000
 NMagM=    2.7928460   2.7928460   0.0000000   2.7928460   2.7928460   0.0000000   2.7928460   2.7928460   0.0000000   2.7928460
 AtZNuc=   1.0000000   1.0000000   8.0000000   1.0000000   1.0000000   8.0000000   1.0000000   1.0000000   8.0000000   1.0000000

  Atom        91          92          93          94          95          96          97
 IAtWgt=           1          16           1           1          16           1           1
 AtmWgt=   1.0078250  15.9949146   1.0078250   1.0078250  15.9949146   1.0078250   1.0078250
 NucSpn=           1           0           1           1           0           1           1
 AtZEff=   0.0000000   0.0000000   0.0000000   0.0000000   0.0000000   0.0000000   0.0000000
 NQMom=    0.0000000   0.0000000   0.0000000   0.0000000   0.0000000   0.0000000   0.0000000
 NMagM=    2.7928460   0.0000000   2.7928460   2.7928460   0.0000000   2.7928460   2.7928460
 AtZNuc=   1.0000000   8.0000000   1.0000000   1.0000000   8.0000000   1.0000000   1.0000000
 Leave Link  101 at Thu May  3 01:24:23 2018, MaxMem= 14763950080 cpu:        12.6
 (Enter /cm/shared/gaussian/g09.e01/intel64-sandybridge/g09/l103.exe)

 GradGradGradGradGradGradGradGradGradGradGradGradGradGradGradGradGradGrad
 Berny optimization.
 Initialization pass.
 Trust Radius=3.00D-01 FncErr=1.00D-07 GrdErr=1.00D-07
 Number of steps in this run=      2 maximum allowed number of steps=      2.
 GradGradGradGradGradGradGradGradGradGradGradGradGradGradGradGradGradGrad

 Leave Link  103 at Thu May  3 01:24:23 2018, MaxMem= 14763950080 cpu:         1.6
 (Enter /cm/shared/gaussian/g09.e01/intel64-sandybridge/g09/l202.exe)
 Symmetry turned off by external request.
 Stoichiometry    BrH64O32(1-)
 Framework group  C1[X(BrH64O32)]
 Deg. of freedom   285
 Full point group                 C1      NOp   1
                          Input orientation:                          
 ---------------------------------------------------------------------
 Center     Atomic      Atomic             Coordinates (Angstroms)
 Number     Number       Type             X           Y           Z
 ---------------------------------------------------------------------
      1         35           0       20.000000   20.000000   20.000000
      2          8           0       17.420000   21.670000   18.830000
      3          1           0       17.560000   22.600000   18.950000
      4          1           0       18.240000   21.260000   19.120000
      5          8           0       19.500000   16.800000   20.620000
      6          1           0       19.600000   17.670000   20.240000
      7          1           0       19.350000   16.230000   19.870000
      8          8           0       22.720000   18.050000   20.120000
      9          1           0       21.980000   18.640000   19.960000
     10          1           0       22.560000   17.690000   20.990000
     11          8           0       19.370000   23.080000   21.280000
     12          1           0       19.600000   22.300000   20.770000
     13          1           0       19.850000   22.970000   22.110000
     14          8           0       18.020000   19.770000   22.740000
     15          1           0       18.490000   20.030000   21.940000
     16          1           0       17.640000   18.920000   22.520000
     17          8           0       19.400000   19.990000   16.630000
     18          1           0       19.490000   19.770000   17.560000
     19          1           0       19.830000   20.840000   16.550000
     20          8           0       16.000000   18.770000   20.580000
     21          1           0       16.760000   19.220000   20.220000
     22          1           0       15.280000   19.000000   19.990000
     23          8           0       21.370000   20.040000   24.050000
     24          1           0       21.090000   20.310000   23.180000
     25          1           0       21.030000   19.150000   24.150000
     26          8           0       22.220000   22.970000   18.000000
     27          1           0       22.440000   22.510000   17.190000
     28          1           0       22.240000   22.290000   18.670000
     29          8           0       24.160000   19.470000   18.330000
     30          1           0       23.750000   19.050000   19.080000
     31          1           0       24.240000   20.390000   18.590000
     32          8           0       20.830000   16.770000   23.000000
     33          1           0       20.310000   16.700000   22.200000
     34          1           0       20.250000   16.450000   23.690000
     35          8           0       18.860000   24.290000   18.890000
     36          1           0       19.170000   23.940000   19.720000
     37          1           0       18.490000   25.140000   19.100000
     38          8           0       22.320000   18.330000   16.410000
     39          1           0       22.880000   17.870000   15.780000
     40          1           0       22.930000   18.870000   16.920000
     41          8           0       20.120000   23.420000   16.300000
     42          1           0       19.360000   23.960000   16.530000
     43          1           0       20.630000   23.360000   17.110000
     44          8           0       22.760000   24.250000   21.120000
     45          1           0       23.710000   24.380000   21.160000
     46          1           0       22.620000   23.750000   20.320000
     47          8           0       19.080000   17.420000   15.210000
     48          1           0       19.780000   16.840000   15.520000
     49          1           0       19.340000   18.280000   15.530000
     50          8           0       17.140000   22.650000   24.000000
     51          1           0       17.030000   22.330000   23.100000
     52          1           0       17.550000   21.930000   24.470000
     53          8           0       17.540000   21.040000   14.580000
     54          1           0       16.720000   21.370000   14.960000
     55          1           0       18.070000   20.790000   15.340000
     56          8           0       15.660000   15.890000   20.390000
     57          1           0       16.190000   15.260000   20.880000
     58          1           0       16.080000   16.740000   20.570000
     59          8           0       15.640000   23.630000   20.910000
     60          1           0       15.350000   23.030000   20.220000
     61          1           0       16.570000   23.770000   20.730000
     62          8           0       15.050000   22.060000   17.070000
     63          1           0       15.910000   21.760000   17.350000
     64          1           0       14.710000   21.360000   16.530000
     65          8           0       20.780000   23.630000   23.620000
     66          1           0       21.590000   24.110000   23.800000
     67          1           0       20.550000   23.220000   24.450000
     68          8           0       17.760000   20.270000   25.640000
     69          1           0       18.420000   19.650000   25.940000
     70          1           0       17.770000   20.190000   24.690000
     71          8           0       24.810000   16.720000   17.860000
     72          1           0       24.390000   16.770000   17.000000
     73          1           0       24.400000   17.430000   18.370000
     74          8           0       23.800000   22.220000   24.430000
     75          1           0       23.300000   21.580000   23.920000
     76          1           0       23.290000   22.340000   25.230000
     77          8           0       18.080000   16.090000   23.930000
     78          1           0       17.410000   15.440000   24.130000
     79          1           0       18.350000   15.890000   23.030000
     80          8           0       20.780000   19.740000   13.770000
     81          1           0       20.890000   19.530000   14.700000
     82          1           0       20.420000   18.940000   13.380000
     83          8           0       20.290000   25.740000   21.710000
     84          1           0       20.010000   24.950000   22.180000
     85          1           0       21.230000   25.610000   21.570000
     86          8           0       14.940000   19.310000   23.370000
     87          1           0       14.400000   20.030000   23.070000
     88          1           0       15.330000   18.950000   22.570000
     89          8           0       23.570000   21.540000   16.150000
     90          1           0       24.460000   21.190000   16.100000
     91          1           0       23.420000   21.950000   15.300000
     92          8           0       21.770000   21.490000   26.160000
     93          1           0       21.420000   21.310000   25.290000
     94          1           0       21.550000   20.710000   26.680000
     95          8           0       21.860000   14.320000   19.210000
     96          1           0       22.320000   14.850000   19.850000
     97          1           0       22.500000   14.190000   18.500000
 ---------------------------------------------------------------------
 Rotational constants (GHZ):      0.0577656      0.0470726      0.0455594
 Leave Link  202 at Thu May  3 01:24:23 2018, MaxMem= 14763950080 cpu:         0.5
 (Enter /cm/shared/gaussian/g09.e01/intel64-sandybridge/g09/l122.exe)
 Counterpoise: doing full dimer calculation.
 Leave Link  122 at Thu May  3 01:24:23 2018, MaxMem= 14763950080 cpu:         0.0
 (Enter /cm/shared/gaussian/g09.e01/intel64-sandybridge/g09/l301.exe)
 Standard basis: CC-pVDZ (5D, 7F)
 Ernie: Thresh=  0.10000D-02 Tol=  0.10000D-05 Strict=F.
 Ernie:  87 primitive shells out of 1114 were deleted.
   795 basis functions,  1651 primitive gaussians,   829 cartesian basis functions
   178 alpha electrons      178 beta electrons
       nuclear repulsion energy      5877.2192117103 Hartrees.
 IExCor= 1009 DFT=T Ex+Corr=PBE1PBE ExCW=0 ScaHFX=  0.250000
 ScaDFX=  0.750000  0.750000  1.000000  1.000000 ScalE2=  1.000000  1.000000
 IRadAn=      0 IRanWt=     -1 IRanGd=            0 ICorTp=0 IEmpDi=  4
 NAtoms=   97 NActive=   97 NUniq=   97 SFac= 1.00D+00 NAtFMM=   60 NAOKFM=T Big=T
 Integral buffers will be    131072 words long.
 Raffenetti 2 integral format.
 Two-electron integral symmetry is turned off.
 Leave Link  301 at Thu May  3 01:24:23 2018, MaxMem= 14763950080 cpu:         4.3
 (Enter /cm/shared/gaussian/g09.e01/intel64-sandybridge/g09/l302.exe)
 NPDir=0 NMtPBC=     1 NCelOv=     1 NCel=       1 NClECP=     1 NCelD=      1
         NCelK=      1 NCelE2=     1 NClLst=     1 CellRange=     0.0.
 One-electron integrals computed using PRISM.
 NBasis=   795 RedAO= T EigKep=  1.76D-02  NBF=   795
 NBsUse=   795 1.00D-06 EigRej= -1.00D+00 NBFU=   795
 Precomputing XC quadrature grid using
 IXCGrd= 4 IRadAn=           0 IRanWt=          -1 IRanGd=           0 AccXCQ= 0.00D+00.
 Generated NRdTot=       0 NPtTot=           0 NUsed=           0 NTot=          32
 NSgBfM=   703   718   735   745   768 MxSgAt=    97 MxSgA2=    97.
 Leave Link  302 at Thu May  3 01:24:30 2018, MaxMem= 14763950080 cpu:       415.6
 (Enter /cm/shared/gaussian/g09.e01/intel64-sandybridge/g09/l303.exe)
 DipDrv:  MaxL=1.
 Leave Link  303 at Thu May  3 01:24:30 2018, MaxMem= 14763950080 cpu:        28.4
 (Enter /cm/shared/gaussian/g09.e01/intel64-sandybridge/g09/l401.exe)
 ExpMin= 1.22D-01 ExpMax= 6.40D+05 ExpMxC= 6.18D+03 IAcc=2 IRadAn=         4 AccDes= 0.00D+00
 Harris functional with IExCor= 1009 and IRadAn=       4 diagonalized for initial guess.
 HarFok:  IExCor= 1009 AccDes= 0.00D+00 IRadAn=         4 IDoV= 1 UseB2=F ITyADJ=14
 ICtDFT=  3500011 ScaDFX=  1.000000  1.000000  1.000000  1.000000
 FoFCou: FMM=F IPFlag=           0 FMFlag=      100000 FMFlg1=        2001
         NFxFlg=           0 DoJE=T BraDBF=F KetDBF=T FulRan=T
         wScrn=  0.000000 ICntrl=     500 IOpCl=  0 I1Cent=   200000004 NGrid=           0
         NMat0=    1 NMatS0=      1 NMatT0=    0 NMatD0=    1 NMtDS0=    0 NMtDT0=    0
 Symmetry not used in FoFCou.
 Harris En= -5018.41715170843    
 JPrj=0 DoOrth=F DoCkMO=F.
 Leave Link  401 at Thu May  3 01:24:35 2018, MaxMem= 14763950080 cpu:       301.0
 (Enter /cm/shared/gaussian/g09.e01/intel64-sandybridge/g09/l502.exe)
 Closed shell SCF:
 Using DIIS extrapolation, IDIIS=  1040.
 Two-electron integral symmetry not used.
 IVT=     2138497 IEndB=     2138497 NGot= 14763950080 MDV= 14762516294
 LenX= 14762516294 LenY= 14761828224
 Requested convergence on RMS density matrix=1.00D-08 within 128 cycles.
 Requested convergence on MAX density matrix=1.00D-06.
 Requested convergence on             energy=1.00D-06.
 No special actions if energy rises.
 Fock matrices will be formed incrementally for  20 cycles.
 Integral accuracy reduced to 1.0D-05 until final iterations.

 Cycle   1  Pass 0  IDiag  1:
 FoFJK:  IHMeth= 1 ICntrl=       0 DoSepK=F KAlg= 0 I1Cent=   0 FoldK=F
 IRaf= 780000000 NMat=   1 IRICut=       1 DoRegI=T DoRafI=F ISym2E= 0.
 FoFCou: FMM=T IPFlag=           0 FMFlag=      100000 FMFlg1=        2001
         NFxFlg=           0 DoJE=F BraDBF=F KetDBF=F FulRan=T
         wScrn=  0.000000 ICntrl=       0 IOpCl=  0 I1Cent=           0 NGrid=           0
         NMat0=    1 NMatS0=      1 NMatT0=    0 NMatD0=    1 NMtDS0=    0 NMtDT0=    0
 Symmetry not used in FoFCou.
 FMM levels:  10  Number of levels for PrismC:   9
 E= -5015.20874851408    
 DIIS: error= 3.74D-02 at cycle   1 NSaved=   1.
 NSaved= 1 IEnMin= 1 EnMin= -5015.20874851408     IErMin= 1 ErrMin= 3.74D-02
 ErrMax= 3.74D-02  0.00D+00 EMaxC= 1.00D-01 BMatC= 2.79D+00 BMatP= 2.79D+00
 IDIUse=3 WtCom= 6.26D-01 WtEn= 3.74D-01
 Coeff-Com:  0.100D+01
 Coeff-En:   0.100D+01
 Coeff:      0.100D+01
 Gap=     0.335 Goal=   None    Shift=    0.000
 GapD=    0.335 DampG=1.000 DampE=0.500 DampFc=0.5000 IDamp=-1.
 Damping current iteration by 5.00D-01
 RMSDP=2.87D-03 MaxDP=1.57D-01              OVMax= 1.78D-01

 Cycle   2  Pass 0  IDiag  1:
 RMSU=  1.42D-03    CP:  9.85D-01
 E= -5016.01540375850     Delta-E=       -0.806655244420 Rises=F Damp=T
 DIIS: error= 8.23D-03 at cycle   2 NSaved=   2.
 NSaved= 2 IEnMin= 2 EnMin= -5016.01540375850     IErMin= 2 ErrMin= 8.23D-03
 ErrMax= 8.23D-03  0.00D+00 EMaxC= 1.00D-01 BMatC= 9.26D-02 BMatP= 2.79D+00
 IDIUse=3 WtCom= 9.18D-01 WtEn= 8.23D-02
 Coeff-Com:  0.124D+00 0.876D+00
 Coeff-En:   0.222D+00 0.778D+00
 Coeff:      0.132D+00 0.868D+00
 Gap=     0.236 Goal=   None    Shift=    0.000
 RMSDP=3.49D-04 MaxDP=1.76D-02 DE=-8.07D-01 OVMax= 9.67D-02

 Cycle   3  Pass 0  IDiag  1:
 RMSU=  2.68D-04    CP:  9.87D-01  8.43D-01
 E= -5017.20911921907     Delta-E=       -1.193715460578 Rises=F Damp=F
 DIIS: error= 1.09D-03 at cycle   3 NSaved=   3.
 NSaved= 3 IEnMin= 3 EnMin= -5017.20911921907     IErMin= 3 ErrMin= 1.09D-03
 ErrMax= 1.09D-03  0.00D+00 EMaxC= 1.00D-01 BMatC= 1.04D-03 BMatP= 9.26D-02
 IDIUse=3 WtCom= 9.89D-01 WtEn= 1.09D-02
 Coeff-Com:  0.750D-02 0.407D-01 0.952D+00
 Coeff-En:   0.000D+00 0.000D+00 0.100D+01
 Coeff:      0.742D-02 0.403D-01 0.952D+00
 Gap=     0.242 Goal=   None    Shift=    0.000
 RMSDP=8.30D-05 MaxDP=1.46D-02 DE=-1.19D+00 OVMax= 1.73D-02

 Cycle   4  Pass 0  IDiag  1:
 RMSU=  7.41D-05    CP:  9.87D-01  8.44D-01  8.61D-01
 E= -5017.20956909936     Delta-E=       -0.000449880281 Rises=F Damp=F
 DIIS: error= 1.33D-03 at cycle   4 NSaved=   4.
 NSaved= 4 IEnMin= 4 EnMin= -5017.20956909936     IErMin= 3 ErrMin= 1.09D-03
 ErrMax= 1.33D-03  0.00D+00 EMaxC= 1.00D-01 BMatC= 8.58D-04 BMatP= 1.04D-03
 IDIUse=3 WtCom= 9.87D-01 WtEn= 1.33D-02
 Coeff-Com:  0.274D-02 0.569D-02 0.472D+00 0.520D+00
 Coeff-En:   0.000D+00 0.000D+00 0.371D+00 0.629D+00
 Coeff:      0.270D-02 0.562D-02 0.470D+00 0.521D+00
 Gap=     0.242 Goal=   None    Shift=    0.000
 RMSDP=3.62D-05 MaxDP=6.34D-03 DE=-4.50D-04 OVMax= 6.82D-03

 Cycle   5  Pass 0  IDiag  1:
 RMSU=  1.43D-05    CP:  9.87D-01  8.42D-01  9.16D-01  6.01D-01
 E= -5017.21033805414     Delta-E=       -0.000768954786 Rises=F Damp=F
 DIIS: error= 1.18D-04 at cycle   5 NSaved=   5.
 NSaved= 5 IEnMin= 5 EnMin= -5017.21033805414     IErMin= 5 ErrMin= 1.18D-04
 ErrMax= 1.18D-04  0.00D+00 EMaxC= 1.00D-01 BMatC= 3.44D-05 BMatP= 8.58D-04
 IDIUse=3 WtCom= 9.99D-01 WtEn= 1.18D-03
 Coeff-Com:  0.825D-03-0.219D-02 0.132D+00 0.203D+00 0.666D+00
 Coeff-En:   0.000D+00 0.000D+00 0.000D+00 0.000D+00 0.100D+01
 Coeff:      0.824D-03-0.218D-02 0.132D+00 0.203D+00 0.667D+00
 Gap=     0.242 Goal=   None    Shift=    0.000
 RMSDP=6.53D-06 MaxDP=7.56D-04 DE=-7.69D-04 OVMax= 7.56D-04

 Initial convergence to 1.0D-05 achieved.  Increase integral accuracy.
 Cycle   6  Pass 1  IDiag  1:
 E= -5017.21094761029     Delta-E=       -0.000609556153 Rises=F Damp=F
 DIIS: error= 1.15D-04 at cycle   1 NSaved=   1.
 NSaved= 1 IEnMin= 1 EnMin= -5017.21094761029     IErMin= 1 ErrMin= 1.15D-04
 ErrMax= 1.15D-04  0.00D+00 EMaxC= 1.00D-01 BMatC= 5.15D-06 BMatP= 5.15D-06
 IDIUse=3 WtCom= 9.99D-01 WtEn= 1.15D-03
 Coeff-Com:  0.100D+01
 Coeff-En:   0.100D+01
 Coeff:      0.100D+01
 Gap=     0.242 Goal=   None    Shift=    0.000
 RMSDP=6.53D-06 MaxDP=7.56D-04 DE=-6.10D-04 OVMax= 5.67D-04

 Cycle   7  Pass 1  IDiag  1:
 RMSU=  5.52D-06    CP:  1.00D+00
 E= -5017.21094746219     Delta-E=        0.000000148108 Rises=F Damp=F
 DIIS: error= 7.45D-05 at cycle   2 NSaved=   2.
 NSaved= 2 IEnMin= 1 EnMin= -5017.21094761029     IErMin= 2 ErrMin= 7.45D-05
 ErrMax= 7.45D-05  0.00D+00 EMaxC= 1.00D-01 BMatC= 6.00D-06 BMatP= 5.15D-06
 IDIUse=1 WtCom= 1.00D+00 WtEn= 0.00D+00
 Coeff-Com:  0.520D+00 0.480D+00
 Coeff:      0.520D+00 0.480D+00
 Gap=     0.242 Goal=   None    Shift=    0.000
 RMSDP=2.24D-06 MaxDP=2.92D-04 DE= 1.48D-07 OVMax= 2.92D-04

 Cycle   8  Pass 1  IDiag  1:
 RMSU=  1.60D-06    CP:  1.00D+00  7.15D-01
 E= -5017.21095177254     Delta-E=       -0.000004310350 Rises=F Damp=F
 DIIS: error= 1.31D-05 at cycle   3 NSaved=   3.
 NSaved= 3 IEnMin= 3 EnMin= -5017.21095177254     IErMin= 3 ErrMin= 1.31D-05
 ErrMax= 1.31D-05  0.00D+00 EMaxC= 1.00D-01 BMatC= 1.24D-07 BMatP= 5.15D-06
 IDIUse=1 WtCom= 1.00D+00 WtEn= 0.00D+00
 Coeff-Com:  0.103D+00 0.164D+00 0.732D+00
 Coeff:      0.103D+00 0.164D+00 0.732D+00
 Gap=     0.242 Goal=   None    Shift=    0.000
 RMSDP=4.80D-07 MaxDP=8.37D-05 DE=-4.31D-06 OVMax= 8.81D-05

 Cycle   9  Pass 1  IDiag  1:
 RMSU=  4.63D-07    CP:  1.00D+00  7.19D-01  9.22D-01
 E= -5017.21095185283     Delta-E=       -0.000000080290 Rises=F Damp=F
 DIIS: error= 9.35D-06 at cycle   4 NSaved=   4.
 NSaved= 4 IEnMin= 4 EnMin= -5017.21095185283     IErMin= 4 ErrMin= 9.35D-06
 ErrMax= 9.35D-06  0.00D+00 EMaxC= 1.00D-01 BMatC= 1.54D-08 BMatP= 1.24D-07
 IDIUse=1 WtCom= 1.00D+00 WtEn= 0.00D+00
 Coeff-Com: -0.398D-02 0.259D-01 0.322D+00 0.656D+00
 Coeff:     -0.398D-02 0.259D-01 0.322D+00 0.656D+00
 Gap=     0.242 Goal=   None    Shift=    0.000
 RMSDP=1.82D-07 MaxDP=3.89D-05 DE=-8.03D-08 OVMax= 4.07D-05

 Cycle  10  Pass 1  IDiag  1:
 RMSU=  3.94D-08    CP:  1.00D+00  7.31D-01  9.35D-01  6.48D-01
 E= -5017.21095186826     Delta-E=       -0.000000015432 Rises=F Damp=F
 DIIS: error= 3.41D-07 at cycle   5 NSaved=   5.
 NSaved= 5 IEnMin= 5 EnMin= -5017.21095186826     IErMin= 5 ErrMin= 3.41D-07
 ErrMax= 3.41D-07  0.00D+00 EMaxC= 1.00D-01 BMatC= 1.39D-10 BMatP= 1.54D-08
 IDIUse=1 WtCom= 1.00D+00 WtEn= 0.00D+00
 Coeff-Com: -0.238D-02 0.827D-02 0.115D+00 0.259D+00 0.620D+00
 Coeff:     -0.238D-02 0.827D-02 0.115D+00 0.259D+00 0.620D+00
 Gap=     0.242 Goal=   None    Shift=    0.000
 RMSDP=1.28D-08 MaxDP=1.47D-06 DE=-1.54D-08 OVMax= 1.38D-06

 Cycle  11  Pass 1  IDiag  1:
 RMSU=  1.14D-08    CP:  1.00D+00  7.31D-01  9.35D-01  6.58D-01  9.15D-01
 E= -5017.21095186840     Delta-E=       -0.000000000142 Rises=F Damp=F
 DIIS: error= 1.50D-07 at cycle   6 NSaved=   6.
 NSaved= 6 IEnMin= 6 EnMin= -5017.21095186840     IErMin= 6 ErrMin= 1.50D-07
 ErrMax= 1.50D-07  0.00D+00 EMaxC= 1.00D-01 BMatC= 1.98D-11 BMatP= 1.39D-10
 IDIUse=1 WtCom= 1.00D+00 WtEn= 0.00D+00
 Coeff-Com: -0.593D-03 0.619D-03 0.139D-01 0.423D-01 0.291D+00 0.653D+00
 Coeff:     -0.593D-03 0.619D-03 0.139D-01 0.423D-01 0.291D+00 0.653D+00
 Gap=     0.242 Goal=   None    Shift=    0.000
 RMSDP=5.00D-09 MaxDP=7.15D-07 DE=-1.42D-10 OVMax= 7.93D-07

 SCF Done:  E(RPBE1PBE) =  -5017.21095187     A.U. after   11 cycles
            NFock= 11  Conv=0.50D-08     -V/T= 2.0029
 KE= 5.002935097280D+03 PE=-2.371856861860D+04 EE= 7.821203357739D+03
 Leave Link  502 at Thu May  3 01:26:15 2018, MaxMem= 14763950080 cpu:      6311.7
 (Enter /cm/shared/gaussian/g09.e01/intel64-sandybridge/g09/l601.exe)
 Copying SCF densities to generalized density rwf, IOpCl= 0 IROHF=0.

 **********************************************************************

            Population analysis using the SCF density.

 **********************************************************************

 Alpha  occ. eigenvalues -- -483.17542 -62.57806 -56.35055 -56.35041 -56.35034
 Alpha  occ. eigenvalues --  -19.18008 -19.17611 -19.16763 -19.16719 -19.16467
 Alpha  occ. eigenvalues --  -19.16256 -19.16098 -19.15925 -19.15138 -19.14459
 Alpha  occ. eigenvalues --  -19.14037 -19.13606 -19.13602 -19.13389 -19.13273
 Alpha  occ. eigenvalues --  -19.13075 -19.12680 -19.12482 -19.12240 -19.12148
 Alpha  occ. eigenvalues --  -19.11996 -19.11543 -19.11105 -19.10813 -19.10790
 Alpha  occ. eigenvalues --  -19.10006 -19.09981 -19.09521 -19.08636 -19.07812
 Alpha  occ. eigenvalues --  -19.07803 -19.07691  -8.68078  -6.48446  -6.48367
 Alpha  occ. eigenvalues --   -6.48346  -2.56712  -2.56697  -2.56676  -2.56613
 Alpha  occ. eigenvalues --   -2.56611  -1.00607  -0.99848  -0.99667  -0.99404
 Alpha  occ. eigenvalues --   -0.99252  -0.99032  -0.98328  -0.98081  -0.97551
 Alpha  occ. eigenvalues --   -0.97144  -0.96298  -0.96092  -0.96053  -0.95939
 Alpha  occ. eigenvalues --   -0.95877  -0.95723  -0.95254  -0.95027  -0.94689
 Alpha  occ. eigenvalues --   -0.94465  -0.94437  -0.94222  -0.93963  -0.93250
 Alpha  occ. eigenvalues --   -0.93099  -0.92724  -0.92612  -0.91757  -0.90974
 Alpha  occ. eigenvalues --   -0.90271  -0.90202  -0.90143  -0.67290  -0.51699
 Alpha  occ. eigenvalues --   -0.50846  -0.50188  -0.49833  -0.49724  -0.49443
 Alpha  occ. eigenvalues --   -0.48700  -0.48647  -0.48432  -0.48061  -0.47412
 Alpha  occ. eigenvalues --   -0.47314  -0.46815  -0.46676  -0.46556  -0.46523
 Alpha  occ. eigenvalues --   -0.46354  -0.46021  -0.45408  -0.45297  -0.45055
 Alpha  occ. eigenvalues --   -0.45022  -0.44539  -0.44272  -0.43653  -0.43567
 Alpha  occ. eigenvalues --   -0.43361  -0.42438  -0.42118  -0.41053  -0.40815
 Alpha  occ. eigenvalues --   -0.40449  -0.37834  -0.37315  -0.37092  -0.36597
 Alpha  occ. eigenvalues --   -0.36485  -0.35719  -0.35158  -0.34814  -0.34236
 Alpha  occ. eigenvalues --   -0.33945  -0.33272  -0.32986  -0.32458  -0.32340
 Alpha  occ. eigenvalues --   -0.32248  -0.32118  -0.31989  -0.31122  -0.30948
 Alpha  occ. eigenvalues --   -0.30783  -0.30324  -0.29866  -0.29341  -0.29247
 Alpha  occ. eigenvalues --   -0.29171  -0.29029  -0.28857  -0.28585  -0.27976
 Alpha  occ. eigenvalues --   -0.27770  -0.27571  -0.27337  -0.27259  -0.27226
 Alpha  occ. eigenvalues --   -0.27218  -0.27160  -0.26834  -0.26720  -0.26355
 Alpha  occ. eigenvalues --   -0.25910  -0.25445  -0.24807  -0.24712  -0.24365
 Alpha  occ. eigenvalues --   -0.24303  -0.24231  -0.24064  -0.23954  -0.23894
 Alpha  occ. eigenvalues --   -0.23400  -0.23072  -0.22992  -0.22788  -0.22491
 Alpha  occ. eigenvalues --   -0.22281  -0.22030  -0.22001  -0.21738  -0.21673
 Alpha  occ. eigenvalues --   -0.21363  -0.20987  -0.20685  -0.20116  -0.19851
 Alpha  occ. eigenvalues --   -0.18710  -0.18552  -0.18509
 Alpha virt. eigenvalues --    0.05715   0.07388   0.08697   0.09744   0.10255
 Alpha virt. eigenvalues --    0.11090   0.11974   0.12673   0.13224   0.13570
 Alpha virt. eigenvalues --    0.13968   0.14462   0.14613   0.15822   0.16062
 Alpha virt. eigenvalues --    0.16365   0.17025   0.17473   0.17734   0.18251
 Alpha virt. eigenvalues --    0.18699   0.19019   0.19214   0.19850   0.20481
 Alpha virt. eigenvalues --    0.20779   0.21091   0.21475   0.21825   0.22508
 Alpha virt. eigenvalues --    0.22656   0.22719   0.22972   0.23127   0.24060
 Alpha virt. eigenvalues --    0.24364   0.24903   0.24989   0.25594   0.25901
 Alpha virt. eigenvalues --    0.26831   0.26846   0.27371   0.28023   0.28543
 Alpha virt. eigenvalues --    0.28601   0.29206   0.29942   0.30294   0.30616
 Alpha virt. eigenvalues --    0.30703   0.31036   0.31323   0.32320   0.32735
 Alpha virt. eigenvalues --    0.33384   0.33603   0.34063   0.34641   0.34968
 Alpha virt. eigenvalues --    0.35708   0.36067   0.37284   0.37826   0.57763
 Alpha virt. eigenvalues --    0.58800   0.59578   0.59833   0.60060   0.60693
 Alpha virt. eigenvalues --    0.61200   0.61518   0.62424   0.62509   0.63027
 Alpha virt. eigenvalues --    0.63379   0.63549   0.63615   0.63863   0.64294
 Alpha virt. eigenvalues --    0.64712   0.65058   0.65235   0.65431   0.65525
 Alpha virt. eigenvalues --    0.65854   0.66320   0.66634   0.66926   0.67257
 Alpha virt. eigenvalues --    0.67656   0.67735   0.68070   0.68126   0.68515
 Alpha virt. eigenvalues --    0.69139   0.69230   0.69659   0.70098   0.70660
 Alpha virt. eigenvalues --    0.70781   0.70940   0.71173   0.71665   0.72006
 Alpha virt. eigenvalues --    0.72053   0.72176   0.72955   0.72978   0.73203
 Alpha virt. eigenvalues --    0.73447   0.73774   0.74255   0.74305   0.74816
 Alpha virt. eigenvalues --    0.75260   0.75464   0.75681   0.76133   0.76528
 Alpha virt. eigenvalues --    0.76942   0.76987   0.77542   0.77966   0.79238
 Alpha virt. eigenvalues --    0.79752   0.79889   0.80609   0.81157   0.81386
 Alpha virt. eigenvalues --    0.81844   0.82794   0.84065   0.84640   0.86540
 Alpha virt. eigenvalues --    0.87325   0.90915   0.90991   0.92976   0.93558
 Alpha virt. eigenvalues --    0.94025   0.94694   0.95165   0.96075   0.97137
 Alpha virt. eigenvalues --    0.97281   0.97482   0.97623   0.97905   0.98437
 Alpha virt. eigenvalues --    0.98811   0.99209   0.99365   0.99671   0.99964
 Alpha virt. eigenvalues --    1.00212   1.00291   1.00693   1.01049   1.01146
 Alpha virt. eigenvalues --    1.01442   1.01566   1.01929   1.02142   1.02289
 Alpha virt. eigenvalues --    1.02656   1.03603   1.03768   1.04101   1.04321
 Alpha virt. eigenvalues --    1.04683   1.04766   1.05169   1.05292   1.05831
 Alpha virt. eigenvalues --    1.06008   1.06139   1.06371   1.06736   1.06985
 Alpha virt. eigenvalues --    1.07248   1.07664   1.07972   1.08224   1.08291
 Alpha virt. eigenvalues --    1.08514   1.08889   1.09052   1.09261   1.09601
 Alpha virt. eigenvalues --    1.09948   1.10181   1.10302   1.10501   1.10938
 Alpha virt. eigenvalues --    1.11259   1.11708   1.12303   1.12624   1.13103
 Alpha virt. eigenvalues --    1.13279   1.13492   1.13996   1.14108   1.14229
 Alpha virt. eigenvalues --    1.14709   1.15015   1.15189   1.15673   1.15727
 Alpha virt. eigenvalues --    1.16014   1.16529   1.16783   1.17034   1.17502
 Alpha virt. eigenvalues --    1.17856   1.18114   1.18368   1.18650   1.18962
 Alpha virt. eigenvalues --    1.19488   1.19512   1.20499   1.20988   1.21836
 Alpha virt. eigenvalues --    1.22714   1.23299   1.23527   1.23766   1.24305
 Alpha virt. eigenvalues --    1.25247   1.25968   1.26236   1.26900   1.27188
 Alpha virt. eigenvalues --    1.27460   1.27978   1.28111   1.28231   1.28311
 Alpha virt. eigenvalues --    1.28823   1.28906   1.29129   1.29224   1.29538
 Alpha virt. eigenvalues --    1.29724   1.29968   1.30217   1.30269   1.30911
 Alpha virt. eigenvalues --    1.31218   1.31242   1.31323   1.31557   1.31903
 Alpha virt. eigenvalues --    1.32074   1.32538   1.32968   1.33240   1.33427
 Alpha virt. eigenvalues --    1.34041   1.34174   1.34399   1.34498   1.34792
 Alpha virt. eigenvalues --    1.34953   1.35082   1.35263   1.35611   1.35987
 Alpha virt. eigenvalues --    1.36174   1.36425   1.37233   1.37286   1.37787
 Alpha virt. eigenvalues --    1.37880   1.38467   1.38720   1.38833   1.39173
 Alpha virt. eigenvalues --    1.39293   1.39772   1.40551   1.41150   1.41338
 Alpha virt. eigenvalues --    1.41630   1.41716   1.42271   1.43263   1.44272
 Alpha virt. eigenvalues --    1.44486   1.45398   1.46002   1.46701   1.47004
 Alpha virt. eigenvalues --    1.48061   1.49062   1.49672   1.50288   1.50394
 Alpha virt. eigenvalues --    1.50640   1.51046   1.51412   1.52075   1.52220
 Alpha virt. eigenvalues --    1.52327   1.52652   1.53291   1.53711   1.54063
 Alpha virt. eigenvalues --    1.54516   1.54602   1.54946   1.54997   1.55538
 Alpha virt. eigenvalues --    1.55705   1.55762   1.57004   1.57390   1.57742
 Alpha virt. eigenvalues --    1.58239   1.59493   1.59699   1.60225   1.60670
 Alpha virt. eigenvalues --    1.61686   1.62272   1.63443   1.65819   1.66477
 Alpha virt. eigenvalues --    1.67212   1.67622   1.67806   1.69352   1.70043
 Alpha virt. eigenvalues --    1.70775   1.71573   1.72113   1.72171   1.72588
 Alpha virt. eigenvalues --    1.72974   1.73554   1.73983   1.74235   1.74719
 Alpha virt. eigenvalues --    1.75019   1.75210   1.75470   1.75570   1.76030
 Alpha virt. eigenvalues --    1.76482   1.76854   1.77397   1.77558   1.77733
 Alpha virt. eigenvalues --    1.78135   1.78432   1.79188   1.79816   1.80039
 Alpha virt. eigenvalues --    1.80254   1.80535   1.81190   1.82377   1.83110
 Alpha virt. eigenvalues --    1.83444   1.83587   1.83980   1.84561   1.85045
 Alpha virt. eigenvalues --    1.85727   1.86456   1.86962   1.87262   1.87728
 Alpha virt. eigenvalues --    1.88275   1.88837   1.89564   1.90398   1.90833
 Alpha virt. eigenvalues --    1.91726   1.92465   1.92778   1.93559   1.93913
 Alpha virt. eigenvalues --    1.94482   1.94971   1.97151   1.98037   1.99037
 Alpha virt. eigenvalues --    2.00292   2.01734   2.04140   2.18039   2.18904
 Alpha virt. eigenvalues --    2.19267   2.19359   2.19560   2.20061   2.20084
 Alpha virt. eigenvalues --    2.20479   2.20649   2.21401   2.21711   2.21932
 Alpha virt. eigenvalues --    2.22030   2.22221   2.22626   2.22788   2.23369
 Alpha virt. eigenvalues --    2.23551   2.23917   2.24112   2.24419   2.24669
 Alpha virt. eigenvalues --    2.24745   2.24814   2.25193   2.25284   2.25328
 Alpha virt. eigenvalues --    2.25751   2.25818   2.25995   2.26204   2.26835
 Alpha virt. eigenvalues --    2.26925   2.26943   2.27064   2.27696   2.27813
 Alpha virt. eigenvalues --    2.28520   2.28743   2.29000   2.29222   2.29671
 Alpha virt. eigenvalues --    2.30263   2.30472   2.32676   2.33017   2.34178
 Alpha virt. eigenvalues --    2.34220   2.34328   2.35853   2.36518   2.38126
 Alpha virt. eigenvalues --    2.39258   2.40690   2.41523   2.42501   2.44641
 Alpha virt. eigenvalues --    2.45018   2.46993   2.47646   2.50640   2.51098
 Alpha virt. eigenvalues --    2.54161   2.54575   2.94900   2.95051   2.95778
 Alpha virt. eigenvalues --    2.96364   2.96662   2.97303   2.97753   2.98066
 Alpha virt. eigenvalues --    2.98641   2.99138   2.99386   2.99498   2.99642
 Alpha virt. eigenvalues --    2.99653   2.99762   3.00156   3.00299   3.00442
 Alpha virt. eigenvalues --    3.00503   3.00733   3.01071   3.01195   3.01259
 Alpha virt. eigenvalues --    3.01786   3.01862   3.02099   3.02206   3.02355
 Alpha virt. eigenvalues --    3.02415   3.02615   3.02705   3.02992   3.03325
 Alpha virt. eigenvalues --    3.03467   3.03690   3.04046   3.04323   3.04336
 Alpha virt. eigenvalues --    3.04497   3.05046   3.05083   3.05330   3.05616
 Alpha virt. eigenvalues --    3.05743   3.06011   3.06359   3.06636   3.06666
 Alpha virt. eigenvalues --    3.06892   3.07019   3.07046   3.07140   3.07457
 Alpha virt. eigenvalues --    3.07823   3.08321   3.08395   3.09264   3.09546
 Alpha virt. eigenvalues --    3.09562   3.09886   3.10037   3.11481   3.11734
 Alpha virt. eigenvalues --    3.12175   3.17443   3.18622   3.19535   3.19680
 Alpha virt. eigenvalues --    3.19762   3.20370   3.20585   3.21080   3.21157
 Alpha virt. eigenvalues --    3.21287   3.22200   3.22411   3.22850   3.23139
 Alpha virt. eigenvalues --    3.23309   3.23446   3.23827   3.23906   3.24125
 Alpha virt. eigenvalues --    3.24520   3.24707   3.24912   3.24942   3.25177
 Alpha virt. eigenvalues --    3.25809   3.25903   3.27307   3.27608   3.28432
 Alpha virt. eigenvalues --    3.29302   3.29961   3.30285   3.54047   3.54999
 Alpha virt. eigenvalues --    3.55822   3.56330   3.56398   3.56776   3.57336
 Alpha virt. eigenvalues --    3.57607   3.57879   3.58135   3.58352   3.58790
 Alpha virt. eigenvalues --    3.58930   3.59079   3.60081   3.60215   3.60842
 Alpha virt. eigenvalues --    3.60893   3.61001   3.61437   3.61575   3.61868
 Alpha virt. eigenvalues --    3.62341   3.62997   3.63756   3.64062   3.64399
 Alpha virt. eigenvalues --    3.65237   3.65335   3.66781   3.67304   3.69854
 Alpha virt. eigenvalues --    3.81437   3.82542   3.83320   3.83716   3.84001
 Alpha virt. eigenvalues --    3.84117   3.85364   3.85719   3.85981   3.86220
 Alpha virt. eigenvalues --    3.86375   3.86894   3.87599   3.87887   3.88213
 Alpha virt. eigenvalues --    3.88334   3.88652   3.88763   3.89506   3.90130
 Alpha virt. eigenvalues --    3.90420   3.90674   3.91154   3.91335   3.92265
 Alpha virt. eigenvalues --    3.92524   3.93101   3.93675   3.94364   3.96178
 Alpha virt. eigenvalues --    3.97802   3.98429
          Condensed to atoms (all electrons):
 Mulliken charges:
               1
     1  Br  -0.713391
     2  O   -0.285926
     3  H    0.110246
     4  H    0.138434
     5  O   -0.259759
     6  H    0.148960
     7  H    0.147990
     8  O   -0.263780
     9  H    0.151522
    10  H    0.148824
    11  O   -0.277198
    12  H    0.138070
    13  H    0.136371
    14  O   -0.260707
    15  H    0.134451
    16  H    0.135264
    17  O   -0.247680
    18  H    0.147194
    19  H    0.132338
    20  O   -0.238540
    21  H    0.141444
    22  H    0.163569
    23  O   -0.252263
    24  H    0.147097
    25  H    0.140398
    26  O   -0.268243
    27  H    0.149861
    28  H    0.127331
    29  O   -0.270166
    30  H    0.139707
    31  H    0.138831
    32  O   -0.315334
    33  H    0.135207
    34  H    0.129959
    35  O   -0.271910
    36  H    0.137014
    37  H    0.144112
    38  O   -0.275716
    39  H    0.124069
    40  H    0.122329
    41  O   -0.314089
    42  H    0.143837
    43  H    0.128672
    44  O   -0.246796
    45  H    0.138536
    46  H    0.129818
    47  O   -0.294476
    48  H    0.119779
    49  H    0.136135
    50  O   -0.293558
    51  H    0.120559
    52  H    0.119282
    53  O   -0.294987
    54  H    0.101773
    55  H    0.125760
    56  O   -0.296824
    57  H    0.118718
    58  H    0.121885
    59  O   -0.273458
    60  H    0.134390
    61  H    0.128793
    62  O   -0.281137
    63  H    0.127917
    64  H    0.127287
    65  O   -0.236854
    66  H    0.140256
    67  H    0.150809
    68  O   -0.266707
    69  H    0.119193
    70  H    0.125085
    71  O   -0.293562
    72  H    0.108587
    73  H    0.138357
    74  O   -0.303606
    75  H    0.123259
    76  H    0.134133
    77  O   -0.256436
    78  H    0.144640
    79  H    0.124518
    80  O   -0.294725
    81  H    0.122930
    82  H    0.128078
    83  O   -0.315825
    84  H    0.144398
    85  H    0.119345
    86  O   -0.280053
    87  H    0.126610
    88  H    0.121380
    89  O   -0.230840
    90  H    0.141840
    91  H    0.160600
    92  O   -0.290833
    93  H    0.125882
    94  H    0.138438
    95  O   -0.280448
    96  H    0.133958
    97  H    0.139808
 Sum of Mulliken charges =  -1.00000
 Mulliken charges with hydrogens summed into heavy atoms:
               1
     1  Br  -0.713391
     2  O   -0.037246
     5  O    0.037191
     8  O    0.036565
    11  O   -0.002757
    14  O    0.009008
    17  O    0.031852
    20  O    0.066472
    23  O    0.035232
    26  O    0.008948
    29  O    0.008371
    32  O   -0.050169
    35  O    0.009216
    38  O   -0.029318
    41  O   -0.041580
    44  O    0.021558
    47  O   -0.038562
    50  O   -0.053718
    53  O   -0.067454
    56  O   -0.056221
    59  O   -0.010275
    62  O   -0.025933
    65  O    0.054211
    68  O   -0.022429
    71  O   -0.046618
    74  O   -0.046214
    77  O    0.012721
    80  O   -0.043718
    83  O   -0.052082
    86  O   -0.032064
    89  O    0.071600
    92  O   -0.026514
    95  O   -0.006683
         Mulliken charges condensed to fragments:
      1     -0.713391
      2     -0.286609
 Electronic spatial extent (au):  <R**2>=        1570610.5357
 Charge=             -1.0000 electrons
 Dipole moment (field-independent basis, Debye):
    X=            -86.0106    Y=           -104.9687    Z=            -96.0204  Tot=            166.2413
 Quadrupole moment (field-independent basis, Debye-Ang):
   XX=          -1797.4266   YY=          -2566.0668   ZZ=          -2248.3916
   XY=          -1867.1228   XZ=          -1726.9300   YZ=          -2127.1597
 Traceless Quadrupole moment (field-independent basis, Debye-Ang):
   XX=            406.5351   YY=           -362.1052   ZZ=            -44.4300
   XY=          -1867.1228   XZ=          -1726.9300   YZ=          -2127.1597
 Octapole moment (field-independent basis, Debye-Ang**2):
  XXX=         -42830.0230  YYY=         -66869.7357  ZZZ=         -58043.1310  XYY=         -45918.9002
  XXY=         -38289.1675  XXZ=         -36513.1310  XZZ=         -40949.7531  YZZ=         -49966.9251
  YYZ=         -52505.3875  XYZ=         -38003.2952
 Hexadecapole moment (field-independent basis, Debye-Ang**3):
 XXXX=       -1107214.1341 YYYY=       -1793199.4713 ZZZZ=       -1568034.4333 XXXY=        -891152.8186
 XXXZ=        -881398.5010 YYYX=       -1210791.7640 YYYZ=       -1375889.2126 ZZZX=       -1071269.1099
 ZZZY=       -1284697.1871 XXYY=        -926674.4873 XXZZ=        -865706.9400 YYZZ=       -1221153.0478
 XXYZ=        -787267.5517 YYXZ=        -943164.9237 ZZXY=        -904433.6673
 N-N= 5.877219211710D+03 E-N=-2.371856856075D+04  KE= 5.002935097280D+03
 No NMR shielding tensors so no spin-rotation constants.
 Leave Link  601 at Thu May  3 01:26:17 2018, MaxMem= 14763950080 cpu:       131.8
 (Enter /cm/shared/gaussian/g09.e01/intel64-sandybridge/g09/l701.exe)
 Compute integral first derivatives.
 ... and contract with generalized density number  0.
 Leave Link  701 at Thu May  3 01:26:19 2018, MaxMem= 14763950080 cpu:       128.2
 (Enter /cm/shared/gaussian/g09.e01/intel64-sandybridge/g09/l702.exe)
 L702 exits ... SP integral derivatives will be done elsewhere.
 Leave Link  702 at Thu May  3 01:26:20 2018, MaxMem= 14763950080 cpu:         1.7
 (Enter /cm/shared/gaussian/g09.e01/intel64-sandybridge/g09/l703.exe)
 Compute integral first derivatives, UseDBF=F ICtDFT=           0.
 Integral derivatives from FoFJK, PRISM(SPDF).
 Calling FoFJK, ICntrl=      2127 FMM=T ISym2X=0 I1Cent= 0 IOpClX= 0 NMat=1 NMatS=1 NMatT=0.
 FoFJK:  IHMeth= 1 ICntrl=    2127 DoSepK=F KAlg= 0 I1Cent=   0 FoldK=F
 IRaf=         0 NMat=   1 IRICut=       1 DoRegI=T DoRafI=F ISym2E= 0.
 FoFCou: FMM=T IPFlag=           0 FMFlag=      100000 FMFlg1=        2001
         NFxFlg=           0 DoJE=F BraDBF=F KetDBF=F FulRan=T
         wScrn=  0.000000 ICntrl=    2127 IOpCl=  0 I1Cent=           0 NGrid=           0
         NMat0=    1 NMatS0=      1 NMatT0=    0 NMatD0=    1 NMtDS0=    0 NMtDT0=    0
 Symmetry not used in FoFCou.
 FMM levels:  10  Number of levels for PrismC:   9
 Leave Link  703 at Thu May  3 01:26:34 2018, MaxMem= 14763950080 cpu:       890.2
 (Enter /cm/shared/gaussian/g09.e01/intel64-sandybridge/g09/l716.exe)
 Dipole        =-3.38391692D+01-4.12978552D+01-3.77773544D+01
 Cartesian Forces:  Max     0.029565848 RMS     0.009008957
 Leave Link  716 at Thu May  3 01:26:34 2018, MaxMem= 14763950080 cpu:         3.5
 (Enter /cm/shared/gaussian/g09.e01/intel64-sandybridge/g09/l122.exe)
 CPIOFr:  IOpCl= 0 IRwI=-1 IRwCP=  731 ICalc= -1 LCPTot=     1005244 Len1MO=     2550559 IndFrg=     1005244
 CPIOFr:  IOpCl= 0 IRwI=-1 IRwCP=  731 ICalc=  0 LCPTot=     1005244 Len1MO=     2550559 IndFrg=     3555803
 Counterpoise: doing DCBS calculation for fragment   1 NewBq=T
 Leave Link  122 at Thu May  3 01:26:34 2018, MaxMem= 14763950080 cpu:         7.0
 (Enter /cm/shared/gaussian/g09.e01/intel64-sandybridge/g09/l301.exe)
 Basis read from rwf:  (5D, 7F)
 No pseudopotential information found on rwf file.
   795 basis functions,  1651 primitive gaussians,   829 cartesian basis functions
    18 alpha electrons       18 beta electrons
       nuclear repulsion energy         0.0000000000 Hartrees.
 IExCor= 1009 DFT=T Ex+Corr=PBE1PBE ExCW=0 ScaHFX=  0.250000
 ScaDFX=  0.750000  0.750000  1.000000  1.000000 ScalE2=  1.000000  1.000000
 IRadAn=      0 IRanWt=     -1 IRanGd=            0 ICorTp=0 IEmpDi=  4
 NAtoms=   97 NActive=   97 NUniq=   97 SFac= 1.00D+00 NAtFMM=   60 NAOKFM=T Big=T
 Integral buffers will be    131072 words long.
 Raffenetti 2 integral format.
 Two-electron integral symmetry is turned off.
 No density basis found on file   718.
 Leave Link  301 at Thu May  3 01:26:34 2018, MaxMem= 14763950080 cpu:         4.6
 (Enter /cm/shared/gaussian/g09.e01/intel64-sandybridge/g09/l302.exe)
 NPDir=0 NMtPBC=     1 NCelOv=     1 NCel=       1 NClECP=     1 NCelD=      1
         NCelK=      1 NCelE2=     1 NClLst=     1 CellRange=     0.0.
 One-electron integrals computed using PRISM.
 NBasis=   795 RedAO= T EigKep=  1.76D-02  NBF=   795
 NBsUse=   795 1.00D-06 EigRej= -1.00D+00 NBFU=   795
 Precomputing XC quadrature grid using
 IXCGrd= 4 IRadAn=           0 IRanWt=          -1 IRanGd=           0 AccXCQ= 0.00D+00.
 Generated NRdTot=       0 NPtTot=           0 NUsed=           0 NTot=          32
 NSgBfM=   703   718   735   745   768 MxSgAt=    97 MxSgA2=    97.
 Leave Link  302 at Thu May  3 01:26:38 2018, MaxMem= 14763950080 cpu:       243.1
 (Enter /cm/shared/gaussian/g09.e01/intel64-sandybridge/g09/l303.exe)
 DipDrv:  MaxL=1.
 Leave Link  303 at Thu May  3 01:26:38 2018, MaxMem= 14763950080 cpu:        27.8
 (Enter /cm/shared/gaussian/g09.e01/intel64-sandybridge/g09/l401.exe)
 ExpMin= 1.22D-01 ExpMax= 6.40D+05 ExpMxC= 6.18D+03 IAcc=2 IRadAn=         4 AccDes= 0.00D+00
 Harris functional with IExCor= 1009 and IRadAn=       4 diagonalized for initial guess.
 HarFok:  IExCor= 1009 AccDes= 0.00D+00 IRadAn=         4 IDoV= 1 UseB2=F ITyADJ=14
 ICtDFT=  3500011 ScaDFX=  1.000000  1.000000  1.000000  1.000000
 FoFCou: FMM=F IPFlag=           0 FMFlag=      100000 FMFlg1=        2001
         NFxFlg=           0 DoJE=T BraDBF=F KetDBF=T FulRan=T
         wScrn=  0.000000 ICntrl=     500 IOpCl=  0 I1Cent=   200000004 NGrid=           0
         NMat0=    1 NMatS0=      1 NMatT0=    0 NMatD0=    1 NMtDS0=    0 NMtDT0=    0
 Symmetry not used in FoFCou.
 Harris En= -2574.01955891375    
 JPrj=0 DoOrth=F DoCkMO=F.
 Leave Link  401 at Thu May  3 01:26:43 2018, MaxMem= 14763950080 cpu:       320.8
 (Enter /cm/shared/gaussian/g09.e01/intel64-sandybridge/g09/l502.exe)
 Closed shell SCF:
 Using DIIS extrapolation, IDIIS=  1040.
 Two-electron integral symmetry not used.
 IVT=     2138497 IEndB=     2138497 NGot= 14763950080 MDV= 14762516294
 LenX= 14762516294 LenY= 14761828224
 Requested convergence on RMS density matrix=1.00D-08 within 128 cycles.
 Requested convergence on MAX density matrix=1.00D-06.
 Requested convergence on             energy=1.00D-06.
 No special actions if energy rises.
 Fock matrices will be formed incrementally for  20 cycles.
 Integral accuracy reduced to 1.0D-05 until final iterations.

 Cycle   1  Pass 0  IDiag  1:
 FoFJK:  IHMeth= 1 ICntrl=       0 DoSepK=F KAlg= 0 I1Cent=   0 FoldK=F
 IRaf= 780000000 NMat=   1 IRICut=       1 DoRegI=T DoRafI=F ISym2E= 0.
 FoFCou: FMM=T IPFlag=           0 FMFlag=      100000 FMFlg1=        2001
         NFxFlg=           0 DoJE=F BraDBF=F KetDBF=F FulRan=T
         wScrn=  0.000000 ICntrl=       0 IOpCl=  0 I1Cent=           0 NGrid=           0
         NMat0=    1 NMatS0=      1 NMatT0=    0 NMatD0=    1 NMtDS0=    0 NMtDT0=    0
 Symmetry not used in FoFCou.
 FMM levels:  10  Number of levels for PrismC:   9
 E= -2573.87885256638    
 DIIS: error= 1.53D-02 at cycle   1 NSaved=   1.
 NSaved= 1 IEnMin= 1 EnMin= -2573.87885256638     IErMin= 1 ErrMin= 1.53D-02
 ErrMax= 1.53D-02  0.00D+00 EMaxC= 1.00D-01 BMatC= 3.78D-02 BMatP= 3.78D-02
 IDIUse=3 WtCom= 8.47D-01 WtEn= 1.53D-01
 Coeff-Com:  0.100D+01
 Coeff-En:   0.100D+01
 Coeff:      0.100D+01
 Gap=     0.184 Goal=   None    Shift=    0.000
 GapD=    0.184 DampG=1.000 DampE=0.500 DampFc=0.5000 IDamp=-1.
 Damping current iteration by 5.00D-01
 RMSDP=4.79D-04 MaxDP=6.77D-02              OVMax= 1.47D-01

 Cycle   2  Pass 0  IDiag  1:
 RMSU=  2.38D-04    CP:  9.95D-01
 E= -2573.89527505390     Delta-E=       -0.016422487514 Rises=F Damp=T
 DIIS: error= 9.38D-03 at cycle   2 NSaved=   2.
 NSaved= 2 IEnMin= 2 EnMin= -2573.89527505390     IErMin= 2 ErrMin= 9.38D-03
 ErrMax= 9.38D-03  0.00D+00 EMaxC= 1.00D-01 BMatC= 8.90D-03 BMatP= 3.78D-02
 IDIUse=3 WtCom= 9.06D-01 WtEn= 9.38D-02
 Coeff-Com: -0.582D+00 0.158D+01
 Coeff-En:   0.000D+00 0.100D+01
 Coeff:     -0.527D+00 0.153D+01
 Gap=     0.187 Goal=   None    Shift=    0.000
 RMSDP=1.62D-04 MaxDP=3.68D-02 DE=-1.64D-02 OVMax= 6.34D-02

 Cycle   3  Pass 0  IDiag  1:
 RMSU=  1.40D-04    CP:  9.95D-01  1.34D+00
 E= -2573.90865282544     Delta-E=       -0.013377771542 Rises=F Damp=F
 DIIS: error= 4.53D-03 at cycle   3 NSaved=   3.
 NSaved= 3 IEnMin= 3 EnMin= -2573.90865282544     IErMin= 3 ErrMin= 4.53D-03
 ErrMax= 4.53D-03  0.00D+00 EMaxC= 1.00D-01 BMatC= 2.21D-03 BMatP= 8.90D-03
 IDIUse=3 WtCom= 9.55D-01 WtEn= 4.53D-02
 Coeff-Com: -0.297D+00 0.703D+00 0.594D+00
 Coeff-En:   0.000D+00 0.000D+00 0.100D+01
 Coeff:     -0.284D+00 0.671D+00 0.612D+00
 Gap=     0.170 Goal=   None    Shift=    0.000
 RMSDP=6.92D-05 MaxDP=1.66D-02 DE=-1.34D-02 OVMax= 2.00D-02

 Cycle   4  Pass 0  IDiag  1:
 RMSU=  8.10D-06    CP:  9.93D-01  1.53D+00  6.35D-01
 E= -2573.91101617844     Delta-E=       -0.002363352999 Rises=F Damp=F
 DIIS: error= 2.03D-04 at cycle   4 NSaved=   4.
 NSaved= 4 IEnMin= 4 EnMin= -2573.91101617844     IErMin= 4 ErrMin= 2.03D-04
 ErrMax= 2.03D-04  0.00D+00 EMaxC= 1.00D-01 BMatC= 3.02D-06 BMatP= 2.21D-03
 IDIUse=3 WtCom= 9.98D-01 WtEn= 2.03D-03
 Coeff-Com: -0.126D-01 0.238D-01 0.505D-01 0.938D+00
 Coeff-En:   0.000D+00 0.000D+00 0.000D+00 0.100D+01
 Coeff:     -0.126D-01 0.238D-01 0.504D-01 0.938D+00
 Gap=     0.173 Goal=   None    Shift=    0.000
 RMSDP=2.75D-06 MaxDP=6.22D-04 DE=-2.36D-03 OVMax= 9.41D-04

 Initial convergence to 1.0D-05 achieved.  Increase integral accuracy.
 Cycle   5  Pass 1  IDiag  1:
 E= -2573.91178554813     Delta-E=       -0.000769369687 Rises=F Damp=F
 DIIS: error= 6.97D-06 at cycle   1 NSaved=   1.
 NSaved= 1 IEnMin= 1 EnMin= -2573.91178554813     IErMin= 1 ErrMin= 6.97D-06
 ErrMax= 6.97D-06  0.00D+00 EMaxC= 1.00D-01 BMatC= 5.28D-08 BMatP= 5.28D-08
 IDIUse=1 WtCom= 1.00D+00 WtEn= 0.00D+00
 Coeff-Com:  0.100D+01
 Coeff:      0.100D+01
 Gap=     0.173 Goal=   None    Shift=    0.000
 RMSDP=2.75D-06 MaxDP=6.22D-04 DE=-7.69D-04 OVMax= 2.32D-04

 Cycle   6  Pass 1  IDiag  1:
 RMSU=  9.28D-07    CP:  1.00D+00
 E= -2573.91178563618     Delta-E=       -0.000000088055 Rises=F Damp=F
 DIIS: error= 8.88D-06 at cycle   2 NSaved=   2.
 NSaved= 2 IEnMin= 2 EnMin= -2573.91178563618     IErMin= 1 ErrMin= 6.97D-06
 ErrMax= 8.88D-06  0.00D+00 EMaxC= 1.00D-01 BMatC= 1.52D-08 BMatP= 5.28D-08
 IDIUse=1 WtCom= 1.00D+00 WtEn= 0.00D+00
 Coeff-Com:  0.300D+00 0.700D+00
 Coeff:      0.300D+00 0.700D+00
 Gap=     0.173 Goal=   None    Shift=    0.000
 RMSDP=2.50D-07 MaxDP=5.63D-05 DE=-8.81D-08 OVMax= 7.75D-05

 Cycle   7  Pass 1  IDiag  1:
 RMSU=  2.41D-07    CP:  1.00D+00  9.32D-01
 E= -2573.91178565413     Delta-E=       -0.000000017952 Rises=F Damp=F
 DIIS: error= 3.72D-06 at cycle   3 NSaved=   3.
 NSaved= 3 IEnMin= 3 EnMin= -2573.91178565413     IErMin= 3 ErrMin= 3.72D-06
 ErrMax= 3.72D-06  0.00D+00 EMaxC= 1.00D-01 BMatC= 1.86D-09 BMatP= 1.52D-08
 IDIUse=1 WtCom= 1.00D+00 WtEn= 0.00D+00
 Coeff-Com: -0.266D-01 0.240D+00 0.786D+00
 Coeff:     -0.266D-01 0.240D+00 0.786D+00
 Gap=     0.173 Goal=   None    Shift=    0.000
 RMSDP=6.98D-08 MaxDP=1.76D-05 DE=-1.80D-08 OVMax= 2.23D-05

 Cycle   8  Pass 1  IDiag  1:
 RMSU=  2.50D-08    CP:  1.00D+00  9.86D-01  8.27D-01
 E= -2573.91178565637     Delta-E=       -0.000000002236 Rises=F Damp=F
 DIIS: error= 4.26D-07 at cycle   4 NSaved=   4.
 NSaved= 4 IEnMin= 4 EnMin= -2573.91178565637     IErMin= 4 ErrMin= 4.26D-07
 ErrMax= 4.26D-07  0.00D+00 EMaxC= 1.00D-01 BMatC= 3.29D-11 BMatP= 1.86D-09
 IDIUse=1 WtCom= 1.00D+00 WtEn= 0.00D+00
 Coeff-Com: -0.148D-01 0.741D-01 0.258D+00 0.683D+00
 Coeff:     -0.148D-01 0.741D-01 0.258D+00 0.683D+00
 Gap=     0.173 Goal=   None    Shift=    0.000
 RMSDP=9.61D-09 MaxDP=1.25D-06 DE=-2.24D-09 OVMax= 2.85D-06

 Cycle   9  Pass 1  IDiag  1:
 RMSU=  8.05D-09    CP:  1.00D+00  9.87D-01  8.34D-01  8.13D-01
 E= -2573.91178565640     Delta-E=       -0.000000000035 Rises=F Damp=F
 DIIS: error= 5.16D-08 at cycle   5 NSaved=   5.
 NSaved= 5 IEnMin= 5 EnMin= -2573.91178565640     IErMin= 5 ErrMin= 5.16D-08
 ErrMax= 5.16D-08  0.00D+00 EMaxC= 1.00D-01 BMatC= 9.48D-13 BMatP= 3.29D-11
 IDIUse=1 WtCom= 1.00D+00 WtEn= 0.00D+00
 Coeff-Com: -0.101D-03-0.332D-02-0.176D-01 0.107D+00 0.914D+00
 Coeff:     -0.101D-03-0.332D-02-0.176D-01 0.107D+00 0.914D+00
 Gap=     0.173 Goal=   None    Shift=    0.000
 RMSDP=2.02D-09 MaxDP=4.54D-07 DE=-3.46D-11 OVMax= 7.75D-07

 SCF Done:  E(RPBE1PBE) =  -2573.91178566     A.U. after    9 cycles
            NFock=  9  Conv=0.20D-08     -V/T= 2.0013
 KE= 2.570518319387D+03 PE=-6.162971851831D+03 EE= 1.018541746787D+03
 Leave Link  502 at Thu May  3 01:27:57 2018, MaxMem= 14763950080 cpu:      4664.5
 (Enter /cm/shared/gaussian/g09.e01/intel64-sandybridge/g09/l601.exe)
 Copying SCF densities to generalized density rwf, IOpCl= 0 IROHF=0.

 **********************************************************************

            Population analysis using the SCF density.

 **********************************************************************

 Alpha  occ. eigenvalues -- -482.98803 -62.38956 -56.16211 -56.16209 -56.16204
 Alpha  occ. eigenvalues --   -8.49095  -6.29408  -6.29403  -6.29387  -2.37676
 Alpha  occ. eigenvalues --   -2.37675  -2.37662  -2.37658  -2.37655  -0.47157
 Alpha  occ. eigenvalues --   -0.03027  -0.03023  -0.03009
 Alpha virt. eigenvalues --    0.14251   0.15495   0.16322   0.16661   0.17805
 Alpha virt. eigenvalues --    0.18618   0.18774   0.19219   0.19867   0.21185
 Alpha virt. eigenvalues --    0.21540   0.22201   0.22489   0.23120   0.23553
 Alpha virt. eigenvalues --    0.24141   0.24985   0.25794   0.26020   0.26115
 Alpha virt. eigenvalues --    0.26303   0.26496   0.27114   0.27826   0.28458
 Alpha virt. eigenvalues --    0.28546   0.29052   0.29276   0.29860   0.30362
 Alpha virt. eigenvalues --    0.30453   0.31509   0.32626   0.33281   0.34031
 Alpha virt. eigenvalues --    0.34522   0.35057   0.35630   0.35976   0.36469
 Alpha virt. eigenvalues --    0.36716   0.37274   0.37652   0.37831   0.38228
 Alpha virt. eigenvalues --    0.38813   0.38988   0.39827   0.39855   0.40483
 Alpha virt. eigenvalues --    0.40734   0.41763   0.42020   0.42428   0.42512
 Alpha virt. eigenvalues --    0.43768   0.44854   0.45436   0.45883   0.46958
 Alpha virt. eigenvalues --    0.47899   0.48086   0.49788   0.51732   0.60789
 Alpha virt. eigenvalues --    0.61882   0.62464   0.63127   0.63234   0.63312
 Alpha virt. eigenvalues --    0.63651   0.64469   0.64965   0.65303   0.65780
 Alpha virt. eigenvalues --    0.65947   0.66224   0.66873   0.67361   0.68041
 Alpha virt. eigenvalues --    0.68311   0.68770   0.69383   0.69812   0.70382
 Alpha virt. eigenvalues --    0.70583   0.71050   0.71887   0.72405   0.72933
 Alpha virt. eigenvalues --    0.73121   0.73457   0.73677   0.73835   0.74116
 Alpha virt. eigenvalues --    0.74736   0.74921   0.74990   0.75288   0.75854
 Alpha virt. eigenvalues --    0.76110   0.76184   0.76692   0.76759   0.77090
 Alpha virt. eigenvalues --    0.77533   0.77839   0.78069   0.78491   0.78832
 Alpha virt. eigenvalues --    0.79399   0.79608   0.79786   0.80006   0.80162
 Alpha virt. eigenvalues --    0.80611   0.80748   0.81070   0.81402   0.81510
 Alpha virt. eigenvalues --    0.81860   0.82065   0.82776   0.82905   0.83378
 Alpha virt. eigenvalues --    0.83587   0.83783   0.84186   0.84361   0.84995
 Alpha virt. eigenvalues --    0.85625   0.85906   0.86152   0.86268   0.86715
 Alpha virt. eigenvalues --    0.86774   0.87749   0.88596   0.89314   0.89409
 Alpha virt. eigenvalues --    0.89771   0.90024   0.90233   0.90539   0.90890
 Alpha virt. eigenvalues --    0.91435   0.91771   0.92235   0.92661   0.92910
 Alpha virt. eigenvalues --    0.93596   0.93898   0.94090   0.94306   0.94674
 Alpha virt. eigenvalues --    0.94937   0.95301   0.95964   0.96416   0.96775
 Alpha virt. eigenvalues --    0.97431   0.98386   0.98573   0.98904   0.99426
 Alpha virt. eigenvalues --    0.99945   1.00565   1.00821   1.00915   1.01181
 Alpha virt. eigenvalues --    1.01714   1.02775   1.03161   1.03785   1.04137
 Alpha virt. eigenvalues --    1.04799   1.05056   1.06164   1.06625   1.07210
 Alpha virt. eigenvalues --    1.07887   1.08331   1.08569   1.09174   1.09492
 Alpha virt. eigenvalues --    1.10449   1.10849   1.11316   1.11596   1.12419
 Alpha virt. eigenvalues --    1.12851   1.13500   1.14569   1.15360   1.15736
 Alpha virt. eigenvalues --    1.16922   1.19208   1.20841   1.21727   1.23077
 Alpha virt. eigenvalues --    1.25983   1.65581   1.66305   1.67213   1.67450
 Alpha virt. eigenvalues --    1.68927   1.69010   1.70084   1.70331   1.70653
 Alpha virt. eigenvalues --    1.70880   1.71040   1.71269   1.71461   1.71560
 Alpha virt. eigenvalues --    1.72028   1.72434   1.72751   1.73204   1.73469
 Alpha virt. eigenvalues --    1.73687   1.74102   1.74208   1.74703   1.75036
 Alpha virt. eigenvalues --    1.75352   1.75581   1.75687   1.76019   1.76567
 Alpha virt. eigenvalues --    1.76719   1.77146   1.77221   1.77675   1.78049
 Alpha virt. eigenvalues --    1.78580   1.78709   1.78953   1.79570   1.79736
 Alpha virt. eigenvalues --    1.80164   1.80481   1.80665   1.80859   1.81191
 Alpha virt. eigenvalues --    1.81786   1.82350   1.82723   1.83359   1.83755
 Alpha virt. eigenvalues --    1.84134   1.84928   1.85621   1.86104   1.86616
 Alpha virt. eigenvalues --    1.86989   1.87082   1.87554   1.88657   1.89225
 Alpha virt. eigenvalues --    1.89502   1.91323   1.92041   1.93317   1.95705
 Alpha virt. eigenvalues --    1.97953   1.98735   1.99204   1.99510   1.99711
 Alpha virt. eigenvalues --    2.00231   2.00523   2.00723   2.00864   2.01080
 Alpha virt. eigenvalues --    2.01368   2.01504   2.01523   2.01814   2.02118
 Alpha virt. eigenvalues --    2.02256   2.02400   2.02638   2.02862   2.03016
 Alpha virt. eigenvalues --    2.03430   2.03630   2.03805   2.03971   2.04098
 Alpha virt. eigenvalues --    2.04438   2.04621   2.04890   2.04984   2.05347
 Alpha virt. eigenvalues --    2.05608   2.05697   2.06265   2.06433   2.06890
 Alpha virt. eigenvalues --    2.07033   2.07511   2.07865   2.08308   2.08551
 Alpha virt. eigenvalues --    2.08964   2.10019   2.10164   2.10897   2.11121
 Alpha virt. eigenvalues --    2.11452   2.11832   2.12425   2.12789   2.12964
 Alpha virt. eigenvalues --    2.13329   2.14065   2.14242   2.14471   2.14816
 Alpha virt. eigenvalues --    2.15149   2.16172   2.16373   2.16599   2.16899
 Alpha virt. eigenvalues --    2.17330   2.17388   2.17924   2.18180   2.18570
 Alpha virt. eigenvalues --    2.18898   2.19305   2.19526   2.19740   2.20190
 Alpha virt. eigenvalues --    2.20352   2.20859   2.21227   2.21665   2.22057
 Alpha virt. eigenvalues --    2.22474   2.23275   2.23334   2.23716   2.23852
 Alpha virt. eigenvalues --    2.24551   2.25210   2.25923   2.26218   2.26989
 Alpha virt. eigenvalues --    2.27099   2.27734   2.27834   2.28721   2.30160
 Alpha virt. eigenvalues --    2.30538   2.31257   2.32580   2.33746   2.34829
 Alpha virt. eigenvalues --    2.35815   2.37916   2.40082   2.40582   2.40739
 Alpha virt. eigenvalues --    2.41484   2.41611   2.41703   2.42176   2.42885
 Alpha virt. eigenvalues --    2.42989   2.43265   2.43784   2.44068   2.44107
 Alpha virt. eigenvalues --    2.45369   2.45816   2.46017   2.46164   2.46888
 Alpha virt. eigenvalues --    2.47425   2.48271   2.48708   2.49643   2.50226
 Alpha virt. eigenvalues --    2.50751   2.52118   2.52359   2.52777   2.52956
 Alpha virt. eigenvalues --    2.53737   2.54780   2.58476   2.68257   2.68435
 Alpha virt. eigenvalues --    2.68688   2.68943   2.69463   2.69588   2.69971
 Alpha virt. eigenvalues --    2.70317   2.70468   2.70795   2.71140   2.71407
 Alpha virt. eigenvalues --    2.71706   2.72138   2.73024   2.73351   2.74027
 Alpha virt. eigenvalues --    2.74116   2.74612   2.74866   2.75621   2.77006
 Alpha virt. eigenvalues --    2.77586   2.80067   2.80757   2.81306   2.81920
 Alpha virt. eigenvalues --    2.81950   2.83085   2.83454   2.83915   2.84563
 Alpha virt. eigenvalues --    2.84836   2.85317   2.85699   2.85903   2.86085
 Alpha virt. eigenvalues --    2.86254   2.86637   2.87104   2.87419   2.87728
 Alpha virt. eigenvalues --    2.88619   2.89198   2.89339   2.89713   2.90411
 Alpha virt. eigenvalues --    2.90793   2.91367   2.91843   2.93097   2.93286
 Alpha virt. eigenvalues --    2.93634   2.94159   2.95942   2.96246   2.96935
 Alpha virt. eigenvalues --    2.97751   2.99038   3.00589   3.02622   3.03188
 Alpha virt. eigenvalues --    3.04145   3.05043   3.12394   3.14515   3.14686
 Alpha virt. eigenvalues --    3.15329   3.16106   3.16424   3.16909   3.17368
 Alpha virt. eigenvalues --    3.17920   3.18625   3.19335   3.21773   3.22441
 Alpha virt. eigenvalues --    3.22729   3.23668   3.25856   3.27264   3.29048
 Alpha virt. eigenvalues --    3.29660   3.31076   3.31461   3.32947   3.35136
 Alpha virt. eigenvalues --    3.37835   3.41495   3.43507   3.44107   3.45310
 Alpha virt. eigenvalues --    3.49205   3.52811   3.53206   3.57031   4.50309
 Alpha virt. eigenvalues --    4.51545   4.51696   4.52108   4.52180   4.52235
 Alpha virt. eigenvalues --    4.52383   4.52447   4.52454   4.52633   4.52702
 Alpha virt. eigenvalues --    4.52772   4.52929   4.52931   4.53061   4.53247
 Alpha virt. eigenvalues --    4.53396   4.53421   4.53643   4.53731   4.54362
 Alpha virt. eigenvalues --    4.54489   4.54643   4.54761   4.55316   4.55376
 Alpha virt. eigenvalues --    4.55707   4.56053   4.56252   4.56362   4.56916
 Alpha virt. eigenvalues --    4.57121   4.59578   4.59829   4.59857   4.60081
 Alpha virt. eigenvalues --    4.60141   4.60293   4.60384   4.60425   4.60444
 Alpha virt. eigenvalues --    4.60454   4.60520   4.60685   4.61268   4.61384
 Alpha virt. eigenvalues --    4.61455   4.61473   4.61900   4.62099   4.62110
 Alpha virt. eigenvalues --    4.62190   4.62413   4.62580   4.63092   4.63147
 Alpha virt. eigenvalues --    4.63246   4.63345   4.63559   4.64365   4.64487
 Alpha virt. eigenvalues --    4.65203   4.65727   4.66518   4.74273   4.74573
 Alpha virt. eigenvalues --    4.74946   4.75218   4.75606   4.75656   4.75865
 Alpha virt. eigenvalues --    4.75993   4.76060   4.76339   4.76555   4.76675
 Alpha virt. eigenvalues --    4.76833   4.77137   4.77745   4.78738   4.78822
 Alpha virt. eigenvalues --    4.79095   4.79212   4.79654   4.80204   4.81533
 Alpha virt. eigenvalues --    4.81942   4.82096   4.82364   4.83338   4.83700
 Alpha virt. eigenvalues --    4.83843   4.83965   4.84244   4.84342   4.84969
 Alpha virt. eigenvalues --    4.86447   4.87049   4.87088   4.87226   4.87421
 Alpha virt. eigenvalues --    4.87577   4.87829   4.88023   4.88067   4.88213
 Alpha virt. eigenvalues --    4.88305   4.88372   4.88728   4.88898   4.90448
 Alpha virt. eigenvalues --    4.90873   4.91106   4.91935   4.92073   4.92532
 Alpha virt. eigenvalues --    4.93153   4.94000   4.94241   4.95101   4.96291
 Alpha virt. eigenvalues --    4.96744   4.97667   4.98270   4.98838   4.99525
 Alpha virt. eigenvalues --    5.01528   5.02907   5.03805   5.03929   5.04070
 Alpha virt. eigenvalues --    5.04897   5.05381   5.05923   5.06463   5.06626
 Alpha virt. eigenvalues --    5.06775   5.07565   5.08210   5.08604   5.09753
 Alpha virt. eigenvalues --    5.10050   5.10798   5.11755   5.12699   5.13109
 Alpha virt. eigenvalues --    5.13271   5.13543   5.14814   5.16066   5.17003
 Alpha virt. eigenvalues --    5.17505   5.18297   5.20243   5.21251   5.21851
 Alpha virt. eigenvalues --    5.23362   5.23680   5.25442   5.29268   5.36188
 Alpha virt. eigenvalues --    5.36541   5.36667   5.37053   5.38045   5.38715
[...]
   Z20       38.89056   0.01253   0.00000   0.00707   0.00759  38.89815
   X21       31.67181   0.01034   0.00000   0.00598   0.00555  31.67736
   Y21       36.32054   0.01118   0.00000   0.02811   0.02668  36.34722
   Z21       38.21026  -0.00610   0.00000  -0.00080  -0.00056  38.20971
   X22       28.87502  -0.00430   0.00000   0.00082   0.00049  28.87551
   Y22       35.90480   0.00196   0.00000  -0.00220  -0.00443  35.90037
   Z22       37.77563  -0.00485   0.00000   0.00195   0.00237  37.77799
   X23       40.38345   0.00748   0.00000   0.00299   0.00230  40.38575
   Y23       37.87011   0.00698   0.00000  -0.00354  -0.00083  37.86929
   Z23       45.44791   0.00569   0.00000  -0.02200  -0.02231  45.42561
   X24       39.85432  -0.00792   0.00000  -0.02609  -0.02692  39.82740
   Y24       38.38034  -0.00023   0.00000  -0.01158  -0.00946  38.37088
   Z24       43.80385  -0.01469   0.00000  -0.03377  -0.03421  43.76964
   X25       39.74094  -0.00372   0.00000   0.00043   0.00016  39.74110
   Y25       36.18826  -0.01140   0.00000  -0.02071  -0.01810  36.17016
   Z25       45.63689  -0.00538   0.00000  -0.03023  -0.03006  45.60683
   X26       41.98971  -0.00582   0.00000  -0.00241  -0.00463  41.98508
   Y26       43.40701   0.01989   0.00000   0.01669   0.01662  43.42363
   Z26       34.01507   0.01462   0.00000   0.03736   0.03547  34.05054
   X27       42.40545   0.01220   0.00000   0.05166   0.04963  42.45508
   Y27       42.53774  -0.00955   0.00000   0.00363   0.00324  42.54098
   Z27       32.48439  -0.00761   0.00000   0.02630   0.02465  32.50904
   X28       42.02751  -0.00432   0.00000  -0.03002  -0.03190  41.99561
   Y28       42.12200  -0.01265   0.00000  -0.03421  -0.03393  42.08806
   Z28       35.28119   0.00338   0.00000   0.00417   0.00266  35.28384
   X29       45.65578   0.00949   0.00000  -0.00594  -0.00653  45.64925
   Y29       36.79297   0.01045   0.00000   0.01257   0.01356  36.80652
   Z29       34.63868  -0.02357   0.00000  -0.01540  -0.01549  34.62319
   X30       44.88100  -0.01130   0.00000  -0.00341  -0.00379  44.87720
   Y30       35.99928  -0.01118   0.00000  -0.00540  -0.00420  35.99508
   Z30       36.05597   0.02493   0.00000   0.03095   0.03109  36.08707
   X31       45.80696   0.00001   0.00000   0.00097  -0.00004  45.80692
   Y31       38.53152   0.00480   0.00000   0.01403   0.01519  38.54670
   Z31       35.13001   0.00022   0.00000  -0.00560  -0.00618  35.12383
   X32       39.36300   0.01869   0.00000   0.01581   0.01659  39.37959
   Y32       31.69071   0.00745   0.00000   0.01419   0.01612  31.70683
   Z32       43.46370   0.01221   0.00000   0.01771   0.01914  43.48284
   X33       38.38034  -0.00835   0.00000   0.01102   0.01182  38.39215
   Y33       31.55843  -0.00026   0.00000   0.00715   0.00840  31.56683
   Z33       41.95192  -0.01696   0.00000  -0.01629  -0.01481  41.93711
   X34       38.26695  -0.00730   0.00000  -0.01030  -0.00934  38.25761
   Y34       31.08599  -0.00325   0.00000  -0.00309  -0.00108  31.08491
   Z34       44.76761   0.00712   0.00000   0.00850   0.01012  44.77773
   X35       35.64023  -0.01006   0.00000  -0.04514  -0.04794  35.59230
   Y35       45.90145  -0.01108   0.00000  -0.02816  -0.02933  45.87212
   Z35       35.69693  -0.02959   0.00000  -0.01192  -0.01439  35.68254
   X36       36.22605   0.01089   0.00000   0.03311   0.03049  36.25654
   Y36       45.24004   0.00192   0.00000   0.03945   0.03889  45.27894
   Z36       37.26540   0.02511   0.00000   0.03011   0.02779  37.29319
   X37       34.94104  -0.00258   0.00000   0.01044   0.00725  34.94828
   Y37       47.50771   0.01301   0.00000   0.01485   0.01363  47.52135
   Z37       36.09377   0.00799   0.00000   0.01047   0.00755  36.10132
   X38       42.17869  -0.01176   0.00000  -0.00894  -0.00906  42.16962
   Y38       34.63868  -0.00913   0.00000  -0.01569  -0.01656  34.62212
   Z38       31.01041  -0.00523   0.00000   0.00004   0.00061  31.01101
   X39       43.23693   0.00210   0.00000   0.00302   0.00308  43.24002
   Y39       33.76941   0.00183   0.00000   0.01607   0.01512  33.78453
   Z39       29.81988  -0.00409   0.00000  -0.01818  -0.01740  29.80248
   X40       43.33142   0.00825   0.00000  -0.00149  -0.00185  43.32957
   Y40       35.65913   0.00937   0.00000   0.01419   0.01387  35.67300
   Z40       31.97417   0.00713   0.00000   0.00338   0.00363  31.97780
   X41       38.02129  -0.00212   0.00000   0.00103  -0.00144  38.01985
   Y41       44.25739  -0.00834   0.00000  -0.02401  -0.02596  44.23143
   Z41       30.80254  -0.01777   0.00000  -0.01222  -0.01427  30.78826
   X42       36.58510  -0.00200   0.00000   0.00257  -0.00015  36.58495
   Y42       45.27784  -0.00099   0.00000  -0.02043  -0.02260  45.25524
   Z42       31.23717   0.00651   0.00000   0.01566   0.01335  31.25052
   X43       38.98505   0.00308   0.00000  -0.00179  -0.00422  38.98083
   Y43       44.14400   0.00498   0.00000   0.02349   0.02221  44.16621
   Z43       32.33321   0.01359   0.00000   0.01680   0.01475  32.34797
   X44       43.01017  -0.00270   0.00000   0.00201  -0.00070  43.00946
   Y44       45.82586   0.00610   0.00000  -0.00414  -0.00231  45.82354
   Z44       39.91102   0.01388   0.00000   0.02349   0.02092  39.93194
   X45       44.80541   0.00438   0.00000   0.00879   0.00602  44.81143
   Y45       46.07152  -0.00049   0.00000  -0.00469  -0.00242  46.06911
   Z45       39.98660  -0.00059   0.00000   0.00121  -0.00146  39.98514
   X46       42.74561  -0.00295   0.00000  -0.01000  -0.01251  42.73309
   Y46       44.88100  -0.00204   0.00000   0.02478   0.02610  44.90710
   Z46       38.39924  -0.01338   0.00000  -0.01768  -0.01999  38.37924
   X47       36.05597  -0.00511   0.00000   0.01158   0.01184  36.06782
   Y47       32.91903  -0.01489   0.00000  -0.00367  -0.00667  32.91236
   Z47       28.74273  -0.01084   0.00000  -0.02644  -0.02530  28.71743
   X48       37.37878   0.00439   0.00000   0.01366   0.01419  37.39297
   Y48       31.82299   0.00065   0.00000   0.01172   0.00922  31.83220
   Z48       29.32855   0.00313   0.00000   0.01165   0.01307  29.34162
   X49       36.54730   0.00194   0.00000  -0.01790  -0.01803  36.52927
   Y49       34.54419   0.01778   0.00000   0.02148   0.01877  34.56297
   Z49       29.34745   0.00838   0.00000   0.01556   0.01623  29.36368
   X50       32.38991  -0.00206   0.00000   0.02049   0.01859  32.40850
   Y50       42.80230   0.01544   0.00000   0.02784   0.02858  42.83088
   Z50       45.35343  -0.00438   0.00000  -0.00875  -0.01032  45.34311
   X51       32.18204  -0.00064   0.00000  -0.00261  -0.00438  32.17765
   Y51       42.19758  -0.00292   0.00000  -0.00812  -0.00790  42.18969
   Z51       43.65267  -0.00238   0.00000   0.00135  -0.00004  43.65263
   X52       33.16469   0.00368   0.00000  -0.00612  -0.00766  33.15703
   Y52       41.44169  -0.00826   0.00000   0.00361   0.00479  41.44649
   Z52       46.24160   0.00774   0.00000   0.01757   0.01637  46.25797
   X53       33.14580  -0.00652   0.00000  -0.01199  -0.01343  33.13237
   Y53       39.75984   0.00232   0.00000   0.00858   0.00454  39.76437
   Z53       27.55221  -0.01044   0.00000  -0.00704  -0.00777  27.54444
   X54       31.59622   0.00000   0.00000   0.00284   0.00127  31.59749
   Y54       40.38345   0.00231   0.00000   0.01601   0.01179  40.39524
   Z54       28.27030   0.00475   0.00000   0.02195   0.02107  28.29137
   X55       34.14735   0.00403   0.00000  -0.00099  -0.00228  34.14508
   Y55       39.28741  -0.00447   0.00000  -0.01220  -0.01560  39.27181
   Z55       28.98840   0.00770   0.00000  -0.00068  -0.00128  28.98712
   X56       29.59311  -0.00353   0.00000   0.00164   0.00275  29.59587
   Y56       30.02775  -0.00257   0.00000  -0.00239  -0.00423  30.02351
   Z56       38.53152  -0.00330   0.00000  -0.00685  -0.00480  38.52671
   X57       30.59467   0.00365   0.00000   0.00878   0.01020  30.60486
   Y57       28.83722  -0.00269   0.00000   0.00210   0.00076  28.83798
   Z57       39.45748   0.00313   0.00000   0.00546   0.00782  39.46530
   X58       30.38680   0.00004   0.00000  -0.01205  -0.01132  30.37548
   Y58       31.63402   0.00693   0.00000   0.01510   0.01354  31.64756
   Z58       38.87167  -0.00038   0.00000  -0.00787  -0.00629  38.86537
   X59       29.55532  -0.00711   0.00000  -0.00103  -0.00346  29.55186
   Y59       44.65423   0.00303   0.00000   0.00120  -0.00038  44.65385
   Z59       39.51417   0.00742   0.00000   0.00712   0.00508  39.51926
   X60       29.00730   0.00240   0.00000   0.01823   0.01606  29.02335
   Y60       43.52039  -0.00438   0.00000  -0.00454  -0.00662  43.51378
   Z60       38.21026  -0.00621   0.00000  -0.00961  -0.01132  38.19894
   X61       31.31276   0.00838   0.00000   0.01254   0.01004  31.32280
   Y61       44.91879  -0.00093   0.00000  -0.00590  -0.00714  44.91165
   Z61       39.17402  -0.00149   0.00000   0.00661   0.00447  39.17849
   X62       28.44038  -0.00888   0.00000   0.01002   0.00819  28.44857
   Y62       41.68736   0.01984   0.00000   0.02087   0.01699  41.70435
   Z62       32.25763   0.00221   0.00000  -0.00934  -0.01053  32.24709
   X63       30.06554   0.01814   0.00000   0.02179   0.02011  30.08566
   Y63       41.12044  -0.00703   0.00000  -0.00512  -0.00844  41.11200
   Z63       32.78675   0.00840   0.00000   0.02466   0.02360  32.81035
   X64       27.79787  -0.00482   0.00000   0.00067  -0.00084  27.79703
   Y64       40.36455  -0.01477   0.00000  -0.01644  -0.02076  40.34379
   Z64       31.23717  -0.00870   0.00000  -0.00063  -0.00144  31.23573
   X65       39.26851  -0.00363   0.00000   0.00367   0.00133  39.26983
   Y65       44.65423  -0.00502   0.00000  -0.03655  -0.03433  44.61990
   Z65       44.63533  -0.00935   0.00000   0.00007  -0.00211  44.63322
   X66       40.79919   0.00822   0.00000   0.01533   0.01277  40.81195
   Y66       45.56130  -0.00008   0.00000  -0.02401  -0.02132  45.53998
   Z66       44.97548  -0.00234   0.00000  -0.01867  -0.02113  44.95435
   X67       38.83387  -0.00590   0.00000  -0.01941  -0.02155  38.81232
   Y67       43.87944  -0.00200   0.00000   0.01052   0.01308  43.89252
   Z67       46.20380   0.01336   0.00000   0.03520   0.03323  46.23704
   X68       33.56154  -0.00579   0.00000   0.01121   0.01046  33.57200
   Y68       38.30475   0.01240   0.00000   0.02092   0.02282  38.32757
   Z68       48.45258   0.01581   0.00000  -0.00092  -0.00125  48.45132
   X69       34.80876   0.00768   0.00000   0.01206   0.01161  34.82036
   Y69       37.13312  -0.00561   0.00000  -0.00180   0.00055  37.13367
   Z69       49.01950  -0.00055   0.00000  -0.00639  -0.00641  49.01309
   X70       33.58043  -0.00147   0.00000  -0.01813  -0.01886  33.56157
   Y70       38.15357  -0.01182   0.00000  -0.05515  -0.05376  38.09981
   Z70       46.65734  -0.02063   0.00000  -0.02437  -0.02464  46.63270
   X71       46.88411   0.00538   0.00000   0.00349   0.00415  46.88826
   Y71       31.59622  -0.00860   0.00000  -0.03604  -0.03500  31.56122
   Z71       33.75051   0.00573   0.00000   0.00383   0.00518  33.75568
   X72       46.09042  -0.00543   0.00000  -0.01387  -0.01326  46.07716
   Y72       31.69071   0.00400   0.00000   0.00925   0.00964  31.70035
   Z72       32.12534  -0.00090   0.00000   0.00775   0.00907  32.13442
   X73       46.10932   0.00012   0.00000   0.00971   0.01006  46.11938
   Y73       32.93793  -0.00283   0.00000  -0.02094  -0.01982  32.91811
   Z73       34.71427  -0.00446   0.00000  -0.01304  -0.01206  34.70221
   X74       44.97548   0.01465   0.00000   0.00545   0.00376  44.97924
   Y74       41.98971   0.01234   0.00000   0.03827   0.04230  42.03202
   Z74       46.16601  -0.01326   0.00000  -0.02640  -0.02795  46.13806
   X75       44.03062  -0.00495   0.00000   0.00391   0.00251  44.03313
   Y75       40.78029  -0.00506   0.00000  -0.01005  -0.00650  40.77379
   Z75       45.20225   0.00273   0.00000   0.01760   0.01642  45.21867
   X76       44.01172  -0.00827   0.00000   0.00466   0.00296  44.01468
   Y76       42.21648  -0.00827   0.00000  -0.04606  -0.04183  42.17465
   Z76       47.67779   0.01011   0.00000   0.01061   0.00904  47.68683
   X77       34.16625   0.00977   0.00000   0.01842   0.01955  34.18579
   Y77       30.40569   0.00986   0.00000   0.00595   0.00710  30.41279
   Z77       45.22115   0.00139   0.00000  -0.00755  -0.00568  45.21547
   X78       32.90013  -0.00697   0.00000  -0.00086   0.00057  32.90070
   Y78       29.17737  -0.00666   0.00000   0.00236   0.00330  29.18067
   Z78       45.59909   0.00170   0.00000   0.00072   0.00296  45.60205
   X79       34.67647  -0.00170   0.00000  -0.01387  -0.01268  34.66380
   Y79       30.02775  -0.00109   0.00000   0.00124   0.00202  30.02977
   Z79       43.52039  -0.00711   0.00000  -0.02325  -0.02129  43.49911
   X80       39.26851   0.00724   0.00000   0.03508   0.03423  39.30274
   Y80       37.30319   0.00821   0.00000   0.00352   0.00055  37.30374
   Z80       26.02153  -0.00754   0.00000  -0.00696  -0.00709  26.01443
   X81       39.47638   0.00023   0.00000   0.00241   0.00168  39.47806
   Y81       36.90635  -0.00493   0.00000  -0.00644  -0.00887  36.89748
   Z81       27.77897   0.00725   0.00000   0.00707   0.00704  27.78601
   X82       38.58821  -0.00526   0.00000  -0.02128  -0.02177  38.56643
   Y82       35.79141  -0.00477   0.00000   0.00240  -0.00094  35.79047
   Z82       25.28454   0.00480   0.00000   0.02719   0.02749  25.31202
   X83       38.34254  -0.00833   0.00000   0.00350   0.00011  38.34265
   Y83       48.64155   0.01552   0.00000   0.04198   0.04297  48.68452
   Z83       41.02595  -0.00165   0.00000   0.01098   0.00769  41.03364
   X84       37.81342   0.00207   0.00000   0.00570   0.00269  37.81611
   Y84       47.14867  -0.00082   0.00000   0.02288   0.02398  47.17265
   Z84       41.91413   0.00132   0.00000  -0.00312  -0.00598  41.90814
   X85       40.11889   0.00634   0.00000   0.00154  -0.00178  40.11711
   Y85       48.39589  -0.00856   0.00000  -0.03125  -0.02991  48.36598
   Z85       40.76139  -0.00276   0.00000  -0.01706  -0.02030  40.74109
   X86       28.23251   0.00526   0.00000  -0.00696  -0.00732  28.22518
   Y86       36.49061  -0.01522   0.00000  -0.02907  -0.02968  36.46094
   Z86       44.16290   0.01465   0.00000   0.00896   0.00923  44.17213
   X87       27.21206  -0.00555   0.00000   0.01382   0.01310  27.22516
   Y87       37.85121   0.01341   0.00000   0.01659   0.01559  37.86680
   Z87       43.59598  -0.00689   0.00000   0.00056   0.00045  43.59644
   X88       28.96950   0.00125   0.00000   0.00073   0.00050  28.97000
   Y88       35.81031   0.00235   0.00000   0.01771   0.01686  35.82717
   Z88       42.65112  -0.00951   0.00000  -0.02080  -0.02036  42.63076
   X89       44.54084  -0.00458   0.00000  -0.00520  -0.00682  44.53403
   Y89       40.70470  -0.00258   0.00000  -0.00540  -0.00584  40.69886
   Z89       30.51908   0.00502   0.00000  -0.01047  -0.01163  30.50744
   X90       46.22270   0.00523   0.00000   0.00467   0.00322  46.22592
   Y90       40.04330  -0.00297   0.00000  -0.00651  -0.00656  40.03673
   Z90       30.42459   0.00017   0.00000   0.00211   0.00110  30.42569
   X91       44.25739  -0.00224   0.00000  -0.00363  -0.00546  44.25193
   Y91       41.47949   0.00204   0.00000  -0.00804  -0.00901  41.47048
   Z91       28.91281  -0.01179   0.00000  -0.02788  -0.02926  28.88355
   X92       41.13934   0.00467   0.00000  -0.03031  -0.03161  41.10773
   Y92       40.61021   0.02052   0.00000   0.05493   0.05895  40.66917
   Z92       49.43524   0.02322   0.00000   0.03877   0.03766  49.47290
   X93       40.47793  -0.00600   0.00000   0.01154   0.01032  40.48825
   Y93       40.27006  -0.01614   0.00000  -0.05392  -0.05052  40.21954
   Z93       47.79117  -0.01173   0.00000   0.01209   0.01112  47.80229
   X94       40.72360  -0.00011   0.00000   0.01422   0.01329  40.73689
   Y94       39.13623   0.00027   0.00000   0.01528   0.01948  39.15571
   Z94       50.41789  -0.00337   0.00000   0.00101   0.00033  50.41822
   X95       41.30941  -0.01227   0.00000  -0.01445  -0.01265  41.29677
   Y95       27.06088  -0.01154   0.00000  -0.01389  -0.01350  27.04738
   Z95       36.30164  -0.00981   0.00000  -0.00532  -0.00262  36.29902
   X96       42.17869   0.00946   0.00000   0.00253   0.00411  42.18279
   Y96       28.06243   0.01112   0.00000   0.01747   0.01841  28.08084
   Z96       37.51106   0.00767   0.00000  -0.00613  -0.00374  37.50733
   X97       42.51884   0.00186   0.00000   0.00167   0.00351  42.52235
   Y97       26.81521   0.00416   0.00000   0.01736   0.01768  26.83289
   Z97       34.95993   0.00217   0.00000   0.00387   0.00660  34.96653
         Item               Value     Threshold  Converged?
 Maximum Force            0.029589     0.000450     NO 
 RMS     Force            0.009018     0.000300     NO 
 Maximum Displacement     0.058952     0.001800     NO 
 RMS     Displacement     0.017559     0.001200     NO 
 Predicted change in Energy=-2.287275D-02
 GradGradGradGradGradGradGradGradGradGradGradGradGradGradGradGradGradGrad

 Leave Link  103 at Thu May  3 01:32:25 2018, MaxMem= 14763950080 cpu:        52.7
 (Enter /cm/shared/gaussian/g09.e01/intel64-sandybridge/g09/l9999.exe)
 1\1\GINC-POPLE03\Force\RPBE1PBE\CC-pVDZ\Br1H64O32(1-)\M.PELUSO\03-May-
 2018\0\\#p PBE1PBE/cc-pvDZ force Counterpoise=2 noSymm\\forces on chlo
 ride comput - NWATER: 32\\-1,1\Br,20.,20.,20.\O,17.42,21.67,18.83\H,17
 .56,22.6,18.95\H,18.24,21.26,19.12\O,19.5,16.8,20.62\H,19.6,17.67,20.2
 4\H,19.35,16.23,19.87\O,22.72,18.05,20.12\H,21.98,18.64,19.96\H,22.56,
 17.69,20.99\O,19.37,23.08,21.28\H,19.6,22.3,20.77\H,19.85,22.97,22.11\
 O,18.02,19.77,22.74\H,18.49,20.03,21.94\H,17.64,18.92,22.52\O,19.4,19.
 99,16.63\H,19.49,19.77,17.56\H,19.83,20.84,16.55\O,16.,18.77,20.58\H,1
 6.76,19.22,20.22\H,15.28,19.,19.99\O,21.37,20.04,24.05\H,21.09,20.31,2
 3.18\H,21.03,19.15,24.15\O,22.22,22.97,18.\H,22.44,22.51,17.19\H,22.24
 ,22.29,18.67\O,24.16,19.47,18.33\H,23.75,19.05,19.08\H,24.24,20.39,18.
 59\O,20.83,16.77,23.\H,20.31,16.7,22.2\H,20.25,16.45,23.69\O,18.86,24.
 29,18.89\H,19.17,23.94,19.72\H,18.49,25.14,19.1\O,22.32,18.33,16.41\H,
 22.88,17.87,15.78\H,22.93,18.87,16.92\O,20.12,23.42,16.3\H,19.36,23.96
 ,16.53\H,20.63,23.36,17.11\O,22.76,24.25,21.12\H,23.71,24.38,21.16\H,2
 2.62,23.75,20.32\O,19.08,17.42,15.21\H,19.78,16.84,15.52\H,19.34,18.28
 ,15.53\O,17.14,22.65,24.\H,17.03,22.33,23.1\H,17.55,21.93,24.47\O,17.5
 4,21.04,14.58\H,16.72,21.37,14.96\H,18.07,20.79,15.34\O,15.66,15.89,20
 .39\H,16.19,15.26,20.88\H,16.08,16.74,20.57\O,15.64,23.63,20.91\H,15.3
 5,23.03,20.22\H,16.57,23.77,20.73\O,15.05,22.06,17.07\H,15.91,21.76,17
 .35\H,14.71,21.36,16.53\O,20.78,23.63,23.62\H,21.59,24.11,23.8\H,20.55
 ,23.22,24.45\O,17.76,20.27,25.64\H,18.42,19.65,25.94\H,17.77,20.19,24.
 69\O,24.81,16.72,17.86\H,24.39,16.77,17.\H,24.4,17.43,18.37\O,23.8,22.
 22,24.43\H,23.3,21.58,23.92\H,23.29,22.34,25.23\O,18.08,16.09,23.93\H,
 17.41,15.44,24.13\H,18.35,15.89,23.03\O,20.78,19.74,13.77\H,20.89,19.5
 3,14.7\H,20.42,18.94,13.38\O,20.29,25.74,21.71\H,20.01,24.95,22.18\H,2
 1.23,25.61,21.57\O,14.94,19.31,23.37\H,14.4,20.03,23.07\H,15.33,18.95,
 22.57\O,23.57,21.54,16.15\H,24.46,21.19,16.1\H,23.42,21.95,15.3\O,21.7
 7,21.49,26.16\H,21.42,21.31,25.29\H,21.55,20.71,26.68\O,21.86,14.32,19
 .21\H,22.32,14.85,19.85\H,22.5,14.19,18.5\\Version=ES64L-G09RevE.01\HF
 =-2443.1354035\RMSD=2.551e-09\RMSF=9.018e-03\Dipole=3.5548306,-2.92627
 96,0.3055438\Quadrupole=297.1714593,-267.8897841,-29.2816752,-1391.716
 433,-1286.1404456,-1580.5699228\PG=C01 [X(Br1H64O32)]\\@


 Spring appears, and we are once more children.
                                  -- Anonymous
 Job cpu time:       0 days  8 hours 24 minutes 49.4 seconds.
 File lengths (MBytes):  RWF=    482 Int=      0 D2E=      0 Chk=    160 Scr=      1
 Normal termination of Gaussian 09 at Thu May  3 01:32:26 2018.
