 Entering Gaussian System, Link 0=/cm/shared/gaussian/g09.e01/intel64-sandybridge/g09/g09
 Initial command:
 /cm/shared/gaussian/g09.e01/intel64-sandybridge/g09/l1.exe "/local/scratch/m.peluso/32_wat/Gau-22582.inp" -scrdir="/local/scratch/m.peluso/32_wat/"
 Entering Link 1 = /cm/shared/gaussian/g09.e01/intel64-sandybridge/g09/l1.exe PID=     22583.
  
 Copyright (c) 1988,1990,1992,1993,1995,1998,2003,2009,2015,
            Gaussian, Inc.  All Rights Reserved.
  
 This is part of the Gaussian(R) 09 program.  It is based on
 the Gaussian(R) 03 system (copyright 2003, Gaussian, Inc.),
 the Gaussian(R) 98 system (copyright 1998, Gaussian, Inc.),
 the Gaussian(R) 94 system (copyright 1995, Gaussian, Inc.),
 the Gaussian 92(TM) system (copyright 1992, Gaussian, Inc.),
 the Gaussian 90(TM) system (copyright 1990, Gaussian, Inc.),
 the Gaussian 88(TM) system (copyright 1988, Gaussian, Inc.),
 the Gaussian 86(TM) system (copyright 1986, Carnegie Mellon
 University), and the Gaussian 82(TM) system (copyright 1983,
 Carnegie Mellon University). Gaussian is a federally registered
 trademark of Gaussian, Inc.
  
 This software contains proprietary and confidential information,
 including trade secrets, belonging to Gaussian, Inc.
  
 This software is provided under written license and may be
 used, copied, transmitted, or stored only in accord with that
 written license.
  
 The following legend is applicable only to US Government
 contracts under FAR:
  
                    RESTRICTED RIGHTS LEGEND
  
 Use, reproduction and disclosure by the US Government is
 subject to restrictions as set forth in subparagraphs (a)
 and (c) of the Commercial Computer Software - Restricted
 Rights clause in FAR 52.227-19.
  
 Gaussian, Inc.
 340 Quinnipiac St., Bldg. 40, Wallingford CT 06492
  
  
 ---------------------------------------------------------------
 Warning -- This program may not be used in any manner that
 competes with the business of Gaussian, Inc. or will provide
 assistance to any competitor of Gaussian, Inc.  The licensee
 of this program is prohibited from giving any competitor of
 Gaussian, Inc. access to this program.  By using this program,
 the user acknowledges that Gaussian, Inc. is engaged in the
 business of creating and licensing software in the field of
 computational chemistry and represents and warrants to the
 licensee that it is not a competitor of Gaussian, Inc. and that
 it will not use this program in any manner prohibited above.
 ---------------------------------------------------------------
  

 Cite this work as:
 Gaussian 09, Revision E.01,
 M. J. Frisch, G. W. Trucks, H. B. Schlegel, G. E. Scuseria, 
 M. A. Robb, J. R. Cheeseman, G. Scalmani, V. Barone, B. Mennucci, 
 G. A. Petersson, H. Nakatsuji, M. Caricato, X. Li, H. P. Hratchian, 
 A. F. Izmaylov, J. Bloino, G. Zheng, J. L. Sonnenberg, M. Hada, 
 M. Ehara, K. Toyota, R. Fukuda, J. Hasegawa, M. Ishida, T. Nakajima, 
 Y. Honda, O. Kitao, H. Nakai, T. Vreven, J. A. Montgomery, Jr., 
 J. E. Peralta, F. Ogliaro, M. Bearpark, J. J. Heyd, E. Brothers, 
 K. N. Kudin, V. N. Staroverov, T. Keith, R. Kobayashi, J. Normand, 
 K. Raghavachari, A. Rendell, J. C. Burant, S. S. Iyengar, J. Tomasi, 
 M. Cossi, N. Rega, J. M. Millam, M. Klene, J. E. Knox, J. B. Cross, 
 V. Bakken, C. Adamo, J. Jaramillo, R. Gomperts, R. E. Stratmann, 
 O. Yazyev, A. J. Austin, R. Cammi, C. Pomelli, J. W. Ochterski, 
 R. L. Martin, K. Morokuma, V. G. Zakrzewski, G. A. Voth, 
 P. Salvador, J. J. Dannenberg, S. Dapprich, A. D. Daniels, 
 O. Farkas, J. B. Foresman, J. V. Ortiz, J. Cioslowski, 
 and D. J. Fox, Gaussian, Inc., Wallingford CT, 2013.
 
 ******************************************
 Gaussian 09:  ES64L-G09RevE.01 30-Nov-2015
                 3-May-2018 
 ******************************************
 %Mem=110GB
 %NProcShared=64
 Will use up to   64 processors via shared memory.
 %chk=snap43.chk
 ----------------------------------------------
 #p PBE1PBE/cc-pvDZ force Counterpoise=2 noSymm
 ----------------------------------------------
 1/10=7,30=1,38=1,62=2/1,3;
 2/12=2,15=1,17=6,18=5,40=1/2;
 1/10=7,30=1,38=1,53=2,62=2,63=101/22;
 3/5=16,11=2,16=1,25=1,30=1,71=1,74=-13/1,2,3;
 4//1;
 5/5=2,38=5/2;
 6/7=2,8=2,9=2,10=2,28=1/1;
 7/7=1,29=1,30=1,33=-1/1,2,3,16;
 1/10=7,30=1,53=2,62=2,63=101/22;
 3/5=7,6=11,11=2,16=1,25=1,30=1,71=1,74=-13,82=7/1,2,3;
 4//1;
 5/5=2,38=5/2;
 6/7=2,8=2,9=2,10=2,28=1/1;
 7/7=1,29=1,30=1,33=-1/1,2,3,16;
 1/10=7,30=1,53=2,62=2,63=101/22(-5);
 7/9=1,29=1,44=-1/16;
 1/10=7,30=1,62=2/3;
 99//99;
 Leave Link    1 at Thu May  3 10:06:31 2018, MaxMem= 14763950080 cpu:         6.1
 (Enter /cm/shared/gaussian/g09.e01/intel64-sandybridge/g09/l101.exe)
 --------------------------------------
 forces on chloride comput - NWATER: 32
 --------------------------------------
 Symbolic Z-matrix:
 Charge = -1 Multiplicity = 1 in supermolecule
 Charge = -1 Multiplicity = 1 in fragment      1.
 Charge =  0 Multiplicity = 1 in fragment      2.
 Br(Fragment=1)        20.       20.       20. 
 O(Fragment=2)         19.93     19.31     17.04 
 H(Fragment=2)         19.87     18.37     17.21 
 H(Fragment=2)         20.04     19.7      17.91 
 O(Fragment=2)         17.82     17.74     20.72 
 H(Fragment=2)         18.21     16.97     20.32 
 H(Fragment=2)         18.35     18.47     20.4 
 O(Fragment=2)         22.98     21.01     19.21 
 H(Fragment=2)         22.08     20.73     19.37 
 H(Fragment=2)         23.52     20.32     19.6 
 O(Fragment=2)         20.5      20.13     23.31 
 H(Fragment=2)         19.76     20.67     23.56 
 H(Fragment=2)         20.52     20.17     22.35 
 O(Fragment=2)         18.94     23.17     19.6 
 H(Fragment=2)         18.87     23.5      20.5 
 H(Fragment=2)         19.43     22.35     19.69 
 O(Fragment=2)         21.38     16.98     20.19 
 H(Fragment=2)         21.84     16.68     20.98 
 H(Fragment=2)         21.19     17.9      20.35 
 O(Fragment=2)         16.77     20.63     19.39 
 H(Fragment=2)         16.25     19.82     19.42 
 H(Fragment=2)         17.54     20.44     19.92 
 O(Fragment=2)         21.98     22.86     21.43 
 H(Fragment=2)         22.       22.04     20.92 
 H(Fragment=2)         21.05     23.09     21.47 
 O(Fragment=2)         18.62     22.14     16.97 
 H(Fragment=2)         18.93     21.25     17.11 
 H(Fragment=2)         18.68     22.55     17.84 
 O(Fragment=2)         22.4      17.91     22.79 
 H(Fragment=2)         22.12     18.81     22.65 
 H(Fragment=2)         23.34     17.99     23. 
 O(Fragment=2)         18.35     17.36     23.4 
 H(Fragment=2)         18.1      17.7      22.54 
 H(Fragment=2)         19.09     16.78     23.22 
 O(Fragment=2)         18.93     15.46     19.63 
 H(Fragment=2)         19.79     15.89     19.61 
 H(Fragment=2)         18.68     15.39     18.71 
 O(Fragment=2)         22.73     23.78     18.08 
 H(Fragment=2)         22.6      22.86     17.87 
 H(Fragment=2)         22.9      23.79     19.02 
 O(Fragment=2)         24.33     19.35     20.84 
 H(Fragment=2)         24.41     19.54     21.77 
 H(Fragment=2)         24.9      18.59     20.7 
 O(Fragment=2)         20.29     21.15     14.97 
 H(Fragment=2)         20.24     20.39     15.55 
 H(Fragment=2)         19.6      21.73     15.27 
 O(Fragment=2)         24.3      19.98     16.8 
 H(Fragment=2)         23.78     19.89     17.6 
 H(Fragment=2)         23.74     19.66     16.1 
 O(Fragment=2)         15.86     23.08     18.79 
 H(Fragment=2)         16.25     22.21     18.73 
 H(Fragment=2)         16.09     23.39     19.66 
 O(Fragment=2)         18.63     22.01     23.92 
 H(Fragment=2)         17.74     21.66     23.81 
 H(Fragment=2)         18.77     22.01     24.87 
 O(Fragment=2)         19.06     24.05     22.1 
 H(Fragment=2)         19.06     23.51     22.89 
 H(Fragment=2)         18.26     24.57     22.16 
 O(Fragment=2)         20.34     25.06     17.21 
 H(Fragment=2)         20.16     24.49     17.96 
 H(Fragment=2)         21.05     24.62     16.74 
 O(Fragment=2)         18.04     16.29     17.02 
 H(Fragment=2)         18.       15.53     16.43 
 H(Fragment=2)         17.12     16.46     17.25 
 O(Fragment=2)         22.16     19.62     25.62 
 H(Fragment=2)         21.65     19.38     26.39 
 H(Fragment=2)         21.5      19.91     24.98 
 O(Fragment=2)         22.33     14.53     18.13 
 H(Fragment=2)         22.67     14.87     17.31 
 H(Fragment=2)         22.21     15.3      18.68 
 O(Fragment=2)         25.85     22.09     20.07 
 H(Fragment=2)         25.24     21.39     20.27 
 H(Fragment=2)         25.83     22.17     19.12 
 O(Fragment=2)         14.1      20.93     20.74 
 H(Fragment=2)         13.6      21.32     21.46 
 H(Fragment=2)         14.81     21.55     20.58 
 O(Fragment=2)         24.06     24.57     21.91 
 H(Fragment=2)         23.44     23.95     21.5 
 H(Fragment=2)         24.58     24.9      21.18 
 O(Fragment=2)         23.17     23.35     24.4 
 H(Fragment=2)         23.55     24.08     23.91 
 H(Fragment=2)         23.04     22.66     23.74 
 O(Fragment=2)         19.08     13.97     21.8 
 H(Fragment=2)         19.94     13.61     21.58 
 H(Fragment=2)         18.88     14.57     21.07 
 O(Fragment=2)         17.33     20.56     14.09 
 H(Fragment=2)         16.54     20.97     14.46 
 H(Fragment=2)         18.01     20.74     14.74 
 O(Fragment=2)         18.9      18.       26.11 
 H(Fragment=2)         18.85     17.94     25.16 
 H(Fragment=2)         18.9      17.1      26.41 
 O(Fragment=2)         24.3      19.96     23.76 
 H(Fragment=2)         23.73     19.96     24.53 
 H(Fragment=2)         25.18     19.81     24.11 
 O(Fragment=2)         16.01     18.48     24.43 
 H(Fragment=2)         15.7      18.53     23.52 
 H(Fragment=2)         16.79     17.92     24.38 
 
 NAtoms=     97 NQM=       97 NQMF=       0 NMMI=      0 NMMIF=      0
                NMic=       0 NMicF=      0.
                    Isotopes and Nuclear Properties:
 (Nuclear quadrupole moments (NQMom) in fm**2, nuclear magnetic moments (NMagM)
  in nuclear magnetons)

  Atom         1           2           3           4           5           6           7           8           9          10
 IAtWgt=          79          16           1           1          16           1           1          16           1           1
 AtmWgt=  78.9183361  15.9949146   1.0078250   1.0078250  15.9949146   1.0078250   1.0078250  15.9949146   1.0078250   1.0078250
 NucSpn=           3           0           1           1           0           1           1           0           1           1
 AtZEff=   0.0000000   0.0000000   0.0000000   0.0000000   0.0000000   0.0000000   0.0000000   0.0000000   0.0000000   0.0000000
 NQMom=   31.3000000   0.0000000   0.0000000   0.0000000   0.0000000   0.0000000   0.0000000   0.0000000   0.0000000   0.0000000
 NMagM=    2.1063990   0.0000000   2.7928460   2.7928460   0.0000000   2.7928460   2.7928460   0.0000000   2.7928460   2.7928460
 AtZNuc=  35.0000000   8.0000000   1.0000000   1.0000000   8.0000000   1.0000000   1.0000000   8.0000000   1.0000000   1.0000000

  Atom        11          12          13          14          15          16          17          18          19          20
 IAtWgt=          16           1           1          16           1           1          16           1           1          16
 AtmWgt=  15.9949146   1.0078250   1.0078250  15.9949146   1.0078250   1.0078250  15.9949146   1.0078250   1.0078250  15.9949146
 NucSpn=           0           1           1           0           1           1           0           1           1           0
 AtZEff=   0.0000000   0.0000000   0.0000000   0.0000000   0.0000000   0.0000000   0.0000000   0.0000000   0.0000000   0.0000000
 NQMom=    0.0000000   0.0000000   0.0000000   0.0000000   0.0000000   0.0000000   0.0000000   0.0000000   0.0000000   0.0000000
 NMagM=    0.0000000   2.7928460   2.7928460   0.0000000   2.7928460   2.7928460   0.0000000   2.7928460   2.7928460   0.0000000
 AtZNuc=   8.0000000   1.0000000   1.0000000   8.0000000   1.0000000   1.0000000   8.0000000   1.0000000   1.0000000   8.0000000

  Atom        21          22          23          24          25          26          27          28          29          30
 IAtWgt=           1           1          16           1           1          16           1           1          16           1
 AtmWgt=   1.0078250   1.0078250  15.9949146   1.0078250   1.0078250  15.9949146   1.0078250   1.0078250  15.9949146   1.0078250
 NucSpn=           1           1           0           1           1           0           1           1           0           1
 AtZEff=   0.0000000   0.0000000   0.0000000   0.0000000   0.0000000   0.0000000   0.0000000   0.0000000   0.0000000   0.0000000
 NQMom=    0.0000000   0.0000000   0.0000000   0.0000000   0.0000000   0.0000000   0.0000000   0.0000000   0.0000000   0.0000000
 NMagM=    2.7928460   2.7928460   0.0000000   2.7928460   2.7928460   0.0000000   2.7928460   2.7928460   0.0000000   2.7928460
 AtZNuc=   1.0000000   1.0000000   8.0000000   1.0000000   1.0000000   8.0000000   1.0000000   1.0000000   8.0000000   1.0000000

  Atom        31          32          33          34          35          36          37          38          39          40
 IAtWgt=           1          16           1           1          16           1           1          16           1           1
 AtmWgt=   1.0078250  15.9949146   1.0078250   1.0078250  15.9949146   1.0078250   1.0078250  15.9949146   1.0078250   1.0078250
 NucSpn=           1           0           1           1           0           1           1           0           1           1
 AtZEff=   0.0000000   0.0000000   0.0000000   0.0000000   0.0000000   0.0000000   0.0000000   0.0000000   0.0000000   0.0000000
 NQMom=    0.0000000   0.0000000   0.0000000   0.0000000   0.0000000   0.0000000   0.0000000   0.0000000   0.0000000   0.0000000
 NMagM=    2.7928460   0.0000000   2.7928460   2.7928460   0.0000000   2.7928460   2.7928460   0.0000000   2.7928460   2.7928460
 AtZNuc=   1.0000000   8.0000000   1.0000000   1.0000000   8.0000000   1.0000000   1.0000000   8.0000000   1.0000000   1.0000000

  Atom        41          42          43          44          45          46          47          48          49          50
 IAtWgt=          16           1           1          16           1           1          16           1           1          16
 AtmWgt=  15.9949146   1.0078250   1.0078250  15.9949146   1.0078250   1.0078250  15.9949146   1.0078250   1.0078250  15.9949146
 NucSpn=           0           1           1           0           1           1           0           1           1           0
 AtZEff=   0.0000000   0.0000000   0.0000000   0.0000000   0.0000000   0.0000000   0.0000000   0.0000000   0.0000000   0.0000000
 NQMom=    0.0000000   0.0000000   0.0000000   0.0000000   0.0000000   0.0000000   0.0000000   0.0000000   0.0000000   0.0000000
 NMagM=    0.0000000   2.7928460   2.7928460   0.0000000   2.7928460   2.7928460   0.0000000   2.7928460   2.7928460   0.0000000
 AtZNuc=   8.0000000   1.0000000   1.0000000   8.0000000   1.0000000   1.0000000   8.0000000   1.0000000   1.0000000   8.0000000

  Atom        51          52          53          54          55          56          57          58          59          60
 IAtWgt=           1           1          16           1           1          16           1           1          16           1
 AtmWgt=   1.0078250   1.0078250  15.9949146   1.0078250   1.0078250  15.9949146   1.0078250   1.0078250  15.9949146   1.0078250
 NucSpn=           1           1           0           1           1           0           1           1           0           1
 AtZEff=   0.0000000   0.0000000   0.0000000   0.0000000   0.0000000   0.0000000   0.0000000   0.0000000   0.0000000   0.0000000
 NQMom=    0.0000000   0.0000000   0.0000000   0.0000000   0.0000000   0.0000000   0.0000000   0.0000000   0.0000000   0.0000000
 NMagM=    2.7928460   2.7928460   0.0000000   2.7928460   2.7928460   0.0000000   2.7928460   2.7928460   0.0000000   2.7928460
 AtZNuc=   1.0000000   1.0000000   8.0000000   1.0000000   1.0000000   8.0000000   1.0000000   1.0000000   8.0000000   1.0000000

  Atom        61          62          63          64          65          66          67          68          69          70
 IAtWgt=           1          16           1           1          16           1           1          16           1           1
 AtmWgt=   1.0078250  15.9949146   1.0078250   1.0078250  15.9949146   1.0078250   1.0078250  15.9949146   1.0078250   1.0078250
 NucSpn=           1           0           1           1           0           1           1           0           1           1
 AtZEff=   0.0000000   0.0000000   0.0000000   0.0000000   0.0000000   0.0000000   0.0000000   0.0000000   0.0000000   0.0000000
 NQMom=    0.0000000   0.0000000   0.0000000   0.0000000   0.0000000   0.0000000   0.0000000   0.0000000   0.0000000   0.0000000
 NMagM=    2.7928460   0.0000000   2.7928460   2.7928460   0.0000000   2.7928460   2.7928460   0.0000000   2.7928460   2.7928460
 AtZNuc=   1.0000000   8.0000000   1.0000000   1.0000000   8.0000000   1.0000000   1.0000000   8.0000000   1.0000000   1.0000000

  Atom        71          72          73          74          75          76          77          78          79          80
 IAtWgt=          16           1           1          16           1           1          16           1           1          16
 AtmWgt=  15.9949146   1.0078250   1.0078250  15.9949146   1.0078250   1.0078250  15.9949146   1.0078250   1.0078250  15.9949146
 NucSpn=           0           1           1           0           1           1           0           1           1           0
 AtZEff=   0.0000000   0.0000000   0.0000000   0.0000000   0.0000000   0.0000000   0.0000000   0.0000000   0.0000000   0.0000000
 NQMom=    0.0000000   0.0000000   0.0000000   0.0000000   0.0000000   0.0000000   0.0000000   0.0000000   0.0000000   0.0000000
 NMagM=    0.0000000   2.7928460   2.7928460   0.0000000   2.7928460   2.7928460   0.0000000   2.7928460   2.7928460   0.0000000
 AtZNuc=   8.0000000   1.0000000   1.0000000   8.0000000   1.0000000   1.0000000   8.0000000   1.0000000   1.0000000   8.0000000

  Atom        81          82          83          84          85          86          87          88          89          90
 IAtWgt=           1           1          16           1           1          16           1           1          16           1
 AtmWgt=   1.0078250   1.0078250  15.9949146   1.0078250   1.0078250  15.9949146   1.0078250   1.0078250  15.9949146   1.0078250
 NucSpn=           1           1           0           1           1           0           1           1           0           1
 AtZEff=   0.0000000   0.0000000   0.0000000   0.0000000   0.0000000   0.0000000   0.0000000   0.0000000   0.0000000   0.0000000
 NQMom=    0.0000000   0.0000000   0.0000000   0.0000000   0.0000000   0.0000000   0.0000000   0.0000000   0.0000000   0.0000000
 NMagM=    2.7928460   2.7928460   0.0000000   2.7928460   2.7928460   0.0000000   2.7928460   2.7928460   0.0000000   2.7928460
 AtZNuc=   1.0000000   1.0000000   8.0000000   1.0000000   1.0000000   8.0000000   1.0000000   1.0000000   8.0000000   1.0000000

  Atom        91          92          93          94          95          96          97
 IAtWgt=           1          16           1           1          16           1           1
 AtmWgt=   1.0078250  15.9949146   1.0078250   1.0078250  15.9949146   1.0078250   1.0078250
 NucSpn=           1           0           1           1           0           1           1
 AtZEff=   0.0000000   0.0000000   0.0000000   0.0000000   0.0000000   0.0000000   0.0000000
 NQMom=    0.0000000   0.0000000   0.0000000   0.0000000   0.0000000   0.0000000   0.0000000
 NMagM=    2.7928460   0.0000000   2.7928460   2.7928460   0.0000000   2.7928460   2.7928460
 AtZNuc=   1.0000000   8.0000000   1.0000000   1.0000000   8.0000000   1.0000000   1.0000000
 Leave Link  101 at Thu May  3 10:06:31 2018, MaxMem= 14763950080 cpu:        15.0
 (Enter /cm/shared/gaussian/g09.e01/intel64-sandybridge/g09/l103.exe)

 GradGradGradGradGradGradGradGradGradGradGradGradGradGradGradGradGradGrad
 Berny optimization.
 Initialization pass.
 Trust Radius=3.00D-01 FncErr=1.00D-07 GrdErr=1.00D-07
 Number of steps in this run=      2 maximum allowed number of steps=      2.
 GradGradGradGradGradGradGradGradGradGradGradGradGradGradGradGradGradGrad

 Leave Link  103 at Thu May  3 10:06:31 2018, MaxMem= 14763950080 cpu:         2.3
 (Enter /cm/shared/gaussian/g09.e01/intel64-sandybridge/g09/l202.exe)
 Symmetry turned off by external request.
 Stoichiometry    BrH64O32(1-)
 Framework group  C1[X(BrH64O32)]
 Deg. of freedom   285
 Full point group                 C1      NOp   1
                          Input orientation:                          
 ---------------------------------------------------------------------
 Center     Atomic      Atomic             Coordinates (Angstroms)
 Number     Number       Type             X           Y           Z
 ---------------------------------------------------------------------
      1         35           0       20.000000   20.000000   20.000000
      2          8           0       19.930000   19.310000   17.040000
      3          1           0       19.870000   18.370000   17.210000
      4          1           0       20.040000   19.700000   17.910000
      5          8           0       17.820000   17.740000   20.720000
      6          1           0       18.210000   16.970000   20.320000
      7          1           0       18.350000   18.470000   20.400000
      8          8           0       22.980000   21.010000   19.210000
      9          1           0       22.080000   20.730000   19.370000
     10          1           0       23.520000   20.320000   19.600000
     11          8           0       20.500000   20.130000   23.310000
     12          1           0       19.760000   20.670000   23.560000
     13          1           0       20.520000   20.170000   22.350000
     14          8           0       18.940000   23.170000   19.600000
     15          1           0       18.870000   23.500000   20.500000
     16          1           0       19.430000   22.350000   19.690000
     17          8           0       21.380000   16.980000   20.190000
     18          1           0       21.840000   16.680000   20.980000
     19          1           0       21.190000   17.900000   20.350000
     20          8           0       16.770000   20.630000   19.390000
     21          1           0       16.250000   19.820000   19.420000
     22          1           0       17.540000   20.440000   19.920000
     23          8           0       21.980000   22.860000   21.430000
     24          1           0       22.000000   22.040000   20.920000
     25          1           0       21.050000   23.090000   21.470000
     26          8           0       18.620000   22.140000   16.970000
     27          1           0       18.930000   21.250000   17.110000
     28          1           0       18.680000   22.550000   17.840000
     29          8           0       22.400000   17.910000   22.790000
     30          1           0       22.120000   18.810000   22.650000
     31          1           0       23.340000   17.990000   23.000000
     32          8           0       18.350000   17.360000   23.400000
     33          1           0       18.100000   17.700000   22.540000
     34          1           0       19.090000   16.780000   23.220000
     35          8           0       18.930000   15.460000   19.630000
     36          1           0       19.790000   15.890000   19.610000
     37          1           0       18.680000   15.390000   18.710000
     38          8           0       22.730000   23.780000   18.080000
     39          1           0       22.600000   22.860000   17.870000
     40          1           0       22.900000   23.790000   19.020000
     41          8           0       24.330000   19.350000   20.840000
     42          1           0       24.410000   19.540000   21.770000
     43          1           0       24.900000   18.590000   20.700000
     44          8           0       20.290000   21.150000   14.970000
     45          1           0       20.240000   20.390000   15.550000
     46          1           0       19.600000   21.730000   15.270000
     47          8           0       24.300000   19.980000   16.800000
     48          1           0       23.780000   19.890000   17.600000
     49          1           0       23.740000   19.660000   16.100000
     50          8           0       15.860000   23.080000   18.790000
     51          1           0       16.250000   22.210000   18.730000
     52          1           0       16.090000   23.390000   19.660000
     53          8           0       18.630000   22.010000   23.920000
     54          1           0       17.740000   21.660000   23.810000
     55          1           0       18.770000   22.010000   24.870000
     56          8           0       19.060000   24.050000   22.100000
     57          1           0       19.060000   23.510000   22.890000
     58          1           0       18.260000   24.570000   22.160000
     59          8           0       20.340000   25.060000   17.210000
     60          1           0       20.160000   24.490000   17.960000
     61          1           0       21.050000   24.620000   16.740000
     62          8           0       18.040000   16.290000   17.020000
     63          1           0       18.000000   15.530000   16.430000
     64          1           0       17.120000   16.460000   17.250000
     65          8           0       22.160000   19.620000   25.620000
     66          1           0       21.650000   19.380000   26.390000
     67          1           0       21.500000   19.910000   24.980000
     68          8           0       22.330000   14.530000   18.130000
     69          1           0       22.670000   14.870000   17.310000
     70          1           0       22.210000   15.300000   18.680000
     71          8           0       25.850000   22.090000   20.070000
     72          1           0       25.240000   21.390000   20.270000
     73          1           0       25.830000   22.170000   19.120000
     74          8           0       14.100000   20.930000   20.740000
     75          1           0       13.600000   21.320000   21.460000
     76          1           0       14.810000   21.550000   20.580000
     77          8           0       24.060000   24.570000   21.910000
     78          1           0       23.440000   23.950000   21.500000
     79          1           0       24.580000   24.900000   21.180000
     80          8           0       23.170000   23.350000   24.400000
     81          1           0       23.550000   24.080000   23.910000
     82          1           0       23.040000   22.660000   23.740000
     83          8           0       19.080000   13.970000   21.800000
     84          1           0       19.940000   13.610000   21.580000
     85          1           0       18.880000   14.570000   21.070000
     86          8           0       17.330000   20.560000   14.090000
     87          1           0       16.540000   20.970000   14.460000
     88          1           0       18.010000   20.740000   14.740000
     89          8           0       18.900000   18.000000   26.110000
     90          1           0       18.850000   17.940000   25.160000
     91          1           0       18.900000   17.100000   26.410000
     92          8           0       24.300000   19.960000   23.760000
     93          1           0       23.730000   19.960000   24.530000
     94          1           0       25.180000   19.810000   24.110000
     95          8           0       16.010000   18.480000   24.430000
     96          1           0       15.700000   18.530000   23.520000
     97          1           0       16.790000   17.920000   24.380000
 ---------------------------------------------------------------------
 Rotational constants (GHZ):      0.0552451      0.0543702      0.0468681
 Leave Link  202 at Thu May  3 10:06:31 2018, MaxMem= 14763950080 cpu:         0.6
 (Enter /cm/shared/gaussian/g09.e01/intel64-sandybridge/g09/l122.exe)
 Counterpoise: doing full dimer calculation.
 Leave Link  122 at Thu May  3 10:06:31 2018, MaxMem= 14763950080 cpu:         0.1
 (Enter /cm/shared/gaussian/g09.e01/intel64-sandybridge/g09/l301.exe)
 Standard basis: CC-pVDZ (5D, 7F)
 Ernie: Thresh=  0.10000D-02 Tol=  0.10000D-05 Strict=F.
 Ernie:  87 primitive shells out of 1114 were deleted.
   795 basis functions,  1651 primitive gaussians,   829 cartesian basis functions
   178 alpha electrons      178 beta electrons
       nuclear repulsion energy      6020.4252548213 Hartrees.
 IExCor= 1009 DFT=T Ex+Corr=PBE1PBE ExCW=0 ScaHFX=  0.250000
 ScaDFX=  0.750000  0.750000  1.000000  1.000000 ScalE2=  1.000000  1.000000
 IRadAn=      0 IRanWt=     -1 IRanGd=            0 ICorTp=0 IEmpDi=  4
 NAtoms=   97 NActive=   97 NUniq=   97 SFac= 1.00D+00 NAtFMM=   60 NAOKFM=T Big=T
 Integral buffers will be    131072 words long.
 Raffenetti 2 integral format.
 Two-electron integral symmetry is turned off.
 Leave Link  301 at Thu May  3 10:06:32 2018, MaxMem= 14763950080 cpu:         6.4
 (Enter /cm/shared/gaussian/g09.e01/intel64-sandybridge/g09/l302.exe)
 NPDir=0 NMtPBC=     1 NCelOv=     1 NCel=       1 NClECP=     1 NCelD=      1
         NCelK=      1 NCelE2=     1 NClLst=     1 CellRange=     0.0.
 One-electron integrals computed using PRISM.
 NBasis=   795 RedAO= T EigKep=  1.27D-02  NBF=   795
 NBsUse=   795 1.00D-06 EigRej= -1.00D+00 NBFU=   795
 Precomputing XC quadrature grid using
 IXCGrd= 4 IRadAn=           0 IRanWt=          -1 IRanGd=           0 AccXCQ= 0.00D+00.
 Generated NRdTot=       0 NPtTot=           0 NUsed=           0 NTot=          32
 NSgBfM=   671   672   677   683   686 MxSgAt=    97 MxSgA2=    97.
 Leave Link  302 at Thu May  3 10:06:38 2018, MaxMem= 14763950080 cpu:       433.8
 (Enter /cm/shared/gaussian/g09.e01/intel64-sandybridge/g09/l303.exe)
 DipDrv:  MaxL=1.
 Leave Link  303 at Thu May  3 10:06:39 2018, MaxMem= 14763950080 cpu:        30.5
 (Enter /cm/shared/gaussian/g09.e01/intel64-sandybridge/g09/l401.exe)
 ExpMin= 1.22D-01 ExpMax= 6.40D+05 ExpMxC= 6.18D+03 IAcc=2 IRadAn=         4 AccDes= 0.00D+00
 Harris functional with IExCor= 1009 and IRadAn=       4 diagonalized for initial guess.
 HarFok:  IExCor= 1009 AccDes= 0.00D+00 IRadAn=         4 IDoV= 1 UseB2=F ITyADJ=14
 ICtDFT=  3500011 ScaDFX=  1.000000  1.000000  1.000000  1.000000
 FoFCou: FMM=F IPFlag=           0 FMFlag=      100000 FMFlg1=        2001
         NFxFlg=           0 DoJE=T BraDBF=F KetDBF=T FulRan=T
         wScrn=  0.000000 ICntrl=     500 IOpCl=  0 I1Cent=   200000004 NGrid=           0
         NMat0=    1 NMatS0=      1 NMatT0=    0 NMatD0=    1 NMtDS0=    0 NMtDT0=    0
 Symmetry not used in FoFCou.
 Harris En= -5018.42501745105    
 JPrj=0 DoOrth=F DoCkMO=F.
 Leave Link  401 at Thu May  3 10:06:44 2018, MaxMem= 14763950080 cpu:       322.2
 (Enter /cm/shared/gaussian/g09.e01/intel64-sandybridge/g09/l502.exe)
 Closed shell SCF:
 Using DIIS extrapolation, IDIIS=  1040.
 Two-electron integral symmetry not used.
 IVT=     2138497 IEndB=     2138497 NGot= 14763950080 MDV= 14762516294
 LenX= 14762516294 LenY= 14761828224
 Requested convergence on RMS density matrix=1.00D-08 within 128 cycles.
 Requested convergence on MAX density matrix=1.00D-06.
 Requested convergence on             energy=1.00D-06.
 No special actions if energy rises.
 Fock matrices will be formed incrementally for  20 cycles.
 Integral accuracy reduced to 1.0D-05 until final iterations.

 Cycle   1  Pass 0  IDiag  1:
 FoFJK:  IHMeth= 1 ICntrl=       0 DoSepK=F KAlg= 0 I1Cent=   0 FoldK=F
 IRaf= 810000000 NMat=   1 IRICut=       1 DoRegI=T DoRafI=F ISym2E= 0.
 FoFCou: FMM=T IPFlag=           0 FMFlag=      100000 FMFlg1=        2001
         NFxFlg=           0 DoJE=F BraDBF=F KetDBF=F FulRan=T
         wScrn=  0.000000 ICntrl=       0 IOpCl=  0 I1Cent=           0 NGrid=           0
         NMat0=    1 NMatS0=      1 NMatT0=    0 NMatD0=    1 NMtDS0=    0 NMtDT0=    0
 Symmetry not used in FoFCou.
 FMM levels:  10  Number of levels for PrismC:   9
 E= -5015.29409979353    
 DIIS: error= 3.87D-02 at cycle   1 NSaved=   1.
 NSaved= 1 IEnMin= 1 EnMin= -5015.29409979353     IErMin= 1 ErrMin= 3.87D-02
 ErrMax= 3.87D-02  0.00D+00 EMaxC= 1.00D-01 BMatC= 2.74D+00 BMatP= 2.74D+00
 IDIUse=3 WtCom= 6.13D-01 WtEn= 3.87D-01
 Coeff-Com:  0.100D+01
 Coeff-En:   0.100D+01
 Coeff:      0.100D+01
 Gap=     0.352 Goal=   None    Shift=    0.000
 GapD=    0.352 DampG=1.000 DampE=0.500 DampFc=0.5000 IDamp=-1.
 Damping current iteration by 5.00D-01
 RMSDP=2.85D-03 MaxDP=1.57D-01              OVMax= 1.77D-01

 Cycle   2  Pass 0  IDiag  1:
 RMSU=  1.41D-03    CP:  9.85D-01
 E= -5016.08841751937     Delta-E=       -0.794317725835 Rises=F Damp=T
 DIIS: error= 9.49D-03 at cycle   2 NSaved=   2.
 NSaved= 2 IEnMin= 2 EnMin= -5016.08841751937     IErMin= 2 ErrMin= 9.49D-03
 ErrMax= 9.49D-03  0.00D+00 EMaxC= 1.00D-01 BMatC= 8.79D-02 BMatP= 2.74D+00
 IDIUse=3 WtCom= 9.05D-01 WtEn= 9.49D-02
 Coeff-Com:  0.120D+00 0.880D+00
 Coeff-En:   0.217D+00 0.783D+00
 Coeff:      0.130D+00 0.870D+00
 Gap=     0.212 Goal=   None    Shift=    0.000
 RMSDP=3.52D-04 MaxDP=1.88D-02 DE=-7.94D-01 OVMax= 9.46D-02

 Cycle   3  Pass 0  IDiag  1:
 RMSU=  2.73D-04    CP:  9.87D-01  8.44D-01
 E= -5017.24711050424     Delta-E=       -1.158692984876 Rises=F Damp=F
 DIIS: error= 1.60D-03 at cycle   3 NSaved=   3.
 NSaved= 3 IEnMin= 3 EnMin= -5017.24711050424     IErMin= 3 ErrMin= 1.60D-03
 ErrMax= 1.60D-03  0.00D+00 EMaxC= 1.00D-01 BMatC= 1.96D-03 BMatP= 8.79D-02
 IDIUse=3 WtCom= 9.84D-01 WtEn= 1.60D-02
 Coeff-Com:  0.117D-01 0.686D-01 0.920D+00
 Coeff-En:   0.000D+00 0.000D+00 0.100D+01
 Coeff:      0.115D-01 0.675D-01 0.921D+00
 Gap=     0.220 Goal=   None    Shift=    0.000
 RMSDP=9.95D-05 MaxDP=1.44D-02 DE=-1.16D+00 OVMax= 1.58D-02

 Cycle   4  Pass 0  IDiag  1:
 RMSU=  8.70D-05    CP:  9.87D-01  8.47D-01  8.25D-01
 E= -5017.24744398561     Delta-E=       -0.000333481365 Rises=F Damp=F
 DIIS: error= 1.61D-03 at cycle   4 NSaved=   4.
 NSaved= 4 IEnMin= 4 EnMin= -5017.24744398561     IErMin= 3 ErrMin= 1.60D-03
 ErrMax= 1.61D-03  0.00D+00 EMaxC= 1.00D-01 BMatC= 2.05D-03 BMatP= 1.96D-03
 IDIUse=3 WtCom= 9.84D-01 WtEn= 1.61D-02
 Coeff-Com:  0.311D-02 0.597D-02 0.505D+00 0.486D+00
 Coeff-En:   0.000D+00 0.000D+00 0.453D+00 0.547D+00
 Coeff:      0.306D-02 0.588D-02 0.504D+00 0.487D+00
 Gap=     0.220 Goal=   None    Shift=    0.000
 RMSDP=4.44D-05 MaxDP=5.72D-03 DE=-3.33D-04 OVMax= 6.14D-03

 Cycle   5  Pass 0  IDiag  1:
 RMSU=  1.82D-05    CP:  9.87D-01  8.44D-01  8.90D-01  5.84D-01
 E= -5017.24905131620     Delta-E=       -0.001607330594 Rises=F Damp=F
 DIIS: error= 1.62D-04 at cycle   5 NSaved=   5.
 NSaved= 5 IEnMin= 5 EnMin= -5017.24905131620     IErMin= 5 ErrMin= 1.62D-04
 ErrMax= 1.62D-04  0.00D+00 EMaxC= 1.00D-01 BMatC= 4.30D-05 BMatP= 1.96D-03
 IDIUse=3 WtCom= 9.98D-01 WtEn= 1.62D-03
 Coeff-Com:  0.105D-02-0.212D-02 0.154D+00 0.185D+00 0.662D+00
 Coeff-En:   0.000D+00 0.000D+00 0.000D+00 0.000D+00 0.100D+01
 Coeff:      0.105D-02-0.212D-02 0.154D+00 0.185D+00 0.663D+00
 Gap=     0.220 Goal=   None    Shift=    0.000
 RMSDP=8.72D-06 MaxDP=1.23D-03 DE=-1.61D-03 OVMax= 1.29D-03

 Cycle   6  Pass 0  IDiag  1:
 RMSU=  5.93D-06    CP:  9.87D-01  8.43D-01  9.00D-01  5.68D-01  7.04D-01
 E= -5017.24908518836     Delta-E=       -0.000033872157 Rises=F Damp=F
 DIIS: error= 1.32D-04 at cycle   6 NSaved=   6.
 NSaved= 6 IEnMin= 6 EnMin= -5017.24908518836     IErMin= 6 ErrMin= 1.32D-04
 ErrMax= 1.32D-04  0.00D+00 EMaxC= 1.00D-01 BMatC= 4.11D-06 BMatP= 4.30D-05
 IDIUse=3 WtCom= 9.99D-01 WtEn= 1.32D-03
 Coeff-Com:  0.238D-03-0.215D-02 0.355D-01 0.452D-01 0.274D+00 0.648D+00
 Coeff-En:   0.000D+00 0.000D+00 0.000D+00 0.000D+00 0.000D+00 0.100D+01
 Coeff:      0.238D-03-0.215D-02 0.355D-01 0.451D-01 0.273D+00 0.648D+00
 Gap=     0.221 Goal=   None    Shift=    0.000
 RMSDP=2.35D-06 MaxDP=4.40D-04 DE=-3.39D-05 OVMax= 3.64D-04

 Initial convergence to 1.0D-05 achieved.  Increase integral accuracy.
 Cycle   7  Pass 1  IDiag  1:
 E= -5017.24959355294     Delta-E=       -0.000508364577 Rises=F Damp=F
 DIIS: error= 3.30D-05 at cycle   1 NSaved=   1.
 NSaved= 1 IEnMin= 1 EnMin= -5017.24959355294     IErMin= 1 ErrMin= 3.30D-05
 ErrMax= 3.30D-05  0.00D+00 EMaxC= 1.00D-01 BMatC= 1.33D-06 BMatP= 1.33D-06
 IDIUse=1 WtCom= 1.00D+00 WtEn= 0.00D+00
 Coeff-Com:  0.100D+01
 Coeff:      0.100D+01
 Gap=     0.221 Goal=   None    Shift=    0.000
 RMSDP=2.35D-06 MaxDP=4.40D-04 DE=-5.08D-04 OVMax= 1.98D-04

 Cycle   8  Pass 1  IDiag  1:
 RMSU=  4.28D-06    CP:  1.00D+00
 E= -5017.24959478418     Delta-E=       -0.000001231241 Rises=F Damp=F
 DIIS: error= 1.25D-05 at cycle   2 NSaved=   2.
 NSaved= 2 IEnMin= 2 EnMin= -5017.24959478418     IErMin= 2 ErrMin= 1.25D-05
 ErrMax= 1.25D-05  0.00D+00 EMaxC= 1.00D-01 BMatC= 2.91D-07 BMatP= 1.33D-06
 IDIUse=1 WtCom= 1.00D+00 WtEn= 0.00D+00
 Coeff-Com:  0.242D+00 0.758D+00
 Coeff:      0.242D+00 0.758D+00
 Gap=     0.221 Goal=   None    Shift=    0.000
 RMSDP=7.55D-07 MaxDP=9.50D-05 DE=-1.23D-06 OVMax= 9.58D-05

 Cycle   9  Pass 1  IDiag  1:
 RMSU=  7.53D-07    CP:  1.00D+00  9.89D-01
 E= -5017.24959486827     Delta-E=       -0.000000084092 Rises=F Damp=F
 DIIS: error= 9.63D-06 at cycle   3 NSaved=   3.
 NSaved= 3 IEnMin= 3 EnMin= -5017.24959486827     IErMin= 3 ErrMin= 9.63D-06
 ErrMax= 9.63D-06  0.00D+00 EMaxC= 1.00D-01 BMatC= 1.77D-07 BMatP= 2.91D-07
 IDIUse=1 WtCom= 1.00D+00 WtEn= 0.00D+00
 Coeff-Com: -0.748D-02 0.438D+00 0.570D+00
 Coeff:     -0.748D-02 0.438D+00 0.570D+00
 Gap=     0.221 Goal=   None    Shift=    0.000
 RMSDP=3.33D-07 MaxDP=4.03D-05 DE=-8.41D-08 OVMax= 4.02D-05

 Cycle  10  Pass 1  IDiag  1:
 RMSU=  7.89D-08    CP:  1.00D+00  1.01D+00  5.87D-01
 E= -5017.24959499349     Delta-E=       -0.000000125223 Rises=F Damp=F
 DIIS: error= 1.09D-06 at cycle   4 NSaved=   4.
 NSaved= 4 IEnMin= 4 EnMin= -5017.24959499349     IErMin= 4 ErrMin= 1.09D-06
 ErrMax= 1.09D-06  0.00D+00 EMaxC= 1.00D-01 BMatC= 7.80D-10 BMatP= 1.77D-07
 IDIUse=1 WtCom= 1.00D+00 WtEn= 0.00D+00
 Coeff-Com: -0.487D-02 0.191D+00 0.255D+00 0.559D+00
 Coeff:     -0.487D-02 0.191D+00 0.255D+00 0.559D+00
 Gap=     0.221 Goal=   None    Shift=    0.000
 RMSDP=3.15D-08 MaxDP=4.41D-06 DE=-1.25D-07 OVMax= 4.45D-06

 Cycle  11  Pass 1  IDiag  1:
 RMSU=  2.54D-08    CP:  1.00D+00  1.01D+00  5.90D-01  7.68D-01
 E= -5017.24959499413     Delta-E=       -0.000000000633 Rises=F Damp=F
 DIIS: error= 2.26D-07 at cycle   5 NSaved=   5.
 NSaved= 5 IEnMin= 5 EnMin= -5017.24959499413     IErMin= 5 ErrMin= 2.26D-07
 ErrMax= 2.26D-07  0.00D+00 EMaxC= 1.00D-01 BMatC= 6.51D-11 BMatP= 7.80D-10
 IDIUse=1 WtCom= 1.00D+00 WtEn= 0.00D+00
 Coeff-Com: -0.154D-02 0.473D-01 0.641D-01 0.255D+00 0.635D+00
 Coeff:     -0.154D-02 0.473D-01 0.641D-01 0.255D+00 0.635D+00
 Gap=     0.221 Goal=   None    Shift=    0.000
 RMSDP=8.11D-09 MaxDP=9.79D-07 DE=-6.33D-10 OVMax= 8.92D-07

 SCF Done:  E(RPBE1PBE) =  -5017.24959499     A.U. after   11 cycles
            NFock= 11  Conv=0.81D-08     -V/T= 2.0028
 KE= 5.003212017620D+03 PE=-2.400527372461D+04 EE= 7.964386857170D+03
 Leave Link  502 at Thu May  3 10:08:55 2018, MaxMem= 14763950080 cpu:      8309.2
 (Enter /cm/shared/gaussian/g09.e01/intel64-sandybridge/g09/l601.exe)
 Copying SCF densities to generalized density rwf, IOpCl= 0 IROHF=0.

 **********************************************************************

            Population analysis using the SCF density.

 **********************************************************************

 Alpha  occ. eigenvalues -- -483.18207 -62.58526 -56.35764 -56.35754 -56.35751
 Alpha  occ. eigenvalues --  -19.22212 -19.19397 -19.18056 -19.17299 -19.16918
 Alpha  occ. eigenvalues --  -19.16068 -19.15563 -19.14537 -19.14362 -19.13854
 Alpha  occ. eigenvalues --  -19.13849 -19.13676 -19.13469 -19.13415 -19.13263
 Alpha  occ. eigenvalues --  -19.13136 -19.12925 -19.12672 -19.11782 -19.11326
 Alpha  occ. eigenvalues --  -19.10654 -19.10647 -19.10609 -19.10017 -19.09587
 Alpha  occ. eigenvalues --  -19.09473 -19.09235 -19.08970 -19.08553 -19.07802
 Alpha  occ. eigenvalues --  -19.06975 -19.05552  -8.68872  -6.49216  -6.49174
 Alpha  occ. eigenvalues --   -6.49154  -2.57501  -2.57480  -2.57468  -2.57440
 Alpha  occ. eigenvalues --   -2.57430  -1.04433  -1.01415  -1.00691  -1.00207
 Alpha  occ. eigenvalues --   -0.99884  -0.98357  -0.97777  -0.97012  -0.96897
 Alpha  occ. eigenvalues --   -0.96773  -0.96679  -0.96394  -0.96282  -0.96237
 Alpha  occ. eigenvalues --   -0.95773  -0.95651  -0.95157  -0.95094  -0.94624
 Alpha  occ. eigenvalues --   -0.94116  -0.93433  -0.93325  -0.92889  -0.92602
 Alpha  occ. eigenvalues --   -0.92238  -0.91973  -0.91918  -0.91356  -0.91304
 Alpha  occ. eigenvalues --   -0.90076  -0.89722  -0.87952  -0.68677  -0.54226
 Alpha  occ. eigenvalues --   -0.51484  -0.51241  -0.50913  -0.50284  -0.49117
 Alpha  occ. eigenvalues --   -0.48717  -0.48587  -0.48371  -0.47621  -0.47298
 Alpha  occ. eigenvalues --   -0.47180  -0.47117  -0.46963  -0.46766  -0.46279
 Alpha  occ. eigenvalues --   -0.46115  -0.45572  -0.45451  -0.45347  -0.44652
 Alpha  occ. eigenvalues --   -0.44353  -0.43957  -0.43476  -0.43374  -0.43000
 Alpha  occ. eigenvalues --   -0.42832  -0.42678  -0.41702  -0.41215  -0.41039
 Alpha  occ. eigenvalues --   -0.40978  -0.38778  -0.38525  -0.38208  -0.37220
 Alpha  occ. eigenvalues --   -0.36640  -0.35971  -0.35344  -0.34965  -0.34666
 Alpha  occ. eigenvalues --   -0.34198  -0.33590  -0.33483  -0.33240  -0.32823
 Alpha  occ. eigenvalues --   -0.32492  -0.32247  -0.32166  -0.31506  -0.31313
 Alpha  occ. eigenvalues --   -0.30336  -0.30005  -0.29888  -0.29801  -0.29574
 Alpha  occ. eigenvalues --   -0.29429  -0.29328  -0.28955  -0.28624  -0.28451
 Alpha  occ. eigenvalues --   -0.28083  -0.27697  -0.27101  -0.26847  -0.26734
 Alpha  occ. eigenvalues --   -0.26697  -0.26319  -0.25836  -0.25630  -0.25513
 Alpha  occ. eigenvalues --   -0.25307  -0.25200  -0.24872  -0.24779  -0.24744
 Alpha  occ. eigenvalues --   -0.24628  -0.24504  -0.24434  -0.23851  -0.23438
 Alpha  occ. eigenvalues --   -0.23378  -0.23178  -0.22671  -0.22454  -0.22436
 Alpha  occ. eigenvalues --   -0.22179  -0.21601  -0.21535  -0.21419  -0.21278
 Alpha  occ. eigenvalues --   -0.20376  -0.20339  -0.20155  -0.19742  -0.19423
 Alpha  occ. eigenvalues --   -0.18730  -0.18062  -0.16127
 Alpha virt. eigenvalues --    0.05930   0.07436   0.08414   0.10596   0.11043
 Alpha virt. eigenvalues --    0.11808   0.12263   0.12632   0.13846   0.14386
 Alpha virt. eigenvalues --    0.14792   0.15351   0.15869   0.16087   0.16691
 Alpha virt. eigenvalues --    0.17337   0.17604   0.17973   0.18089   0.18438
 Alpha virt. eigenvalues --    0.18654   0.19268   0.19428   0.19865   0.20338
 Alpha virt. eigenvalues --    0.20874   0.21203   0.21311   0.22106   0.22473
 Alpha virt. eigenvalues --    0.22864   0.24138   0.24249   0.24638   0.25491
 Alpha virt. eigenvalues --    0.26079   0.26159   0.26285   0.26532   0.27407
 Alpha virt. eigenvalues --    0.27582   0.28314   0.28607   0.29279   0.29536
 Alpha virt. eigenvalues --    0.29930   0.30297   0.30400   0.30875   0.31400
 Alpha virt. eigenvalues --    0.32036   0.32486   0.32742   0.33065   0.33452
 Alpha virt. eigenvalues --    0.34692   0.35078   0.35323   0.36361   0.36588
 Alpha virt. eigenvalues --    0.37144   0.38524   0.39211   0.39988   0.55925
 Alpha virt. eigenvalues --    0.57223   0.58400   0.58640   0.58962   0.60299
 Alpha virt. eigenvalues --    0.60383   0.61306   0.62044   0.62341   0.62979
 Alpha virt. eigenvalues --    0.63130   0.63372   0.64046   0.64283   0.64649
 Alpha virt. eigenvalues --    0.64803   0.64968   0.65146   0.65337   0.65560
 Alpha virt. eigenvalues --    0.66001   0.66319   0.66768   0.66973   0.67111
 Alpha virt. eigenvalues --    0.67370   0.67582   0.67787   0.68111   0.68201
 Alpha virt. eigenvalues --    0.68610   0.68903   0.69220   0.69487   0.69663
 Alpha virt. eigenvalues --    0.69997   0.70383   0.71009   0.71367   0.71908
 Alpha virt. eigenvalues --    0.72201   0.72255   0.72443   0.72684   0.73043
 Alpha virt. eigenvalues --    0.73797   0.74014   0.74285   0.74799   0.74994
 Alpha virt. eigenvalues --    0.75461   0.75893   0.76215   0.76694   0.76817
 Alpha virt. eigenvalues --    0.77361   0.78066   0.78497   0.79154   0.79678
 Alpha virt. eigenvalues --    0.80063   0.80352   0.81156   0.82092   0.82817
 Alpha virt. eigenvalues --    0.83902   0.84430   0.85056   0.86153   0.88420
 Alpha virt. eigenvalues --    0.88559   0.92832   0.93521   0.94165   0.94856
 Alpha virt. eigenvalues --    0.95104   0.95487   0.95938   0.96329   0.96827
 Alpha virt. eigenvalues --    0.97300   0.97800   0.98061   0.98180   0.98345
 Alpha virt. eigenvalues --    0.98774   0.99168   0.99348   0.99501   0.99700
 Alpha virt. eigenvalues --    0.99952   1.00129   1.00533   1.00789   1.01380
 Alpha virt. eigenvalues --    1.01480   1.01699   1.02033   1.02267   1.02695
 Alpha virt. eigenvalues --    1.02809   1.03100   1.03630   1.03706   1.04074
 Alpha virt. eigenvalues --    1.04458   1.04591   1.05016   1.05159   1.05340
 Alpha virt. eigenvalues --    1.05816   1.06146   1.06485   1.06702   1.07093
 Alpha virt. eigenvalues --    1.07745   1.08202   1.08301   1.08601   1.08886
 Alpha virt. eigenvalues --    1.09248   1.09605   1.10021   1.10205   1.10584
 Alpha virt. eigenvalues --    1.10857   1.11473   1.11546   1.11722   1.12341
 Alpha virt. eigenvalues --    1.12801   1.12916   1.13129   1.13646   1.13725
 Alpha virt. eigenvalues --    1.13936   1.14222   1.14880   1.15004   1.15559
 Alpha virt. eigenvalues --    1.15815   1.16001   1.16377   1.16857   1.17280
 Alpha virt. eigenvalues --    1.17539   1.17763   1.18032   1.18070   1.18641
 Alpha virt. eigenvalues --    1.19230   1.19375   1.19737   1.20006   1.20589
 Alpha virt. eigenvalues --    1.20911   1.21243   1.21941   1.22156   1.22503
 Alpha virt. eigenvalues --    1.22923   1.24154   1.24348   1.24889   1.25190
 Alpha virt. eigenvalues --    1.25631   1.25986   1.26336   1.27064   1.27258
 Alpha virt. eigenvalues --    1.27560   1.28353   1.28631   1.28704   1.29075
 Alpha virt. eigenvalues --    1.29203   1.29529   1.29910   1.30019   1.30390
 Alpha virt. eigenvalues --    1.30786   1.30956   1.31396   1.31854   1.32067
 Alpha virt. eigenvalues --    1.32377   1.32848   1.33219   1.33348   1.33658
 Alpha virt. eigenvalues --    1.33978   1.34040   1.34398   1.34471   1.34652
 Alpha virt. eigenvalues --    1.35207   1.35337   1.35564   1.36032   1.36209
 Alpha virt. eigenvalues --    1.36674   1.36793   1.37271   1.37599   1.37888
 Alpha virt. eigenvalues --    1.38167   1.38860   1.39165   1.39595   1.39949
 Alpha virt. eigenvalues --    1.40383   1.40488   1.40857   1.41362   1.41991
 Alpha virt. eigenvalues --    1.42611   1.42623   1.42998   1.43237   1.43393
 Alpha virt. eigenvalues --    1.43674   1.43764   1.44195   1.44398   1.45417
 Alpha virt. eigenvalues --    1.45547   1.46000   1.46425   1.47752   1.48290
 Alpha virt. eigenvalues --    1.48977   1.49753   1.50305   1.50422   1.50896
 Alpha virt. eigenvalues --    1.51457   1.51900   1.51992   1.52405   1.52602
 Alpha virt. eigenvalues --    1.53008   1.53896   1.54184   1.54853   1.55269
 Alpha virt. eigenvalues --    1.55428   1.55994   1.56248   1.56847   1.57181
 Alpha virt. eigenvalues --    1.57288   1.57375   1.57718   1.58024   1.58427
 Alpha virt. eigenvalues --    1.59320   1.59497   1.60337   1.60832   1.61400
 Alpha virt. eigenvalues --    1.62055   1.63651   1.64344   1.64980   1.65743
 Alpha virt. eigenvalues --    1.67075   1.68071   1.70365   1.70590   1.70915
 Alpha virt. eigenvalues --    1.71902   1.73058   1.73108   1.73159   1.73913
 Alpha virt. eigenvalues --    1.74319   1.74688   1.75656   1.75814   1.76658
 Alpha virt. eigenvalues --    1.76919   1.77248   1.77544   1.77812   1.78349
 Alpha virt. eigenvalues --    1.78660   1.78819   1.79136   1.79227   1.79329
 Alpha virt. eigenvalues --    1.79797   1.80171   1.80433   1.81145   1.81967
 Alpha virt. eigenvalues --    1.82434   1.82545   1.83122   1.83334   1.83784
 Alpha virt. eigenvalues --    1.84040   1.84938   1.85189   1.85325   1.85969
 Alpha virt. eigenvalues --    1.86538   1.86642   1.87403   1.88242   1.88500
 Alpha virt. eigenvalues --    1.89232   1.89645   1.90403   1.90846   1.91407
 Alpha virt. eigenvalues --    1.91589   1.92558   1.92777   1.93975   1.94962
 Alpha virt. eigenvalues --    1.95581   1.96188   1.96781   1.97418   1.99251
 Alpha virt. eigenvalues --    2.02258   2.02436   2.05797   2.13749   2.14713
 Alpha virt. eigenvalues --    2.16011   2.17161   2.17627   2.20124   2.20226
 Alpha virt. eigenvalues --    2.21478   2.21594   2.21885   2.22057   2.22378
 Alpha virt. eigenvalues --    2.22833   2.23127   2.23754   2.23967   2.24357
 Alpha virt. eigenvalues --    2.24573   2.24817   2.25133   2.25217   2.25618
 Alpha virt. eigenvalues --    2.25866   2.26001   2.26164   2.26574   2.27026
 Alpha virt. eigenvalues --    2.27265   2.28108   2.28791   2.28970   2.29150
 Alpha virt. eigenvalues --    2.29420   2.29550   2.30366   2.31090   2.31213
 Alpha virt. eigenvalues --    2.31849   2.32072   2.32649   2.32876   2.33330
 Alpha virt. eigenvalues --    2.33917   2.34319   2.36081   2.37394   2.37881
 Alpha virt. eigenvalues --    2.38497   2.38976   2.39520   2.40801   2.42375
 Alpha virt. eigenvalues --    2.47697   2.48716   2.48909   2.50242   2.50906
 Alpha virt. eigenvalues --    2.52657   2.53244   2.53583   2.55391   2.58594
 Alpha virt. eigenvalues --    2.64690   2.67470   2.90926   2.94680   2.94839
 Alpha virt. eigenvalues --    2.95247   2.96067   2.97310   2.97501   2.97947
 Alpha virt. eigenvalues --    2.98047   2.98668   2.99289   2.99559   2.99594
 Alpha virt. eigenvalues --    2.99641   3.00085   3.00652   3.00761   3.00985
 Alpha virt. eigenvalues --    3.01146   3.01423   3.01440   3.02319   3.02616
 Alpha virt. eigenvalues --    3.02688   3.02781   3.02875   3.02981   3.03034
 Alpha virt. eigenvalues --    3.03096   3.03502   3.03692   3.03868   3.04041
 Alpha virt. eigenvalues --    3.04204   3.04396   3.04440   3.04466   3.04500
 Alpha virt. eigenvalues --    3.04861   3.04914   3.05266   3.05599   3.05938
 Alpha virt. eigenvalues --    3.05965   3.06338   3.06464   3.06491   3.06971
 Alpha virt. eigenvalues --    3.07114   3.07467   3.07593   3.08183   3.08260
 Alpha virt. eigenvalues --    3.08409   3.08497   3.08534   3.08676   3.09659
 Alpha virt. eigenvalues --    3.09737   3.10146   3.11114   3.11813   3.12571
 Alpha virt. eigenvalues --    3.13890   3.15011   3.15792   3.17986   3.18993
 Alpha virt. eigenvalues --    3.19861   3.20293   3.21019   3.21545   3.21817
 Alpha virt. eigenvalues --    3.22066   3.22521   3.22736   3.22931   3.23464
 Alpha virt. eigenvalues --    3.24388   3.24491   3.24967   3.25130   3.25319
 Alpha virt. eigenvalues --    3.25369   3.25518   3.25706   3.25908   3.26340
 Alpha virt. eigenvalues --    3.26571   3.26774   3.28363   3.28972   3.29249
 Alpha virt. eigenvalues --    3.29763   3.30226   3.31341   3.50464   3.51216
 Alpha virt. eigenvalues --    3.54202   3.56131   3.56521   3.57380   3.57946
 Alpha virt. eigenvalues --    3.58499   3.58533   3.59028   3.59239   3.60392
 Alpha virt. eigenvalues --    3.60498   3.60721   3.60962   3.61273   3.61457
 Alpha virt. eigenvalues --    3.61867   3.62117   3.62195   3.63240   3.63537
 Alpha virt. eigenvalues --    3.63587   3.63846   3.64726   3.65139   3.65655
 Alpha virt. eigenvalues --    3.67211   3.68782   3.69377   3.69969   3.71409
 Alpha virt. eigenvalues --    3.77448   3.77711   3.81820   3.82857   3.83085
 Alpha virt. eigenvalues --    3.84656   3.84871   3.86007   3.86062   3.86931
 Alpha virt. eigenvalues --    3.87405   3.87618   3.88049   3.88305   3.89272
 Alpha virt. eigenvalues --    3.89494   3.90388   3.90584   3.91139   3.91540
 Alpha virt. eigenvalues --    3.92014   3.92229   3.92577   3.92820   3.92999
 Alpha virt. eigenvalues --    3.93205   3.93618   3.94372   3.95898   3.98775
 Alpha virt. eigenvalues --    3.99860   4.02607
          Condensed to atoms (all electrons):
 Mulliken charges:
               1
     1  Br  -0.724865
     2  O   -0.265021
     3  H    0.124544
     4  H    0.170171
     5  O   -0.293191
     6  H    0.119568
     7  H    0.142348
     8  O   -0.278905
     9  H    0.153310
    10  H    0.146978
    11  O   -0.280381
    12  H    0.115106
    13  H    0.143457
    14  O   -0.276356
    15  H    0.124008
    16  H    0.127274
    17  O   -0.281304
    18  H    0.150523
    19  H    0.152357
    20  O   -0.246645
    21  H    0.147113
    22  H    0.131756
    23  O   -0.252907
    24  H    0.119006
    25  H    0.134342
    26  O   -0.282999
    27  H    0.092685
    28  H    0.148920
    29  O   -0.278619
    30  H    0.139062
    31  H    0.122203
    32  O   -0.278117
    33  H    0.124574
    34  H    0.138870
    35  O   -0.251906
    36  H    0.137281
    37  H    0.121706
    38  O   -0.273152
    39  H    0.135614
    40  H    0.117011
    41  O   -0.240868
    42  H    0.136523
    43  H    0.145634
    44  O   -0.300764
    45  H    0.125839
    46  H    0.135381
    47  O   -0.290497
    48  H    0.108047
    49  H    0.134913
    50  O   -0.279870
    51  H    0.151220
    52  H    0.102997
    53  O   -0.220744
    54  H    0.171884
    55  H    0.177672
    56  O   -0.240582
    57  H    0.142148
    58  H    0.146482
    59  O   -0.301134
    60  H    0.115150
    61  H    0.136291
    62  O   -0.237388
    63  H    0.155801
    64  H    0.162276
    65  O   -0.279741
    66  H    0.132365
    67  H    0.147497
    68  O   -0.283550
    69  H    0.131055
    70  H    0.126608
    71  O   -0.282542
    72  H    0.114372
    73  H    0.135813
    74  O   -0.279043
    75  H    0.127084
    76  H    0.102060
    77  O   -0.301292
    78  H    0.146329
    79  H    0.128108
    80  O   -0.324810
    81  H    0.140278
    82  H    0.125948
    83  O   -0.321052
    84  H    0.116443
    85  H    0.151914
    86  O   -0.291883
    87  H    0.132489
    88  H    0.102581
    89  O   -0.294825
    90  H    0.135805
    91  H    0.123316
    92  O   -0.261613
    93  H    0.148388
    94  H    0.144648
    95  O   -0.313462
    96  H    0.130051
    97  H    0.138833
 Sum of Mulliken charges =  -1.00000
 Mulliken charges with hydrogens summed into heavy atoms:
               1
     1  Br  -0.724865
     2  O    0.029694
     5  O   -0.031275
     8  O    0.021383
    11  O   -0.021818
    14  O   -0.025074
    17  O    0.021576
    20  O    0.032224
    23  O    0.000440
    26  O   -0.041394
    29  O   -0.017354
    32  O   -0.014673
    35  O    0.007081
    38  O   -0.020527
    41  O    0.041289
    44  O   -0.039544
    47  O   -0.047537
    50  O   -0.025654
    53  O    0.128812
    56  O    0.048048
    59  O   -0.049693
    62  O    0.080689
    65  O    0.000121
    68  O   -0.025888
    71  O   -0.032358
    74  O   -0.049899
    77  O   -0.026855
    80  O   -0.058584
    83  O   -0.052695
    86  O   -0.056813
    89  O   -0.035704
    92  O    0.031422
    95  O   -0.044578
         Mulliken charges condensed to fragments:
      1     -0.724865
      2     -0.275135
 Electronic spatial extent (au):  <R**2>=        1597162.5921
 Charge=             -1.0000 electrons
 Dipole moment (field-independent basis, Debye):
    X=            -97.2982    Y=           -106.8258    Z=            -89.2105  Tot=            169.8152
 Quadrupole moment (field-independent basis, Debye-Ang):
   XX=          -2240.5923   YY=          -2654.0924   ZZ=          -1967.5716
   XY=          -2202.2782   XZ=          -1813.9180   YZ=          -1940.4584
 Traceless Quadrupole moment (field-independent basis, Debye-Ang):
   XX=             46.8265   YY=           -366.6737   ZZ=            319.8472
   XY=          -2202.2782   XZ=          -1813.9180   YZ=          -1940.4584
 Octapole moment (field-independent basis, Debye-Ang**2):
  XXX=         -56266.4442  YYY=         -69659.5210  ZZZ=         -49492.3296  XYY=         -55378.3473
  XXY=         -50943.4988  XXZ=         -42333.0085  XZZ=         -40068.4322  YZZ=         -41501.1371
  YYZ=         -48069.7606  XYZ=         -40477.4592
 Hexadecapole moment (field-independent basis, Debye-Ang**3):
 XXXX=       -1480186.4140 YYYY=       -1866014.0899 ZZZZ=       -1337980.7057 XXXY=       -1273189.4452
 XXXZ=       -1080335.2428 YYYX=       -1462900.2990 YYYZ=       -1271426.5228 ZZZX=       -1007718.1326
 ZZZY=       -1016500.9870 XXYY=       -1272505.3989 XXZZ=        -930274.9920 YYZZ=       -1001418.2279
 XXYZ=        -955442.5978 YYXZ=       -1019711.9534 ZZXY=        -871776.3917
 N-N= 6.020425254821D+03 E-N=-2.400527370018D+04  KE= 5.003212017620D+03
 No NMR shielding tensors so no spin-rotation constants.
 Leave Link  601 at Thu May  3 10:08:57 2018, MaxMem= 14763950080 cpu:        69.1
 (Enter /cm/shared/gaussian/g09.e01/intel64-sandybridge/g09/l701.exe)
 Compute integral first derivatives.
 ... and contract with generalized density number  0.
 Leave Link  701 at Thu May  3 10:08:59 2018, MaxMem= 14763950080 cpu:       150.1
 (Enter /cm/shared/gaussian/g09.e01/intel64-sandybridge/g09/l702.exe)
 L702 exits ... SP integral derivatives will be done elsewhere.
 Leave Link  702 at Thu May  3 10:08:59 2018, MaxMem= 14763950080 cpu:         2.4
 (Enter /cm/shared/gaussian/g09.e01/intel64-sandybridge/g09/l703.exe)
 Compute integral first derivatives, UseDBF=F ICtDFT=           0.
 Integral derivatives from FoFJK, PRISM(SPDF).
 Calling FoFJK, ICntrl=      2127 FMM=T ISym2X=0 I1Cent= 0 IOpClX= 0 NMat=1 NMatS=1 NMatT=0.
 FoFJK:  IHMeth= 1 ICntrl=    2127 DoSepK=F KAlg= 0 I1Cent=   0 FoldK=F
 IRaf=         0 NMat=   1 IRICut=       1 DoRegI=T DoRafI=F ISym2E= 0.
 FoFCou: FMM=T IPFlag=           0 FMFlag=      100000 FMFlg1=        2001
         NFxFlg=           0 DoJE=F BraDBF=F KetDBF=F FulRan=T
         wScrn=  0.000000 ICntrl=    2127 IOpCl=  0 I1Cent=           0 NGrid=           0
         NMat0=    1 NMatS0=      1 NMatT0=    0 NMatD0=    1 NMtDS0=    0 NMtDT0=    0
 Symmetry not used in FoFCou.
 FMM levels:  10  Number of levels for PrismC:   9
 Leave Link  703 at Thu May  3 10:09:16 2018, MaxMem= 14763950080 cpu:      1058.1
 (Enter /cm/shared/gaussian/g09.e01/intel64-sandybridge/g09/l716.exe)
 Dipole        =-3.82800668D+01-4.20285036D+01-3.50981328D+01
 Cartesian Forces:  Max     0.029877174 RMS     0.009296037
 Leave Link  716 at Thu May  3 10:09:16 2018, MaxMem= 14763950080 cpu:         4.6
 (Enter /cm/shared/gaussian/g09.e01/intel64-sandybridge/g09/l122.exe)
 CPIOFr:  IOpCl= 0 IRwI=-1 IRwCP=  731 ICalc= -1 LCPTot=     1005244 Len1MO=     2550559 IndFrg=     1005244
 CPIOFr:  IOpCl= 0 IRwI=-1 IRwCP=  731 ICalc=  0 LCPTot=     1005244 Len1MO=     2550559 IndFrg=     3555803
 Counterpoise: doing DCBS calculation for fragment   1 NewBq=T
 Leave Link  122 at Thu May  3 10:09:16 2018, MaxMem= 14763950080 cpu:         8.9
 (Enter /cm/shared/gaussian/g09.e01/intel64-sandybridge/g09/l301.exe)
 Basis read from rwf:  (5D, 7F)
 No pseudopotential information found on rwf file.
   795 basis functions,  1651 primitive gaussians,   829 cartesian basis functions
    18 alpha electrons       18 beta electrons
       nuclear repulsion energy         0.0000000000 Hartrees.
 IExCor= 1009 DFT=T Ex+Corr=PBE1PBE ExCW=0 ScaHFX=  0.250000
 ScaDFX=  0.750000  0.750000  1.000000  1.000000 ScalE2=  1.000000  1.000000
 IRadAn=      0 IRanWt=     -1 IRanGd=            0 ICorTp=0 IEmpDi=  4
 NAtoms=   97 NActive=   97 NUniq=   97 SFac= 1.00D+00 NAtFMM=   60 NAOKFM=T Big=T
 Integral buffers will be    131072 words long.
 Raffenetti 2 integral format.
 Two-electron integral symmetry is turned off.
 No density basis found on file   718.
 Leave Link  301 at Thu May  3 10:09:16 2018, MaxMem= 14763950080 cpu:         7.0
 (Enter /cm/shared/gaussian/g09.e01/intel64-sandybridge/g09/l302.exe)
 NPDir=0 NMtPBC=     1 NCelOv=     1 NCel=       1 NClECP=     1 NCelD=      1
         NCelK=      1 NCelE2=     1 NClLst=     1 CellRange=     0.0.
 One-electron integrals computed using PRISM.
 NBasis=   795 RedAO= T EigKep=  1.27D-02  NBF=   795
 NBsUse=   795 1.00D-06 EigRej= -1.00D+00 NBFU=   795
 Precomputing XC quadrature grid using
 IXCGrd= 4 IRadAn=           0 IRanWt=          -1 IRanGd=           0 AccXCQ= 0.00D+00.
 Generated NRdTot=       0 NPtTot=           0 NUsed=           0 NTot=          32
 NSgBfM=   671   672   677   683   686 MxSgAt=    97 MxSgA2=    97.
 Leave Link  302 at Thu May  3 10:09:21 2018, MaxMem= 14763950080 cpu:       267.5
 (Enter /cm/shared/gaussian/g09.e01/intel64-sandybridge/g09/l303.exe)
 DipDrv:  MaxL=1.
 Leave Link  303 at Thu May  3 10:09:22 2018, MaxMem= 14763950080 cpu:        91.8
 (Enter /cm/shared/gaussian/g09.e01/intel64-sandybridge/g09/l401.exe)
 ExpMin= 1.22D-01 ExpMax= 6.40D+05 ExpMxC= 6.18D+03 IAcc=2 IRadAn=         4 AccDes= 0.00D+00
 Harris functional with IExCor= 1009 and IRadAn=       4 diagonalized for initial guess.
 HarFok:  IExCor= 1009 AccDes= 0.00D+00 IRadAn=         4 IDoV= 1 UseB2=F ITyADJ=14
 ICtDFT=  3500011 ScaDFX=  1.000000  1.000000  1.000000  1.000000
 FoFCou: FMM=F IPFlag=           0 FMFlag=      100000 FMFlg1=        2001
         NFxFlg=           0 DoJE=T BraDBF=F KetDBF=T FulRan=T
         wScrn=  0.000000 ICntrl=     500 IOpCl=  0 I1Cent=   200000004 NGrid=           0
         NMat0=    1 NMatS0=      1 NMatT0=    0 NMatD0=    1 NMtDS0=    0 NMtDT0=    0
 Symmetry not used in FoFCou.
 Harris En= -2574.01996498925    
 JPrj=0 DoOrth=F DoCkMO=F.
 Leave Link  401 at Thu May  3 10:09:27 2018, MaxMem= 14763950080 cpu:       279.9
 (Enter /cm/shared/gaussian/g09.e01/intel64-sandybridge/g09/l502.exe)
 Closed shell SCF:
 Using DIIS extrapolation, IDIIS=  1040.
 Two-electron integral symmetry not used.
 IVT=     2138497 IEndB=     2138497 NGot= 14763950080 MDV= 14762516294
 LenX= 14762516294 LenY= 14761828224
 Requested convergence on RMS density matrix=1.00D-08 within 128 cycles.
 Requested convergence on MAX density matrix=1.00D-06.
 Requested convergence on             energy=1.00D-06.
 No special actions if energy rises.
 Fock matrices will be formed incrementally for  20 cycles.
 Integral accuracy reduced to 1.0D-05 until final iterations.

 Cycle   1  Pass 0  IDiag  1:
 FoFJK:  IHMeth= 1 ICntrl=       0 DoSepK=F KAlg= 0 I1Cent=   0 FoldK=F
 IRaf= 810000000 NMat=   1 IRICut=       1 DoRegI=T DoRafI=F ISym2E= 0.
 FoFCou: FMM=T IPFlag=           0 FMFlag=      100000 FMFlg1=        2001
         NFxFlg=           0 DoJE=F BraDBF=F KetDBF=F FulRan=T
         wScrn=  0.000000 ICntrl=       0 IOpCl=  0 I1Cent=           0 NGrid=           0
         NMat0=    1 NMatS0=      1 NMatT0=    0 NMatD0=    1 NMtDS0=    0 NMtDT0=    0
 Symmetry not used in FoFCou.
 FMM levels:  10  Number of levels for PrismC:   9
 E= -2573.87859713731    
 DIIS: error= 1.44D-02 at cycle   1 NSaved=   1.
 NSaved= 1 IEnMin= 1 EnMin= -2573.87859713731     IErMin= 1 ErrMin= 1.44D-02
 ErrMax= 1.44D-02  0.00D+00 EMaxC= 1.00D-01 BMatC= 3.89D-02 BMatP= 3.89D-02
 IDIUse=3 WtCom= 8.56D-01 WtEn= 1.44D-01
 Coeff-Com:  0.100D+01
 Coeff-En:   0.100D+01
 Coeff:      0.100D+01
 Gap=     0.184 Goal=   None    Shift=    0.000
 GapD=    0.184 DampG=1.000 DampE=0.500 DampFc=0.5000 IDamp=-1.
 Damping current iteration by 5.00D-01
 RMSDP=4.84D-04 MaxDP=6.43D-02              OVMax= 1.49D-01

 Cycle   2  Pass 0  IDiag  1:
 RMSU=  2.39D-04    CP:  9.94D-01
 E= -2573.89562542772     Delta-E=       -0.017028290403 Rises=F Damp=T
 DIIS: error= 8.86D-03 at cycle   2 NSaved=   2.
 NSaved= 2 IEnMin= 2 EnMin= -2573.89562542772     IErMin= 2 ErrMin= 8.86D-03
 ErrMax= 8.86D-03  0.00D+00 EMaxC= 1.00D-01 BMatC= 9.20D-03 BMatP= 3.89D-02
 IDIUse=3 WtCom= 9.11D-01 WtEn= 8.86D-02
 Coeff-Com: -0.573D+00 0.157D+01
 Coeff-En:   0.000D+00 0.100D+01
 Coeff:     -0.522D+00 0.152D+01
 Gap=     0.190 Goal=   None    Shift=    0.000
 RMSDP=1.75D-04 MaxDP=4.12D-02 DE=-1.70D-02 OVMax= 6.69D-02

 Cycle   3  Pass 0  IDiag  1:
 RMSU=  1.49D-04    CP:  9.93D-01  1.38D+00
 E= -2573.90942688141     Delta-E=       -0.013801453688 Rises=F Damp=F
 DIIS: error= 4.45D-03 at cycle   3 NSaved=   3.
 NSaved= 3 IEnMin= 3 EnMin= -2573.90942688141     IErMin= 3 ErrMin= 4.45D-03
 ErrMax= 4.45D-03  0.00D+00 EMaxC= 1.00D-01 BMatC= 2.46D-03 BMatP= 9.20D-03
 IDIUse=3 WtCom= 9.55D-01 WtEn= 4.45D-02
 Coeff-Com: -0.299D+00 0.710D+00 0.589D+00
 Coeff-En:   0.000D+00 0.000D+00 0.100D+01
 Coeff:     -0.285D+00 0.678D+00 0.607D+00
 Gap=     0.173 Goal=   None    Shift=    0.000
 RMSDP=7.03D-05 MaxDP=1.73D-02 DE=-1.38D-02 OVMax= 2.12D-02

 Cycle   4  Pass 0  IDiag  1:
 RMSU=  8.43D-06    CP:  9.92D-01  1.55D+00  6.26D-01
 E= -2573.91206753167     Delta-E=       -0.002640650267 Rises=F Damp=F
 DIIS: error= 1.94D-04 at cycle   4 NSaved=   4.
 NSaved= 4 IEnMin= 4 EnMin= -2573.91206753167     IErMin= 4 ErrMin= 1.94D-04
 ErrMax= 1.94D-04  0.00D+00 EMaxC= 1.00D-01 BMatC= 3.02D-06 BMatP= 2.46D-03
 IDIUse=3 WtCom= 9.98D-01 WtEn= 1.94D-03
 Coeff-Com: -0.136D-01 0.254D-01 0.489D-01 0.939D+00
 Coeff-En:   0.000D+00 0.000D+00 0.000D+00 0.100D+01
 Coeff:     -0.136D-01 0.253D-01 0.488D-01 0.939D+00
 Gap=     0.175 Goal=   None    Shift=    0.000
 RMSDP=2.86D-06 MaxDP=6.43D-04 DE=-2.64D-03 OVMax= 8.19D-04

 Initial convergence to 1.0D-05 achieved.  Increase integral accuracy.
 Cycle   5  Pass 1  IDiag  1:
 E= -2573.91278781555     Delta-E=       -0.000720283877 Rises=F Damp=F
 DIIS: error= 6.29D-06 at cycle   1 NSaved=   1.
 NSaved= 1 IEnMin= 1 EnMin= -2573.91278781555     IErMin= 1 ErrMin= 6.29D-06
 ErrMax= 6.29D-06  0.00D+00 EMaxC= 1.00D-01 BMatC= 5.03D-08 BMatP= 5.03D-08
 IDIUse=1 WtCom= 1.00D+00 WtEn= 0.00D+00
 Coeff-Com:  0.100D+01
 Coeff:      0.100D+01
 Gap=     0.175 Goal=   None    Shift=    0.000
 RMSDP=2.86D-06 MaxDP=6.43D-04 DE=-7.20D-04 OVMax= 2.12D-04

 Cycle   6  Pass 1  IDiag  1:
 RMSU=  9.59D-07    CP:  1.00D+00
 E= -2573.91278792417     Delta-E=       -0.000000108618 Rises=F Damp=F
 DIIS: error= 5.32D-06 at cycle   2 NSaved=   2.
 NSaved= 2 IEnMin= 2 EnMin= -2573.91278792417     IErMin= 2 ErrMin= 5.32D-06
 ErrMax= 5.32D-06  0.00D+00 EMaxC= 1.00D-01 BMatC= 3.11D-09 BMatP= 5.03D-08
 IDIUse=1 WtCom= 1.00D+00 WtEn= 0.00D+00
 Coeff-Com:  0.760D-01 0.924D+00
 Coeff:      0.760D-01 0.924D+00
 Gap=     0.175 Goal=   None    Shift=    0.000
 RMSDP=1.55D-07 MaxDP=3.18D-05 DE=-1.09D-07 OVMax= 5.04D-05

 Cycle   7  Pass 1  IDiag  1:
 RMSU=  1.46D-07    CP:  1.00D+00  1.05D+00
 E= -2573.91278792683     Delta-E=       -0.000000002659 Rises=F Damp=F
 DIIS: error= 3.29D-06 at cycle   3 NSaved=   3.
 NSaved= 3 IEnMin= 3 EnMin= -2573.91278792683     IErMin= 3 ErrMin= 3.29D-06
 ErrMax= 3.29D-06  0.00D+00 EMaxC= 1.00D-01 BMatC= 1.63D-09 BMatP= 3.11D-09
 IDIUse=1 WtCom= 1.00D+00 WtEn= 0.00D+00
 Coeff-Com: -0.371D-01 0.410D+00 0.627D+00
 Coeff:     -0.371D-01 0.410D+00 0.627D+00
 Gap=     0.175 Goal=   None    Shift=    0.000
 RMSDP=6.16D-08 MaxDP=1.51D-05 DE=-2.66D-09 OVMax= 1.92D-05

 Cycle   8  Pass 1  IDiag  1:
 RMSU=  2.82D-08    CP:  1.00D+00  1.07D+00  6.52D-01
 E= -2573.91278792871     Delta-E=       -0.000000001885 Rises=F Damp=F
 DIIS: error= 1.40D-07 at cycle   4 NSaved=   4.
 NSaved= 4 IEnMin= 4 EnMin= -2573.91278792871     IErMin= 4 ErrMin= 1.40D-07
 ErrMax= 1.40D-07  0.00D+00 EMaxC= 1.00D-01 BMatC= 7.66D-12 BMatP= 1.63D-09
 IDIUse=1 WtCom= 1.00D+00 WtEn= 0.00D+00
 Coeff-Com: -0.269D-02 0.107D-01 0.686D-01 0.923D+00
 Coeff:     -0.269D-02 0.107D-01 0.686D-01 0.923D+00
 Gap=     0.175 Goal=   None    Shift=    0.000
 RMSDP=6.64D-09 MaxDP=1.18D-06 DE=-1.89D-09 OVMax= 2.80D-06

 Cycle   9  Pass 1  IDiag  1:
 RMSU=  4.01D-09    CP:  1.00D+00  1.08D+00  6.86D-01  1.02D+00
 E= -2573.91278792875     Delta-E=       -0.000000000036 Rises=F Damp=F
 DIIS: error= 4.40D-08 at cycle   5 NSaved=   5.
 NSaved= 5 IEnMin= 5 EnMin= -2573.91278792875     IErMin= 5 ErrMin= 4.40D-08
 ErrMax= 4.40D-08  0.00D+00 EMaxC= 1.00D-01 BMatC= 1.07D-12 BMatP= 7.66D-12
 IDIUse=1 WtCom= 1.00D+00 WtEn= 0.00D+00
 Coeff-Com:  0.425D-03-0.143D-01-0.533D-02 0.343D+00 0.676D+00
 Coeff:      0.425D-03-0.143D-01-0.533D-02 0.343D+00 0.676D+00
 Gap=     0.175 Goal=   None    Shift=    0.000
 RMSDP=1.70D-09 MaxDP=2.03D-07 DE=-3.59D-11 OVMax= 5.81D-07

 SCF Done:  E(RPBE1PBE) =  -2573.91278793     A.U. after    9 cycles
            NFock=  9  Conv=0.17D-08     -V/T= 2.0013
 KE= 2.570509406549D+03 PE=-6.162891390864D+03 EE= 1.018469196386D+03
 Leave Link  502 at Thu May  3 10:11:07 2018, MaxMem= 14763950080 cpu:      6333.8
 (Enter /cm/shared/gaussian/g09.e01/intel64-sandybridge/g09/l601.exe)
 Copying SCF densities to generalized density rwf, IOpCl= 0 IROHF=0.

 **********************************************************************

            Population analysis using the SCF density.

 **********************************************************************

 Alpha  occ. eigenvalues -- -482.99030 -62.39175 -56.16430 -56.16429 -56.16423
 Alpha  occ. eigenvalues --   -8.49310  -6.29622  -6.29617  -6.29599  -2.37891
 Alpha  occ. eigenvalues --   -2.37891  -2.37877  -2.37873  -2.37869  -0.47352
 Alpha  occ. eigenvalues --   -0.03212  -0.03199  -0.03182
 Alpha virt. eigenvalues --    0.14339   0.16134   0.16603   0.17079   0.18435
 Alpha virt. eigenvalues --    0.18653   0.19102   0.19986   0.20288   0.21098
 Alpha virt. eigenvalues --    0.21650   0.22300   0.22370   0.22968   0.23435
 Alpha virt. eigenvalues --    0.24437   0.24880   0.25025   0.25734   0.26273
 Alpha virt. eigenvalues --    0.26447   0.26649   0.27690   0.28013   0.28335
 Alpha virt. eigenvalues --    0.29451   0.29596   0.30234   0.30700   0.31604
 Alpha virt. eigenvalues --    0.32004   0.32410   0.33095   0.33503   0.33723
 Alpha virt. eigenvalues --    0.34291   0.34884   0.35568   0.36413   0.36736
 Alpha virt. eigenvalues --    0.36906   0.37611   0.38019   0.38345   0.38388
 Alpha virt. eigenvalues --    0.38951   0.39316   0.39855   0.40102   0.40690
 Alpha virt. eigenvalues --    0.41119   0.42020   0.42296   0.43127   0.43188
 Alpha virt. eigenvalues --    0.44165   0.44779   0.45305   0.45992   0.47039
 Alpha virt. eigenvalues --    0.48770   0.49788   0.50463   0.54214   0.60389
 Alpha virt. eigenvalues --    0.62633   0.63274   0.63445   0.63823   0.64348
 Alpha virt. eigenvalues --    0.64665   0.65310   0.65835   0.66117   0.66805
 Alpha virt. eigenvalues --    0.66962   0.67321   0.67881   0.68378   0.68979
 Alpha virt. eigenvalues --    0.69061   0.69544   0.69650   0.70074   0.70695
 Alpha virt. eigenvalues --    0.71717   0.71919   0.72880   0.73146   0.73466
 Alpha virt. eigenvalues --    0.73794   0.73948   0.74125   0.74421   0.74462
 Alpha virt. eigenvalues --    0.74863   0.75282   0.75513   0.75673   0.76064
 Alpha virt. eigenvalues --    0.76471   0.76649   0.76988   0.77264   0.77465
 Alpha virt. eigenvalues --    0.77705   0.78040   0.78288   0.78628   0.79003
 Alpha virt. eigenvalues --    0.79815   0.80119   0.80644   0.80936   0.80950
 Alpha virt. eigenvalues --    0.81688   0.81899   0.82368   0.82561   0.82995
 Alpha virt. eigenvalues --    0.83254   0.83557   0.83931   0.84302   0.84563
 Alpha virt. eigenvalues --    0.84915   0.85238   0.85802   0.85874   0.86044
 Alpha virt. eigenvalues --    0.86908   0.87099   0.87455   0.87990   0.87998
 Alpha virt. eigenvalues --    0.88258   0.89352   0.90348   0.90402   0.90742
 Alpha virt. eigenvalues --    0.90912   0.91381   0.91940   0.92431   0.92912
 Alpha virt. eigenvalues --    0.93240   0.93547   0.93613   0.94135   0.94758
 Alpha virt. eigenvalues --    0.95096   0.95737   0.96345   0.96645   0.96806
 Alpha virt. eigenvalues --    0.97036   0.97348   0.97495   0.97728   0.98412
 Alpha virt. eigenvalues --    0.99170   0.99475   0.99701   1.00593   1.00816
 Alpha virt. eigenvalues --    1.00941   1.01146   1.01609   1.02068   1.02638
 Alpha virt. eigenvalues --    1.03602   1.03796   1.04251   1.05223   1.05402
 Alpha virt. eigenvalues --    1.05584   1.05834   1.06525   1.06613   1.07636
 Alpha virt. eigenvalues --    1.08584   1.08975   1.09498   1.10768   1.10889
 Alpha virt. eigenvalues --    1.11664   1.12574   1.13001   1.13869   1.14917
 Alpha virt. eigenvalues --    1.15083   1.17066   1.18023   1.18871   1.20504
 Alpha virt. eigenvalues --    1.22160   1.23112   1.24800   1.26100   1.28042
 Alpha virt. eigenvalues --    1.32348   1.65861   1.66404   1.67378   1.67928
 Alpha virt. eigenvalues --    1.68508   1.69101   1.69366   1.70082   1.70508
 Alpha virt. eigenvalues --    1.71152   1.71264   1.71650   1.71811   1.71994
 Alpha virt. eigenvalues --    1.72355   1.72677   1.72904   1.72946   1.73353
 Alpha virt. eigenvalues --    1.73415   1.73738   1.74123   1.74316   1.74537
 Alpha virt. eigenvalues --    1.74907   1.75092   1.75465   1.75723   1.76203
 Alpha virt. eigenvalues --    1.76589   1.76898   1.77282   1.77408   1.77560
 Alpha virt. eigenvalues --    1.78128   1.78357   1.78545   1.78625   1.79034
 Alpha virt. eigenvalues --    1.79206   1.80043   1.80429   1.80645   1.81159
 Alpha virt. eigenvalues --    1.81895   1.82255   1.82972   1.83243   1.83710
 Alpha virt. eigenvalues --    1.84048   1.84489   1.85467   1.85637   1.86502
 Alpha virt. eigenvalues --    1.86993   1.87311   1.88618   1.89146   1.89403
 Alpha virt. eigenvalues --    1.91250   1.91671   1.92728   1.94297   1.94645
 Alpha virt. eigenvalues --    1.97541   1.98679   1.99423   1.99888   2.00049
 Alpha virt. eigenvalues --    2.00142   2.00227   2.00596   2.00702   2.00987
 Alpha virt. eigenvalues --    2.01142   2.01373   2.01474   2.01766   2.01907
 Alpha virt. eigenvalues --    2.02386   2.02667   2.02738   2.02916   2.03095
 Alpha virt. eigenvalues --    2.03328   2.03622   2.03855   2.04201   2.04305
 Alpha virt. eigenvalues --    2.04558   2.04903   2.05351   2.05655   2.06083
 Alpha virt. eigenvalues --    2.06298   2.06507   2.06723   2.07153   2.07415
 Alpha virt. eigenvalues --    2.07784   2.07863   2.08174   2.08365   2.08957
 Alpha virt. eigenvalues --    2.09727   2.09770   2.10476   2.10845   2.11112
 Alpha virt. eigenvalues --    2.11297   2.11951   2.12883   2.13202   2.13565
 Alpha virt. eigenvalues --    2.13626   2.13923   2.14103   2.14423   2.14736
 Alpha virt. eigenvalues --    2.15465   2.16499   2.16747   2.17238   2.17536
 Alpha virt. eigenvalues --    2.17640   2.17951   2.18094   2.18354   2.18658
 Alpha virt. eigenvalues --    2.18928   2.19276   2.19421   2.19887   2.20364
 Alpha virt. eigenvalues --    2.20905   2.21213   2.21943   2.22842   2.23726
 Alpha virt. eigenvalues --    2.24180   2.24599   2.24888   2.25027   2.25682
 Alpha virt. eigenvalues --    2.26135   2.26306   2.27114   2.27816   2.28456
 Alpha virt. eigenvalues --    2.29671   2.30384   2.31163   2.31399   2.32411
 Alpha virt. eigenvalues --    2.34090   2.37357   2.38080   2.38604   2.38793
 Alpha virt. eigenvalues --    2.39998   2.40459   2.40890   2.40950   2.41107
 Alpha virt. eigenvalues --    2.41446   2.41509   2.42178   2.42313   2.42470
 Alpha virt. eigenvalues --    2.43191   2.43673   2.44046   2.44282   2.45655
 Alpha virt. eigenvalues --    2.45912   2.46768   2.47512   2.48530   2.48799
 Alpha virt. eigenvalues --    2.49072   2.49954   2.50206   2.51256   2.51455
 Alpha virt. eigenvalues --    2.52281   2.53283   2.53835   2.53920   2.54443
 Alpha virt. eigenvalues --    2.54881   2.56292   2.57038   2.65721   2.68025
 Alpha virt. eigenvalues --    2.68196   2.69215   2.69487   2.69639   2.70392
 Alpha virt. eigenvalues --    2.70489   2.70646   2.71086   2.71351   2.71645
 Alpha virt. eigenvalues --    2.71902   2.73247   2.73706   2.74187   2.74544
 Alpha virt. eigenvalues --    2.75098   2.75823   2.76630   2.77099   2.77315
 Alpha virt. eigenvalues --    2.78313   2.79500   2.80080   2.80842   2.81300
 Alpha virt. eigenvalues --    2.82490   2.82781   2.83525   2.84372   2.84477
 Alpha virt. eigenvalues --    2.85073   2.85534   2.86056   2.86328   2.86757
 Alpha virt. eigenvalues --    2.88295   2.88395   2.88930   2.89249   2.89745
 Alpha virt. eigenvalues --    2.90117   2.90294   2.90783   2.91164   2.92410
 Alpha virt. eigenvalues --    2.92767   2.93884   2.94793   2.96107   2.96911
 Alpha virt. eigenvalues --    2.97558   2.98487   2.99739   3.01019   3.02254
 Alpha virt. eigenvalues --    3.02528   3.04366   3.05071   3.07715   3.08603
 Alpha virt. eigenvalues --    3.10558   3.11309   3.15218   3.15927   3.16676
 Alpha virt. eigenvalues --    3.17164   3.18635   3.19268   3.19801   3.20671
 Alpha virt. eigenvalues --    3.21253   3.22410   3.23221   3.23854   3.24500
 Alpha virt. eigenvalues --    3.25955   3.27367   3.27575   3.28132   3.30434
 Alpha virt. eigenvalues --    3.32870   3.33341   3.35647   3.42166   3.43504
 Alpha virt. eigenvalues --    3.46013   3.48139   3.49667   3.51715   3.53104
 Alpha virt. eigenvalues --    3.56198   3.58610   3.61388   3.63374   4.51701
 Alpha virt. eigenvalues --    4.51737   4.51975   4.51986   4.52088   4.52301
 Alpha virt. eigenvalues --    4.52351   4.52413   4.52555   4.52563   4.52575
 Alpha virt. eigenvalues --    4.52590   4.52924   4.53168   4.53507   4.53612
 Alpha virt. eigenvalues --    4.53677   4.54003   4.54014   4.54109   4.54187
 Alpha virt. eigenvalues --    4.54831   4.55057   4.55544   4.55715   4.56036
 Alpha virt. eigenvalues --    4.56110   4.56249   4.56871   4.57169   4.57673
 Alpha virt. eigenvalues --    4.58157   4.59156   4.59664   4.59817   4.59838
 Alpha virt. eigenvalues --    4.59912   4.59996   4.60306   4.60339   4.60450
 Alpha virt. eigenvalues --    4.60657   4.60808   4.61183   4.61286   4.61378
 Alpha virt. eigenvalues --    4.61746   4.61860   4.61880   4.61974   4.62085
 Alpha virt. eigenvalues --    4.62274   4.62653   4.62686   4.62971   4.63295
 Alpha virt. eigenvalues --    4.63746   4.63935   4.64076   4.64697   4.65119
 Alpha virt. eigenvalues --    4.65452   4.65540   4.66567   4.74696   4.74900
 Alpha virt. eigenvalues --    4.74976   4.75151   4.75329   4.75533   4.75834
 Alpha virt. eigenvalues --    4.76047   4.76362   4.76500   4.77382   4.77694
 Alpha virt. eigenvalues --    4.78097   4.78528   4.78736   4.78995   4.79587
 Alpha virt. eigenvalues --    4.80412   4.80426   4.81244   4.81460   4.81769
 Alpha virt. eigenvalues --    4.82614   4.82929   4.83183   4.83764   4.84209
 Alpha virt. eigenvalues --    4.84534   4.84835   4.85000   4.85234   4.85421
 Alpha virt. eigenvalues --    4.86092   4.87045   4.87079   4.87209   4.87498
 Alpha virt. eigenvalues --    4.87966   4.88044   4.88164   4.88388   4.89269
 Alpha virt. eigenvalues --    4.89364   4.89427   4.89711   4.90185   4.90533
 Alpha virt. eigenvalues --    4.90885   4.91279   4.92806   4.93154   4.93344
 Alpha virt. eigenvalues --    4.94181   4.95332   4.95817   4.96724   4.98928
 Alpha virt. eigenvalues --    4.99342   4.99771   5.00019   5.01189   5.03288
 Alpha virt. eigenvalues --    5.03484   5.04223   5.04478   5.04926   5.04994
 Alpha virt. eigenvalues --    5.05485   5.05904   5.06116   5.06275   5.08382
 Alpha virt. eigenvalues --    5.08783   5.09360   5.10008   5.11338   5.12207
 Alpha virt. eigenvalues --    5.13012   5.13317   5.14616   5.14798   5.15517
 Alpha virt. eigenvalues --    5.16069   5.16247   5.18098   5.18697   5.19089
 Alpha virt. eigenvalues --    5.20276   5.21176   5.21558   5.23319   5.23430
 Alpha virt. eigenvalues --    5.24111   5.29307   5.30657   5.34315   5.35116
 Alpha virt. eigenvalues --    5.35307   5.36133   5.36519   5.36824   5.36918
[...]
   Z20       36.64179  -0.00545   0.00000   0.00357   0.00498  36.64677
   X21       30.70805  -0.00181   0.00000  -0.00878  -0.00872  30.69933
   Y21       37.45437  -0.00198   0.00000  -0.01295  -0.01412  37.44025
   Z21       36.69848   0.00229   0.00000   0.01513   0.01732  36.71580
   X22       33.14580   0.01332   0.00000   0.02105   0.02134  33.16713
   Y22       38.62600  -0.00139   0.00000   0.00357   0.00275  38.62875
   Z22       37.64334   0.00483   0.00000  -0.01082  -0.00969  37.63366
   X23       41.53618   0.00559   0.00000   0.00220   0.00318  41.53936
   Y23       43.19914  -0.00490   0.00000  -0.01627  -0.01597  43.18317
   Z23       40.49683   0.00071   0.00000   0.01527   0.01261  40.50945
   X24       41.57397   0.00379   0.00000   0.01393   0.01467  41.58865
   Y24       41.64956  -0.00039   0.00000   0.00164   0.00160  41.65116
   Z24       39.53307  -0.00305   0.00000  -0.01546  -0.01761  39.51546
   X25       39.77874  -0.00660   0.00000  -0.00133  -0.00035  39.77839
   Y25       43.63378   0.00706   0.00000   0.02560   0.02589  43.65966
   Z25       40.57242  -0.00027   0.00000  -0.00638  -0.00872  40.56370
   X26       35.18670  -0.00479   0.00000  -0.00541  -0.00667  35.18003
   Y26       41.83854   0.00424   0.00000  -0.00597  -0.00866  41.82988
   Z26       32.06865  -0.01030   0.00000  -0.01556  -0.01605  32.05260
   X27       35.77252   0.00050   0.00000  -0.01634  -0.01749  35.75503
   Y27       40.15668  -0.01417   0.00000  -0.02393  -0.02650  40.13018
   Z27       32.33321   0.00395   0.00000   0.01983   0.01976  32.35297
   X28       35.30008  -0.00484   0.00000  -0.03025  -0.03109  35.26900
   Y28       42.61332   0.00951   0.00000   0.03569   0.03357  42.64689
   Z28       33.71271   0.00352   0.00000  -0.01798  -0.01878  33.69393
   X29       42.32987   0.00517   0.00000   0.00836   0.01016  42.34003
   Y29       33.84500  -0.02359   0.00000  -0.04301  -0.04185  33.80314
   Z29       43.06686  -0.00482   0.00000  -0.04210  -0.04178  43.02507
   X30       41.80074  -0.00339   0.00000  -0.01393  -0.01220  41.78854
   Y30       35.54575   0.01211   0.00000  -0.01215  -0.01106  35.53469
   Z30       42.80230   0.00433   0.00000   0.03592   0.03580  42.83809
   X31       44.10621  -0.00437   0.00000  -0.01507  -0.01315  44.09306
   Y31       33.99617   0.00623   0.00000   0.02039   0.02174  34.01791
   Z31       43.46370   0.00281   0.00000   0.02207   0.02185  43.48555
   X32       34.67647   0.00095   0.00000   0.01015   0.01230  34.68877
   Y32       32.80565  -0.00099   0.00000   0.00682   0.00827  32.81391
   Z32       44.21959   0.02574   0.00000   0.01839   0.02109  44.24069
   X33       34.20404  -0.00316   0.00000   0.00249   0.00418  34.20822
   Y33       33.44815   0.00357   0.00000  -0.01533  -0.01445  33.43370
   Z33       42.59443  -0.02331   0.00000  -0.02813  -0.02551  42.56892
   X34       36.07487   0.00467   0.00000  -0.00301  -0.00095  36.07393
   Y34       31.70960  -0.00717   0.00000  -0.02258  -0.02122  31.68838
   Z34       43.87944  -0.00372   0.00000  -0.00396  -0.00125  43.87819
   X35       35.77252  -0.00417   0.00000   0.00984   0.01013  35.78265
   Y35       29.21517   0.00077   0.00000   0.02817   0.02720  29.24237
   Z35       37.09532   0.00813   0.00000  -0.01577  -0.01215  37.08317
   X36       37.39768   0.01734   0.00000   0.04074   0.04101  37.43869
   Y36       30.02775   0.00767   0.00000   0.01569   0.01475  30.04250
   Z36       37.05753   0.00367   0.00000   0.01128   0.01418  37.07171
   X37       35.30008  -0.00638   0.00000  -0.00912  -0.00930  35.29078
   Y37       29.08289   0.00343   0.00000   0.03270   0.03113  29.11402
   Z37       35.35678  -0.01672   0.00000  -0.03391  -0.03012  35.32666
   X38       42.95348   0.00132   0.00000   0.00946   0.00872  42.96219
   Y38       44.93769   0.01504   0.00000   0.00729   0.00545  44.94313
   Z38       34.16625  -0.01051   0.00000  -0.00865  -0.01229  34.15396
   X39       42.70781   0.00284   0.00000   0.02538   0.02456  42.73237
   Y39       43.19914  -0.01571   0.00000  -0.02173  -0.02370  43.17544
   Z39       33.76941   0.00212   0.00000   0.01562   0.01264  33.78205
   X40       43.27473  -0.00067   0.00000  -0.01103  -0.01129  43.26343
   Y40       44.95658  -0.00444   0.00000  -0.01084  -0.01207  44.94451
   Z40       35.94259   0.00908   0.00000   0.00963   0.00591  35.94851
   X41       45.97704   0.00116   0.00000   0.01395   0.01474  45.99177
   Y41       36.56620  -0.00379   0.00000   0.00030   0.00029  36.56649
   Z41       39.38189  -0.01825   0.00000  -0.00222  -0.00381  39.37808
   X42       46.12821  -0.00257   0.00000  -0.02030  -0.01904  46.10917
   Y42       36.92525   0.00850   0.00000   0.02042   0.02101  36.94626
   Z42       41.13934   0.02399   0.00000   0.03186   0.03011  41.16944
   X43       47.05418   0.00239   0.00000   0.01031   0.01105  47.06523
   Y43       35.13001  -0.00253   0.00000  -0.00686  -0.00695  35.12306
   Z43       39.11733  -0.00190   0.00000   0.00048  -0.00091  39.11642
   X44       38.34254   0.01415   0.00000  -0.00234  -0.00459  38.33795
   Y44       39.96771  -0.00368   0.00000  -0.01092  -0.01484  39.95287
   Z44       28.28920  -0.02252   0.00000  -0.04343  -0.04413  28.24507
   X45       38.24806  -0.00178   0.00000   0.00415   0.00224  38.25029
   Y45       38.53152  -0.00774   0.00000   0.00576   0.00222  38.53374
   Z45       29.38524   0.01014   0.00000   0.01315   0.01296  29.39820
   X46       37.03863  -0.00809   0.00000   0.03108   0.02899  37.06762
   Y46       41.06375   0.01476   0.00000   0.03764   0.03391  41.09766
   Z46       28.85612   0.01227   0.00000   0.03346   0.03271  28.88883
   X47       45.92035   0.01945   0.00000   0.03510   0.03383  45.95417
   Y47       37.75673   0.00064   0.00000  -0.02661  -0.02922  37.72751
   Z47       31.74740   0.00194   0.00000   0.00479   0.00281  31.75021
   X48       44.93769  -0.00946   0.00000  -0.02209  -0.02296  44.91473
   Y48       37.58665   0.00517   0.00000   0.04268   0.04056  37.62722
   Z48       33.25918   0.00305   0.00000  -0.00904  -0.01071  33.24847
   X49       44.86210  -0.01089   0.00000  -0.01436  -0.01598  44.84612
   Y49       37.15202  -0.00225   0.00000   0.01423   0.01115  37.16317
   Z49       30.42459  -0.00706   0.00000  -0.00104  -0.00254  30.42206
   X50       29.97106  -0.02156   0.00000  -0.05949  -0.05985  29.91120
   Y50       43.61488   0.01620   0.00000   0.01251   0.01092  43.62580
   Z50       35.50795  -0.01025   0.00000   0.00355   0.00385  35.51181
   X51       30.70805   0.01013   0.00000   0.01406   0.01369  30.72174
   Y51       41.97082  -0.01226   0.00000   0.01424   0.01262  41.98344
   Z51       35.39457   0.00235   0.00000   0.00038   0.00102  35.39559
   X52       30.40569   0.00947   0.00000   0.03477   0.03483  30.44053
   Y52       44.20069   0.00080   0.00000   0.00749   0.00647  44.20716
   Z52       37.15202   0.00779   0.00000  -0.00333  -0.00337  37.14865
   X53       35.20560  -0.00029   0.00000  -0.01990  -0.01763  35.18796
   Y53       41.59287   0.00428   0.00000   0.01616   0.01795  41.61083
   Z53       45.20225  -0.00279   0.00000   0.01190   0.01148  45.21373
   X54       33.52374  -0.00560   0.00000  -0.01377  -0.01155  33.51219
   Y54       40.93147  -0.00409   0.00000  -0.01748  -0.01579  40.91568
   Z54       44.99438   0.00033   0.00000   0.00753   0.00779  45.00217
   X55       35.47016   0.00056   0.00000  -0.00524  -0.00249  35.46767
   Y55       41.59287   0.00058   0.00000   0.00130   0.00371  41.59658
   Z55       46.99749   0.00835   0.00000   0.01956   0.01907  47.01656
   X56       36.01818   0.00721   0.00000   0.01040   0.01168  36.02986
   Y56       45.44791   0.00797   0.00000   0.02110   0.02174  45.46965
   Z56       41.76295  -0.00996   0.00000   0.01591   0.01396  41.77690
   X57       36.01818  -0.00259   0.00000  -0.01702  -0.01533  36.00285
   Y57       44.42746  -0.01306   0.00000  -0.03227  -0.03113  44.39633
   Z57       43.25583   0.01277   0.00000   0.00943   0.00784  43.26367
   X58       34.50640  -0.00534   0.00000  -0.00119   0.00011  34.50651
   Y58       46.43057   0.00742   0.00000   0.02409   0.02474  46.45531
   Z58       41.87633   0.00228   0.00000   0.01341   0.01152  41.88785
   X59       38.43703  -0.01055   0.00000  -0.02864  -0.02986  38.40717
   Y59       47.35654   0.01343   0.00000   0.01737   0.01490  47.37144
   Z59       32.52219  -0.00646   0.00000  -0.00967  -0.01291  32.50927
   X60       38.09688   0.00211   0.00000   0.00593   0.00511  38.10199
   Y60       46.27939  -0.00610   0.00000   0.00187  -0.00012  46.27927
   Z60       33.93948   0.00421   0.00000   0.00226  -0.00053  33.93895
   X61       39.77874   0.00515   0.00000   0.00662   0.00518  39.78392
   Y61       46.52506  -0.00490   0.00000   0.00357   0.00083  46.52589
   Z61       31.63402   0.00501   0.00000   0.03563   0.03231  31.66632
   X62       34.09066   0.00672   0.00000   0.01675   0.01570  34.10636
   Y62       30.78364  -0.00326   0.00000  -0.02308  -0.02573  30.75790
   Z62       32.16314   0.00584   0.00000   0.02712   0.03067  32.19381
   X63       34.01507  -0.00159   0.00000  -0.00490  -0.00622  34.00885
   Y63       29.34745  -0.00032   0.00000   0.00973   0.00669  29.35413
   Z63       31.04820  -0.00404   0.00000  -0.01959  -0.01554  31.03266
   X64       32.35211  -0.00254   0.00000   0.00763   0.00669  32.35880
   Y64       31.10489   0.00203   0.00000   0.01280   0.01025  31.11515
   Z64       32.59778  -0.00037   0.00000  -0.00763  -0.00373  32.59404
   X65       41.87633   0.01347   0.00000   0.01250   0.01569  41.89202
   Y65       37.07643   0.00471   0.00000   0.02424   0.02723  37.10366
   Z65       48.41478  -0.00295   0.00000  -0.00138  -0.00206  48.41272
   X66       40.91257  -0.00565   0.00000  -0.00533  -0.00174  40.91083
   Y66       36.62289  -0.00455   0.00000  -0.01587  -0.01241  36.61048
   Z66       49.86987   0.00635   0.00000  -0.00552  -0.00577  49.86410
   X67       40.62911  -0.00517   0.00000   0.00019   0.00304  40.63215
   Y67       37.62445  -0.00165   0.00000  -0.02552  -0.02298  37.60147
   Z67       47.20536  -0.01047   0.00000  -0.03264  -0.03316  47.17220
   X68       42.19758  -0.00490   0.00000  -0.00834  -0.00877  42.18881
   Y68       27.45772  -0.01846   0.00000  -0.00607  -0.00789  27.44984
   Z68       34.26073   0.00601   0.00000   0.00817   0.01069  34.27142
   X69       42.84009   0.00460   0.00000   0.00202   0.00116  42.84125
   Y69       28.10023   0.00765   0.00000   0.01202   0.00968  28.10991
   Z69       32.71116  -0.01073   0.00000  -0.00496  -0.00284  32.70832
   X70       41.97082  -0.00148   0.00000  -0.00269  -0.00287  41.96795
   Y70       28.91281   0.01466   0.00000   0.02393   0.02246  28.93527
   Z70       35.30008   0.00688   0.00000   0.00509   0.00716  35.30725
   X71       48.84942   0.01424   0.00000   0.01573   0.01605  48.86547
   Y71       41.74405   0.01386   0.00000   0.01326   0.01281  41.75686
   Z71       37.92680   0.01044   0.00000   0.01288   0.00875  37.93555
   X72       47.69669  -0.01082   0.00000  -0.00675  -0.00631  47.69038
   Y72       40.42124  -0.01154   0.00000  -0.00351  -0.00386  40.41738
   Z72       38.30475   0.00088   0.00000   0.00423   0.00087  38.30562
   X73       48.81163  -0.00503   0.00000  -0.01902  -0.01919  48.79244
   Y73       41.89523  -0.00157   0.00000  -0.00269  -0.00377  41.89146
   Z73       36.13156  -0.01170   0.00000  -0.00573  -0.00989  36.12168
   X74       26.64514  -0.00506   0.00000   0.00614   0.00683  26.65197
   Y74       39.55197  -0.01178   0.00000  -0.02090  -0.02129  39.53068
   Z74       39.19292   0.00193   0.00000   0.01247   0.01504  39.20796
   X75       25.70028  -0.00165   0.00000  -0.00040   0.00064  25.70092
   Y75       40.28896   0.00272   0.00000   0.00887   0.00892  40.29788
   Z75       40.55352   0.00250   0.00000  -0.00051   0.00205  40.55557
   X76       27.98684   0.00760   0.00000  -0.00195  -0.00137  27.98547
   Y76       40.72360   0.00754   0.00000   0.00454   0.00405  40.72765
   Z76       38.89056  -0.00779   0.00000  -0.03738  -0.03558  38.85498
   X77       45.46681  -0.00114   0.00000  -0.00378  -0.00261  45.46420
   Y77       46.43057   0.00287   0.00000   0.01357   0.01423  46.44480
   Z77       41.40390   0.00778   0.00000   0.01397   0.00916  41.41306
   X78       44.29518  -0.00495   0.00000  -0.01160  -0.01062  44.28456
   Y78       45.25894  -0.00307   0.00000  -0.00001   0.00037  45.25931
   Z78       40.62911   0.00187   0.00000   0.02551   0.02141  40.65052
   X79       46.44947   0.00657   0.00000   0.01582   0.01661  46.46608
   Y79       47.05418   0.00088   0.00000  -0.01014  -0.00993  47.04425
   Z79       40.02440  -0.00566   0.00000   0.00100  -0.00429  40.02011
   X80       43.78495  -0.00645   0.00000  -0.01163  -0.00917  43.77579
   Y80       44.12511  -0.00711   0.00000  -0.00521  -0.00297  44.12214
   Z80       46.10932   0.01520   0.00000   0.02343   0.01986  46.12917
   X81       44.50305   0.00444   0.00000   0.00179   0.00397  44.50702
   Y81       45.50461   0.00269   0.00000  -0.01958  -0.01766  45.48694
   Z81       45.18335  -0.01295   0.00000  -0.02367  -0.02790  45.15545
   X82       43.53929   0.00149   0.00000   0.00044   0.00259  43.54188
   Y82       42.82119   0.00337   0.00000   0.01311   0.01491  42.83611
   Z82       44.86210  -0.00483   0.00000  -0.00289  -0.00596  44.85614
   X83       36.05597  -0.00456   0.00000   0.00431   0.00576  36.06173
   Y83       26.39947  -0.00231   0.00000   0.00479   0.00525  26.40472
   Z83       41.19603   0.01787   0.00000   0.04309   0.04760  41.24363
   X84       37.68114   0.00449   0.00000  -0.00066   0.00068  37.68182
   Y84       25.71917  -0.00040   0.00000  -0.00071  -0.00039  25.71878
   Z84       40.78029  -0.00415   0.00000  -0.00583  -0.00152  40.77877
   X85       35.67803   0.00042   0.00000  -0.00491  -0.00386  35.67417
   Y85       27.53331  -0.00245   0.00000  -0.03571  -0.03575  27.49756
   Z85       39.81653  -0.00644   0.00000  -0.00370   0.00054  39.81707
   X86       32.74895  -0.00933   0.00000  -0.01297  -0.01563  32.73332
   Y86       38.85277  -0.00480   0.00000  -0.00874  -0.01331  38.83946
   Z86       26.62624  -0.00751   0.00000  -0.00583  -0.00466  26.62159
   X87       31.25607   0.00261   0.00000   0.01120   0.00871  31.26478
   Y87       39.62756   0.00204   0.00000   0.01546   0.01112  39.63867
   Z87       27.32544   0.00307   0.00000   0.01567   0.01697  27.34241
   X88       34.03397   0.00749   0.00000   0.01441   0.01206  34.04603
   Y88       39.19292   0.00193   0.00000   0.00213  -0.00201  39.19091
   Z88       27.85456   0.00373   0.00000  -0.01528  -0.01458  27.83998
   X89       35.71582   0.00447   0.00000   0.01497   0.01846  35.73429
   Y89       34.01507   0.02122   0.00000   0.02044   0.02365  34.03872
   Z89       49.34075   0.01768   0.00000   0.01053   0.01253  49.35328
   X90       35.62134  -0.00149   0.00000  -0.00482  -0.00182  35.61952
   Y90       33.90169  -0.00209   0.00000   0.00519   0.00778  33.90947
   Z90       47.54551  -0.02115   0.00000  -0.01965  -0.01757  47.52794
   X91       35.71582  -0.00079   0.00000  -0.00625  -0.00258  35.71324
   Y91       32.31432  -0.01532   0.00000  -0.01069  -0.00729  32.30702
   Z91       49.90767   0.00158   0.00000  -0.00672  -0.00412  49.90355
   X92       45.92035   0.00982   0.00000   0.00682   0.00906  45.92940
   Y92       37.71893  -0.00420   0.00000  -0.03267  -0.03082  37.68811
   Z92       44.89989  -0.02239   0.00000  -0.02139  -0.02335  44.87655
   X93       44.84320  -0.01556   0.00000  -0.02799  -0.02536  44.81784
   Y93       37.71893  -0.00177   0.00000  -0.01145  -0.00912  37.70982
   Z93       46.35498   0.01545   0.00000  -0.00327  -0.00494  46.35004
   X94       47.58330   0.00448   0.00000   0.00710   0.00953  47.59283
   Y94       37.43547   0.00241   0.00000   0.01724   0.01936  37.45483
   Z94       45.56130   0.00443   0.00000   0.01718   0.01486  45.57615
   X95       30.25452  -0.00852   0.00000  -0.00737  -0.00474  30.24977
   Y95       34.92214   0.01056   0.00000   0.02284   0.02487  34.94701
   Z95       46.16601   0.00436   0.00000  -0.00004   0.00313  46.16914
   X96       29.66870   0.00148   0.00000   0.00159   0.00375  29.67245
   Y96       35.01663  -0.00296   0.00000  -0.01273  -0.01129  35.00533
   Z96       44.44636  -0.00235   0.00000  -0.00697  -0.00367  44.44269
   X97       31.72850   0.00629   0.00000  -0.00572  -0.00310  31.72540
   Y97       33.86389  -0.00551   0.00000  -0.00209  -0.00006  33.86383
   Z97       46.07152  -0.00282   0.00000  -0.00512  -0.00199  46.06954
         Item               Value     Threshold  Converged?
 Maximum Force            0.030036     0.000450     NO 
 RMS     Force            0.009317     0.000300     NO 
 Maximum Displacement     0.059854     0.001800     NO 
 RMS     Displacement     0.017520     0.001200     NO 
 Predicted change in Energy=-2.341118D-02
 GradGradGradGradGradGradGradGradGradGradGradGradGradGradGradGradGradGrad

 Leave Link  103 at Thu May  3 10:16:50 2018, MaxMem= 14763950080 cpu:        66.2
 (Enter /cm/shared/gaussian/g09.e01/intel64-sandybridge/g09/l9999.exe)
 1\1\GINC-POPLE03\Force\RPBE1PBE\CC-pVDZ\Br1H64O32(1-)\M.PELUSO\03-May-
 2018\0\\#p PBE1PBE/cc-pvDZ force Counterpoise=2 noSymm\\forces on chlo
 ride comput - NWATER: 32\\-1,1\Br,20.,20.,20.\O,19.93,19.31,17.04\H,19
 .87,18.37,17.21\H,20.04,19.7,17.91\O,17.82,17.74,20.72\H,18.21,16.97,2
 0.32\H,18.35,18.47,20.4\O,22.98,21.01,19.21\H,22.08,20.73,19.37\H,23.5
 2,20.32,19.6\O,20.5,20.13,23.31\H,19.76,20.67,23.56\H,20.52,20.17,22.3
 5\O,18.94,23.17,19.6\H,18.87,23.5,20.5\H,19.43,22.35,19.69\O,21.38,16.
 98,20.19\H,21.84,16.68,20.98\H,21.19,17.9,20.35\O,16.77,20.63,19.39\H,
 16.25,19.82,19.42\H,17.54,20.44,19.92\O,21.98,22.86,21.43\H,22.,22.04,
 20.92\H,21.05,23.09,21.47\O,18.62,22.14,16.97\H,18.93,21.25,17.11\H,18
 .68,22.55,17.84\O,22.4,17.91,22.79\H,22.12,18.81,22.65\H,23.34,17.99,2
 3.\O,18.35,17.36,23.4\H,18.1,17.7,22.54\H,19.09,16.78,23.22\O,18.93,15
 .46,19.63\H,19.79,15.89,19.61\H,18.68,15.39,18.71\O,22.73,23.78,18.08\
 H,22.6,22.86,17.87\H,22.9,23.79,19.02\O,24.33,19.35,20.84\H,24.41,19.5
 4,21.77\H,24.9,18.59,20.7\O,20.29,21.15,14.97\H,20.24,20.39,15.55\H,19
 .6,21.73,15.27\O,24.3,19.98,16.8\H,23.78,19.89,17.6\H,23.74,19.66,16.1
 \O,15.86,23.08,18.79\H,16.25,22.21,18.73\H,16.09,23.39,19.66\O,18.63,2
 2.01,23.92\H,17.74,21.66,23.81\H,18.77,22.01,24.87\O,19.06,24.05,22.1\
 H,19.06,23.51,22.89\H,18.26,24.57,22.16\O,20.34,25.06,17.21\H,20.16,24
 .49,17.96\H,21.05,24.62,16.74\O,18.04,16.29,17.02\H,18.,15.53,16.43\H,
 17.12,16.46,17.25\O,22.16,19.62,25.62\H,21.65,19.38,26.39\H,21.5,19.91
 ,24.98\O,22.33,14.53,18.13\H,22.67,14.87,17.31\H,22.21,15.3,18.68\O,25
 .85,22.09,20.07\H,25.24,21.39,20.27\H,25.83,22.17,19.12\O,14.1,20.93,2
 0.74\H,13.6,21.32,21.46\H,14.81,21.55,20.58\O,24.06,24.57,21.91\H,23.4
 4,23.95,21.5\H,24.58,24.9,21.18\O,23.17,23.35,24.4\H,23.55,24.08,23.91
 \H,23.04,22.66,23.74\O,19.08,13.97,21.8\H,19.94,13.61,21.58\H,18.88,14
 .57,21.07\O,17.33,20.56,14.09\H,16.54,20.97,14.46\H,18.01,20.74,14.74\
 O,18.9,18.,26.11\H,18.85,17.94,25.16\H,18.9,17.1,26.41\O,24.3,19.96,23
 .76\H,23.73,19.96,24.53\H,25.18,19.81,24.11\O,16.01,18.48,24.43\H,15.7
 ,18.53,23.52\H,16.79,17.92,24.38\\Version=ES64L-G09RevE.01\HF=-2443.17
 94178\RMSD=3.092e-09\RMSF=9.317e-03\Dipole=0.039825,-3.9516366,3.48091
 68\Quadrupole=35.5183177,-271.9968268,236.4785091,-1635.6224455,-1347.
 7388013,-1442.0807595\PG=C01 [X(Br1H64O32)]\\@


 EXPERIENCE IS A WONDERFUL THING.  IT ENABLES
 YOU TO RECOGNIZE A MISTAKE WHEN YOU MAKE IT AGAIN.
           - BACK OF A SUGAR PACKET
 Job cpu time:       0 days 10 hours 47 minutes 56.0 seconds.
 File lengths (MBytes):  RWF=    482 Int=      0 D2E=      0 Chk=    160 Scr=      1
 Normal termination of Gaussian 09 at Thu May  3 10:16:50 2018.
