 Entering Gaussian System, Link 0=/cm/shared/gaussian/g09.e01/intel64-sandybridge/g09/g09
 Initial command:
 /cm/shared/gaussian/g09.e01/intel64-sandybridge/g09/l1.exe "/local/scratch/m.peluso/32_wat/Gau-57975.inp" -scrdir="/local/scratch/m.peluso/32_wat/"
 Entering Link 1 = /cm/shared/gaussian/g09.e01/intel64-sandybridge/g09/l1.exe PID=     57976.
  
 Copyright (c) 1988,1990,1992,1993,1995,1998,2003,2009,2015,
            Gaussian, Inc.  All Rights Reserved.
  
 This is part of the Gaussian(R) 09 program.  It is based on
 the Gaussian(R) 03 system (copyright 2003, Gaussian, Inc.),
 the Gaussian(R) 98 system (copyright 1998, Gaussian, Inc.),
 the Gaussian(R) 94 system (copyright 1995, Gaussian, Inc.),
 the Gaussian 92(TM) system (copyright 1992, Gaussian, Inc.),
 the Gaussian 90(TM) system (copyright 1990, Gaussian, Inc.),
 the Gaussian 88(TM) system (copyright 1988, Gaussian, Inc.),
 the Gaussian 86(TM) system (copyright 1986, Carnegie Mellon
 University), and the Gaussian 82(TM) system (copyright 1983,
 Carnegie Mellon University). Gaussian is a federally registered
 trademark of Gaussian, Inc.
  
 This software contains proprietary and confidential information,
 including trade secrets, belonging to Gaussian, Inc.
  
 This software is provided under written license and may be
 used, copied, transmitted, or stored only in accord with that
 written license.
  
 The following legend is applicable only to US Government
 contracts under FAR:
  
                    RESTRICTED RIGHTS LEGEND
  
 Use, reproduction and disclosure by the US Government is
 subject to restrictions as set forth in subparagraphs (a)
 and (c) of the Commercial Computer Software - Restricted
 Rights clause in FAR 52.227-19.
  
 Gaussian, Inc.
 340 Quinnipiac St., Bldg. 40, Wallingford CT 06492
  
  
 ---------------------------------------------------------------
 Warning -- This program may not be used in any manner that
 competes with the business of Gaussian, Inc. or will provide
 assistance to any competitor of Gaussian, Inc.  The licensee
 of this program is prohibited from giving any competitor of
 Gaussian, Inc. access to this program.  By using this program,
 the user acknowledges that Gaussian, Inc. is engaged in the
 business of creating and licensing software in the field of
 computational chemistry and represents and warrants to the
 licensee that it is not a competitor of Gaussian, Inc. and that
 it will not use this program in any manner prohibited above.
 ---------------------------------------------------------------
  

 Cite this work as:
 Gaussian 09, Revision E.01,
 M. J. Frisch, G. W. Trucks, H. B. Schlegel, G. E. Scuseria, 
 M. A. Robb, J. R. Cheeseman, G. Scalmani, V. Barone, B. Mennucci, 
 G. A. Petersson, H. Nakatsuji, M. Caricato, X. Li, H. P. Hratchian, 
 A. F. Izmaylov, J. Bloino, G. Zheng, J. L. Sonnenberg, M. Hada, 
 M. Ehara, K. Toyota, R. Fukuda, J. Hasegawa, M. Ishida, T. Nakajima, 
 Y. Honda, O. Kitao, H. Nakai, T. Vreven, J. A. Montgomery, Jr., 
 J. E. Peralta, F. Ogliaro, M. Bearpark, J. J. Heyd, E. Brothers, 
 K. N. Kudin, V. N. Staroverov, T. Keith, R. Kobayashi, J. Normand, 
 K. Raghavachari, A. Rendell, J. C. Burant, S. S. Iyengar, J. Tomasi, 
 M. Cossi, N. Rega, J. M. Millam, M. Klene, J. E. Knox, J. B. Cross, 
 V. Bakken, C. Adamo, J. Jaramillo, R. Gomperts, R. E. Stratmann, 
 O. Yazyev, A. J. Austin, R. Cammi, C. Pomelli, J. W. Ochterski, 
 R. L. Martin, K. Morokuma, V. G. Zakrzewski, G. A. Voth, 
 P. Salvador, J. J. Dannenberg, S. Dapprich, A. D. Daniels, 
 O. Farkas, J. B. Foresman, J. V. Ortiz, J. Cioslowski, 
 and D. J. Fox, Gaussian, Inc., Wallingford CT, 2013.
 
 ******************************************
 Gaussian 09:  ES64L-G09RevE.01 30-Nov-2015
                 2-May-2018 
 ******************************************
 %Mem=110GB
 %NProcShared=64
 Will use up to   64 processors via shared memory.
 %chk=snap65.chk
 ----------------------------------------------
 #p PBE1PBE/cc-pvDZ force Counterpoise=2 noSymm
 ----------------------------------------------
 1/10=7,30=1,38=1,62=2/1,3;
 2/12=2,15=1,17=6,18=5,40=1/2;
 1/10=7,30=1,38=1,53=2,62=2,63=101/22;
 3/5=16,11=2,16=1,25=1,30=1,71=1,74=-13/1,2,3;
 4//1;
 5/5=2,38=5/2;
 6/7=2,8=2,9=2,10=2,28=1/1;
 7/7=1,29=1,30=1,33=-1/1,2,3,16;
 1/10=7,30=1,53=2,62=2,63=101/22;
 3/5=7,6=11,11=2,16=1,25=1,30=1,71=1,74=-13,82=7/1,2,3;
 4//1;
 5/5=2,38=5/2;
 6/7=2,8=2,9=2,10=2,28=1/1;
 7/7=1,29=1,30=1,33=-1/1,2,3,16;
 1/10=7,30=1,53=2,62=2,63=101/22(-5);
 7/9=1,29=1,44=-1/16;
 1/10=7,30=1,62=2/3;
 99//99;
 Leave Link    1 at Wed May  2 23:26:44 2018, MaxMem= 14763950080 cpu:         7.4
 (Enter /cm/shared/gaussian/g09.e01/intel64-sandybridge/g09/l101.exe)
 --------------------------------------
 forces on chloride comput - NWATER: 32
 --------------------------------------
 Symbolic Z-matrix:
 Charge = -1 Multiplicity = 1 in supermolecule
 Charge = -1 Multiplicity = 1 in fragment      1.
 Charge =  0 Multiplicity = 1 in fragment      2.
 Br(Fragment=1)        20.       20.       20. 
 O(Fragment=2)         20.99     22.86     19.68 
 H(Fragment=2)         20.28     23.17     19.12 
 H(Fragment=2)         20.97     21.9      19.58 
 O(Fragment=2)         17.       18.7      20.39 
 H(Fragment=2)         16.35     19.32     20.06 
 H(Fragment=2)         17.84     19.06     20.12 
 O(Fragment=2)         20.57     22.03     22.75 
 H(Fragment=2)         20.37     21.51     21.97 
 H(Fragment=2)         20.34     22.93     22.5 
 O(Fragment=2)         19.34     16.7      21.37 
 H(Fragment=2)         19.29     17.61     21.09 
 H(Fragment=2)         18.54     16.55     21.87 
 O(Fragment=2)         22.83     17.79     20.45 
 H(Fragment=2)         22.36     18.56     20.12 
 H(Fragment=2)         23.54     18.16     20.98 
 O(Fragment=2)         20.71     17.44     17.38 
 H(Fragment=2)         20.56     17.83     18.24 
 H(Fragment=2)         20.57     16.5      17.51 
 O(Fragment=2)         17.26     19.25     17.36 
 H(Fragment=2)         18.05     19.52     17.84 
 H(Fragment=2)         16.54     19.58     17.89 
 O(Fragment=2)         16.94     21.7      19.57 
 H(Fragment=2)         17.61     21.79     20.25 
 H(Fragment=2)         17.31     22.15     18.81 
 O(Fragment=2)         21.32     17.62     22.96 
 H(Fragment=2)         21.72     18.08     22.22 
 H(Fragment=2)         20.71     17.       22.56 
 O(Fragment=2)         16.95     20.64     22.95 
 H(Fragment=2)         17.37     20.34     22.14 
 H(Fragment=2)         16.05     20.84     22.69 
 O(Fragment=2)         23.81     20.71     18.18 
 H(Fragment=2)         23.7      20.13     18.93 
 H(Fragment=2)         24.48     20.29     17.64 
 O(Fragment=2)         21.18     22.06     16.02 
 H(Fragment=2)         21.54     21.66     16.81 
 H(Fragment=2)         21.57     21.57     15.3 
 O(Fragment=2)         23.46     23.05     21.63 
 H(Fragment=2)         23.35     23.54     22.44 
 H(Fragment=2)         22.58     23.01     21.25 
 O(Fragment=2)         18.2      23.17     17.77 
 H(Fragment=2)         18.91     23.79     17.61 
 H(Fragment=2)         17.63     23.25     17.01 
 O(Fragment=2)         23.66     23.46     18.04 
 H(Fragment=2)         22.92     23.19     18.57 
 H(Fragment=2)         24.       22.64     17.66 
 O(Fragment=2)         17.08     15.78     19.24 
 H(Fragment=2)         17.21     15.7      18.29 
 H(Fragment=2)         16.89     16.71     19.37 
 O(Fragment=2)         18.39     24.05     21.68 
 H(Fragment=2)         19.23     24.5      21.72 
 H(Fragment=2)         17.91     24.48     20.98 
 O(Fragment=2)         19.81     15.01     18.44 
 H(Fragment=2)         20.14     14.17     18.75 
 H(Fragment=2)         19.41     15.41     19.21 
 O(Fragment=2)         18.59     21.98     24.68 
 H(Fragment=2)         18.       21.59     24.04 
 H(Fragment=2)         19.45     21.96     24.25 
 O(Fragment=2)         18.9      17.45     15.33 
 H(Fragment=2)         19.82     17.34     15.57 
 H(Fragment=2)         18.59     18.19     15.87 
 O(Fragment=2)         21.71     21.61     25.21 
 H(Fragment=2)         21.98     20.72     25.45 
 H(Fragment=2)         21.57     21.58     24.27 
 O(Fragment=2)         15.78     17.78     22.65 
 H(Fragment=2)         16.46     18.25     23.14 
 H(Fragment=2)         15.87     18.11     21.75 
 O(Fragment=2)         14.63     20.89     18.58 
 H(Fragment=2)         14.07     20.8      19.35 
 H(Fragment=2)         15.39     21.38     18.9 
 O(Fragment=2)         17.61     20.04     14.77 
 H(Fragment=2)         17.39     20.94     14.56 
 H(Fragment=2)         17.31     19.92     15.67 
 O(Fragment=2)         18.23     17.56     24.18 
 H(Fragment=2)         17.72     17.48     24.99 
 H(Fragment=2)         19.13     17.69     24.48 
 O(Fragment=2)         24.19     18.38     23.5 
 H(Fragment=2)         23.25     18.39     23.66 
 H(Fragment=2)         24.43     19.31     23.39 
 O(Fragment=2)         20.33     24.5      16.38 
 H(Fragment=2)         20.68     23.62     16.27 
 H(Fragment=2)         20.94     25.07     15.9 
 O(Fragment=2)         23.28     14.77     19.97 
 H(Fragment=2)         23.31     14.52     19.04 
 H(Fragment=2)         23.02     15.69     19.96 
 O(Fragment=2)         21.36     14.68     22.37 
 H(Fragment=2)         20.74     15.       21.72 
 H(Fragment=2)         22.01     14.19     21.86 
 O(Fragment=2)         25.37     18.89     19.84 
 H(Fragment=2)         25.67     18.17     20.39 
 H(Fragment=2)         26.17     19.21     19.41 
 O(Fragment=2)         25.57     22.27     20.04 
 H(Fragment=2)         24.91     22.34     20.73 
 H(Fragment=2)         25.27     21.54     19.5 
 O(Fragment=2)         22.69     16.93     15.12 
 H(Fragment=2)         22.81     17.82     14.78 
 H(Fragment=2)         22.55     17.05     16.06 
 
 NAtoms=     97 NQM=       97 NQMF=       0 NMMI=      0 NMMIF=      0
                NMic=       0 NMicF=      0.
                    Isotopes and Nuclear Properties:
 (Nuclear quadrupole moments (NQMom) in fm**2, nuclear magnetic moments (NMagM)
  in nuclear magnetons)

  Atom         1           2           3           4           5           6           7           8           9          10
 IAtWgt=          79          16           1           1          16           1           1          16           1           1
 AtmWgt=  78.9183361  15.9949146   1.0078250   1.0078250  15.9949146   1.0078250   1.0078250  15.9949146   1.0078250   1.0078250
 NucSpn=           3           0           1           1           0           1           1           0           1           1
 AtZEff=   0.0000000   0.0000000   0.0000000   0.0000000   0.0000000   0.0000000   0.0000000   0.0000000   0.0000000   0.0000000
 NQMom=   31.3000000   0.0000000   0.0000000   0.0000000   0.0000000   0.0000000   0.0000000   0.0000000   0.0000000   0.0000000
 NMagM=    2.1063990   0.0000000   2.7928460   2.7928460   0.0000000   2.7928460   2.7928460   0.0000000   2.7928460   2.7928460
 AtZNuc=  35.0000000   8.0000000   1.0000000   1.0000000   8.0000000   1.0000000   1.0000000   8.0000000   1.0000000   1.0000000

  Atom        11          12          13          14          15          16          17          18          19          20
 IAtWgt=          16           1           1          16           1           1          16           1           1          16
 AtmWgt=  15.9949146   1.0078250   1.0078250  15.9949146   1.0078250   1.0078250  15.9949146   1.0078250   1.0078250  15.9949146
 NucSpn=           0           1           1           0           1           1           0           1           1           0
 AtZEff=   0.0000000   0.0000000   0.0000000   0.0000000   0.0000000   0.0000000   0.0000000   0.0000000   0.0000000   0.0000000
 NQMom=    0.0000000   0.0000000   0.0000000   0.0000000   0.0000000   0.0000000   0.0000000   0.0000000   0.0000000   0.0000000
 NMagM=    0.0000000   2.7928460   2.7928460   0.0000000   2.7928460   2.7928460   0.0000000   2.7928460   2.7928460   0.0000000
 AtZNuc=   8.0000000   1.0000000   1.0000000   8.0000000   1.0000000   1.0000000   8.0000000   1.0000000   1.0000000   8.0000000

  Atom        21          22          23          24          25          26          27          28          29          30
 IAtWgt=           1           1          16           1           1          16           1           1          16           1
 AtmWgt=   1.0078250   1.0078250  15.9949146   1.0078250   1.0078250  15.9949146   1.0078250   1.0078250  15.9949146   1.0078250
 NucSpn=           1           1           0           1           1           0           1           1           0           1
 AtZEff=   0.0000000   0.0000000   0.0000000   0.0000000   0.0000000   0.0000000   0.0000000   0.0000000   0.0000000   0.0000000
 NQMom=    0.0000000   0.0000000   0.0000000   0.0000000   0.0000000   0.0000000   0.0000000   0.0000000   0.0000000   0.0000000
 NMagM=    2.7928460   2.7928460   0.0000000   2.7928460   2.7928460   0.0000000   2.7928460   2.7928460   0.0000000   2.7928460
 AtZNuc=   1.0000000   1.0000000   8.0000000   1.0000000   1.0000000   8.0000000   1.0000000   1.0000000   8.0000000   1.0000000

  Atom        31          32          33          34          35          36          37          38          39          40
 IAtWgt=           1          16           1           1          16           1           1          16           1           1
 AtmWgt=   1.0078250  15.9949146   1.0078250   1.0078250  15.9949146   1.0078250   1.0078250  15.9949146   1.0078250   1.0078250
 NucSpn=           1           0           1           1           0           1           1           0           1           1
 AtZEff=   0.0000000   0.0000000   0.0000000   0.0000000   0.0000000   0.0000000   0.0000000   0.0000000   0.0000000   0.0000000
 NQMom=    0.0000000   0.0000000   0.0000000   0.0000000   0.0000000   0.0000000   0.0000000   0.0000000   0.0000000   0.0000000
 NMagM=    2.7928460   0.0000000   2.7928460   2.7928460   0.0000000   2.7928460   2.7928460   0.0000000   2.7928460   2.7928460
 AtZNuc=   1.0000000   8.0000000   1.0000000   1.0000000   8.0000000   1.0000000   1.0000000   8.0000000   1.0000000   1.0000000

  Atom        41          42          43          44          45          46          47          48          49          50
 IAtWgt=          16           1           1          16           1           1          16           1           1          16
 AtmWgt=  15.9949146   1.0078250   1.0078250  15.9949146   1.0078250   1.0078250  15.9949146   1.0078250   1.0078250  15.9949146
 NucSpn=           0           1           1           0           1           1           0           1           1           0
 AtZEff=   0.0000000   0.0000000   0.0000000   0.0000000   0.0000000   0.0000000   0.0000000   0.0000000   0.0000000   0.0000000
 NQMom=    0.0000000   0.0000000   0.0000000   0.0000000   0.0000000   0.0000000   0.0000000   0.0000000   0.0000000   0.0000000
 NMagM=    0.0000000   2.7928460   2.7928460   0.0000000   2.7928460   2.7928460   0.0000000   2.7928460   2.7928460   0.0000000
 AtZNuc=   8.0000000   1.0000000   1.0000000   8.0000000   1.0000000   1.0000000   8.0000000   1.0000000   1.0000000   8.0000000

  Atom        51          52          53          54          55          56          57          58          59          60
 IAtWgt=           1           1          16           1           1          16           1           1          16           1
 AtmWgt=   1.0078250   1.0078250  15.9949146   1.0078250   1.0078250  15.9949146   1.0078250   1.0078250  15.9949146   1.0078250
 NucSpn=           1           1           0           1           1           0           1           1           0           1
 AtZEff=   0.0000000   0.0000000   0.0000000   0.0000000   0.0000000   0.0000000   0.0000000   0.0000000   0.0000000   0.0000000
 NQMom=    0.0000000   0.0000000   0.0000000   0.0000000   0.0000000   0.0000000   0.0000000   0.0000000   0.0000000   0.0000000
 NMagM=    2.7928460   2.7928460   0.0000000   2.7928460   2.7928460   0.0000000   2.7928460   2.7928460   0.0000000   2.7928460
 AtZNuc=   1.0000000   1.0000000   8.0000000   1.0000000   1.0000000   8.0000000   1.0000000   1.0000000   8.0000000   1.0000000

  Atom        61          62          63          64          65          66          67          68          69          70
 IAtWgt=           1          16           1           1          16           1           1          16           1           1
 AtmWgt=   1.0078250  15.9949146   1.0078250   1.0078250  15.9949146   1.0078250   1.0078250  15.9949146   1.0078250   1.0078250
 NucSpn=           1           0           1           1           0           1           1           0           1           1
 AtZEff=   0.0000000   0.0000000   0.0000000   0.0000000   0.0000000   0.0000000   0.0000000   0.0000000   0.0000000   0.0000000
 NQMom=    0.0000000   0.0000000   0.0000000   0.0000000   0.0000000   0.0000000   0.0000000   0.0000000   0.0000000   0.0000000
 NMagM=    2.7928460   0.0000000   2.7928460   2.7928460   0.0000000   2.7928460   2.7928460   0.0000000   2.7928460   2.7928460
 AtZNuc=   1.0000000   8.0000000   1.0000000   1.0000000   8.0000000   1.0000000   1.0000000   8.0000000   1.0000000   1.0000000

  Atom        71          72          73          74          75          76          77          78          79          80
 IAtWgt=          16           1           1          16           1           1          16           1           1          16
 AtmWgt=  15.9949146   1.0078250   1.0078250  15.9949146   1.0078250   1.0078250  15.9949146   1.0078250   1.0078250  15.9949146
 NucSpn=           0           1           1           0           1           1           0           1           1           0
 AtZEff=   0.0000000   0.0000000   0.0000000   0.0000000   0.0000000   0.0000000   0.0000000   0.0000000   0.0000000   0.0000000
 NQMom=    0.0000000   0.0000000   0.0000000   0.0000000   0.0000000   0.0000000   0.0000000   0.0000000   0.0000000   0.0000000
 NMagM=    0.0000000   2.7928460   2.7928460   0.0000000   2.7928460   2.7928460   0.0000000   2.7928460   2.7928460   0.0000000
 AtZNuc=   8.0000000   1.0000000   1.0000000   8.0000000   1.0000000   1.0000000   8.0000000   1.0000000   1.0000000   8.0000000

  Atom        81          82          83          84          85          86          87          88          89          90
 IAtWgt=           1           1          16           1           1          16           1           1          16           1
 AtmWgt=   1.0078250   1.0078250  15.9949146   1.0078250   1.0078250  15.9949146   1.0078250   1.0078250  15.9949146   1.0078250
 NucSpn=           1           1           0           1           1           0           1           1           0           1
 AtZEff=   0.0000000   0.0000000   0.0000000   0.0000000   0.0000000   0.0000000   0.0000000   0.0000000   0.0000000   0.0000000
 NQMom=    0.0000000   0.0000000   0.0000000   0.0000000   0.0000000   0.0000000   0.0000000   0.0000000   0.0000000   0.0000000
 NMagM=    2.7928460   2.7928460   0.0000000   2.7928460   2.7928460   0.0000000   2.7928460   2.7928460   0.0000000   2.7928460
 AtZNuc=   1.0000000   1.0000000   8.0000000   1.0000000   1.0000000   8.0000000   1.0000000   1.0000000   8.0000000   1.0000000

  Atom        91          92          93          94          95          96          97
 IAtWgt=           1          16           1           1          16           1           1
 AtmWgt=   1.0078250  15.9949146   1.0078250   1.0078250  15.9949146   1.0078250   1.0078250
 NucSpn=           1           0           1           1           0           1           1
 AtZEff=   0.0000000   0.0000000   0.0000000   0.0000000   0.0000000   0.0000000   0.0000000
 NQMom=    0.0000000   0.0000000   0.0000000   0.0000000   0.0000000   0.0000000   0.0000000
 NMagM=    2.7928460   0.0000000   2.7928460   2.7928460   0.0000000   2.7928460   2.7928460
 AtZNuc=   1.0000000   8.0000000   1.0000000   1.0000000   8.0000000   1.0000000   1.0000000
 Leave Link  101 at Wed May  2 23:26:45 2018, MaxMem= 14763950080 cpu:        12.6
 (Enter /cm/shared/gaussian/g09.e01/intel64-sandybridge/g09/l103.exe)

 GradGradGradGradGradGradGradGradGradGradGradGradGradGradGradGradGradGrad
 Berny optimization.
 Initialization pass.
 Trust Radius=3.00D-01 FncErr=1.00D-07 GrdErr=1.00D-07
 Number of steps in this run=      2 maximum allowed number of steps=      2.
 GradGradGradGradGradGradGradGradGradGradGradGradGradGradGradGradGradGrad

 Leave Link  103 at Wed May  2 23:26:45 2018, MaxMem= 14763950080 cpu:         1.7
 (Enter /cm/shared/gaussian/g09.e01/intel64-sandybridge/g09/l202.exe)
 Symmetry turned off by external request.
 Stoichiometry    BrH64O32(1-)
 Framework group  C1[X(BrH64O32)]
 Deg. of freedom   285
 Full point group                 C1      NOp   1
                          Input orientation:                          
 ---------------------------------------------------------------------
 Center     Atomic      Atomic             Coordinates (Angstroms)
 Number     Number       Type             X           Y           Z
 ---------------------------------------------------------------------
      1         35           0       20.000000   20.000000   20.000000
      2          8           0       20.990000   22.860000   19.680000
      3          1           0       20.280000   23.170000   19.120000
      4          1           0       20.970000   21.900000   19.580000
      5          8           0       17.000000   18.700000   20.390000
      6          1           0       16.350000   19.320000   20.060000
      7          1           0       17.840000   19.060000   20.120000
      8          8           0       20.570000   22.030000   22.750000
      9          1           0       20.370000   21.510000   21.970000
     10          1           0       20.340000   22.930000   22.500000
     11          8           0       19.340000   16.700000   21.370000
     12          1           0       19.290000   17.610000   21.090000
     13          1           0       18.540000   16.550000   21.870000
     14          8           0       22.830000   17.790000   20.450000
     15          1           0       22.360000   18.560000   20.120000
     16          1           0       23.540000   18.160000   20.980000
     17          8           0       20.710000   17.440000   17.380000
     18          1           0       20.560000   17.830000   18.240000
     19          1           0       20.570000   16.500000   17.510000
     20          8           0       17.260000   19.250000   17.360000
     21          1           0       18.050000   19.520000   17.840000
     22          1           0       16.540000   19.580000   17.890000
     23          8           0       16.940000   21.700000   19.570000
     24          1           0       17.610000   21.790000   20.250000
     25          1           0       17.310000   22.150000   18.810000
     26          8           0       21.320000   17.620000   22.960000
     27          1           0       21.720000   18.080000   22.220000
     28          1           0       20.710000   17.000000   22.560000
     29          8           0       16.950000   20.640000   22.950000
     30          1           0       17.370000   20.340000   22.140000
     31          1           0       16.050000   20.840000   22.690000
     32          8           0       23.810000   20.710000   18.180000
     33          1           0       23.700000   20.130000   18.930000
     34          1           0       24.480000   20.290000   17.640000
     35          8           0       21.180000   22.060000   16.020000
     36          1           0       21.540000   21.660000   16.810000
     37          1           0       21.570000   21.570000   15.300000
     38          8           0       23.460000   23.050000   21.630000
     39          1           0       23.350000   23.540000   22.440000
     40          1           0       22.580000   23.010000   21.250000
     41          8           0       18.200000   23.170000   17.770000
     42          1           0       18.910000   23.790000   17.610000
     43          1           0       17.630000   23.250000   17.010000
     44          8           0       23.660000   23.460000   18.040000
     45          1           0       22.920000   23.190000   18.570000
     46          1           0       24.000000   22.640000   17.660000
     47          8           0       17.080000   15.780000   19.240000
     48          1           0       17.210000   15.700000   18.290000
     49          1           0       16.890000   16.710000   19.370000
     50          8           0       18.390000   24.050000   21.680000
     51          1           0       19.230000   24.500000   21.720000
     52          1           0       17.910000   24.480000   20.980000
     53          8           0       19.810000   15.010000   18.440000
     54          1           0       20.140000   14.170000   18.750000
     55          1           0       19.410000   15.410000   19.210000
     56          8           0       18.590000   21.980000   24.680000
     57          1           0       18.000000   21.590000   24.040000
     58          1           0       19.450000   21.960000   24.250000
     59          8           0       18.900000   17.450000   15.330000
     60          1           0       19.820000   17.340000   15.570000
     61          1           0       18.590000   18.190000   15.870000
     62          8           0       21.710000   21.610000   25.210000
     63          1           0       21.980000   20.720000   25.450000
     64          1           0       21.570000   21.580000   24.270000
     65          8           0       15.780000   17.780000   22.650000
     66          1           0       16.460000   18.250000   23.140000
     67          1           0       15.870000   18.110000   21.750000
     68          8           0       14.630000   20.890000   18.580000
     69          1           0       14.070000   20.800000   19.350000
     70          1           0       15.390000   21.380000   18.900000
     71          8           0       17.610000   20.040000   14.770000
     72          1           0       17.390000   20.940000   14.560000
     73          1           0       17.310000   19.920000   15.670000
     74          8           0       18.230000   17.560000   24.180000
     75          1           0       17.720000   17.480000   24.990000
     76          1           0       19.130000   17.690000   24.480000
     77          8           0       24.190000   18.380000   23.500000
     78          1           0       23.250000   18.390000   23.660000
     79          1           0       24.430000   19.310000   23.390000
     80          8           0       20.330000   24.500000   16.380000
     81          1           0       20.680000   23.620000   16.270000
     82          1           0       20.940000   25.070000   15.900000
     83          8           0       23.280000   14.770000   19.970000
     84          1           0       23.310000   14.520000   19.040000
     85          1           0       23.020000   15.690000   19.960000
     86          8           0       21.360000   14.680000   22.370000
     87          1           0       20.740000   15.000000   21.720000
     88          1           0       22.010000   14.190000   21.860000
     89          8           0       25.370000   18.890000   19.840000
     90          1           0       25.670000   18.170000   20.390000
     91          1           0       26.170000   19.210000   19.410000
     92          8           0       25.570000   22.270000   20.040000
     93          1           0       24.910000   22.340000   20.730000
     94          1           0       25.270000   21.540000   19.500000
     95          8           0       22.690000   16.930000   15.120000
     96          1           0       22.810000   17.820000   14.780000
     97          1           0       22.550000   17.050000   16.060000
 ---------------------------------------------------------------------
 Rotational constants (GHZ):      0.0552746      0.0551861      0.0534099
 Leave Link  202 at Wed May  2 23:26:45 2018, MaxMem= 14763950080 cpu:         0.5
 (Enter /cm/shared/gaussian/g09.e01/intel64-sandybridge/g09/l122.exe)
 Counterpoise: doing full dimer calculation.
 Leave Link  122 at Wed May  2 23:26:45 2018, MaxMem= 14763950080 cpu:         0.0
 (Enter /cm/shared/gaussian/g09.e01/intel64-sandybridge/g09/l301.exe)
 Standard basis: CC-pVDZ (5D, 7F)
 Ernie: Thresh=  0.10000D-02 Tol=  0.10000D-05 Strict=F.
 Ernie:  87 primitive shells out of 1114 were deleted.
   795 basis functions,  1651 primitive gaussians,   829 cartesian basis functions
   178 alpha electrons      178 beta electrons
       nuclear repulsion energy      6086.1746605589 Hartrees.
 IExCor= 1009 DFT=T Ex+Corr=PBE1PBE ExCW=0 ScaHFX=  0.250000
 ScaDFX=  0.750000  0.750000  1.000000  1.000000 ScalE2=  1.000000  1.000000
 IRadAn=      0 IRanWt=     -1 IRanGd=            0 ICorTp=0 IEmpDi=  4
 NAtoms=   97 NActive=   97 NUniq=   97 SFac= 1.00D+00 NAtFMM=   60 NAOKFM=T Big=T
 Integral buffers will be    131072 words long.
 Raffenetti 2 integral format.
 Two-electron integral symmetry is turned off.
 Leave Link  301 at Wed May  2 23:26:45 2018, MaxMem= 14763950080 cpu:         4.3
 (Enter /cm/shared/gaussian/g09.e01/intel64-sandybridge/g09/l302.exe)
 NPDir=0 NMtPBC=     1 NCelOv=     1 NCel=       1 NClECP=     1 NCelD=      1
         NCelK=      1 NCelE2=     1 NClLst=     1 CellRange=     0.0.
 One-electron integrals computed using PRISM.
 NBasis=   795 RedAO= T EigKep=  1.68D-02  NBF=   795
 NBsUse=   795 1.00D-06 EigRej= -1.00D+00 NBFU=   795
 Precomputing XC quadrature grid using
 IXCGrd= 4 IRadAn=           0 IRanWt=          -1 IRanGd=           0 AccXCQ= 0.00D+00.
 Generated NRdTot=       0 NPtTot=           0 NUsed=           0 NTot=          32
 NSgBfM=   746   753   753   760   763 MxSgAt=    97 MxSgA2=    97.
 Leave Link  302 at Wed May  2 23:26:51 2018, MaxMem= 14763950080 cpu:       389.0
 (Enter /cm/shared/gaussian/g09.e01/intel64-sandybridge/g09/l303.exe)
 DipDrv:  MaxL=1.
 Leave Link  303 at Wed May  2 23:26:52 2018, MaxMem= 14763950080 cpu:        29.1
 (Enter /cm/shared/gaussian/g09.e01/intel64-sandybridge/g09/l401.exe)
 ExpMin= 1.22D-01 ExpMax= 6.40D+05 ExpMxC= 6.18D+03 IAcc=2 IRadAn=         4 AccDes= 0.00D+00
 Harris functional with IExCor= 1009 and IRadAn=       4 diagonalized for initial guess.
 HarFok:  IExCor= 1009 AccDes= 0.00D+00 IRadAn=         4 IDoV= 1 UseB2=F ITyADJ=14
 ICtDFT=  3500011 ScaDFX=  1.000000  1.000000  1.000000  1.000000
 FoFCou: FMM=F IPFlag=           0 FMFlag=      100000 FMFlg1=        2001
         NFxFlg=           0 DoJE=T BraDBF=F KetDBF=T FulRan=T
         wScrn=  0.000000 ICntrl=     500 IOpCl=  0 I1Cent=   200000004 NGrid=           0
         NMat0=    1 NMatS0=      1 NMatT0=    0 NMatD0=    1 NMtDS0=    0 NMtDT0=    0
 Symmetry not used in FoFCou.
 Harris En= -5018.42457376395    
 JPrj=0 DoOrth=F DoCkMO=F.
 Leave Link  401 at Wed May  2 23:26:57 2018, MaxMem= 14763950080 cpu:       332.7
 (Enter /cm/shared/gaussian/g09.e01/intel64-sandybridge/g09/l502.exe)
 Closed shell SCF:
 Using DIIS extrapolation, IDIIS=  1040.
 Two-electron integral symmetry not used.
 IVT=     2138497 IEndB=     2138497 NGot= 14763950080 MDV= 14762516294
 LenX= 14762516294 LenY= 14761828224
 Requested convergence on RMS density matrix=1.00D-08 within 128 cycles.
 Requested convergence on MAX density matrix=1.00D-06.
 Requested convergence on             energy=1.00D-06.
 No special actions if energy rises.
 Fock matrices will be formed incrementally for  20 cycles.
 Integral accuracy reduced to 1.0D-05 until final iterations.

 Cycle   1  Pass 0  IDiag  1:
 FoFJK:  IHMeth= 1 ICntrl=       0 DoSepK=F KAlg= 0 I1Cent=   0 FoldK=F
 IRaf= 820000000 NMat=   1 IRICut=       1 DoRegI=T DoRafI=F ISym2E= 0.
 FoFCou: FMM=T IPFlag=           0 FMFlag=      100000 FMFlg1=        2001
         NFxFlg=           0 DoJE=F BraDBF=F KetDBF=F FulRan=T
         wScrn=  0.000000 ICntrl=       0 IOpCl=  0 I1Cent=           0 NGrid=           0
         NMat0=    1 NMatS0=      1 NMatT0=    0 NMatD0=    1 NMtDS0=    0 NMtDT0=    0
 Symmetry not used in FoFCou.
 FMM levels:  10  Number of levels for PrismC:   9
 E= -5015.23598238240    
 DIIS: error= 3.51D-02 at cycle   1 NSaved=   1.
 NSaved= 1 IEnMin= 1 EnMin= -5015.23598238240     IErMin= 1 ErrMin= 3.51D-02
 ErrMax= 3.51D-02  0.00D+00 EMaxC= 1.00D-01 BMatC= 2.75D+00 BMatP= 2.75D+00
 IDIUse=3 WtCom= 6.49D-01 WtEn= 3.51D-01
 Coeff-Com:  0.100D+01
 Coeff-En:   0.100D+01
 Coeff:      0.100D+01
 Gap=     0.304 Goal=   None    Shift=    0.000
 GapD=    0.304 DampG=1.000 DampE=0.500 DampFc=0.5000 IDamp=-1.
 Damping current iteration by 5.00D-01
 RMSDP=2.89D-03 MaxDP=1.61D-01              OVMax= 1.71D-01

 Cycle   2  Pass 0  IDiag  1:
 RMSU=  1.43D-03    CP:  9.85D-01
 E= -5016.03530916400     Delta-E=       -0.799326781605 Rises=F Damp=T
 DIIS: error= 9.64D-03 at cycle   2 NSaved=   2.
 NSaved= 2 IEnMin= 2 EnMin= -5016.03530916400     IErMin= 2 ErrMin= 9.64D-03
 ErrMax= 9.64D-03  0.00D+00 EMaxC= 1.00D-01 BMatC= 9.07D-02 BMatP= 2.75D+00
 IDIUse=3 WtCom= 9.04D-01 WtEn= 9.64D-02
 Coeff-Com:  0.123D+00 0.877D+00
 Coeff-En:   0.219D+00 0.781D+00
 Coeff:      0.132D+00 0.868D+00
 Gap=     0.197 Goal=   None    Shift=    0.000
 RMSDP=3.58D-04 MaxDP=1.86D-02 DE=-7.99D-01 OVMax= 1.05D-01

 Cycle   3  Pass 0  IDiag  1:
 RMSU=  2.79D-04    CP:  9.87D-01  8.44D-01
 E= -5017.21158574550     Delta-E=       -1.176276581496 Rises=F Damp=F
 DIIS: error= 9.22D-04 at cycle   3 NSaved=   3.
 NSaved= 3 IEnMin= 3 EnMin= -5017.21158574550     IErMin= 3 ErrMin= 9.22D-04
 ErrMax= 9.22D-04  0.00D+00 EMaxC= 1.00D-01 BMatC= 1.71D-03 BMatP= 9.07D-02
 IDIUse=3 WtCom= 9.91D-01 WtEn= 9.22D-03
 Coeff-Com:  0.111D-01 0.606D-01 0.928D+00
 Coeff-En:   0.000D+00 0.000D+00 0.100D+01
 Coeff:      0.110D-01 0.601D-01 0.929D+00
 Gap=     0.211 Goal=   None    Shift=    0.000
 RMSDP=9.35D-05 MaxDP=1.44D-02 DE=-1.18D+00 OVMax= 1.77D-02

 Cycle   4  Pass 0  IDiag  1:
 RMSU=  8.42D-05    CP:  9.88D-01  8.44D-01  8.54D-01
 E= -5017.21202195339     Delta-E=       -0.000436207893 Rises=F Damp=F
 DIIS: error= 8.03D-04 at cycle   4 NSaved=   4.
 NSaved= 4 IEnMin= 4 EnMin= -5017.21202195339     IErMin= 4 ErrMin= 8.03D-04
 ErrMax= 8.03D-04  0.00D+00 EMaxC= 1.00D-01 BMatC= 1.63D-03 BMatP= 1.71D-03
 IDIUse=3 WtCom= 9.92D-01 WtEn= 8.03D-03
 Coeff-Com:  0.314D-02 0.528D-02 0.494D+00 0.498D+00
 Coeff-En:   0.000D+00 0.000D+00 0.424D+00 0.576D+00
 Coeff:      0.311D-02 0.524D-02 0.493D+00 0.499D+00
 Gap=     0.208 Goal=   None    Shift=    0.000
 RMSDP=4.02D-05 MaxDP=5.65D-03 DE=-4.36D-04 OVMax= 5.36D-03

 Cycle   5  Pass 0  IDiag  1:
 RMSU=  1.62D-05    CP:  9.87D-01  8.42D-01  9.11D-01  6.09D-01
 E= -5017.21332253150     Delta-E=       -0.001300578109 Rises=F Damp=F
 DIIS: error= 1.06D-04 at cycle   5 NSaved=   5.
 NSaved= 5 IEnMin= 5 EnMin= -5017.21332253150     IErMin= 5 ErrMin= 1.06D-04
 ErrMax= 1.06D-04  0.00D+00 EMaxC= 1.00D-01 BMatC= 3.31D-05 BMatP= 1.63D-03
 IDIUse=3 WtCom= 9.99D-01 WtEn= 1.06D-03
 Coeff-Com:  0.971D-03-0.218D-02 0.137D+00 0.176D+00 0.689D+00
 Coeff-En:   0.000D+00 0.000D+00 0.000D+00 0.000D+00 0.100D+01
 Coeff:      0.970D-03-0.218D-02 0.137D+00 0.175D+00 0.689D+00
 Gap=     0.209 Goal=   None    Shift=    0.000
 RMSDP=7.87D-06 MaxDP=1.17D-03 DE=-1.30D-03 OVMax= 1.21D-03

 Cycle   6  Pass 0  IDiag  1:
 RMSU=  5.57D-06    CP:  9.87D-01  8.41D-01  9.21D-01  5.87D-01  7.29D-01
 E= -5017.21334646884     Delta-E=       -0.000023937335 Rises=F Damp=F
 DIIS: error= 8.26D-05 at cycle   6 NSaved=   6.
 NSaved= 6 IEnMin= 6 EnMin= -5017.21334646884     IErMin= 6 ErrMin= 8.26D-05
 ErrMax= 8.26D-05  0.00D+00 EMaxC= 1.00D-01 BMatC= 4.26D-06 BMatP= 3.31D-05
 IDIUse=1 WtCom= 1.00D+00 WtEn= 0.00D+00
 Coeff-Com:  0.216D-03-0.212D-02 0.322D-01 0.436D-01 0.298D+00 0.628D+00
 Coeff:      0.216D-03-0.212D-02 0.322D-01 0.436D-01 0.298D+00 0.628D+00
 Gap=     0.209 Goal=   None    Shift=    0.000
 RMSDP=2.46D-06 MaxDP=4.74D-04 DE=-2.39D-05 OVMax= 4.14D-04

 Initial convergence to 1.0D-05 achieved.  Increase integral accuracy.
 Cycle   7  Pass 1  IDiag  1:
 E= -5017.21384720890     Delta-E=       -0.000500740063 Rises=F Damp=F
 DIIS: error= 2.64D-05 at cycle   1 NSaved=   1.
 NSaved= 1 IEnMin= 1 EnMin= -5017.21384720890     IErMin= 1 ErrMin= 2.64D-05
 ErrMax= 2.64D-05  0.00D+00 EMaxC= 1.00D-01 BMatC= 1.41D-06 BMatP= 1.41D-06
 IDIUse=1 WtCom= 1.00D+00 WtEn= 0.00D+00
 Coeff-Com:  0.100D+01
 Coeff:      0.100D+01
 Gap=     0.209 Goal=   None    Shift=    0.000
 RMSDP=2.46D-06 MaxDP=4.74D-04 DE=-5.01D-04 OVMax= 1.86D-04

 Cycle   8  Pass 1  IDiag  1:
 RMSU=  4.25D-06    CP:  1.00D+00
 E= -5017.21384862389     Delta-E=       -0.000001414988 Rises=F Damp=F
 DIIS: error= 1.02D-05 at cycle   2 NSaved=   2.
 NSaved= 2 IEnMin= 2 EnMin= -5017.21384862389     IErMin= 2 ErrMin= 1.02D-05
 ErrMax= 1.02D-05  0.00D+00 EMaxC= 1.00D-01 BMatC= 1.94D-07 BMatP= 1.41D-06
 IDIUse=1 WtCom= 1.00D+00 WtEn= 0.00D+00
 Coeff-Com:  0.172D+00 0.828D+00
 Coeff:      0.172D+00 0.828D+00
 Gap=     0.209 Goal=   None    Shift=    0.000
 RMSDP=6.72D-07 MaxDP=7.28D-05 DE=-1.41D-06 OVMax= 6.24D-05

 Cycle   9  Pass 1  IDiag  1:
 RMSU=  6.72D-07    CP:  1.00D+00  9.98D-01
 E= -5017.21384864986     Delta-E=       -0.000000025968 Rises=F Damp=F
 DIIS: error= 9.55D-06 at cycle   3 NSaved=   3.
 NSaved= 3 IEnMin= 3 EnMin= -5017.21384864986     IErMin= 3 ErrMin= 9.55D-06
 ErrMax= 9.55D-06  0.00D+00 EMaxC= 1.00D-01 BMatC= 1.63D-07 BMatP= 1.94D-07
 IDIUse=1 WtCom= 1.00D+00 WtEn= 0.00D+00
 Coeff-Com: -0.833D-02 0.479D+00 0.529D+00
 Coeff:     -0.833D-02 0.479D+00 0.529D+00
 Gap=     0.209 Goal=   None    Shift=    0.000
 RMSDP=3.19D-07 MaxDP=3.81D-05 DE=-2.60D-08 OVMax= 3.25D-05

 Cycle  10  Pass 1  IDiag  1:
 RMSU=  8.95D-08    CP:  1.00D+00  1.01D+00  5.58D-01
 E= -5017.21384876608     Delta-E=       -0.000000116223 Rises=F Damp=F
 DIIS: error= 9.45D-07 at cycle   4 NSaved=   4.
 NSaved= 4 IEnMin= 4 EnMin= -5017.21384876608     IErMin= 4 ErrMin= 9.45D-07
 ErrMax= 9.45D-07  0.00D+00 EMaxC= 1.00D-01 BMatC= 7.12D-10 BMatP= 1.63D-07
 IDIUse=1 WtCom= 1.00D+00 WtEn= 0.00D+00
 Coeff-Com: -0.493D-02 0.194D+00 0.222D+00 0.589D+00
 Coeff:     -0.493D-02 0.194D+00 0.222D+00 0.589D+00
 Gap=     0.209 Goal=   None    Shift=    0.000
 RMSDP=3.57D-08 MaxDP=6.59D-06 DE=-1.16D-07 OVMax= 6.32D-06

 Cycle  11  Pass 1  IDiag  1:
 RMSU=  2.67D-08    CP:  1.00D+00  1.02D+00  5.55D-01  7.40D-01
 E= -5017.21384876675     Delta-E=       -0.000000000677 Rises=F Damp=F
 DIIS: error= 1.16D-07 at cycle   5 NSaved=   5.
 NSaved= 5 IEnMin= 5 EnMin= -5017.21384876675     IErMin= 5 ErrMin= 1.16D-07
 ErrMax= 1.16D-07  0.00D+00 EMaxC= 1.00D-01 BMatC= 4.61D-11 BMatP= 7.12D-10
 IDIUse=1 WtCom= 1.00D+00 WtEn= 0.00D+00
 Coeff-Com: -0.127D-02 0.389D-01 0.464D-01 0.230D+00 0.686D+00
 Coeff:     -0.127D-02 0.389D-01 0.464D-01 0.230D+00 0.686D+00
 Gap=     0.209 Goal=   None    Shift=    0.000
 RMSDP=7.76D-09 MaxDP=8.18D-07 DE=-6.77D-10 OVMax= 8.04D-07

 SCF Done:  E(RPBE1PBE) =  -5017.21384877     A.U. after   11 cycles
            NFock= 11  Conv=0.78D-08     -V/T= 2.0028
 KE= 5.003053633731D+03 PE=-2.413830295123D+04 EE= 8.031860808172D+03
 Leave Link  502 at Wed May  2 23:28:55 2018, MaxMem= 14763950080 cpu:      7451.0
 (Enter /cm/shared/gaussian/g09.e01/intel64-sandybridge/g09/l601.exe)
 Copying SCF densities to generalized density rwf, IOpCl= 0 IROHF=0.

 **********************************************************************

            Population analysis using the SCF density.

 **********************************************************************

 Alpha  occ. eigenvalues -- -483.16120 -62.56383 -56.33637 -56.33619 -56.33605
 Alpha  occ. eigenvalues --  -19.17650 -19.17556 -19.17533 -19.17172 -19.15938
 Alpha  occ. eigenvalues --  -19.15803 -19.15185 -19.14977 -19.14929 -19.14903
 Alpha  occ. eigenvalues --  -19.14835 -19.14776 -19.13713 -19.13615 -19.13580
 Alpha  occ. eigenvalues --  -19.13439 -19.13092 -19.12740 -19.12503 -19.12328
 Alpha  occ. eigenvalues --  -19.12115 -19.11572 -19.10343 -19.09258 -19.08772
 Alpha  occ. eigenvalues --  -19.08767 -19.08708 -19.08161 -19.07807 -19.07631
 Alpha  occ. eigenvalues --  -19.05562 -19.03404  -8.66651  -6.47048  -6.46944
 Alpha  occ. eigenvalues --   -6.46887  -2.55313  -2.55292  -2.55248  -2.55162
 Alpha  occ. eigenvalues --   -2.55157  -1.00588  -1.00393  -0.99938  -0.99665
 Alpha  occ. eigenvalues --   -0.98924  -0.98491  -0.98047  -0.97485  -0.97238
 Alpha  occ. eigenvalues --   -0.97145  -0.97140  -0.97045  -0.96220  -0.96076
 Alpha  occ. eigenvalues --   -0.96024  -0.96006  -0.95621  -0.94924  -0.94752
 Alpha  occ. eigenvalues --   -0.94588  -0.94573  -0.93924  -0.92585  -0.92014
 Alpha  occ. eigenvalues --   -0.91899  -0.91392  -0.91337  -0.90618  -0.90429
 Alpha  occ. eigenvalues --   -0.90254  -0.87878  -0.86497  -0.65832  -0.51908
 Alpha  occ. eigenvalues --   -0.50780  -0.50598  -0.50301  -0.49695  -0.49658
 Alpha  occ. eigenvalues --   -0.49430  -0.47906  -0.47540  -0.47435  -0.47303
 Alpha  occ. eigenvalues --   -0.47152  -0.47110  -0.46638  -0.46509  -0.46412
 Alpha  occ. eigenvalues --   -0.46286  -0.45656  -0.45515  -0.45308  -0.45117
 Alpha  occ. eigenvalues --   -0.44523  -0.43839  -0.43696  -0.43126  -0.42870
 Alpha  occ. eigenvalues --   -0.42727  -0.41978  -0.41431  -0.41143  -0.39260
 Alpha  occ. eigenvalues --   -0.39224  -0.38704  -0.38109  -0.37184  -0.35851
 Alpha  occ. eigenvalues --   -0.35579  -0.34889  -0.34606  -0.34368  -0.33921
 Alpha  occ. eigenvalues --   -0.33880  -0.33781  -0.33259  -0.32855  -0.32801
 Alpha  occ. eigenvalues --   -0.32301  -0.31652  -0.31177  -0.31000  -0.30922
 Alpha  occ. eigenvalues --   -0.30877  -0.30610  -0.29943  -0.29384  -0.29072
 Alpha  occ. eigenvalues --   -0.28919  -0.28813  -0.28238  -0.28118  -0.28090
 Alpha  occ. eigenvalues --   -0.27867  -0.27659  -0.27401  -0.27156  -0.27095
 Alpha  occ. eigenvalues --   -0.26660  -0.26307  -0.25932  -0.25732  -0.25448
 Alpha  occ. eigenvalues --   -0.25187  -0.25026  -0.24764  -0.24742  -0.24426
 Alpha  occ. eigenvalues --   -0.24401  -0.24339  -0.24126  -0.23732  -0.23405
 Alpha  occ. eigenvalues --   -0.23106  -0.22785  -0.22738  -0.21708  -0.21408
 Alpha  occ. eigenvalues --   -0.21090  -0.20847  -0.20580  -0.20455  -0.20402
 Alpha  occ. eigenvalues --   -0.20252  -0.20029  -0.19983  -0.18862  -0.18370
 Alpha  occ. eigenvalues --   -0.17819  -0.16313  -0.15085
 Alpha virt. eigenvalues --    0.05822   0.07667   0.09334   0.09796   0.10797
 Alpha virt. eigenvalues --    0.11340   0.12260   0.13552   0.13637   0.14039
 Alpha virt. eigenvalues --    0.14357   0.14871   0.15653   0.15804   0.16204
 Alpha virt. eigenvalues --    0.16743   0.17417   0.17777   0.18109   0.18472
 Alpha virt. eigenvalues --    0.19324   0.19608   0.19871   0.20133   0.20392
 Alpha virt. eigenvalues --    0.20784   0.21478   0.21969   0.22746   0.23138
 Alpha virt. eigenvalues --    0.23396   0.24213   0.24308   0.24462   0.25261
 Alpha virt. eigenvalues --    0.25712   0.26256   0.26496   0.26560   0.26997
 Alpha virt. eigenvalues --    0.27709   0.27981   0.28407   0.28662   0.29200
 Alpha virt. eigenvalues --    0.29826   0.30024   0.30477   0.31266   0.31523
 Alpha virt. eigenvalues --    0.32069   0.32187   0.32940   0.33273   0.33465
 Alpha virt. eigenvalues --    0.33599   0.34166   0.35190   0.35637   0.35772
 Alpha virt. eigenvalues --    0.36206   0.37572   0.38050   0.40901   0.57892
 Alpha virt. eigenvalues --    0.58570   0.59034   0.60687   0.61253   0.61504
 Alpha virt. eigenvalues --    0.62010   0.62152   0.62424   0.62694   0.63236
 Alpha virt. eigenvalues --    0.63372   0.64013   0.64490   0.64875   0.65338
 Alpha virt. eigenvalues --    0.65403   0.65669   0.65934   0.66154   0.66300
 Alpha virt. eigenvalues --    0.66507   0.66748   0.67027   0.67363   0.67514
 Alpha virt. eigenvalues --    0.68322   0.68572   0.68621   0.69033   0.69231
 Alpha virt. eigenvalues --    0.69635   0.69726   0.69985   0.70139   0.70653
 Alpha virt. eigenvalues --    0.70829   0.71361   0.71426   0.71825   0.72077
 Alpha virt. eigenvalues --    0.72357   0.72601   0.73072   0.73526   0.73890
 Alpha virt. eigenvalues --    0.73996   0.74391   0.74527   0.75114   0.75374
 Alpha virt. eigenvalues --    0.75961   0.76244   0.76546   0.76696   0.77052
 Alpha virt. eigenvalues --    0.77288   0.77954   0.78471   0.78791   0.79451
 Alpha virt. eigenvalues --    0.79618   0.80114   0.81834   0.82050   0.82991
 Alpha virt. eigenvalues --    0.83161   0.83534   0.84255   0.84840   0.85446
 Alpha virt. eigenvalues --    0.86699   0.90490   0.91624   0.92810   0.93169
 Alpha virt. eigenvalues --    0.94337   0.94813   0.95778   0.96476   0.97065
 Alpha virt. eigenvalues --    0.97191   0.97557   0.97820   0.98064   0.98275
 Alpha virt. eigenvalues --    0.98480   0.98746   0.98857   0.99316   0.99410
 Alpha virt. eigenvalues --    0.99514   0.99940   1.00237   1.00852   1.01105
 Alpha virt. eigenvalues --    1.01347   1.01813   1.02200   1.02245   1.02577
 Alpha virt. eigenvalues --    1.02784   1.03174   1.03273   1.03380   1.03854
 Alpha virt. eigenvalues --    1.04116   1.04853   1.05182   1.05441   1.06086
 Alpha virt. eigenvalues --    1.06496   1.06850   1.06996   1.07304   1.07401
 Alpha virt. eigenvalues --    1.08117   1.08605   1.08676   1.08764   1.09809
 Alpha virt. eigenvalues --    1.09935   1.10454   1.10606   1.10724   1.11129
 Alpha virt. eigenvalues --    1.11332   1.11655   1.11826   1.12379   1.12408
 Alpha virt. eigenvalues --    1.12651   1.12912   1.13221   1.13388   1.13506
 Alpha virt. eigenvalues --    1.13932   1.14065   1.14652   1.14917   1.15112
 Alpha virt. eigenvalues --    1.15350   1.15552   1.15905   1.16397   1.16801
 Alpha virt. eigenvalues --    1.17176   1.17348   1.17800   1.18600   1.19119
 Alpha virt. eigenvalues --    1.19501   1.19921   1.20107   1.20979   1.21162
 Alpha virt. eigenvalues --    1.21545   1.22245   1.23103   1.23653   1.24610
 Alpha virt. eigenvalues --    1.25132   1.25476   1.25910   1.26107   1.26344
 Alpha virt. eigenvalues --    1.27066   1.27335   1.27793   1.28111   1.28251
 Alpha virt. eigenvalues --    1.28283   1.28483   1.28885   1.29212   1.29444
 Alpha virt. eigenvalues --    1.29870   1.30105   1.30349   1.30828   1.31052
 Alpha virt. eigenvalues --    1.31436   1.31734   1.31853   1.32049   1.32226
 Alpha virt. eigenvalues --    1.32359   1.32742   1.33122   1.33297   1.33733
 Alpha virt. eigenvalues --    1.33999   1.34435   1.34504   1.34869   1.35385
 Alpha virt. eigenvalues --    1.35449   1.35998   1.36295   1.36508   1.36635
 Alpha virt. eigenvalues --    1.37083   1.37724   1.37981   1.38174   1.38502
 Alpha virt. eigenvalues --    1.39108   1.39253   1.39401   1.40004   1.40250
 Alpha virt. eigenvalues --    1.40562   1.40884   1.41402   1.41721   1.42195
 Alpha virt. eigenvalues --    1.42358   1.43536   1.43711   1.44053   1.44135
 Alpha virt. eigenvalues --    1.44609   1.45653   1.46054   1.46611   1.46673
 Alpha virt. eigenvalues --    1.48038   1.48340   1.48751   1.49594   1.49689
 Alpha virt. eigenvalues --    1.50439   1.51187   1.52059   1.52141   1.52444
 Alpha virt. eigenvalues --    1.52573   1.52894   1.53324   1.54032   1.54437
 Alpha virt. eigenvalues --    1.54851   1.55129   1.55550   1.55749   1.56120
 Alpha virt. eigenvalues --    1.56291   1.56632   1.57904   1.58340   1.58420
 Alpha virt. eigenvalues --    1.58756   1.58954   1.59391   1.60028   1.60317
 Alpha virt. eigenvalues --    1.60737   1.61477   1.62377   1.63052   1.64249
 Alpha virt. eigenvalues --    1.64437   1.64960   1.65278   1.65573   1.65930
 Alpha virt. eigenvalues --    1.66969   1.69700   1.70206   1.71202   1.71284
 Alpha virt. eigenvalues --    1.72033   1.72538   1.73020   1.73123   1.73458
 Alpha virt. eigenvalues --    1.73874   1.74260   1.74667   1.74832   1.75208
 Alpha virt. eigenvalues --    1.75434   1.76153   1.76591   1.76642   1.77049
 Alpha virt. eigenvalues --    1.77339   1.77931   1.78349   1.78751   1.79082
 Alpha virt. eigenvalues --    1.79225   1.79366   1.80025   1.80155   1.80705
 Alpha virt. eigenvalues --    1.81473   1.81813   1.82026   1.82580   1.83547
 Alpha virt. eigenvalues --    1.83784   1.84187   1.84799   1.85342   1.85876
 Alpha virt. eigenvalues --    1.86470   1.86517   1.87382   1.88074   1.88839
 Alpha virt. eigenvalues --    1.89030   1.89193   1.90181   1.90793   1.91939
 Alpha virt. eigenvalues --    1.92704   1.93448   1.94115   1.94821   1.96479
 Alpha virt. eigenvalues --    1.96942   1.97625   1.98772   2.00780   2.01452
 Alpha virt. eigenvalues --    2.02678   2.03668   2.06466   2.18304   2.18637
 Alpha virt. eigenvalues --    2.19025   2.19624   2.20430   2.20547   2.20711
 Alpha virt. eigenvalues --    2.20944   2.21224   2.21608   2.21653   2.21898
 Alpha virt. eigenvalues --    2.22023   2.22321   2.22657   2.23301   2.23456
 Alpha virt. eigenvalues --    2.23652   2.23923   2.24139   2.24342   2.24562
 Alpha virt. eigenvalues --    2.24842   2.25025   2.25269   2.25355   2.25520
 Alpha virt. eigenvalues --    2.26073   2.26514   2.26662   2.26830   2.27035
 Alpha virt. eigenvalues --    2.27387   2.27788   2.28039   2.28308   2.29659
 Alpha virt. eigenvalues --    2.30034   2.30480   2.30674   2.30973   2.31125
 Alpha virt. eigenvalues --    2.31168   2.31684   2.32568   2.32712   2.33181
 Alpha virt. eigenvalues --    2.33416   2.35093   2.35609   2.37275   2.38005
 Alpha virt. eigenvalues --    2.38513   2.38944   2.41510   2.46050   2.50241
 Alpha virt. eigenvalues --    2.55216   2.56759   2.57028   2.58336   2.58873
 Alpha virt. eigenvalues --    2.61598   2.63388   2.95528   2.95582   2.96908
 Alpha virt. eigenvalues --    2.97040   2.97581   2.98240   2.98481   2.98883
 Alpha virt. eigenvalues --    2.98925   2.99226   2.99392   2.99538   2.99770
 Alpha virt. eigenvalues --    3.00135   3.00192   3.00262   3.00491   3.00669
 Alpha virt. eigenvalues --    3.00735   3.00987   3.01174   3.01221   3.01228
 Alpha virt. eigenvalues --    3.01812   3.02021   3.02412   3.02822   3.03060
 Alpha virt. eigenvalues --    3.03255   3.03711   3.03882   3.04033   3.04195
 Alpha virt. eigenvalues --    3.04357   3.04425   3.04654   3.04756   3.04814
 Alpha virt. eigenvalues --    3.05133   3.05281   3.05371   3.05593   3.05698
 Alpha virt. eigenvalues --    3.05791   3.06231   3.06658   3.06781   3.07147
 Alpha virt. eigenvalues --    3.07324   3.07383   3.07808   3.07819   3.08093
 Alpha virt. eigenvalues --    3.08418   3.09481   3.09918   3.10049   3.10645
 Alpha virt. eigenvalues --    3.11392   3.11626   3.13379   3.13777   3.14300
 Alpha virt. eigenvalues --    3.15798   3.17000   3.17195   3.19657   3.19837
 Alpha virt. eigenvalues --    3.20064   3.20720   3.21476   3.21567   3.21682
 Alpha virt. eigenvalues --    3.22034   3.22107   3.22270   3.22344   3.22699
 Alpha virt. eigenvalues --    3.22985   3.23155   3.23576   3.23601   3.23858
 Alpha virt. eigenvalues --    3.24301   3.24927   3.26172   3.27131   3.27352
 Alpha virt. eigenvalues --    3.27371   3.27972   3.28562   3.28698   3.28964
 Alpha virt. eigenvalues --    3.30571   3.30893   3.33188   3.54563   3.54771
 Alpha virt. eigenvalues --    3.55408   3.56161   3.56353   3.56981   3.57145
 Alpha virt. eigenvalues --    3.57603   3.57794   3.58317   3.59249   3.59494
 Alpha virt. eigenvalues --    3.60003   3.60671   3.60933   3.61074   3.61883
 Alpha virt. eigenvalues --    3.62414   3.63043   3.63523   3.63957   3.64044
 Alpha virt. eigenvalues --    3.64514   3.64633   3.64999   3.65816   3.66775
 Alpha virt. eigenvalues --    3.67077   3.68200   3.68393   3.68946   3.72881
 Alpha virt. eigenvalues --    3.82487   3.82728   3.83078   3.83641   3.84456
 Alpha virt. eigenvalues --    3.85204   3.85469   3.86179   3.86811   3.87267
 Alpha virt. eigenvalues --    3.87317   3.87661   3.88002   3.88425   3.88950
 Alpha virt. eigenvalues --    3.89646   3.89998   3.91270   3.91289   3.91919
 Alpha virt. eigenvalues --    3.92364   3.92889   3.93067   3.94327   3.94542
 Alpha virt. eigenvalues --    3.95024   3.95758   3.96867   3.96992   3.98810
 Alpha virt. eigenvalues --    4.00337   4.01719
          Condensed to atoms (all electrons):
 Mulliken charges:
               1
     1  Br  -0.713561
     2  O   -0.275042
     3  H    0.122240
     4  H    0.165878
     5  O   -0.249694
     6  H    0.116600
     7  H    0.142656
     8  O   -0.242430
     9  H    0.146077
    10  H    0.135106
    11  O   -0.254490
    12  H    0.144748
    13  H    0.161169
    14  O   -0.248740
    15  H    0.147109
    16  H    0.125121
    17  O   -0.290407
    18  H    0.132780
    19  H    0.138028
    20  O   -0.244856
    21  H    0.145070
    22  H    0.125694
    23  O   -0.301170
    24  H    0.136603
    25  H    0.147973
    26  O   -0.306117
    27  H    0.097492
    28  H    0.139780
    29  O   -0.219906
    30  H    0.129730
    31  H    0.132587
    32  O   -0.244085
    33  H    0.147832
    34  H    0.139713
    35  O   -0.230491
    36  H    0.140148
    37  H    0.146890
    38  O   -0.249126
    39  H    0.136663
    40  H    0.127104
    41  O   -0.250821
    42  H    0.136949
    43  H    0.151401
    44  O   -0.289304
    45  H    0.106791
    46  H    0.123136
    47  O   -0.284280
    48  H    0.142836
    49  H    0.124651
    50  O   -0.235782
    51  H    0.129701
    52  H    0.132866
    53  O   -0.258124
    54  H    0.134364
    55  H    0.134196
    56  O   -0.347493
    57  H    0.114278
    58  H    0.112244
    59  O   -0.310884
    60  H    0.121048
    61  H    0.121047
    62  O   -0.284186
    63  H    0.125938
    64  H    0.127513
    65  O   -0.324242
    66  H    0.121494
    67  H    0.128148
    68  O   -0.286012
    69  H    0.133991
    70  H    0.141045
    71  O   -0.277102
    72  H    0.100665
    73  H    0.120923
    74  O   -0.247283
    75  H    0.139335
    76  H    0.138571
    77  O   -0.275920
    78  H    0.140521
    79  H    0.136470
    80  O   -0.309751
    81  H    0.138943
    82  H    0.139493
    83  O   -0.285068
    84  H    0.132063
    85  H    0.132918
    86  O   -0.279396
    87  H    0.118792
    88  H    0.129362
    89  O   -0.254595
    90  H    0.150447
    91  H    0.139627
    92  O   -0.305564
    93  H    0.127093
    94  H    0.078522
    95  O   -0.278200
    96  H    0.128725
    97  H    0.127228
 Sum of Mulliken charges =  -1.00000
 Mulliken charges with hydrogens summed into heavy atoms:
               1
     1  Br  -0.713561
     2  O    0.013075
     5  O    0.009561
     8  O    0.038752
    11  O    0.051426
    14  O    0.023490
    17  O   -0.019599
    20  O    0.025908
    23  O   -0.016595
    26  O   -0.068846
    29  O    0.042411
    32  O    0.043461
    35  O    0.056547
    38  O    0.014642
    41  O    0.037529
    44  O   -0.059377
    47  O   -0.016793
    50  O    0.026785
    53  O    0.010435
    56  O   -0.120971
    59  O   -0.068788
    62  O   -0.030736
    65  O   -0.074600
    68  O   -0.010976
    71  O   -0.055514
    74  O    0.030624
    77  O    0.001071
    80  O   -0.031315
    83  O   -0.020086
    86  O   -0.031243
    89  O    0.035479
    92  O   -0.099950
    95  O   -0.022247
         Mulliken charges condensed to fragments:
      1     -0.713561
      2     -0.286439
 Electronic spatial extent (au):  <R**2>=        1548293.7658
 Charge=             -1.0000 electrons
 Dipole moment (field-independent basis, Debye):
    X=            -94.7811    Y=            -88.0092    Z=           -101.2233  Tot=            164.2414
 Quadrupole moment (field-independent basis, Debye-Ang):
   XX=          -2132.6646   YY=          -1881.4634   ZZ=          -2453.9101
   XY=          -1775.2722   XZ=          -2019.4733   YZ=          -1889.6427
 Traceless Quadrupole moment (field-independent basis, Debye-Ang):
   XX=             23.3481   YY=            274.5493   ZZ=           -297.8974
   XY=          -1775.2722   XZ=          -2019.4733   YZ=          -1889.6427
 Octapole moment (field-independent basis, Debye-Ang**2):
  XXX=         -52801.0840  YYY=         -45335.3189  ZZZ=         -64193.9753  XYY=         -38899.0590
  XXY=         -41034.8462  XXZ=         -45601.4762  XZZ=         -49310.7152  YZZ=         -46702.2790
  YYZ=         -40792.2298  XYZ=         -38419.8195
 Hexadecapole moment (field-independent basis, Debye-Ang**3):
 XXXX=       -1380809.1874 YYYY=       -1169245.0507 ZZZZ=       -1729153.5437 XXXY=       -1040268.9519
 XXXZ=       -1126071.6886 YYYX=        -954976.0826 YYYZ=        -981925.5544 ZZZX=       -1294223.5593
 ZZZY=       -1240500.6941 XXYY=        -911852.2280 XXZZ=       -1102005.7695 YYZZ=       -1005643.3796
 XXYZ=        -886373.0772 YYXZ=        -845914.4444 ZZXY=        -951230.2982
 N-N= 6.086174660559D+03 E-N=-2.413830295106D+04  KE= 5.003053633731D+03
 No NMR shielding tensors so no spin-rotation constants.
 Leave Link  601 at Wed May  2 23:28:58 2018, MaxMem= 14763950080 cpu:        69.8
 (Enter /cm/shared/gaussian/g09.e01/intel64-sandybridge/g09/l701.exe)
 Compute integral first derivatives.
 ... and contract with generalized density number  0.
 Leave Link  701 at Wed May  2 23:29:00 2018, MaxMem= 14763950080 cpu:       124.7
 (Enter /cm/shared/gaussian/g09.e01/intel64-sandybridge/g09/l702.exe)
 L702 exits ... SP integral derivatives will be done elsewhere.
 Leave Link  702 at Wed May  2 23:29:00 2018, MaxMem= 14763950080 cpu:         1.6
 (Enter /cm/shared/gaussian/g09.e01/intel64-sandybridge/g09/l703.exe)
 Compute integral first derivatives, UseDBF=F ICtDFT=           0.
 Integral derivatives from FoFJK, PRISM(SPDF).
 Calling FoFJK, ICntrl=      2127 FMM=T ISym2X=0 I1Cent= 0 IOpClX= 0 NMat=1 NMatS=1 NMatT=0.
 FoFJK:  IHMeth= 1 ICntrl=    2127 DoSepK=F KAlg= 0 I1Cent=   0 FoldK=F
 IRaf=         0 NMat=   1 IRICut=       1 DoRegI=T DoRafI=F ISym2E= 0.
 FoFCou: FMM=T IPFlag=           0 FMFlag=      100000 FMFlg1=        2001
         NFxFlg=           0 DoJE=F BraDBF=F KetDBF=F FulRan=T
         wScrn=  0.000000 ICntrl=    2127 IOpCl=  0 I1Cent=           0 NGrid=           0
         NMat0=    1 NMatS0=      1 NMatT0=    0 NMatD0=    1 NMtDS0=    0 NMtDT0=    0
 Symmetry not used in FoFCou.
 FMM levels:  10  Number of levels for PrismC:   9
 Leave Link  703 at Wed May  2 23:29:15 2018, MaxMem= 14763950080 cpu:       997.1
 (Enter /cm/shared/gaussian/g09.e01/intel64-sandybridge/g09/l716.exe)
 Dipole        =-3.72897479D+01-3.46255007D+01-3.98243245D+01
 Cartesian Forces:  Max     0.027219767 RMS     0.009019126
 Leave Link  716 at Wed May  2 23:29:16 2018, MaxMem= 14763950080 cpu:         3.5
 (Enter /cm/shared/gaussian/g09.e01/intel64-sandybridge/g09/l122.exe)
 CPIOFr:  IOpCl= 0 IRwI=-1 IRwCP=  731 ICalc= -1 LCPTot=     1005244 Len1MO=     2550559 IndFrg=     1005244
 CPIOFr:  IOpCl= 0 IRwI=-1 IRwCP=  731 ICalc=  0 LCPTot=     1005244 Len1MO=     2550559 IndFrg=     3555803
 Counterpoise: doing DCBS calculation for fragment   1 NewBq=T
 Leave Link  122 at Wed May  2 23:29:16 2018, MaxMem= 14763950080 cpu:         7.0
 (Enter /cm/shared/gaussian/g09.e01/intel64-sandybridge/g09/l301.exe)
 Basis read from rwf:  (5D, 7F)
 No pseudopotential information found on rwf file.
   795 basis functions,  1651 primitive gaussians,   829 cartesian basis functions
    18 alpha electrons       18 beta electrons
       nuclear repulsion energy         0.0000000000 Hartrees.
 IExCor= 1009 DFT=T Ex+Corr=PBE1PBE ExCW=0 ScaHFX=  0.250000
 ScaDFX=  0.750000  0.750000  1.000000  1.000000 ScalE2=  1.000000  1.000000
 IRadAn=      0 IRanWt=     -1 IRanGd=            0 ICorTp=0 IEmpDi=  4
 NAtoms=   97 NActive=   97 NUniq=   97 SFac= 1.00D+00 NAtFMM=   60 NAOKFM=T Big=T
 Integral buffers will be    131072 words long.
 Raffenetti 2 integral format.
 Two-electron integral symmetry is turned off.
 No density basis found on file   718.
 Leave Link  301 at Wed May  2 23:29:16 2018, MaxMem= 14763950080 cpu:         4.6
 (Enter /cm/shared/gaussian/g09.e01/intel64-sandybridge/g09/l302.exe)
 NPDir=0 NMtPBC=     1 NCelOv=     1 NCel=       1 NClECP=     1 NCelD=      1
         NCelK=      1 NCelE2=     1 NClLst=     1 CellRange=     0.0.
 One-electron integrals computed using PRISM.
 NBasis=   795 RedAO= T EigKep=  1.68D-02  NBF=   795
 NBsUse=   795 1.00D-06 EigRej= -1.00D+00 NBFU=   795
 Precomputing XC quadrature grid using
 IXCGrd= 4 IRadAn=           0 IRanWt=          -1 IRanGd=           0 AccXCQ= 0.00D+00.
 Generated NRdTot=       0 NPtTot=           0 NUsed=           0 NTot=          32
 NSgBfM=   746   753   753   760   763 MxSgAt=    97 MxSgA2=    97.
 Leave Link  302 at Wed May  2 23:29:20 2018, MaxMem= 14763950080 cpu:       245.6
 (Enter /cm/shared/gaussian/g09.e01/intel64-sandybridge/g09/l303.exe)
 DipDrv:  MaxL=1.
 Leave Link  303 at Wed May  2 23:29:20 2018, MaxMem= 14763950080 cpu:        28.5
 (Enter /cm/shared/gaussian/g09.e01/intel64-sandybridge/g09/l401.exe)
 ExpMin= 1.22D-01 ExpMax= 6.40D+05 ExpMxC= 6.18D+03 IAcc=2 IRadAn=         4 AccDes= 0.00D+00
 Harris functional with IExCor= 1009 and IRadAn=       4 diagonalized for initial guess.
 HarFok:  IExCor= 1009 AccDes= 0.00D+00 IRadAn=         4 IDoV= 1 UseB2=F ITyADJ=14
 ICtDFT=  3500011 ScaDFX=  1.000000  1.000000  1.000000  1.000000
 FoFCou: FMM=F IPFlag=           0 FMFlag=      100000 FMFlg1=        2001
         NFxFlg=           0 DoJE=T BraDBF=F KetDBF=T FulRan=T
         wScrn=  0.000000 ICntrl=     500 IOpCl=  0 I1Cent=   200000004 NGrid=           0
         NMat0=    1 NMatS0=      1 NMatT0=    0 NMatD0=    1 NMtDS0=    0 NMtDT0=    0
 Symmetry not used in FoFCou.
 Harris En= -2574.01956550064    
 JPrj=0 DoOrth=F DoCkMO=F.
 Leave Link  401 at Wed May  2 23:29:25 2018, MaxMem= 14763950080 cpu:       275.5
 (Enter /cm/shared/gaussian/g09.e01/intel64-sandybridge/g09/l502.exe)
 Closed shell SCF:
 Using DIIS extrapolation, IDIIS=  1040.
 Two-electron integral symmetry not used.
 IVT=     2138497 IEndB=     2138497 NGot= 14763950080 MDV= 14762516294
 LenX= 14762516294 LenY= 14761828224
 Requested convergence on RMS density matrix=1.00D-08 within 128 cycles.
 Requested convergence on MAX density matrix=1.00D-06.
 Requested convergence on             energy=1.00D-06.
 No special actions if energy rises.
 Fock matrices will be formed incrementally for  20 cycles.
 Integral accuracy reduced to 1.0D-05 until final iterations.

 Cycle   1  Pass 0  IDiag  1:
 FoFJK:  IHMeth= 1 ICntrl=       0 DoSepK=F KAlg= 0 I1Cent=   0 FoldK=F
 IRaf= 820000000 NMat=   1 IRICut=       1 DoRegI=T DoRafI=F ISym2E= 0.
 FoFCou: FMM=T IPFlag=           0 FMFlag=      100000 FMFlg1=        2001
         NFxFlg=           0 DoJE=F BraDBF=F KetDBF=F FulRan=T
         wScrn=  0.000000 ICntrl=       0 IOpCl=  0 I1Cent=           0 NGrid=           0
         NMat0=    1 NMatS0=      1 NMatT0=    0 NMatD0=    1 NMtDS0=    0 NMtDT0=    0
 Symmetry not used in FoFCou.
 FMM levels:  10  Number of levels for PrismC:   9
 E= -2573.87946167513    
 DIIS: error= 9.23D-03 at cycle   1 NSaved=   1.
 NSaved= 1 IEnMin= 1 EnMin= -2573.87946167513     IErMin= 1 ErrMin= 9.23D-03
 ErrMax= 9.23D-03  0.00D+00 EMaxC= 1.00D-01 BMatC= 3.75D-02 BMatP= 3.75D-02
 IDIUse=3 WtCom= 9.08D-01 WtEn= 9.23D-02
 Coeff-Com:  0.100D+01
 Coeff-En:   0.100D+01
 Coeff:      0.100D+01
 Gap=     0.178 Goal=   None    Shift=    0.000
 GapD=    0.178 DampG=1.000 DampE=1.000 DampFc=1.0000 IDamp=-1.
 RMSDP=4.59D-04 MaxDP=6.79D-02              OVMax= 1.51D-01

 Cycle   2  Pass 0  IDiag  1:
 RMSU=  4.56D-04    CP:  9.91D-01
 E= -2573.90081039668     Delta-E=       -0.021348721554 Rises=F Damp=F
 DIIS: error= 2.69D-03 at cycle   2 NSaved=   2.
 NSaved= 2 IEnMin= 2 EnMin= -2573.90081039668     IErMin= 2 ErrMin= 2.69D-03
 ErrMax= 2.69D-03  0.00D+00 EMaxC= 1.00D-01 BMatC= 7.41D-03 BMatP= 3.75D-02
 IDIUse=3 WtCom= 9.73D-01 WtEn= 2.69D-02
 Coeff-Com:  0.227D+00 0.773D+00
 Coeff-En:   0.396D-01 0.960D+00
 Coeff:      0.222D+00 0.778D+00
 Gap=     0.195 Goal=   None    Shift=    0.000
 RMSDP=2.21D-04 MaxDP=5.28D-02 DE=-2.13D-02 OVMax= 6.97D-02

 Cycle   3  Pass 0  IDiag  1:
 RMSU=  1.44D-04    CP:  9.96D-01  6.39D-01
 E= -2573.90890639067     Delta-E=       -0.008095993982 Rises=F Damp=F
 DIIS: error= 2.91D-03 at cycle   3 NSaved=   3.
 NSaved= 3 IEnMin= 3 EnMin= -2573.90890639067     IErMin= 2 ErrMin= 2.69D-03
 ErrMax= 2.91D-03  0.00D+00 EMaxC= 1.00D-01 BMatC= 2.66D-03 BMatP= 7.41D-03
 IDIUse=3 WtCom= 9.71D-01 WtEn= 2.91D-02
 Coeff-Com:  0.598D-01 0.362D+00 0.578D+00
 Coeff-En:   0.000D+00 0.173D+00 0.827D+00
 Coeff:      0.581D-01 0.357D+00 0.585D+00
 Gap=     0.175 Goal=   None    Shift=    0.000
 RMSDP=7.58D-05 MaxDP=1.83D-02 DE=-8.10D-03 OVMax= 2.29D-02

 Cycle   4  Pass 0  IDiag  1:
 RMSU=  8.04D-06    CP:  9.94D-01  7.50D-01  6.19D-01
 E= -2573.91190218118     Delta-E=       -0.002995790517 Rises=F Damp=F
 DIIS: error= 8.27D-05 at cycle   4 NSaved=   4.
 NSaved= 4 IEnMin= 4 EnMin= -2573.91190218118     IErMin= 4 ErrMin= 8.27D-05
 ErrMax= 8.27D-05  0.00D+00 EMaxC= 1.00D-01 BMatC= 1.36D-06 BMatP= 2.66D-03
 IDIUse=1 WtCom= 1.00D+00 WtEn= 0.00D+00
 Coeff-Com: -0.843D-03 0.111D-01 0.342D-01 0.956D+00
 Coeff:     -0.843D-03 0.111D-01 0.342D-01 0.956D+00
 Gap=     0.175 Goal=   None    Shift=    0.000
 RMSDP=2.26D-06 MaxDP=5.47D-04 DE=-3.00D-03 OVMax= 5.81D-04

 Initial convergence to 1.0D-05 achieved.  Increase integral accuracy.
 Cycle   5  Pass 1  IDiag  1:
 E= -2573.91257150507     Delta-E=       -0.000669323890 Rises=F Damp=F
 DIIS: error= 1.14D-05 at cycle   1 NSaved=   1.
 NSaved= 1 IEnMin= 1 EnMin= -2573.91257150507     IErMin= 1 ErrMin= 1.14D-05
 ErrMax= 1.14D-05  0.00D+00 EMaxC= 1.00D-01 BMatC= 1.34D-07 BMatP= 1.34D-07
 IDIUse=1 WtCom= 1.00D+00 WtEn= 0.00D+00
 Coeff-Com:  0.100D+01
 Coeff:      0.100D+01
 Gap=     0.175 Goal=   None    Shift=    0.000
 RMSDP=2.26D-06 MaxDP=5.47D-04 DE=-6.69D-04 OVMax= 2.70D-04

 Cycle   6  Pass 1  IDiag  1:
 RMSU=  1.42D-06    CP:  1.00D+00
 E= -2573.91257166379     Delta-E=       -0.000000158717 Rises=F Damp=F
 DIIS: error= 1.12D-05 at cycle   2 NSaved=   2.
 NSaved= 2 IEnMin= 2 EnMin= -2573.91257166379     IErMin= 2 ErrMin= 1.12D-05
 ErrMax= 1.12D-05  0.00D+00 EMaxC= 1.00D-01 BMatC= 4.87D-08 BMatP= 1.34D-07
 IDIUse=1 WtCom= 1.00D+00 WtEn= 0.00D+00
 Coeff-Com:  0.345D+00 0.655D+00
 Coeff:      0.345D+00 0.655D+00
 Gap=     0.175 Goal=   None    Shift=    0.000
 RMSDP=4.25D-07 MaxDP=1.06D-04 DE=-1.59D-07 OVMax= 1.44D-04

 Cycle   7  Pass 1  IDiag  1:
 RMSU=  3.84D-07    CP:  1.00D+00  8.75D-01
 E= -2573.91257171976     Delta-E=       -0.000000055975 Rises=F Damp=F
 DIIS: error= 3.34D-06 at cycle   3 NSaved=   3.
 NSaved= 3 IEnMin= 3 EnMin= -2573.91257171976     IErMin= 3 ErrMin= 3.34D-06
 ErrMax= 3.34D-06  0.00D+00 EMaxC= 1.00D-01 BMatC= 4.09D-09 BMatP= 4.87D-08
 IDIUse=1 WtCom= 1.00D+00 WtEn= 0.00D+00
 Coeff-Com: -0.265D-01 0.206D+00 0.821D+00
 Coeff:     -0.265D-01 0.206D+00 0.821D+00
 Gap=     0.175 Goal=   None    Shift=    0.000
 RMSDP=1.00D-07 MaxDP=2.55D-05 DE=-5.60D-08 OVMax= 2.85D-05

 Cycle   8  Pass 1  IDiag  1:
 RMSU=  3.64D-08    CP:  1.00D+00  9.26D-01  8.49D-01
 E= -2573.91257172435     Delta-E=       -0.000000004589 Rises=F Damp=F
 DIIS: error= 5.61D-07 at cycle   4 NSaved=   4.
 NSaved= 4 IEnMin= 4 EnMin= -2573.91257172435     IErMin= 4 ErrMin= 5.61D-07
 ErrMax= 5.61D-07  0.00D+00 EMaxC= 1.00D-01 BMatC= 3.76D-11 BMatP= 4.09D-09
 IDIUse=1 WtCom= 1.00D+00 WtEn= 0.00D+00
 Coeff-Com: -0.112D-01 0.644D-01 0.250D+00 0.697D+00
 Coeff:     -0.112D-01 0.644D-01 0.250D+00 0.697D+00
 Gap=     0.175 Goal=   None    Shift=    0.000
 RMSDP=1.00D-08 MaxDP=1.02D-06 DE=-4.59D-09 OVMax= 3.13D-06

 Cycle   9  Pass 1  IDiag  1:
 RMSU=  8.03D-09    CP:  1.00D+00  9.29D-01  8.47D-01  8.67D-01
 E= -2573.91257172438     Delta-E=       -0.000000000024 Rises=F Damp=F
 DIIS: error= 7.66D-08 at cycle   5 NSaved=   5.
 NSaved= 5 IEnMin= 5 EnMin= -2573.91257172438     IErMin= 5 ErrMin= 7.66D-08
 ErrMax= 7.66D-08  0.00D+00 EMaxC= 1.00D-01 BMatC= 1.55D-12 BMatP= 3.76D-11
 IDIUse=1 WtCom= 1.00D+00 WtEn= 0.00D+00
 Coeff-Com: -0.357D-03-0.223D-02-0.181D-01 0.128D+00 0.892D+00
 Coeff:     -0.357D-03-0.223D-02-0.181D-01 0.128D+00 0.892D+00
 Gap=     0.175 Goal=   None    Shift=    0.000
 RMSDP=2.73D-09 MaxDP=5.34D-07 DE=-2.36D-11 OVMax= 9.70D-07

 SCF Done:  E(RPBE1PBE) =  -2573.91257172     A.U. after    9 cycles
            NFock=  9  Conv=0.27D-08     -V/T= 2.0013
 KE= 2.570515604304D+03 PE=-6.162911286961D+03 EE= 1.018483110933D+03
 Leave Link  502 at Wed May  2 23:30:49 2018, MaxMem= 14763950080 cpu:      5316.9
 (Enter /cm/shared/gaussian/g09.e01/intel64-sandybridge/g09/l601.exe)
 Copying SCF densities to generalized density rwf, IOpCl= 0 IROHF=0.

 **********************************************************************

            Population analysis using the SCF density.

 **********************************************************************

 Alpha  occ. eigenvalues -- -482.98979 -62.39133 -56.16389 -56.16386 -56.16380
 Alpha  occ. eigenvalues --   -8.49272  -6.29588  -6.29579  -6.29561  -2.37856
 Alpha  occ. eigenvalues --   -2.37854  -2.37839  -2.37832  -2.37829  -0.47302
 Alpha  occ. eigenvalues --   -0.03163  -0.03153  -0.03142
 Alpha virt. eigenvalues --    0.14339   0.16065   0.16373   0.16939   0.18422
 Alpha virt. eigenvalues --    0.18727   0.18956   0.19630   0.19978   0.21524
 Alpha virt. eigenvalues --    0.21576   0.22194   0.22855   0.23411   0.24181
 Alpha virt. eigenvalues --    0.24633   0.24800   0.25137   0.25713   0.26712
 Alpha virt. eigenvalues --    0.26850   0.27289   0.28091   0.28271   0.28853
 Alpha virt. eigenvalues --    0.29138   0.29667   0.30204   0.30509   0.31015
 Alpha virt. eigenvalues --    0.31719   0.32802   0.33202   0.34039   0.34236
 Alpha virt. eigenvalues --    0.35144   0.35359   0.36206   0.36374   0.37014
 Alpha virt. eigenvalues --    0.37100   0.37369   0.38032   0.38465   0.38971
 Alpha virt. eigenvalues --    0.39495   0.40177   0.40538   0.40911   0.41480
 Alpha virt. eigenvalues --    0.41756   0.42637   0.43189   0.43814   0.44160
 Alpha virt. eigenvalues --    0.44501   0.45557   0.46473   0.46888   0.47214
 Alpha virt. eigenvalues --    0.47701   0.49576   0.50040   0.50745   0.61036
 Alpha virt. eigenvalues --    0.62269   0.62440   0.62989   0.63425   0.63962
 Alpha virt. eigenvalues --    0.64367   0.64850   0.65398   0.66020   0.66295
 Alpha virt. eigenvalues --    0.66345   0.66866   0.67205   0.67692   0.68286
 Alpha virt. eigenvalues --    0.68805   0.69131   0.69803   0.70648   0.70755
 Alpha virt. eigenvalues --    0.71393   0.71716   0.72064   0.72667   0.73026
 Alpha virt. eigenvalues --    0.73396   0.73644   0.74348   0.74530   0.74802
 Alpha virt. eigenvalues --    0.74993   0.75224   0.75831   0.76099   0.76215
 Alpha virt. eigenvalues --    0.76483   0.76910   0.77428   0.77518   0.77686
 Alpha virt. eigenvalues --    0.77920   0.78113   0.78652   0.78883   0.79139
 Alpha virt. eigenvalues --    0.79524   0.80282   0.80436   0.80609   0.81036
 Alpha virt. eigenvalues --    0.81371   0.81709   0.82063   0.82096   0.82804
 Alpha virt. eigenvalues --    0.83344   0.83570   0.83823   0.84146   0.84353
 Alpha virt. eigenvalues --    0.84492   0.85262   0.85693   0.85953   0.86312
 Alpha virt. eigenvalues --    0.86728   0.86964   0.87465   0.87912   0.88229
 Alpha virt. eigenvalues --    0.89047   0.89321   0.89920   0.90178   0.90559
 Alpha virt. eigenvalues --    0.91184   0.91557   0.91879   0.92051   0.92325
 Alpha virt. eigenvalues --    0.92974   0.93658   0.94137   0.94653   0.94722
 Alpha virt. eigenvalues --    0.94843   0.95211   0.95565   0.95657   0.96311
 Alpha virt. eigenvalues --    0.96556   0.97035   0.97609   0.98103   0.98448
 Alpha virt. eigenvalues --    0.98710   0.98922   0.99253   0.99557   1.00211
 Alpha virt. eigenvalues --    1.00440   1.01344   1.01904   1.02152   1.02797
 Alpha virt. eigenvalues --    1.03550   1.03888   1.04365   1.04576   1.04751
 Alpha virt. eigenvalues --    1.05190   1.06457   1.06581   1.07044   1.07544
 Alpha virt. eigenvalues --    1.07898   1.08430   1.10242   1.11063   1.11401
 Alpha virt. eigenvalues --    1.11688   1.12668   1.13668   1.14135   1.14746
 Alpha virt. eigenvalues --    1.14950   1.16062   1.16989   1.17069   1.17532
 Alpha virt. eigenvalues --    1.18650   1.19952   1.21884   1.22614   1.25374
 Alpha virt. eigenvalues --    1.26892   1.65235   1.66410   1.67582   1.67965
 Alpha virt. eigenvalues --    1.68252   1.68842   1.70024   1.70393   1.70788
 Alpha virt. eigenvalues --    1.70990   1.71453   1.71636   1.72166   1.72510
 Alpha virt. eigenvalues --    1.72776   1.72881   1.73510   1.73557   1.73664
 Alpha virt. eigenvalues --    1.74100   1.74750   1.74917   1.75333   1.75590
 Alpha virt. eigenvalues --    1.75708   1.75910   1.76208   1.76499   1.76723
 Alpha virt. eigenvalues --    1.77062   1.77461   1.77786   1.78031   1.78201
 Alpha virt. eigenvalues --    1.78501   1.78948   1.79229   1.79386   1.80107
 Alpha virt. eigenvalues --    1.80270   1.80487   1.81047   1.81249   1.81616
 Alpha virt. eigenvalues --    1.82196   1.82800   1.83043   1.84014   1.84248
 Alpha virt. eigenvalues --    1.85505   1.85914   1.86531   1.86671   1.87275
 Alpha virt. eigenvalues --    1.87733   1.88430   1.88901   1.89653   1.89778
 Alpha virt. eigenvalues --    1.91475   1.91678   1.93002   1.93656   1.96254
 Alpha virt. eigenvalues --    1.98244   1.99068   1.99383   1.99681   1.99988
 Alpha virt. eigenvalues --    2.00241   2.00429   2.00871   2.00929   2.01314
 Alpha virt. eigenvalues --    2.01517   2.01673   2.02205   2.02362   2.02635
 Alpha virt. eigenvalues --    2.02891   2.03050   2.03203   2.03314   2.03433
 Alpha virt. eigenvalues --    2.03778   2.03909   2.04149   2.04411   2.04626
 Alpha virt. eigenvalues --    2.04714   2.05416   2.05870   2.06134   2.06380
 Alpha virt. eigenvalues --    2.06649   2.07133   2.07275   2.07414   2.07804
 Alpha virt. eigenvalues --    2.08356   2.08507   2.08895   2.09248   2.09902
 Alpha virt. eigenvalues --    2.10157   2.10422   2.10949   2.11030   2.11676
 Alpha virt. eigenvalues --    2.11981   2.12309   2.12744   2.13072   2.13270
 Alpha virt. eigenvalues --    2.13477   2.13608   2.14225   2.14317   2.15491
 Alpha virt. eigenvalues --    2.16012   2.16226   2.16389   2.16807   2.17387
 Alpha virt. eigenvalues --    2.17597   2.18300   2.18396   2.18899   2.19335
 Alpha virt. eigenvalues --    2.19667   2.20283   2.20382   2.20664   2.21672
 Alpha virt. eigenvalues --    2.21915   2.22177   2.22667   2.23226   2.23396
 Alpha virt. eigenvalues --    2.23913   2.24161   2.24440   2.25403   2.25912
 Alpha virt. eigenvalues --    2.26589   2.27185   2.27405   2.29496   2.30462
 Alpha virt. eigenvalues --    2.30934   2.31078   2.32056   2.32711   2.33125
 Alpha virt. eigenvalues --    2.34497   2.35160   2.35956   2.36593   2.37358
 Alpha virt. eigenvalues --    2.39132   2.40145   2.40814   2.40999   2.42229
 Alpha virt. eigenvalues --    2.42889   2.43019   2.43369   2.43734   2.43821
 Alpha virt. eigenvalues --    2.44485   2.44900   2.44956   2.45351   2.45661
 Alpha virt. eigenvalues --    2.46046   2.46245   2.46599   2.47202   2.47707
 Alpha virt. eigenvalues --    2.49007   2.49115   2.50080   2.51127   2.51212
 Alpha virt. eigenvalues --    2.52268   2.53024   2.53429   2.53917   2.54212
 Alpha virt. eigenvalues --    2.54559   2.55879   2.56932   2.67827   2.68814
 Alpha virt. eigenvalues --    2.69057   2.69268   2.70188   2.70621   2.71303
 Alpha virt. eigenvalues --    2.71514   2.71570   2.72094   2.72233   2.73157
 Alpha virt. eigenvalues --    2.73438   2.73994   2.74227   2.74800   2.75147
 Alpha virt. eigenvalues --    2.75319   2.76399   2.77423   2.78934   2.79495
 Alpha virt. eigenvalues --    2.79931   2.80257   2.81087   2.81957   2.82329
 Alpha virt. eigenvalues --    2.83160   2.84051   2.84594   2.84698   2.85123
 Alpha virt. eigenvalues --    2.85710   2.85909   2.86621   2.86951   2.87015
 Alpha virt. eigenvalues --    2.87641   2.87831   2.88336   2.88562   2.89823
 Alpha virt. eigenvalues --    2.90087   2.90121   2.90850   2.91272   2.91643
 Alpha virt. eigenvalues --    2.92176   2.92664   2.93734   2.94856   2.95984
 Alpha virt. eigenvalues --    2.96075   2.97184   2.97882   2.99156   2.99809
 Alpha virt. eigenvalues --    3.02696   3.03519   3.05857   3.06506   3.08697
 Alpha virt. eigenvalues --    3.09252   3.10622   3.13579   3.15580   3.16011
 Alpha virt. eigenvalues --    3.17474   3.18384   3.18975   3.19450   3.19918
 Alpha virt. eigenvalues --    3.20403   3.21235   3.21703   3.23665   3.24574
 Alpha virt. eigenvalues --    3.25771   3.27083   3.27723   3.28305   3.30654
 Alpha virt. eigenvalues --    3.31234   3.35537   3.37126   3.38615   3.39555
 Alpha virt. eigenvalues --    3.41802   3.44738   3.46466   3.47844   3.49771
 Alpha virt. eigenvalues --    3.50084   3.54109   3.55303   3.65998   4.51664
 Alpha virt. eigenvalues --    4.51959   4.52248   4.52416   4.52492   4.52566
 Alpha virt. eigenvalues --    4.52714   4.52743   4.52893   4.52981   4.52991
 Alpha virt. eigenvalues --    4.53098   4.53130   4.53386   4.53527   4.53637
 Alpha virt. eigenvalues --    4.53940   4.54095   4.54143   4.54283   4.54490
 Alpha virt. eigenvalues --    4.54855   4.55539   4.55629   4.55722   4.56130
 Alpha virt. eigenvalues --    4.56153   4.56535   4.56690   4.56933   4.57263
 Alpha virt. eigenvalues --    4.57668   4.59765   4.59813   4.60113   4.60457
 Alpha virt. eigenvalues --    4.60473   4.60575   4.60660   4.60774   4.60813
 Alpha virt. eigenvalues --    4.60914   4.61007   4.61211   4.61295   4.61604
 Alpha virt. eigenvalues --    4.61796   4.61833   4.62049   4.62172   4.62583
 Alpha virt. eigenvalues --    4.62606   4.62712   4.62826   4.63142   4.63152
 Alpha virt. eigenvalues --    4.63682   4.64037   4.64244   4.64332   4.64442
 Alpha virt. eigenvalues --    4.65339   4.65588   4.65804   4.73956   4.74914
 Alpha virt. eigenvalues --    4.75016   4.75576   4.75909   4.75988   4.76383
 Alpha virt. eigenvalues --    4.76696   4.77295   4.77741   4.78026   4.78304
 Alpha virt. eigenvalues --    4.78443   4.79015   4.79113   4.79279   4.79797
 Alpha virt. eigenvalues --    4.80622   4.80697   4.80933   4.81607   4.81715
 Alpha virt. eigenvalues --    4.82315   4.82336   4.82485   4.82685   4.83737
 Alpha virt. eigenvalues --    4.84135   4.84409   4.84633   4.84664   4.86035
 Alpha virt. eigenvalues --    4.86881   4.86983   4.87150   4.87624   4.87759
 Alpha virt. eigenvalues --    4.87949   4.88026   4.88235   4.88673   4.89091
 Alpha virt. eigenvalues --    4.89310   4.89565   4.89862   4.90614   4.90963
 Alpha virt. eigenvalues --    4.91085   4.91742   4.92466   4.92718   4.93986
 Alpha virt. eigenvalues --    4.94206   4.95384   4.95876   4.96800   4.97742
 Alpha virt. eigenvalues --    4.98852   4.99006   4.99308   5.00354   5.00645
 Alpha virt. eigenvalues --    5.01104   5.02158   5.03487   5.05125   5.06064
 Alpha virt. eigenvalues --    5.06157   5.07736   5.08194   5.08578   5.08753
 Alpha virt. eigenvalues --    5.09446   5.09867   5.09947   5.10560   5.11242
 Alpha virt. eigenvalues --    5.11358   5.11838   5.12185   5.12693   5.13301
 Alpha virt. eigenvalues --    5.14073   5.15877   5.16800   5.17594   5.17829
 Alpha virt. eigenvalues --    5.18219   5.19597   5.20607   5.22509   5.23890
 Alpha virt. eigenvalues --    5.26271   5.27121   5.27991   5.31596   5.32387
 Alpha virt. eigenvalues --    5.35687   5.36212   5.37955   5.39540   5.40551
 Alpha virt. eigenvalues --    5.40671   5.41063   5.41357   5.42034   5.42878
 Alpha virt. eigenvalues --    5.43133   5.44149   5.46047   5.46235   5.46633
[...]
   X21       34.10956   0.00523   0.00000   0.00618   0.00710  34.11665
   Y21       36.88745   0.00314   0.00000   0.01118   0.01001  36.89746
   Z21       33.71271   0.00406   0.00000   0.01119   0.01079  33.72350
   X22       31.25607  -0.01421   0.00000  -0.02343  -0.02251  31.23356
   Y22       37.00084   0.00603   0.00000   0.00963   0.00853  37.00936
   Z22       33.80720   0.00732   0.00000   0.00256   0.00242  33.80962
   X23       32.01196  -0.01744   0.00000  -0.01514  -0.01383  31.99813
   Y23       41.00706  -0.01190   0.00000  -0.00708  -0.00799  40.99907
   Z23       36.98194   0.01101   0.00000   0.01299   0.01251  36.99446
   X24       33.27808   0.00598   0.00000  -0.00195  -0.00052  33.27756
   Y24       41.17713   0.00309   0.00000   0.00483   0.00397  41.18111
   Z24       38.26695   0.00491   0.00000   0.01406   0.01346  38.28041
   X25       32.71116   0.01714   0.00000   0.04352   0.04472  32.75588
   Y25       41.85743   0.00997   0.00000   0.00941   0.00839  41.86582
   Z25       35.54575  -0.00828   0.00000   0.01515   0.01454  35.56029
   X26       40.28896   0.01029   0.00000  -0.00105   0.00067  40.28963
   Y26       33.29697   0.01954   0.00000   0.05402   0.05334  33.35032
   Z26       43.38811   0.02737   0.00000   0.04770   0.04696  43.43507
   X27       41.04485  -0.00208   0.00000  -0.00896  -0.00735  41.03750
   Y27       34.16625  -0.00399   0.00000  -0.01993  -0.02072  34.14553
   Z27       41.98971  -0.00996   0.00000  -0.01453  -0.01539  41.97433
   X28       39.13623  -0.00380   0.00000   0.02868   0.03030  39.16653
   Y28       32.12534  -0.00947   0.00000  -0.00128  -0.00198  32.12336
   Z28       42.63222  -0.00847   0.00000   0.01657   0.01602  42.64824
   X29       32.03086   0.00128   0.00000  -0.00503  -0.00318  32.02768
   Y29       39.00395  -0.00030   0.00000  -0.00450  -0.00499  38.99896
   Z29       43.36921   0.00280   0.00000  -0.00783  -0.00818  43.36103
   X30       32.82454   0.00177   0.00000  -0.00330  -0.00160  32.82294
   Y30       38.43703  -0.00631   0.00000  -0.02610  -0.02672  38.41031
   Z30       41.83854  -0.00519   0.00000  -0.00839  -0.00877  41.82976
   X31       30.33010  -0.00595   0.00000  -0.01252  -0.01071  30.31940
   Y31       39.38189   0.00025   0.00000  -0.00363  -0.00412  39.37778
   Z31       42.87789  -0.00223   0.00000  -0.00754  -0.00776  42.87013
   X32       44.99438  -0.00642   0.00000  -0.01671  -0.01569  44.97869
   Y32       39.13623   0.01046   0.00000  -0.00878  -0.01017  39.12606
   Z32       34.35522  -0.01161   0.00000  -0.01989  -0.02144  34.33378
   X33       44.78651   0.00314   0.00000   0.01510   0.01623  44.80274
   Y33       38.04019  -0.01189   0.00000  -0.01682  -0.01811  38.02208
   Z33       35.77252   0.00941   0.00000   0.00542   0.00397  35.77648
   X34       46.26050   0.00353   0.00000  -0.00009   0.00082  46.26132
   Y34       38.34254  -0.00896   0.00000  -0.02729  -0.02877  38.31377
   Z34       33.33477  -0.00131   0.00000   0.00022  -0.00139  33.33338
   X35       40.02440  -0.00612   0.00000  -0.00470  -0.00399  40.02041
   Y35       41.68736   0.00319   0.00000  -0.01574  -0.01728  41.67008
   Z35       30.27341   0.00006   0.00000   0.01034   0.00908  30.28249
   X36       40.70470   0.00724   0.00000   0.02287   0.02370  40.72840
   Y36       40.93147  -0.00551   0.00000  -0.01199  -0.01345  40.91802
   Z36       31.76630   0.00980   0.00000   0.01685   0.01557  31.78187
   X37       40.76139   0.00249   0.00000  -0.00101  -0.00045  40.76095
   Y37       40.76139  -0.00504   0.00000  -0.00859  -0.01024  40.75115
   Z37       28.91281  -0.00702   0.00000  -0.00835  -0.00962  28.90319
   X38       44.33298   0.00683   0.00000  -0.00590  -0.00418  44.32880
   Y38       43.55819  -0.00680   0.00000  -0.01488  -0.01582  43.54236
   Z38       40.87478  -0.00322   0.00000   0.00781   0.00603  40.88081
   X39       44.12511  -0.00200   0.00000  -0.00719  -0.00530  44.11980
   Y39       44.48415   0.00407   0.00000  -0.00056  -0.00139  44.48276
   Z39       42.40545   0.00976   0.00000   0.01591   0.01409  42.41955
   X40       42.67002  -0.00866   0.00000  -0.01261  -0.01095  42.65906
   Y40       43.48260   0.00024   0.00000   0.00334   0.00238  43.48498
   Z40       40.15668  -0.00508   0.00000  -0.01082  -0.01244  40.14424
   X41       34.39302  -0.00630   0.00000  -0.00603  -0.00497  34.38804
   Y41       43.78495  -0.00866   0.00000   0.01701   0.01582  43.80077
   Z41       33.58043   0.01243   0.00000   0.00511   0.00423  33.58466
   X42       35.73472   0.01177   0.00000   0.01257   0.01363  35.74835
   Y42       44.95658   0.01347   0.00000   0.02184   0.02059  44.97718
   Z42       33.27808  -0.01163   0.00000  -0.03924  -0.04033  33.23775
   X43       33.31587  -0.00209   0.00000   0.00841   0.00934  33.32521
   Y43       43.93613   0.00286   0.00000   0.00394   0.00268  43.93881
   Z43       32.14424  -0.01252   0.00000  -0.02582  -0.02661  32.11763
   X44       44.71092   0.01129   0.00000  -0.02774  -0.02663  44.68429
   Y44       44.33298   0.01403   0.00000   0.03860   0.03719  44.37017
   Z44       34.09066  -0.02200   0.00000  -0.05353  -0.05540  34.03526
   X45       43.31252  -0.01317   0.00000  -0.00303  -0.00182  43.31070
   Y45       43.82275  -0.00733   0.00000   0.00395   0.00265  43.82540
   Z45       35.09221   0.01147   0.00000   0.01609   0.01438  35.10660
   X46       45.35343  -0.00497   0.00000  -0.00916  -0.00813  45.34529
   Y46       42.78340   0.00229   0.00000   0.00803   0.00657  42.78997
   Z46       33.37256   0.01062   0.00000   0.04322   0.04140  33.41396
   X47       32.27652   0.00159   0.00000  -0.00140  -0.00041  32.27611
   Y47       29.81988  -0.01078   0.00000  -0.00565  -0.00661  29.81327
   Z47       36.35833   0.00212   0.00000  -0.00028  -0.00005  36.35828
   X48       32.52219   0.00232   0.00000   0.00999   0.01081  32.53300
   Y48       29.66870   0.00143   0.00000   0.00752   0.00643  29.67513
   Z48       34.56309  -0.00408   0.00000  -0.00550  -0.00529  34.55780
   X49       31.91747  -0.00025   0.00000   0.00823   0.00928  31.92676
   Y49       31.57732   0.01195   0.00000   0.01314   0.01221  31.58953
   Z49       36.60400   0.00254   0.00000   0.00813   0.00828  36.61227
   X50       34.75206  -0.00326   0.00000  -0.00144   0.00034  34.75240
   Y50       45.44791  -0.01643   0.00000  -0.02027  -0.02098  45.42693
   Z50       40.96926   0.01062   0.00000   0.00317   0.00215  40.97141
   X51       36.33943   0.00734   0.00000  -0.00273  -0.00093  36.33851
   Y51       46.29829   0.00934   0.00000   0.01865   0.01790  46.31619
   Z51       41.04485  -0.00364   0.00000  -0.01135  -0.01258  41.03228
   X52       33.84500  -0.00436   0.00000  -0.00264  -0.00097  33.84403
   Y52       46.26050   0.00661   0.00000  -0.00054  -0.00132  46.25918
   Z52       39.64645  -0.01126   0.00000  -0.01161  -0.01260  39.63385
   X53       37.43547   0.00786   0.00000   0.02046   0.02128  37.45676
   Y53       28.36479   0.00343   0.00000   0.01410   0.01291  28.37770
   Z53       34.84655  -0.01685   0.00000  -0.00386  -0.00401  34.84254
   X54       38.05908   0.00402   0.00000   0.00700   0.00783  38.06692
   Y54       26.77742  -0.00773   0.00000  -0.00322  -0.00438  26.77304
   Z54       35.43236   0.00464   0.00000   0.00777   0.00767  35.44004
   X55       36.67958  -0.01288   0.00000  -0.03519  -0.03421  36.64537
   Y55       29.12068   0.00675   0.00000   0.00392   0.00286  29.12354
   Z55       36.30164   0.01418   0.00000   0.00685   0.00672  36.30836
   X56       35.13001   0.00329   0.00000  -0.00992  -0.00771  35.12230
   Y56       41.53618   0.01110   0.00000   0.02287   0.02252  41.55870
   Z56       46.63844   0.01935   0.00000   0.03189   0.03109  46.66953
   X57       34.01507  -0.00694   0.00000  -0.00454  -0.00246  34.01261
   Y57       40.79919  -0.00540   0.00000   0.00135   0.00094  40.80013
   Z57       45.42902  -0.00934   0.00000   0.00555   0.00490  45.43391
   X58       36.75517   0.00027   0.00000  -0.01006  -0.00792  36.74725
   Y58       41.49839  -0.00342   0.00000  -0.01265  -0.01309  41.48529
   Z58       45.82586   0.00037   0.00000   0.02025   0.01930  45.84516
   X59       35.71582  -0.01272   0.00000  -0.01406  -0.01368  35.70214
   Y59       32.97572  -0.00446   0.00000  -0.01913  -0.02065  32.95507
   Z59       28.96950  -0.00871   0.00000  -0.02343  -0.02372  28.94579
   X60       37.45437   0.00523   0.00000  -0.00680  -0.00638  37.44800
   Y60       32.76785   0.00512   0.00000   0.01821   0.01667  32.78452
   Z60       29.42304   0.00684   0.00000   0.01557   0.01513  29.43817
   X61       35.13001   0.00442   0.00000   0.00332   0.00383  35.13384
   Y61       34.37412  -0.00514   0.00000  -0.02023  -0.02168  34.35244
   Z61       29.98995  -0.00325   0.00000  -0.01859  -0.01892  29.97103
   X62       41.02595   0.01009   0.00000   0.03850   0.04079  41.06674
   Y62       40.83698   0.00519   0.00000   0.01088   0.01046  40.84744
   Z62       47.64000   0.02130   0.00000   0.01618   0.01487  47.65487
   X63       41.53618  -0.00184   0.00000  -0.01275  -0.01047  41.52571
   Y63       39.15513  -0.00378   0.00000  -0.01225  -0.01265  39.14247
   Z63       48.09353  -0.00131   0.00000  -0.00256  -0.00379  48.08974
   X64       40.76139  -0.00495   0.00000  -0.01488  -0.01276  40.74863
   Y64       40.78029  -0.00087   0.00000   0.00391   0.00337  40.78366
   Z64       45.86365  -0.01957   0.00000  -0.00767  -0.00893  45.85472
   X65       29.81988  -0.01628   0.00000  -0.04448  -0.04281  29.77707
   Y65       33.59933  -0.00552   0.00000   0.00948   0.00900  33.60833
   Z65       42.80230   0.00413   0.00000   0.02572   0.02593  42.82823
   X66       31.10489   0.00807   0.00000   0.01085   0.01262  31.11752
   Y66       34.48750   0.00344   0.00000  -0.00846  -0.00891  34.47859
   Z66       43.72826  -0.00103   0.00000  -0.00926  -0.00923  43.71903
   X67       29.98995   0.00854   0.00000   0.03054   0.03207  30.02203
   Y67       34.22294  -0.00234   0.00000  -0.02494  -0.02554  34.19741
   Z67       41.10154   0.00359   0.00000   0.01868   0.01883  41.12037
   X68       27.64669  -0.00660   0.00000   0.00032   0.00142  27.64811
   Y68       39.47638  -0.01191   0.00000  -0.02352  -0.02446  39.45192
   Z68       35.11111  -0.01624   0.00000  -0.01419  -0.01417  35.09694
   X69       26.58845  -0.00380   0.00000  -0.00825  -0.00702  26.58143
   Y69       39.30630  -0.00049   0.00000  -0.00570  -0.00651  39.29979
   Z69       36.56620   0.00640   0.00000  -0.00302  -0.00289  36.56331
   X70       29.08289   0.00911   0.00000  -0.00235  -0.00117  29.08172
   Y70       40.40234   0.00646   0.00000  -0.00157  -0.00250  40.39984
   Z70       35.71582   0.01214   0.00000   0.02939   0.02921  35.74504
   X71       33.27808   0.00820   0.00000   0.00399   0.00439  33.28247
   Y71       37.87011  -0.00593   0.00000   0.00719   0.00564  37.87576
   Z71       27.91125  -0.01718   0.00000  -0.02031  -0.02070  27.89055
   X72       32.86234  -0.00316   0.00000  -0.00516  -0.00475  32.85758
   Y72       39.57087   0.01337   0.00000   0.02619   0.02464  39.59550
   Z72       27.51441  -0.00164   0.00000   0.00017  -0.00030  27.51411
   X73       32.71116  -0.00490   0.00000   0.00065   0.00120  32.71236
   Y73       37.64334  -0.00395   0.00000  -0.01201  -0.01342  37.62992
   Z73       29.61201   0.01595   0.00000   0.00586   0.00553  29.61754
   X74       34.44971  -0.00660   0.00000  -0.00471  -0.00279  34.44692
   Y74       33.18359  -0.00265   0.00000  -0.00971  -0.01011  33.17348
   Z74       45.69358  -0.00713   0.00000  -0.00899  -0.00918  45.68440
   X75       33.48595  -0.00117   0.00000   0.00197   0.00404  33.48998
   Y75       33.03241  -0.00107   0.00000  -0.00440  -0.00468  33.02774
   Z75       47.22426   0.00325   0.00000   0.00276   0.00266  47.22692
   X76       36.15046   0.01028   0.00000   0.01044   0.01242  36.16288
   Y76       33.42926   0.00427   0.00000   0.01643   0.01603  33.44528
   Z76       46.26050  -0.00051   0.00000  -0.01670  -0.01707  46.24343
   X77       45.71248   0.01884   0.00000   0.01083   0.01267  45.72515
   Y77       34.73317   0.00407   0.00000   0.00688   0.00613  34.73930
   Z77       44.40856  -0.00837   0.00000  -0.02650  -0.02783  44.38074
   X78       43.93613  -0.01823   0.00000  -0.01393  -0.01206  43.92407
   Y78       34.75206  -0.00553   0.00000  -0.02871  -0.02939  34.72267
   Z78       44.71092   0.00231   0.00000  -0.00147  -0.00264  44.70828
   X79       46.16601  -0.00309   0.00000  -0.01554  -0.01367  46.15233
   Y79       36.49061  -0.00041   0.00000   0.01243   0.01166  36.50227
   Z79       44.20069   0.00148   0.00000   0.00734   0.00586  44.20655
   X80       38.41813  -0.01809   0.00000  -0.03060  -0.02972  38.38841
   Y80       46.29829   0.02493   0.00000   0.01775   0.01629  46.31458
   Z80       30.95371   0.00846   0.00000   0.01908   0.01767  30.97138
   X81       39.07954   0.01211   0.00000   0.00759   0.00841  39.08795
   Y81       44.63533  -0.02127   0.00000  -0.00591  -0.00740  44.62793
   Z81       30.74584  -0.00789   0.00000  -0.01871  -0.02008  30.72577
   X82       39.57087   0.00035   0.00000  -0.00967  -0.00885  39.56201
   Y82       47.37543  -0.00084   0.00000   0.00592   0.00437  47.37981
   Z82       30.04665   0.00411   0.00000   0.02880   0.02721  30.07385
   X83       43.99282   0.00228   0.00000  -0.01102  -0.00994  43.98288
   Y83       27.91125  -0.01632   0.00000  -0.01083  -0.01197  27.89929
   Z83       37.73783   0.00150   0.00000   0.00456   0.00385  37.74168
   X84       44.04952  -0.00132   0.00000  -0.00706  -0.00616  44.04336
   Y84       27.43882   0.00190   0.00000   0.00910   0.00784  27.44666
   Z84       35.98039  -0.00063   0.00000  -0.00115  -0.00184  35.97854
   X85       43.50150  -0.00469   0.00000  -0.00478  -0.00366  43.49783
   Y85       29.64980   0.01704   0.00000   0.01756   0.01643  29.66623
   Z85       37.71893   0.00218   0.00000   0.01488   0.01409  37.73303
   X86       40.36455   0.00204   0.00000  -0.01686  -0.01537  40.34918
   Y86       27.74118  -0.00850   0.00000  -0.03689  -0.03764  27.70354
   Z86       42.27317   0.01415   0.00000   0.01167   0.01130  42.28448
   X87       39.19292  -0.00672   0.00000  -0.00049   0.00090  39.19382
   Y87       28.34589   0.00601   0.00000   0.01474   0.01393  28.35982
   Z87       41.04485  -0.01040   0.00000  -0.00825  -0.00856  41.03629
   X88       41.59287   0.00467   0.00000   0.01318   0.01456  41.60743
   Y88       26.81521   0.00278   0.00000   0.02438   0.02352  26.83874
   Z88       41.30941  -0.00751   0.00000  -0.02252  -0.02295  41.28647
   X89       47.94235  -0.00524   0.00000  -0.00401  -0.00278  47.93957
   Y89       35.69693   0.01011   0.00000   0.00811   0.00686  35.70379
   Z89       37.49217  -0.00962   0.00000  -0.01390  -0.01549  37.47667
   X90       48.50927   0.00398   0.00000  -0.00228  -0.00098  48.50829
   Y90       34.33632  -0.00956   0.00000  -0.00584  -0.00703  34.32929
   Z90       38.53152   0.00635   0.00000   0.00141  -0.00015  38.53137
   X91       49.45413   0.00301   0.00000   0.01203   0.01320  49.46734
   Y91       36.30164   0.00179   0.00000   0.01238   0.01104  36.31268
   Z91       36.67958   0.00343   0.00000   0.01806   0.01629  36.69587
   X92       48.32030   0.02421   0.00000   0.05834   0.05975  48.38005
   Y92       42.08420  -0.00289   0.00000  -0.03639  -0.03763  42.04658
   Z92       37.87011  -0.00271   0.00000   0.02750   0.02545  37.89556
   X93       47.07308  -0.01169   0.00000  -0.01038  -0.00884  47.06424
   Y93       42.21648   0.00550   0.00000   0.03213   0.03101  42.24749
   Z93       39.17402   0.00607   0.00000  -0.01281  -0.01476  39.15926
   X94       47.75338  -0.00781   0.00000  -0.02706  -0.02577  47.72761
   Y94       40.70470  -0.00103   0.00000   0.01481   0.01352  40.71822
   Z94       36.84966  -0.00333   0.00000  -0.00867  -0.01058  36.83908
   X95       42.87789   0.00557   0.00000   0.02366   0.02398  42.90187
   Y95       31.99306  -0.00865   0.00000  -0.01080  -0.01252  31.98055
   Z95       28.57266  -0.00972   0.00000   0.00061  -0.00027  28.57238
   X96       43.10465  -0.00236   0.00000  -0.01357  -0.01326  43.09139
   Y96       33.67492   0.00360   0.00000   0.00222   0.00046  33.67538
   Z96       27.93015   0.00178   0.00000   0.00686   0.00585  27.93600
   X97       42.61332  -0.00778   0.00000  -0.03536  -0.03486  42.57846
   Y97       32.21983   0.00594   0.00000   0.01675   0.01516  32.23499
   Z97       30.34900   0.00985   0.00000   0.00529   0.00442  30.35342
         Item               Value     Threshold  Converged?
 Maximum Force            0.027370     0.000450     NO 
 RMS     Force            0.009042     0.000300     NO 
 Maximum Displacement     0.070441     0.001800     NO 
 RMS     Displacement     0.017553     0.001200     NO 
 Predicted change in Energy=-2.428571D-02
 GradGradGradGradGradGradGradGradGradGradGradGradGradGradGradGradGradGrad

 Leave Link  103 at Wed May  2 23:35:40 2018, MaxMem= 14763950080 cpu:        52.3
 (Enter /cm/shared/gaussian/g09.e01/intel64-sandybridge/g09/l9999.exe)
 1\1\GINC-POPLE03\Force\RPBE1PBE\CC-pVDZ\Br1H64O32(1-)\M.PELUSO\02-May-
 2018\0\\#p PBE1PBE/cc-pvDZ force Counterpoise=2 noSymm\\forces on chlo
 ride comput - NWATER: 32\\-1,1\Br,20.,20.,20.\O,20.99,22.86,19.68\H,20
 .28,23.17,19.12\H,20.97,21.9,19.58\O,17.,18.7,20.39\H,16.35,19.32,20.0
 6\H,17.84,19.06,20.12\O,20.57,22.03,22.75\H,20.37,21.51,21.97\H,20.34,
 22.93,22.5\O,19.34,16.7,21.37\H,19.29,17.61,21.09\H,18.54,16.55,21.87\
 O,22.83,17.79,20.45\H,22.36,18.56,20.12\H,23.54,18.16,20.98\O,20.71,17
 .44,17.38\H,20.56,17.83,18.24\H,20.57,16.5,17.51\O,17.26,19.25,17.36\H
 ,18.05,19.52,17.84\H,16.54,19.58,17.89\O,16.94,21.7,19.57\H,17.61,21.7
 9,20.25\H,17.31,22.15,18.81\O,21.32,17.62,22.96\H,21.72,18.08,22.22\H,
 20.71,17.,22.56\O,16.95,20.64,22.95\H,17.37,20.34,22.14\H,16.05,20.84,
 22.69\O,23.81,20.71,18.18\H,23.7,20.13,18.93\H,24.48,20.29,17.64\O,21.
 18,22.06,16.02\H,21.54,21.66,16.81\H,21.57,21.57,15.3\O,23.46,23.05,21
 .63\H,23.35,23.54,22.44\H,22.58,23.01,21.25\O,18.2,23.17,17.77\H,18.91
 ,23.79,17.61\H,17.63,23.25,17.01\O,23.66,23.46,18.04\H,22.92,23.19,18.
 57\H,24.,22.64,17.66\O,17.08,15.78,19.24\H,17.21,15.7,18.29\H,16.89,16
 .71,19.37\O,18.39,24.05,21.68\H,19.23,24.5,21.72\H,17.91,24.48,20.98\O
 ,19.81,15.01,18.44\H,20.14,14.17,18.75\H,19.41,15.41,19.21\O,18.59,21.
 98,24.68\H,18.,21.59,24.04\H,19.45,21.96,24.25\O,18.9,17.45,15.33\H,19
 .82,17.34,15.57\H,18.59,18.19,15.87\O,21.71,21.61,25.21\H,21.98,20.72,
 25.45\H,21.57,21.58,24.27\O,15.78,17.78,22.65\H,16.46,18.25,23.14\H,15
 .87,18.11,21.75\O,14.63,20.89,18.58\H,14.07,20.8,19.35\H,15.39,21.38,1
 8.9\O,17.61,20.04,14.77\H,17.39,20.94,14.56\H,17.31,19.92,15.67\O,18.2
 3,17.56,24.18\H,17.72,17.48,24.99\H,19.13,17.69,24.48\O,24.19,18.38,23
 .5\H,23.25,18.39,23.66\H,24.43,19.31,23.39\O,20.33,24.5,16.38\H,20.68,
 23.62,16.27\H,20.94,25.07,15.9\O,23.28,14.77,19.97\H,23.31,14.52,19.04
 \H,23.02,15.69,19.96\O,21.36,14.68,22.37\H,20.74,15.,21.72\H,22.01,14.
 19,21.86\O,25.37,18.89,19.84\H,25.67,18.17,20.39\H,26.17,19.21,19.41\O
 ,25.57,22.27,20.04\H,24.91,22.34,20.73\H,25.27,21.54,19.5\O,22.69,16.9
 3,15.12\H,22.81,17.82,14.78\H,22.55,17.05,16.06\\Version=ES64L-G09RevE
 .01\HF=-2443.152263\RMSD=3.240e-09\RMSF=9.042e-03\Dipole=0.8657993,2.6
 266991,-2.1090282\Quadrupole=14.7411732,204.1731992,-218.9143724,-1322
 .8154637,-1502.9468478,-1405.0185196\PG=C01 [X(Br1H64O32)]\\@


 Ideas are like rabbits. You get a couple and learn
 how to handle them, and pretty soon you have a dozen.
                                    -- John Steinbeck
 Job cpu time:       0 days  9 hours 16 minutes  4.7 seconds.
 File lengths (MBytes):  RWF=    482 Int=      0 D2E=      0 Chk=    160 Scr=      1
 Normal termination of Gaussian 09 at Wed May  2 23:35:40 2018.
