 Entering Gaussian System, Link 0=/cm/shared/gaussian/g09.e01/intel64-sandybridge/g09/g09
 Initial command:
 /cm/shared/gaussian/g09.e01/intel64-sandybridge/g09/l1.exe "/local/scratch/m.peluso/32_wat/Gau-34366.inp" -scrdir="/local/scratch/m.peluso/32_wat/"
 Entering Link 1 = /cm/shared/gaussian/g09.e01/intel64-sandybridge/g09/l1.exe PID=     34367.
  
 Copyright (c) 1988,1990,1992,1993,1995,1998,2003,2009,2015,
            Gaussian, Inc.  All Rights Reserved.
  
 This is part of the Gaussian(R) 09 program.  It is based on
 the Gaussian(R) 03 system (copyright 2003, Gaussian, Inc.),
 the Gaussian(R) 98 system (copyright 1998, Gaussian, Inc.),
 the Gaussian(R) 94 system (copyright 1995, Gaussian, Inc.),
 the Gaussian 92(TM) system (copyright 1992, Gaussian, Inc.),
 the Gaussian 90(TM) system (copyright 1990, Gaussian, Inc.),
 the Gaussian 88(TM) system (copyright 1988, Gaussian, Inc.),
 the Gaussian 86(TM) system (copyright 1986, Carnegie Mellon
 University), and the Gaussian 82(TM) system (copyright 1983,
 Carnegie Mellon University). Gaussian is a federally registered
 trademark of Gaussian, Inc.
  
 This software contains proprietary and confidential information,
 including trade secrets, belonging to Gaussian, Inc.
  
 This software is provided under written license and may be
 used, copied, transmitted, or stored only in accord with that
 written license.
  
 The following legend is applicable only to US Government
 contracts under FAR:
  
                    RESTRICTED RIGHTS LEGEND
  
 Use, reproduction and disclosure by the US Government is
 subject to restrictions as set forth in subparagraphs (a)
 and (c) of the Commercial Computer Software - Restricted
 Rights clause in FAR 52.227-19.
  
 Gaussian, Inc.
 340 Quinnipiac St., Bldg. 40, Wallingford CT 06492
  
  
 ---------------------------------------------------------------
 Warning -- This program may not be used in any manner that
 competes with the business of Gaussian, Inc. or will provide
 assistance to any competitor of Gaussian, Inc.  The licensee
 of this program is prohibited from giving any competitor of
 Gaussian, Inc. access to this program.  By using this program,
 the user acknowledges that Gaussian, Inc. is engaged in the
 business of creating and licensing software in the field of
 computational chemistry and represents and warrants to the
 licensee that it is not a competitor of Gaussian, Inc. and that
 it will not use this program in any manner prohibited above.
 ---------------------------------------------------------------
  

 Cite this work as:
 Gaussian 09, Revision E.01,
 M. J. Frisch, G. W. Trucks, H. B. Schlegel, G. E. Scuseria, 
 M. A. Robb, J. R. Cheeseman, G. Scalmani, V. Barone, B. Mennucci, 
 G. A. Petersson, H. Nakatsuji, M. Caricato, X. Li, H. P. Hratchian, 
 A. F. Izmaylov, J. Bloino, G. Zheng, J. L. Sonnenberg, M. Hada, 
 M. Ehara, K. Toyota, R. Fukuda, J. Hasegawa, M. Ishida, T. Nakajima, 
 Y. Honda, O. Kitao, H. Nakai, T. Vreven, J. A. Montgomery, Jr., 
 J. E. Peralta, F. Ogliaro, M. Bearpark, J. J. Heyd, E. Brothers, 
 K. N. Kudin, V. N. Staroverov, T. Keith, R. Kobayashi, J. Normand, 
 K. Raghavachari, A. Rendell, J. C. Burant, S. S. Iyengar, J. Tomasi, 
 M. Cossi, N. Rega, J. M. Millam, M. Klene, J. E. Knox, J. B. Cross, 
 V. Bakken, C. Adamo, J. Jaramillo, R. Gomperts, R. E. Stratmann, 
 O. Yazyev, A. J. Austin, R. Cammi, C. Pomelli, J. W. Ochterski, 
 R. L. Martin, K. Morokuma, V. G. Zakrzewski, G. A. Voth, 
 P. Salvador, J. J. Dannenberg, S. Dapprich, A. D. Daniels, 
 O. Farkas, J. B. Foresman, J. V. Ortiz, J. Cioslowski, 
 and D. J. Fox, Gaussian, Inc., Wallingford CT, 2013.
 
 ******************************************
 Gaussian 09:  ES64L-G09RevE.01 30-Nov-2015
                 2-May-2018 
 ******************************************
 %Mem=110GB
 %NProcShared=64
 Will use up to   64 processors via shared memory.
 %chk=snap100.chk
 ----------------------------------------------
 #p PBE1PBE/cc-pvDZ force Counterpoise=2 noSymm
 ----------------------------------------------
 1/10=7,30=1,38=1,62=2/1,3;
 2/12=2,15=1,17=6,18=5,40=1/2;
 1/10=7,30=1,38=1,53=2,62=2,63=101/22;
 3/5=16,11=2,16=1,25=1,30=1,71=1,74=-13/1,2,3;
 4//1;
 5/5=2,38=5/2;
 6/7=2,8=2,9=2,10=2,28=1/1;
 7/7=1,29=1,30=1,33=-1/1,2,3,16;
 1/10=7,30=1,53=2,62=2,63=101/22;
 3/5=7,6=11,11=2,16=1,25=1,30=1,71=1,74=-13,82=7/1,2,3;
 4//1;
 5/5=2,38=5/2;
 6/7=2,8=2,9=2,10=2,28=1/1;
 7/7=1,29=1,30=1,33=-1/1,2,3,16;
 1/10=7,30=1,53=2,62=2,63=101/22(-5);
 7/9=1,29=1,44=-1/16;
 1/10=7,30=1,62=2/3;
 99//99;
 Leave Link    1 at Wed May  2 18:15:46 2018, MaxMem= 14763950080 cpu:         9.6
 (Enter /cm/shared/gaussian/g09.e01/intel64-sandybridge/g09/l101.exe)
 --------------------------------------
 forces on chloride comput - NWATER: 32
 --------------------------------------
 Symbolic Z-matrix:
 Charge = -1 Multiplicity = 1 in supermolecule
 Charge = -1 Multiplicity = 1 in fragment      1.
 Charge =  0 Multiplicity = 1 in fragment      2.
 Br(Fragment=1)        20.       20.       20. 
 O(Fragment=2)         19.31     19.58     23.19 
 H(Fragment=2)         18.68     20.31     23.23 
 H(Fragment=2)         19.64     19.61     22.29 
 O(Fragment=2)         20.04     20.48     16.76 
 H(Fragment=2)         19.97     20.56     17.71 
 H(Fragment=2)         20.03     21.38     16.43 
 O(Fragment=2)         17.69     17.48     20.12 
 H(Fragment=2)         16.87     17.92     19.91 
 H(Fragment=2)         18.36     18.16     20.03 
 O(Fragment=2)         22.17     20.61     22.4 
 H(Fragment=2)         22.63     19.8      22.61 
 H(Fragment=2)         21.32     20.33     22.07 
 O(Fragment=2)         20.01     23.21     20.83 
 H(Fragment=2)         19.59     23.71     20.14 
 H(Fragment=2)         19.63     22.34     20.77 
 O(Fragment=2)         16.87     20.99     18.92 
 H(Fragment=2)         17.08     21.18     18. 
 H(Fragment=2)         17.66     20.59     19.27 
 O(Fragment=2)         22.89     21.24     18.05 
 H(Fragment=2)         22.21     20.71     18.46 
 H(Fragment=2)         23.69     21.       18.51 
 O(Fragment=2)         21.       16.81     21.45 
 H(Fragment=2)         20.87     17.43     20.73 
 H(Fragment=2)         21.01     15.95     21.02 
 O(Fragment=2)         22.95     23.02     20.61 
 H(Fragment=2)         22.8      22.16     21. 
 H(Fragment=2)         22.08     23.32     20.35 
 O(Fragment=2)         21.55     18.16     16.35 
 H(Fragment=2)         22.19     18.26     17.06 
 H(Fragment=2)         20.87     18.8      16.56 
 O(Fragment=2)         23.13     17.66     18.51 
 H(Fragment=2)         23.79     16.99     18.3 
 H(Fragment=2)         22.31     17.18     18.58 
 O(Fragment=2)         21.69     23.95     17.9 
 H(Fragment=2)         22.28     24.59     18.3 
 H(Fragment=2)         21.83     23.15     18.41 
 O(Fragment=2)         16.14     21.3      21.59 
 H(Fragment=2)         16.87     21.61     22.13 
 H(Fragment=2)         16.33     21.63     20.71 
 O(Fragment=2)         18.27     15.97     17.63 
 H(Fragment=2)         17.36     16.06     17.35 
 H(Fragment=2)         18.35     16.57     18.37 
 O(Fragment=2)         18.46     16.24     22.75 
 H(Fragment=2)         17.91     16.56     22.02 
 H(Fragment=2)         19.33     16.58     22.55 
 O(Fragment=2)         18.05     22.32     23.38 
 H(Fragment=2)         17.36     22.84     23.79 
 H(Fragment=2)         18.55     22.95     22.86 
 O(Fragment=2)         17.22     19.94     16.3 
 H(Fragment=2)         16.83     19.28     15.74 
 H(Fragment=2)         18.14     19.97     16.04 
 O(Fragment=2)         20.47     17.41     24.58 
 H(Fragment=2)         21.29     17.75     24.93 
 H(Fragment=2)         20.17     18.09     23.97 
 O(Fragment=2)         24.02     17.33     21.19 
 H(Fragment=2)         23.62     16.47     21.13 
 H(Fragment=2)         23.78     17.76     20.37 
 O(Fragment=2)         20.96     23.88     23.52 
 H(Fragment=2)         20.81     23.78     22.58 
 H(Fragment=2)         21.9      23.76     23.63 
 O(Fragment=2)         15.32     18.56     19.07 
 H(Fragment=2)         14.5      18.72     19.53 
 H(Fragment=2)         15.52     19.4      18.65 
 O(Fragment=2)         21.22     15.66     18.34 
 H(Fragment=2)         21.76     14.86     18.29 
 H(Fragment=2)         20.33     15.36     18.14 
 O(Fragment=2)         19.27     24.7      18.59 
 H(Fragment=2)         18.8      24.67     17.76 
 H(Fragment=2)         20.19     24.6      18.34 
 O(Fragment=2)         19.42     21.31     25.74 
 H(Fragment=2)         18.83     20.57     25.88 
 H(Fragment=2)         19.31     21.53     24.82 
 O(Fragment=2)         24.8      19.08     16.65 
 H(Fragment=2)         25.7      18.81     16.83 
 H(Fragment=2)         24.33     18.93     17.47 
 O(Fragment=2)         25.11     20.48     19.44 
 H(Fragment=2)         25.56     19.64     19.3 
 H(Fragment=2)         25.14     20.61     20.39 
 O(Fragment=2)         23.06     23.23     15.49 
 H(Fragment=2)         22.67     22.97     16.33 
 H(Fragment=2)         22.48     22.85     14.83 
 O(Fragment=2)         14.95     19.51     23.72 
 H(Fragment=2)         15.22     19.95     22.92 
 H(Fragment=2)         14.4      18.79     23.42 
 O(Fragment=2)         25.13     23.81     18.97 
 H(Fragment=2)         24.39     23.54     19.51 
 H(Fragment=2)         25.13     23.19     18.24 
 O(Fragment=2)         25.1      18.57     23.44 
 H(Fragment=2)         25.97     18.18     23.46 
 H(Fragment=2)         24.65     18.1      22.73 
 O(Fragment=2)         25.33     21.16     22.36 
 H(Fragment=2)         24.78     21.89     22.63 
 H(Fragment=2)         25.05     20.43     22.92 
 O(Fragment=2)         18.79     16.85     14.89 
 H(Fragment=2)         18.35     16.53     15.67 
 H(Fragment=2)         19.5      16.23     14.73 
 
 NAtoms=     97 NQM=       97 NQMF=       0 NMMI=      0 NMMIF=      0
                NMic=       0 NMicF=      0.
                    Isotopes and Nuclear Properties:
 (Nuclear quadrupole moments (NQMom) in fm**2, nuclear magnetic moments (NMagM)
  in nuclear magnetons)

  Atom         1           2           3           4           5           6           7           8           9          10
 IAtWgt=          79          16           1           1          16           1           1          16           1           1
 AtmWgt=  78.9183361  15.9949146   1.0078250   1.0078250  15.9949146   1.0078250   1.0078250  15.9949146   1.0078250   1.0078250
 NucSpn=           3           0           1           1           0           1           1           0           1           1
 AtZEff=   0.0000000   0.0000000   0.0000000   0.0000000   0.0000000   0.0000000   0.0000000   0.0000000   0.0000000   0.0000000
 NQMom=   31.3000000   0.0000000   0.0000000   0.0000000   0.0000000   0.0000000   0.0000000   0.0000000   0.0000000   0.0000000
 NMagM=    2.1063990   0.0000000   2.7928460   2.7928460   0.0000000   2.7928460   2.7928460   0.0000000   2.7928460   2.7928460
 AtZNuc=  35.0000000   8.0000000   1.0000000   1.0000000   8.0000000   1.0000000   1.0000000   8.0000000   1.0000000   1.0000000

  Atom        11          12          13          14          15          16          17          18          19          20
 IAtWgt=          16           1           1          16           1           1          16           1           1          16
 AtmWgt=  15.9949146   1.0078250   1.0078250  15.9949146   1.0078250   1.0078250  15.9949146   1.0078250   1.0078250  15.9949146
 NucSpn=           0           1           1           0           1           1           0           1           1           0
 AtZEff=   0.0000000   0.0000000   0.0000000   0.0000000   0.0000000   0.0000000   0.0000000   0.0000000   0.0000000   0.0000000
 NQMom=    0.0000000   0.0000000   0.0000000   0.0000000   0.0000000   0.0000000   0.0000000   0.0000000   0.0000000   0.0000000
 NMagM=    0.0000000   2.7928460   2.7928460   0.0000000   2.7928460   2.7928460   0.0000000   2.7928460   2.7928460   0.0000000
 AtZNuc=   8.0000000   1.0000000   1.0000000   8.0000000   1.0000000   1.0000000   8.0000000   1.0000000   1.0000000   8.0000000

  Atom        21          22          23          24          25          26          27          28          29          30
 IAtWgt=           1           1          16           1           1          16           1           1          16           1
 AtmWgt=   1.0078250   1.0078250  15.9949146   1.0078250   1.0078250  15.9949146   1.0078250   1.0078250  15.9949146   1.0078250
 NucSpn=           1           1           0           1           1           0           1           1           0           1
 AtZEff=   0.0000000   0.0000000   0.0000000   0.0000000   0.0000000   0.0000000   0.0000000   0.0000000   0.0000000   0.0000000
 NQMom=    0.0000000   0.0000000   0.0000000   0.0000000   0.0000000   0.0000000   0.0000000   0.0000000   0.0000000   0.0000000
 NMagM=    2.7928460   2.7928460   0.0000000   2.7928460   2.7928460   0.0000000   2.7928460   2.7928460   0.0000000   2.7928460
 AtZNuc=   1.0000000   1.0000000   8.0000000   1.0000000   1.0000000   8.0000000   1.0000000   1.0000000   8.0000000   1.0000000

  Atom        31          32          33          34          35          36          37          38          39          40
 IAtWgt=           1          16           1           1          16           1           1          16           1           1
 AtmWgt=   1.0078250  15.9949146   1.0078250   1.0078250  15.9949146   1.0078250   1.0078250  15.9949146   1.0078250   1.0078250
 NucSpn=           1           0           1           1           0           1           1           0           1           1
 AtZEff=   0.0000000   0.0000000   0.0000000   0.0000000   0.0000000   0.0000000   0.0000000   0.0000000   0.0000000   0.0000000
 NQMom=    0.0000000   0.0000000   0.0000000   0.0000000   0.0000000   0.0000000   0.0000000   0.0000000   0.0000000   0.0000000
 NMagM=    2.7928460   0.0000000   2.7928460   2.7928460   0.0000000   2.7928460   2.7928460   0.0000000   2.7928460   2.7928460
 AtZNuc=   1.0000000   8.0000000   1.0000000   1.0000000   8.0000000   1.0000000   1.0000000   8.0000000   1.0000000   1.0000000

  Atom        41          42          43          44          45          46          47          48          49          50
 IAtWgt=          16           1           1          16           1           1          16           1           1          16
 AtmWgt=  15.9949146   1.0078250   1.0078250  15.9949146   1.0078250   1.0078250  15.9949146   1.0078250   1.0078250  15.9949146
 NucSpn=           0           1           1           0           1           1           0           1           1           0
 AtZEff=   0.0000000   0.0000000   0.0000000   0.0000000   0.0000000   0.0000000   0.0000000   0.0000000   0.0000000   0.0000000
 NQMom=    0.0000000   0.0000000   0.0000000   0.0000000   0.0000000   0.0000000   0.0000000   0.0000000   0.0000000   0.0000000
 NMagM=    0.0000000   2.7928460   2.7928460   0.0000000   2.7928460   2.7928460   0.0000000   2.7928460   2.7928460   0.0000000
 AtZNuc=   8.0000000   1.0000000   1.0000000   8.0000000   1.0000000   1.0000000   8.0000000   1.0000000   1.0000000   8.0000000

  Atom        51          52          53          54          55          56          57          58          59          60
 IAtWgt=           1           1          16           1           1          16           1           1          16           1
 AtmWgt=   1.0078250   1.0078250  15.9949146   1.0078250   1.0078250  15.9949146   1.0078250   1.0078250  15.9949146   1.0078250
 NucSpn=           1           1           0           1           1           0           1           1           0           1
 AtZEff=   0.0000000   0.0000000   0.0000000   0.0000000   0.0000000   0.0000000   0.0000000   0.0000000   0.0000000   0.0000000
 NQMom=    0.0000000   0.0000000   0.0000000   0.0000000   0.0000000   0.0000000   0.0000000   0.0000000   0.0000000   0.0000000
 NMagM=    2.7928460   2.7928460   0.0000000   2.7928460   2.7928460   0.0000000   2.7928460   2.7928460   0.0000000   2.7928460
 AtZNuc=   1.0000000   1.0000000   8.0000000   1.0000000   1.0000000   8.0000000   1.0000000   1.0000000   8.0000000   1.0000000

  Atom        61          62          63          64          65          66          67          68          69          70
 IAtWgt=           1          16           1           1          16           1           1          16           1           1
 AtmWgt=   1.0078250  15.9949146   1.0078250   1.0078250  15.9949146   1.0078250   1.0078250  15.9949146   1.0078250   1.0078250
 NucSpn=           1           0           1           1           0           1           1           0           1           1
 AtZEff=   0.0000000   0.0000000   0.0000000   0.0000000   0.0000000   0.0000000   0.0000000   0.0000000   0.0000000   0.0000000
 NQMom=    0.0000000   0.0000000   0.0000000   0.0000000   0.0000000   0.0000000   0.0000000   0.0000000   0.0000000   0.0000000
 NMagM=    2.7928460   0.0000000   2.7928460   2.7928460   0.0000000   2.7928460   2.7928460   0.0000000   2.7928460   2.7928460
 AtZNuc=   1.0000000   8.0000000   1.0000000   1.0000000   8.0000000   1.0000000   1.0000000   8.0000000   1.0000000   1.0000000

  Atom        71          72          73          74          75          76          77          78          79          80
 IAtWgt=          16           1           1          16           1           1          16           1           1          16
 AtmWgt=  15.9949146   1.0078250   1.0078250  15.9949146   1.0078250   1.0078250  15.9949146   1.0078250   1.0078250  15.9949146
 NucSpn=           0           1           1           0           1           1           0           1           1           0
 AtZEff=   0.0000000   0.0000000   0.0000000   0.0000000   0.0000000   0.0000000   0.0000000   0.0000000   0.0000000   0.0000000
 NQMom=    0.0000000   0.0000000   0.0000000   0.0000000   0.0000000   0.0000000   0.0000000   0.0000000   0.0000000   0.0000000
 NMagM=    0.0000000   2.7928460   2.7928460   0.0000000   2.7928460   2.7928460   0.0000000   2.7928460   2.7928460   0.0000000
 AtZNuc=   8.0000000   1.0000000   1.0000000   8.0000000   1.0000000   1.0000000   8.0000000   1.0000000   1.0000000   8.0000000

  Atom        81          82          83          84          85          86          87          88          89          90
 IAtWgt=           1           1          16           1           1          16           1           1          16           1
 AtmWgt=   1.0078250   1.0078250  15.9949146   1.0078250   1.0078250  15.9949146   1.0078250   1.0078250  15.9949146   1.0078250
 NucSpn=           1           1           0           1           1           0           1           1           0           1
 AtZEff=   0.0000000   0.0000000   0.0000000   0.0000000   0.0000000   0.0000000   0.0000000   0.0000000   0.0000000   0.0000000
 NQMom=    0.0000000   0.0000000   0.0000000   0.0000000   0.0000000   0.0000000   0.0000000   0.0000000   0.0000000   0.0000000
 NMagM=    2.7928460   2.7928460   0.0000000   2.7928460   2.7928460   0.0000000   2.7928460   2.7928460   0.0000000   2.7928460
 AtZNuc=   1.0000000   1.0000000   8.0000000   1.0000000   1.0000000   8.0000000   1.0000000   1.0000000   8.0000000   1.0000000

  Atom        91          92          93          94          95          96          97
 IAtWgt=           1          16           1           1          16           1           1
 AtmWgt=   1.0078250  15.9949146   1.0078250   1.0078250  15.9949146   1.0078250   1.0078250
 NucSpn=           1           0           1           1           0           1           1
 AtZEff=   0.0000000   0.0000000   0.0000000   0.0000000   0.0000000   0.0000000   0.0000000
 NQMom=    0.0000000   0.0000000   0.0000000   0.0000000   0.0000000   0.0000000   0.0000000
 NMagM=    2.7928460   0.0000000   2.7928460   2.7928460   0.0000000   2.7928460   2.7928460
 AtZNuc=   1.0000000   8.0000000   1.0000000   1.0000000   8.0000000   1.0000000   1.0000000
 Leave Link  101 at Wed May  2 18:15:46 2018, MaxMem= 14763950080 cpu:        12.6
 (Enter /cm/shared/gaussian/g09.e01/intel64-sandybridge/g09/l103.exe)

 GradGradGradGradGradGradGradGradGradGradGradGradGradGradGradGradGradGrad
 Berny optimization.
 Initialization pass.
 Trust Radius=3.00D-01 FncErr=1.00D-07 GrdErr=1.00D-07
 Number of steps in this run=      2 maximum allowed number of steps=      2.
 GradGradGradGradGradGradGradGradGradGradGradGradGradGradGradGradGradGrad

 Leave Link  103 at Wed May  2 18:15:46 2018, MaxMem= 14763950080 cpu:         1.7
 (Enter /cm/shared/gaussian/g09.e01/intel64-sandybridge/g09/l202.exe)
 Symmetry turned off by external request.
 Stoichiometry    BrH64O32(1-)
 Framework group  C1[X(BrH64O32)]
 Deg. of freedom   285
 Full point group                 C1      NOp   1
                          Input orientation:                          
 ---------------------------------------------------------------------
 Center     Atomic      Atomic             Coordinates (Angstroms)
 Number     Number       Type             X           Y           Z
 ---------------------------------------------------------------------
      1         35           0       20.000000   20.000000   20.000000
      2          8           0       19.310000   19.580000   23.190000
      3          1           0       18.680000   20.310000   23.230000
      4          1           0       19.640000   19.610000   22.290000
      5          8           0       20.040000   20.480000   16.760000
      6          1           0       19.970000   20.560000   17.710000
      7          1           0       20.030000   21.380000   16.430000
      8          8           0       17.690000   17.480000   20.120000
      9          1           0       16.870000   17.920000   19.910000
     10          1           0       18.360000   18.160000   20.030000
     11          8           0       22.170000   20.610000   22.400000
     12          1           0       22.630000   19.800000   22.610000
     13          1           0       21.320000   20.330000   22.070000
     14          8           0       20.010000   23.210000   20.830000
     15          1           0       19.590000   23.710000   20.140000
     16          1           0       19.630000   22.340000   20.770000
     17          8           0       16.870000   20.990000   18.920000
     18          1           0       17.080000   21.180000   18.000000
     19          1           0       17.660000   20.590000   19.270000
     20          8           0       22.890000   21.240000   18.050000
     21          1           0       22.210000   20.710000   18.460000
     22          1           0       23.690000   21.000000   18.510000
     23          8           0       21.000000   16.810000   21.450000
     24          1           0       20.870000   17.430000   20.730000
     25          1           0       21.010000   15.950000   21.020000
     26          8           0       22.950000   23.020000   20.610000
     27          1           0       22.800000   22.160000   21.000000
     28          1           0       22.080000   23.320000   20.350000
     29          8           0       21.550000   18.160000   16.350000
     30          1           0       22.190000   18.260000   17.060000
     31          1           0       20.870000   18.800000   16.560000
     32          8           0       23.130000   17.660000   18.510000
     33          1           0       23.790000   16.990000   18.300000
     34          1           0       22.310000   17.180000   18.580000
     35          8           0       21.690000   23.950000   17.900000
     36          1           0       22.280000   24.590000   18.300000
     37          1           0       21.830000   23.150000   18.410000
     38          8           0       16.140000   21.300000   21.590000
     39          1           0       16.870000   21.610000   22.130000
     40          1           0       16.330000   21.630000   20.710000
     41          8           0       18.270000   15.970000   17.630000
     42          1           0       17.360000   16.060000   17.350000
     43          1           0       18.350000   16.570000   18.370000
     44          8           0       18.460000   16.240000   22.750000
     45          1           0       17.910000   16.560000   22.020000
     46          1           0       19.330000   16.580000   22.550000
     47          8           0       18.050000   22.320000   23.380000
     48          1           0       17.360000   22.840000   23.790000
     49          1           0       18.550000   22.950000   22.860000
     50          8           0       17.220000   19.940000   16.300000
     51          1           0       16.830000   19.280000   15.740000
     52          1           0       18.140000   19.970000   16.040000
     53          8           0       20.470000   17.410000   24.580000
     54          1           0       21.290000   17.750000   24.930000
     55          1           0       20.170000   18.090000   23.970000
     56          8           0       24.020000   17.330000   21.190000
     57          1           0       23.620000   16.470000   21.130000
     58          1           0       23.780000   17.760000   20.370000
     59          8           0       20.960000   23.880000   23.520000
     60          1           0       20.810000   23.780000   22.580000
     61          1           0       21.900000   23.760000   23.630000
     62          8           0       15.320000   18.560000   19.070000
     63          1           0       14.500000   18.720000   19.530000
     64          1           0       15.520000   19.400000   18.650000
     65          8           0       21.220000   15.660000   18.340000
     66          1           0       21.760000   14.860000   18.290000
     67          1           0       20.330000   15.360000   18.140000
     68          8           0       19.270000   24.700000   18.590000
     69          1           0       18.800000   24.670000   17.760000
     70          1           0       20.190000   24.600000   18.340000
     71          8           0       19.420000   21.310000   25.740000
     72          1           0       18.830000   20.570000   25.880000
     73          1           0       19.310000   21.530000   24.820000
     74          8           0       24.800000   19.080000   16.650000
     75          1           0       25.700000   18.810000   16.830000
     76          1           0       24.330000   18.930000   17.470000
     77          8           0       25.110000   20.480000   19.440000
     78          1           0       25.560000   19.640000   19.300000
     79          1           0       25.140000   20.610000   20.390000
     80          8           0       23.060000   23.230000   15.490000
     81          1           0       22.670000   22.970000   16.330000
     82          1           0       22.480000   22.850000   14.830000
     83          8           0       14.950000   19.510000   23.720000
     84          1           0       15.220000   19.950000   22.920000
     85          1           0       14.400000   18.790000   23.420000
     86          8           0       25.130000   23.810000   18.970000
     87          1           0       24.390000   23.540000   19.510000
     88          1           0       25.130000   23.190000   18.240000
     89          8           0       25.100000   18.570000   23.440000
     90          1           0       25.970000   18.180000   23.460000
     91          1           0       24.650000   18.100000   22.730000
     92          8           0       25.330000   21.160000   22.360000
     93          1           0       24.780000   21.890000   22.630000
     94          1           0       25.050000   20.430000   22.920000
     95          8           0       18.790000   16.850000   14.890000
     96          1           0       18.350000   16.530000   15.670000
     97          1           0       19.500000   16.230000   14.730000
 ---------------------------------------------------------------------
 Rotational constants (GHZ):      0.0623856      0.0564756      0.0503536
 Leave Link  202 at Wed May  2 18:15:46 2018, MaxMem= 14763950080 cpu:         0.5
 (Enter /cm/shared/gaussian/g09.e01/intel64-sandybridge/g09/l122.exe)
 Counterpoise: doing full dimer calculation.
 Leave Link  122 at Wed May  2 18:15:46 2018, MaxMem= 14763950080 cpu:         0.0
 (Enter /cm/shared/gaussian/g09.e01/intel64-sandybridge/g09/l301.exe)
 Standard basis: CC-pVDZ (5D, 7F)
 Ernie: Thresh=  0.10000D-02 Tol=  0.10000D-05 Strict=F.
 Ernie:  87 primitive shells out of 1114 were deleted.
   795 basis functions,  1651 primitive gaussians,   829 cartesian basis functions
   178 alpha electrons      178 beta electrons
       nuclear repulsion energy      6183.3807550838 Hartrees.
 IExCor= 1009 DFT=T Ex+Corr=PBE1PBE ExCW=0 ScaHFX=  0.250000
 ScaDFX=  0.750000  0.750000  1.000000  1.000000 ScalE2=  1.000000  1.000000
 IRadAn=      0 IRanWt=     -1 IRanGd=            0 ICorTp=0 IEmpDi=  4
 NAtoms=   97 NActive=   97 NUniq=   97 SFac= 1.00D+00 NAtFMM=   60 NAOKFM=T Big=T
 Integral buffers will be    131072 words long.
 Raffenetti 2 integral format.
 Two-electron integral symmetry is turned off.
 Leave Link  301 at Wed May  2 18:15:46 2018, MaxMem= 14763950080 cpu:         4.3
 (Enter /cm/shared/gaussian/g09.e01/intel64-sandybridge/g09/l302.exe)
 NPDir=0 NMtPBC=     1 NCelOv=     1 NCel=       1 NClECP=     1 NCelD=      1
         NCelK=      1 NCelE2=     1 NClLst=     1 CellRange=     0.0.
 One-electron integrals computed using PRISM.
 NBasis=   795 RedAO= T EigKep=  1.60D-02  NBF=   795
 NBsUse=   795 1.00D-06 EigRej= -1.00D+00 NBFU=   795
 Precomputing XC quadrature grid using
 IXCGrd= 4 IRadAn=           0 IRanWt=          -1 IRanGd=           0 AccXCQ= 0.00D+00.
 Generated NRdTot=       0 NPtTot=           0 NUsed=           0 NTot=          32
 NSgBfM=   711   719   725   725   728 MxSgAt=    97 MxSgA2=    97.
 Leave Link  302 at Wed May  2 18:15:53 2018, MaxMem= 14763950080 cpu:       435.4
 (Enter /cm/shared/gaussian/g09.e01/intel64-sandybridge/g09/l303.exe)
 DipDrv:  MaxL=1.
 Leave Link  303 at Wed May  2 18:15:53 2018, MaxMem= 14763950080 cpu:        29.4
 (Enter /cm/shared/gaussian/g09.e01/intel64-sandybridge/g09/l401.exe)
 ExpMin= 1.22D-01 ExpMax= 6.40D+05 ExpMxC= 6.18D+03 IAcc=2 IRadAn=         4 AccDes= 0.00D+00
 Harris functional with IExCor= 1009 and IRadAn=       4 diagonalized for initial guess.
 HarFok:  IExCor= 1009 AccDes= 0.00D+00 IRadAn=         4 IDoV= 1 UseB2=F ITyADJ=14
 ICtDFT=  3500011 ScaDFX=  1.000000  1.000000  1.000000  1.000000
 FoFCou: FMM=F IPFlag=           0 FMFlag=      100000 FMFlg1=        2001
         NFxFlg=           0 DoJE=T BraDBF=F KetDBF=T FulRan=T
         wScrn=  0.000000 ICntrl=     500 IOpCl=  0 I1Cent=   200000004 NGrid=           0
         NMat0=    1 NMatS0=      1 NMatT0=    0 NMatD0=    1 NMtDS0=    0 NMtDT0=    0
 Symmetry not used in FoFCou.
 Harris En= -5018.44543361863    
 JPrj=0 DoOrth=F DoCkMO=F.
 Leave Link  401 at Wed May  2 18:15:58 2018, MaxMem= 14763950080 cpu:       315.2
 (Enter /cm/shared/gaussian/g09.e01/intel64-sandybridge/g09/l502.exe)
 Closed shell SCF:
 Using DIIS extrapolation, IDIIS=  1040.
 Two-electron integral symmetry not used.
 IVT=     2138497 IEndB=     2138497 NGot= 14763950080 MDV= 14762516294
 LenX= 14762516294 LenY= 14761828224
 Requested convergence on RMS density matrix=1.00D-08 within 128 cycles.
 Requested convergence on MAX density matrix=1.00D-06.
 Requested convergence on             energy=1.00D-06.
 No special actions if energy rises.
 Fock matrices will be formed incrementally for  20 cycles.
 Integral accuracy reduced to 1.0D-05 until final iterations.

 Cycle   1  Pass 0  IDiag  1:
 FoFJK:  IHMeth= 1 ICntrl=       0 DoSepK=F KAlg= 0 I1Cent=   0 FoldK=F
 IRaf= 850000000 NMat=   1 IRICut=       1 DoRegI=T DoRafI=F ISym2E= 0.
 FoFCou: FMM=T IPFlag=           0 FMFlag=      100000 FMFlg1=        2001
         NFxFlg=           0 DoJE=F BraDBF=F KetDBF=F FulRan=T
         wScrn=  0.000000 ICntrl=       0 IOpCl=  0 I1Cent=           0 NGrid=           0
         NMat0=    1 NMatS0=      1 NMatT0=    0 NMatD0=    1 NMtDS0=    0 NMtDT0=    0
 Symmetry not used in FoFCou.
 FMM levels:  10  Number of levels for PrismC:   9
 E= -5015.32445778814    
 DIIS: error= 2.91D-02 at cycle   1 NSaved=   1.
 NSaved= 1 IEnMin= 1 EnMin= -5015.32445778814     IErMin= 1 ErrMin= 2.91D-02
 ErrMax= 2.91D-02  0.00D+00 EMaxC= 1.00D-01 BMatC= 2.71D+00 BMatP= 2.71D+00
 IDIUse=3 WtCom= 7.09D-01 WtEn= 2.91D-01
 Coeff-Com:  0.100D+01
 Coeff-En:   0.100D+01
 Coeff:      0.100D+01
 Gap=     0.321 Goal=   None    Shift=    0.000
 GapD=    0.321 DampG=1.000 DampE=0.500 DampFc=0.5000 IDamp=-1.
 Damping current iteration by 5.00D-01
 RMSDP=2.87D-03 MaxDP=1.55D-01              OVMax= 1.76D-01

 Cycle   2  Pass 0  IDiag  1:
 RMSU=  1.42D-03    CP:  9.85D-01
 E= -5016.11365053104     Delta-E=       -0.789192742908 Rises=F Damp=T
 DIIS: error= 6.46D-03 at cycle   2 NSaved=   2.
 NSaved= 2 IEnMin= 2 EnMin= -5016.11365053104     IErMin= 2 ErrMin= 6.46D-03
 ErrMax= 6.46D-03  0.00D+00 EMaxC= 1.00D-01 BMatC= 8.77D-02 BMatP= 2.71D+00
 IDIUse=3 WtCom= 9.35D-01 WtEn= 6.46D-02
 Coeff-Com:  0.120D+00 0.880D+00
 Coeff-En:   0.216D+00 0.784D+00
 Coeff:      0.126D+00 0.874D+00
 Gap=     0.204 Goal=   None    Shift=    0.000
 RMSDP=3.64D-04 MaxDP=1.82D-02 DE=-7.89D-01 OVMax= 1.11D-01

 Cycle   3  Pass 0  IDiag  1:
 RMSU=  2.84D-04    CP:  9.87D-01  8.41D-01
 E= -5017.26486436283     Delta-E=       -1.151213831788 Rises=F Damp=F
 DIIS: error= 1.23D-03 at cycle   3 NSaved=   3.
 NSaved= 3 IEnMin= 3 EnMin= -5017.26486436283     IErMin= 3 ErrMin= 1.23D-03
 ErrMax= 1.23D-03  0.00D+00 EMaxC= 1.00D-01 BMatC= 2.48D-03 BMatP= 8.77D-02
 IDIUse=3 WtCom= 9.88D-01 WtEn= 1.23D-02
 Coeff-Com:  0.996D-02 0.882D-01 0.902D+00
 Coeff-En:   0.000D+00 0.000D+00 0.100D+01
 Coeff:      0.984D-02 0.872D-01 0.903D+00
 Gap=     0.214 Goal=   None    Shift=    0.000
 RMSDP=1.09D-04 MaxDP=1.51D-02 DE=-1.15D+00 OVMax= 1.58D-02

 Cycle   4  Pass 0  IDiag  1:
 RMSU=  9.55D-05    CP:  9.88D-01  8.47D-01  8.17D-01
 E= -5017.26518185057     Delta-E=       -0.000317487735 Rises=F Damp=F
 DIIS: error= 9.95D-04 at cycle   4 NSaved=   4.
 NSaved= 4 IEnMin= 4 EnMin= -5017.26518185057     IErMin= 4 ErrMin= 9.95D-04
 ErrMax= 9.95D-04  0.00D+00 EMaxC= 1.00D-01 BMatC= 2.68D-03 BMatP= 2.48D-03
 IDIUse=3 WtCom= 9.90D-01 WtEn= 9.95D-03
 Coeff-Com:  0.110D-02 0.995D-02 0.508D+00 0.481D+00
 Coeff-En:   0.000D+00 0.000D+00 0.466D+00 0.534D+00
 Coeff:      0.109D-02 0.985D-02 0.508D+00 0.481D+00
 Gap=     0.214 Goal=   None    Shift=    0.000
 RMSDP=4.83D-05 MaxDP=5.64D-03 DE=-3.17D-04 OVMax= 6.15D-03

 Cycle   5  Pass 0  IDiag  1:
 RMSU=  1.86D-05    CP:  9.87D-01  8.44D-01  8.88D-01  5.87D-01
 E= -5017.26726334384     Delta-E=       -0.002081493270 Rises=F Damp=F
 DIIS: error= 1.19D-04 at cycle   5 NSaved=   5.
 NSaved= 5 IEnMin= 5 EnMin= -5017.26726334384     IErMin= 5 ErrMin= 1.19D-04
 ErrMax= 1.19D-04  0.00D+00 EMaxC= 1.00D-01 BMatC= 3.52D-05 BMatP= 2.48D-03
 IDIUse=3 WtCom= 9.99D-01 WtEn= 1.19D-03
 Coeff-Com:  0.407D-03-0.866D-03 0.147D+00 0.164D+00 0.689D+00
 Coeff-En:   0.000D+00 0.000D+00 0.000D+00 0.000D+00 0.100D+01
 Coeff:      0.406D-03-0.865D-03 0.147D+00 0.164D+00 0.689D+00
 Gap=     0.214 Goal=   None    Shift=    0.000
 RMSDP=8.91D-06 MaxDP=1.44D-03 DE=-2.08D-03 OVMax= 1.41D-03

 Cycle   6  Pass 0  IDiag  1:
 RMSU=  6.00D-06    CP:  9.87D-01  8.44D-01  9.00D-01  5.66D-01  7.22D-01
 E= -5017.26729284075     Delta-E=       -0.000029496912 Rises=F Damp=F
 DIIS: error= 1.04D-04 at cycle   6 NSaved=   6.
 NSaved= 6 IEnMin= 6 EnMin= -5017.26729284075     IErMin= 6 ErrMin= 1.04D-04
 ErrMax= 1.04D-04  0.00D+00 EMaxC= 1.00D-01 BMatC= 4.38D-06 BMatP= 3.52D-05
 IDIUse=3 WtCom= 9.99D-01 WtEn= 1.04D-03
 Coeff-Com:  0.605D-04-0.189D-02 0.332D-01 0.384D-01 0.289D+00 0.641D+00
 Coeff-En:   0.000D+00 0.000D+00 0.000D+00 0.000D+00 0.000D+00 0.100D+01
 Coeff:      0.605D-04-0.188D-02 0.332D-01 0.384D-01 0.289D+00 0.642D+00
 Gap=     0.214 Goal=   None    Shift=    0.000
 RMSDP=2.48D-06 MaxDP=4.77D-04 DE=-2.95D-05 OVMax= 3.77D-04

 Initial convergence to 1.0D-05 achieved.  Increase integral accuracy.
 Cycle   7  Pass 1  IDiag  1:
 E= -5017.26762800749     Delta-E=       -0.000335166736 Rises=F Damp=F
 DIIS: error= 2.13D-05 at cycle   1 NSaved=   1.
 NSaved= 1 IEnMin= 1 EnMin= -5017.26762800749     IErMin= 1 ErrMin= 2.13D-05
 ErrMax= 2.13D-05  0.00D+00 EMaxC= 1.00D-01 BMatC= 1.61D-06 BMatP= 1.61D-06
 IDIUse=1 WtCom= 1.00D+00 WtEn= 0.00D+00
 Coeff-Com:  0.100D+01
 Coeff:      0.100D+01
 Gap=     0.214 Goal=   None    Shift=    0.000
 RMSDP=2.48D-06 MaxDP=4.77D-04 DE=-3.35D-04 OVMax= 2.06D-04

 Cycle   8  Pass 1  IDiag  1:
 RMSU=  4.65D-06    CP:  1.00D+00
 E= -5017.26762957082     Delta-E=       -0.000001563338 Rises=F Damp=F
 DIIS: error= 1.16D-05 at cycle   2 NSaved=   2.
 NSaved= 2 IEnMin= 2 EnMin= -5017.26762957082     IErMin= 2 ErrMin= 1.16D-05
 ErrMax= 1.16D-05  0.00D+00 EMaxC= 1.00D-01 BMatC= 3.10D-07 BMatP= 1.61D-06
 IDIUse=1 WtCom= 1.00D+00 WtEn= 0.00D+00
 Coeff-Com:  0.220D+00 0.780D+00
 Coeff:      0.220D+00 0.780D+00
 Gap=     0.214 Goal=   None    Shift=    0.000
 RMSDP=7.85D-07 MaxDP=9.84D-05 DE=-1.56D-06 OVMax= 8.99D-05

 Cycle   9  Pass 1  IDiag  1:
 RMSU=  7.85D-07    CP:  1.00D+00  9.95D-01
 E= -5017.26762964301     Delta-E=       -0.000000072183 Rises=F Damp=F
 DIIS: error= 1.05D-05 at cycle   3 NSaved=   3.
 NSaved= 3 IEnMin= 3 EnMin= -5017.26762964301     IErMin= 3 ErrMin= 1.05D-05
 ErrMax= 1.05D-05  0.00D+00 EMaxC= 1.00D-01 BMatC= 2.13D-07 BMatP= 3.10D-07
 IDIUse=1 WtCom= 1.00D+00 WtEn= 0.00D+00
 Coeff-Com: -0.872D-02 0.454D+00 0.555D+00
 Coeff:     -0.872D-02 0.454D+00 0.555D+00
 Gap=     0.214 Goal=   None    Shift=    0.000
 RMSDP=3.58D-07 MaxDP=4.98D-05 DE=-7.22D-08 OVMax= 4.41D-05

 Cycle  10  Pass 1  IDiag  1:
 RMSU=  8.71D-08    CP:  1.00D+00  1.01D+00  5.73D-01
 E= -5017.26762979432     Delta-E=       -0.000000151316 Rises=F Damp=F
 DIIS: error= 8.67D-07 at cycle   4 NSaved=   4.
 NSaved= 4 IEnMin= 4 EnMin= -5017.26762979432     IErMin= 4 ErrMin= 8.67D-07
 ErrMax= 8.67D-07  0.00D+00 EMaxC= 1.00D-01 BMatC= 8.90D-10 BMatP= 2.13D-07
 IDIUse=1 WtCom= 1.00D+00 WtEn= 0.00D+00
 Coeff-Com: -0.505D-02 0.197D+00 0.247D+00 0.561D+00
 Coeff:     -0.505D-02 0.197D+00 0.247D+00 0.561D+00
 Gap=     0.214 Goal=   None    Shift=    0.000
 RMSDP=3.25D-08 MaxDP=3.56D-06 DE=-1.51D-07 OVMax= 3.48D-06

 Cycle  11  Pass 1  IDiag  1:
 RMSU=  2.77D-08    CP:  1.00D+00  1.01D+00  5.76D-01  8.11D-01
 E= -5017.26762979504     Delta-E=       -0.000000000713 Rises=F Damp=F
 DIIS: error= 2.41D-07 at cycle   5 NSaved=   5.
 NSaved= 5 IEnMin= 5 EnMin= -5017.26762979504     IErMin= 5 ErrMin= 2.41D-07
 ErrMax= 2.41D-07  0.00D+00 EMaxC= 1.00D-01 BMatC= 7.25D-11 BMatP= 8.90D-10
 IDIUse=1 WtCom= 1.00D+00 WtEn= 0.00D+00
 Coeff-Com: -0.125D-02 0.358D-01 0.459D-01 0.239D+00 0.680D+00
 Coeff:     -0.125D-02 0.358D-01 0.459D-01 0.239D+00 0.680D+00
 Gap=     0.214 Goal=   None    Shift=    0.000
 RMSDP=9.03D-09 MaxDP=9.24D-07 DE=-7.13D-10 OVMax= 9.09D-07

 SCF Done:  E(RPBE1PBE) =  -5017.26762980     A.U. after   11 cycles
            NFock= 11  Conv=0.90D-08     -V/T= 2.0028
 KE= 5.003115511485D+03 PE=-2.433459744890D+04 EE= 8.130833552537D+03
 Leave Link  502 at Wed May  2 18:17:59 2018, MaxMem= 14763950080 cpu:      7592.0
 (Enter /cm/shared/gaussian/g09.e01/intel64-sandybridge/g09/l601.exe)
 Copying SCF densities to generalized density rwf, IOpCl= 0 IROHF=0.

 **********************************************************************

            Population analysis using the SCF density.

 **********************************************************************

 Alpha  occ. eigenvalues -- -483.15732 -62.55993 -56.33243 -56.33228 -56.33220
 Alpha  occ. eigenvalues --  -19.18208 -19.17701 -19.17316 -19.16298 -19.15494
 Alpha  occ. eigenvalues --  -19.15107 -19.14676 -19.14216 -19.14213 -19.13891
 Alpha  occ. eigenvalues --  -19.13883 -19.13553 -19.13419 -19.13397 -19.13281
 Alpha  occ. eigenvalues --  -19.12199 -19.11945 -19.11628 -19.11523 -19.11503
 Alpha  occ. eigenvalues --  -19.10682 -19.10544 -19.10311 -19.09800 -19.09260
 Alpha  occ. eigenvalues --  -19.08855 -19.08418 -19.07289 -19.07042 -19.06058
 Alpha  occ. eigenvalues --  -19.05655 -19.03873  -8.66265  -6.46633  -6.46555
 Alpha  occ. eigenvalues --   -6.46530  -2.54903  -2.54881  -2.54862  -2.54799
 Alpha  occ. eigenvalues --   -2.54798  -1.01229  -0.99713  -0.99520  -0.99254
 Alpha  occ. eigenvalues --   -0.98219  -0.97704  -0.97265  -0.97261  -0.97015
 Alpha  occ. eigenvalues --   -0.96328  -0.96315  -0.96022  -0.95841  -0.95784
 Alpha  occ. eigenvalues --   -0.95733  -0.94759  -0.94239  -0.94089  -0.94029
 Alpha  occ. eigenvalues --   -0.93977  -0.93393  -0.92964  -0.92908  -0.92413
 Alpha  occ. eigenvalues --   -0.91881  -0.91693  -0.90914  -0.89894  -0.89786
 Alpha  occ. eigenvalues --   -0.88854  -0.88306  -0.86335  -0.65522  -0.51707
 Alpha  occ. eigenvalues --   -0.50320  -0.49809  -0.48934  -0.48681  -0.48613
 Alpha  occ. eigenvalues --   -0.48237  -0.47774  -0.47406  -0.47056  -0.46997
 Alpha  occ. eigenvalues --   -0.46630  -0.46575  -0.46385  -0.46076  -0.45615
 Alpha  occ. eigenvalues --   -0.45387  -0.45107  -0.44843  -0.44767  -0.44303
 Alpha  occ. eigenvalues --   -0.44182  -0.43759  -0.43533  -0.43055  -0.42281
 Alpha  occ. eigenvalues --   -0.41850  -0.41122  -0.40762  -0.40650  -0.39706
 Alpha  occ. eigenvalues --   -0.38976  -0.37295  -0.36689  -0.36637  -0.36210
 Alpha  occ. eigenvalues --   -0.35304  -0.34666  -0.34565  -0.34150  -0.33961
 Alpha  occ. eigenvalues --   -0.33813  -0.33424  -0.32325  -0.32137  -0.32008
 Alpha  occ. eigenvalues --   -0.31861  -0.31759  -0.30889  -0.30616  -0.30358
 Alpha  occ. eigenvalues --   -0.30244  -0.29960  -0.29659  -0.29640  -0.29129
 Alpha  occ. eigenvalues --   -0.28561  -0.28096  -0.27942  -0.27686  -0.27374
 Alpha  occ. eigenvalues --   -0.27010  -0.26968  -0.26516  -0.26422  -0.26261
 Alpha  occ. eigenvalues --   -0.25665  -0.25524  -0.25381  -0.25222  -0.25044
 Alpha  occ. eigenvalues --   -0.24593  -0.24520  -0.24419  -0.24306  -0.24192
 Alpha  occ. eigenvalues --   -0.23923  -0.23797  -0.23377  -0.23351  -0.23062
 Alpha  occ. eigenvalues --   -0.22641  -0.22134  -0.21687  -0.21481  -0.21316
 Alpha  occ. eigenvalues --   -0.21112  -0.20566  -0.20346  -0.20222  -0.20128
 Alpha  occ. eigenvalues --   -0.19770  -0.19488  -0.19051  -0.18467  -0.17870
 Alpha  occ. eigenvalues --   -0.17230  -0.16587  -0.14976
 Alpha virt. eigenvalues --    0.06469   0.08652   0.09844   0.11035   0.11633
 Alpha virt. eigenvalues --    0.12255   0.13326   0.14060   0.14753   0.15238
 Alpha virt. eigenvalues --    0.15642   0.15890   0.16651   0.17186   0.17630
 Alpha virt. eigenvalues --    0.18303   0.18536   0.19039   0.19208   0.19623
 Alpha virt. eigenvalues --    0.19961   0.20655   0.21031   0.21650   0.21739
 Alpha virt. eigenvalues --    0.22042   0.22358   0.22966   0.23389   0.23577
 Alpha virt. eigenvalues --    0.24160   0.24755   0.25563   0.26106   0.26445
 Alpha virt. eigenvalues --    0.26826   0.27436   0.27903   0.28214   0.28561
 Alpha virt. eigenvalues --    0.29319   0.29509   0.29987   0.30188   0.30563
 Alpha virt. eigenvalues --    0.31156   0.31610   0.31988   0.32641   0.32846
 Alpha virt. eigenvalues --    0.33015   0.33787   0.33986   0.34350   0.34577
 Alpha virt. eigenvalues --    0.35413   0.36118   0.36214   0.36929   0.37620
 Alpha virt. eigenvalues --    0.38421   0.39121   0.40260   0.40785   0.57112
 Alpha virt. eigenvalues --    0.59051   0.60059   0.60445   0.60714   0.61149
 Alpha virt. eigenvalues --    0.61584   0.61983   0.62679   0.63066   0.63377
 Alpha virt. eigenvalues --    0.63834   0.64162   0.64549   0.65231   0.65401
 Alpha virt. eigenvalues --    0.65685   0.66286   0.66531   0.66931   0.67040
 Alpha virt. eigenvalues --    0.67175   0.67704   0.68086   0.68423   0.68697
 Alpha virt. eigenvalues --    0.68885   0.69084   0.69501   0.69602   0.70059
 Alpha virt. eigenvalues --    0.70186   0.70333   0.70880   0.71220   0.71446
 Alpha virt. eigenvalues --    0.71610   0.71919   0.72071   0.72269   0.72677
 Alpha virt. eigenvalues --    0.72747   0.73152   0.73365   0.73750   0.74211
 Alpha virt. eigenvalues --    0.74522   0.74878   0.74981   0.75418   0.75797
 Alpha virt. eigenvalues --    0.76131   0.76746   0.77253   0.77651   0.78150
 Alpha virt. eigenvalues --    0.78644   0.78831   0.79429   0.79987   0.80581
 Alpha virt. eigenvalues --    0.81176   0.82112   0.82622   0.83295   0.83476
 Alpha virt. eigenvalues --    0.83931   0.85774   0.86229   0.86820   0.87663
 Alpha virt. eigenvalues --    0.90621   0.92403   0.93212   0.94019   0.94781
 Alpha virt. eigenvalues --    0.95506   0.95745   0.96957   0.97154   0.97412
 Alpha virt. eigenvalues --    0.97845   0.98431   0.98803   0.99030   0.99500
 Alpha virt. eigenvalues --    0.99676   0.99948   1.00848   1.01072   1.01208
 Alpha virt. eigenvalues --    1.01733   1.01951   1.02433   1.02459   1.02653
 Alpha virt. eigenvalues --    1.02978   1.03249   1.03731   1.03998   1.04460
 Alpha virt. eigenvalues --    1.04494   1.04710   1.05029   1.05563   1.05722
 Alpha virt. eigenvalues --    1.06094   1.06543   1.06958   1.07109   1.07623
 Alpha virt. eigenvalues --    1.08105   1.08393   1.08713   1.08854   1.09223
 Alpha virt. eigenvalues --    1.09570   1.09587   1.09958   1.10181   1.10688
 Alpha virt. eigenvalues --    1.11121   1.11355   1.11457   1.11739   1.12038
 Alpha virt. eigenvalues --    1.12396   1.12692   1.12831   1.13175   1.13485
 Alpha virt. eigenvalues --    1.13646   1.14106   1.14453   1.14622   1.14785
 Alpha virt. eigenvalues --    1.15147   1.15568   1.15600   1.16070   1.16406
 Alpha virt. eigenvalues --    1.16624   1.16946   1.17179   1.17362   1.17530
 Alpha virt. eigenvalues --    1.17841   1.18225   1.18296   1.18729   1.19315
 Alpha virt. eigenvalues --    1.19692   1.19815   1.20104   1.20437   1.20839
 Alpha virt. eigenvalues --    1.21045   1.21925   1.22443   1.22874   1.23422
 Alpha virt. eigenvalues --    1.24365   1.24830   1.24968   1.25348   1.25742
 Alpha virt. eigenvalues --    1.26592   1.27153   1.27686   1.28182   1.28388
 Alpha virt. eigenvalues --    1.29122   1.29270   1.29651   1.29871   1.30310
 Alpha virt. eigenvalues --    1.30744   1.30755   1.30982   1.31346   1.31503
 Alpha virt. eigenvalues --    1.31989   1.32447   1.32863   1.33339   1.33456
 Alpha virt. eigenvalues --    1.33516   1.33610   1.33970   1.34145   1.34408
 Alpha virt. eigenvalues --    1.34746   1.34905   1.35054   1.35501   1.35684
 Alpha virt. eigenvalues --    1.35843   1.36036   1.36406   1.36661   1.37124
 Alpha virt. eigenvalues --    1.37358   1.37666   1.38024   1.38298   1.39045
 Alpha virt. eigenvalues --    1.39176   1.39667   1.39810   1.40045   1.40650
 Alpha virt. eigenvalues --    1.41080   1.41311   1.41813   1.42090   1.42642
 Alpha virt. eigenvalues --    1.42742   1.43729   1.44586   1.44773   1.45306
 Alpha virt. eigenvalues --    1.46155   1.46448   1.46952   1.47304   1.47619
 Alpha virt. eigenvalues --    1.47735   1.48167   1.48632   1.48998   1.49719
 Alpha virt. eigenvalues --    1.50015   1.50448   1.50681   1.51093   1.52071
 Alpha virt. eigenvalues --    1.53139   1.53436   1.53858   1.54390   1.54841
 Alpha virt. eigenvalues --    1.55278   1.55403   1.55613   1.56008   1.56167
 Alpha virt. eigenvalues --    1.56976   1.57311   1.57535   1.57631   1.57911
 Alpha virt. eigenvalues --    1.58925   1.59278   1.60405   1.60912   1.61547
 Alpha virt. eigenvalues --    1.62455   1.63167   1.63906   1.64337   1.64737
 Alpha virt. eigenvalues --    1.65443   1.66675   1.67045   1.67658   1.70001
 Alpha virt. eigenvalues --    1.70996   1.71395   1.71665   1.72308   1.72622
 Alpha virt. eigenvalues --    1.72845   1.73273   1.73971   1.74608   1.74891
 Alpha virt. eigenvalues --    1.75213   1.76063   1.76426   1.76670   1.77078
 Alpha virt. eigenvalues --    1.77373   1.77889   1.78129   1.78174   1.78862
 Alpha virt. eigenvalues --    1.79102   1.80267   1.80513   1.80644   1.81002
 Alpha virt. eigenvalues --    1.81418   1.81694   1.82102   1.82323   1.82724
 Alpha virt. eigenvalues --    1.83170   1.83439   1.83715   1.84234   1.84904
 Alpha virt. eigenvalues --    1.85241   1.85444   1.85636   1.86215   1.86814
 Alpha virt. eigenvalues --    1.87574   1.88659   1.89330   1.89433   1.90222
 Alpha virt. eigenvalues --    1.90880   1.91280   1.92201   1.92385   1.92810
 Alpha virt. eigenvalues --    1.93496   1.94217   1.94482   1.95281   1.96912
 Alpha virt. eigenvalues --    1.97779   2.00054   2.00331   2.00989   2.02172
 Alpha virt. eigenvalues --    2.03547   2.08051   2.08625   2.16898   2.19504
 Alpha virt. eigenvalues --    2.20244   2.20682   2.20711   2.21340   2.21830
 Alpha virt. eigenvalues --    2.21892   2.22030   2.22320   2.22538   2.22952
 Alpha virt. eigenvalues --    2.23962   2.24042   2.24450   2.24669   2.25203
 Alpha virt. eigenvalues --    2.25257   2.25704   2.26011   2.26220   2.26406
 Alpha virt. eigenvalues --    2.26449   2.26853   2.27056   2.27242   2.27697
 Alpha virt. eigenvalues --    2.28368   2.28849   2.29042   2.29733   2.30475
 Alpha virt. eigenvalues --    2.30773   2.31337   2.31668   2.32647   2.33180
 Alpha virt. eigenvalues --    2.33706   2.34088   2.34611   2.35037   2.35273
 Alpha virt. eigenvalues --    2.35921   2.37223   2.38383   2.38457   2.39554
 Alpha virt. eigenvalues --    2.40103   2.40563   2.41286   2.42009   2.42107
 Alpha virt. eigenvalues --    2.43226   2.47207   2.47665   2.49735   2.50326
 Alpha virt. eigenvalues --    2.50788   2.54325   2.57210   2.57738   2.57841
 Alpha virt. eigenvalues --    2.61010   2.69062   2.95337   2.96321   2.97082
 Alpha virt. eigenvalues --    2.97592   2.98443   2.98554   2.98583   2.98714
 Alpha virt. eigenvalues --    2.99624   2.99700   2.99836   3.00080   3.00530
 Alpha virt. eigenvalues --    3.00722   3.00740   3.00978   3.00999   3.01386
 Alpha virt. eigenvalues --    3.01725   3.02089   3.02431   3.02624   3.03075
 Alpha virt. eigenvalues --    3.03396   3.03461   3.03519   3.03631   3.03658
 Alpha virt. eigenvalues --    3.03843   3.04139   3.04276   3.04309   3.04388
 Alpha virt. eigenvalues --    3.04632   3.04685   3.05129   3.05198   3.05616
 Alpha virt. eigenvalues --    3.05710   3.05877   3.06152   3.06551   3.06619
 Alpha virt. eigenvalues --    3.06895   3.07095   3.07382   3.08061   3.08646
 Alpha virt. eigenvalues --    3.09088   3.09197   3.09281   3.09296   3.09491
 Alpha virt. eigenvalues --    3.09811   3.10624   3.10780   3.10990   3.11236
 Alpha virt. eigenvalues --    3.11354   3.11766   3.13227   3.13806   3.14742
 Alpha virt. eigenvalues --    3.15169   3.17563   3.20607   3.21051   3.21304
 Alpha virt. eigenvalues --    3.21715   3.21873   3.21993   3.22277   3.22393
 Alpha virt. eigenvalues --    3.23001   3.23115   3.23347   3.23555   3.24444
 Alpha virt. eigenvalues --    3.24708   3.24775   3.24907   3.25299   3.25916
 Alpha virt. eigenvalues --    3.26061   3.26207   3.26317   3.26472   3.26652
 Alpha virt. eigenvalues --    3.27139   3.28001   3.28379   3.28938   3.29452
 Alpha virt. eigenvalues --    3.29537   3.30905   3.32099   3.53727   3.54550
 Alpha virt. eigenvalues --    3.55033   3.57148   3.58144   3.58682   3.59014
 Alpha virt. eigenvalues --    3.59441   3.59510   3.59651   3.60229   3.60729
 Alpha virt. eigenvalues --    3.61155   3.61311   3.61553   3.61845   3.62430
 Alpha virt. eigenvalues --    3.63184   3.63484   3.64030   3.64365   3.64990
 Alpha virt. eigenvalues --    3.65113   3.65435   3.66012   3.67111   3.67509
 Alpha virt. eigenvalues --    3.67959   3.68231   3.69040   3.72189   3.72441
 Alpha virt. eigenvalues --    3.80650   3.84035   3.84803   3.85135   3.85391
 Alpha virt. eigenvalues --    3.85811   3.85967   3.86265   3.86942   3.87143
 Alpha virt. eigenvalues --    3.87730   3.88533   3.88697   3.89052   3.89347
 Alpha virt. eigenvalues --    3.89598   3.89797   3.90830   3.91072   3.91413
 Alpha virt. eigenvalues --    3.91611   3.92335   3.92580   3.92882   3.93251
 Alpha virt. eigenvalues --    3.94671   3.95787   3.96012   3.96556   3.97622
 Alpha virt. eigenvalues --    3.98148   4.00285
          Condensed to atoms (all electrons):
 Mulliken charges:
               1
     1  Br  -0.706966
     2  O   -0.251154
     3  H    0.127519
     4  H    0.134323
     5  O   -0.230369
     6  H    0.148899
     7  H    0.135391
     8  O   -0.280523
     9  H    0.133777
    10  H    0.146222
    11  O   -0.262835
    12  H    0.127231
    13  H    0.131879
    14  O   -0.266627
    15  H    0.122966
    16  H    0.144663
    17  O   -0.262805
    18  H    0.140826
    19  H    0.134895
    20  O   -0.281423
    21  H    0.118840
    22  H    0.146795
    23  O   -0.243136
    24  H    0.145423
    25  H    0.123095
    26  O   -0.277970
    27  H    0.130382
    28  H    0.120345
    29  O   -0.322400
    30  H    0.119447
    31  H    0.120718
    32  O   -0.246555
    33  H    0.136091
    34  H    0.150137
    35  O   -0.257137
    36  H    0.162162
    37  H    0.140574
    38  O   -0.302693
    39  H    0.113490
    40  H    0.122922
    41  O   -0.265237
    42  H    0.143337
    43  H    0.130856
    44  O   -0.327130
    45  H    0.118095
    46  H    0.122230
    47  O   -0.222510
    48  H    0.161319
    49  H    0.146991
    50  O   -0.279066
    51  H    0.135618
    52  H    0.131680
    53  O   -0.289327
    54  H    0.109650
    55  H    0.136270
    56  O   -0.262990
    57  H    0.123513
    58  H    0.128603
    59  O   -0.292195
    60  H    0.130678
    61  H    0.131784
    62  O   -0.259125
    63  H    0.138803
    64  H    0.135897
    65  O   -0.248743
    66  H    0.140532
    67  H    0.149902
    68  O   -0.283049
    69  H    0.130290
    70  H    0.133984
    71  O   -0.295787
    72  H    0.128613
    73  H    0.127210
    74  O   -0.255069
    75  H    0.111227
    76  H    0.124960
    77  O   -0.253647
    78  H    0.118027
    79  H    0.133785
    80  O   -0.300073
    81  H    0.136265
    82  H    0.117881
    83  O   -0.290940
    84  H    0.121766
    85  H    0.120470
    86  O   -0.315892
    87  H    0.131374
    88  H    0.137993
    89  O   -0.278400
    90  H    0.135447
    91  H    0.151031
    92  O   -0.276634
    93  H    0.147493
    94  H    0.133038
    95  O   -0.285480
    96  H    0.103493
    97  H    0.134772
 Sum of Mulliken charges =  -1.00000
 Mulliken charges with hydrogens summed into heavy atoms:
               1
     1  Br  -0.706966
     2  O    0.010688
     5  O    0.053922
     8  O   -0.000525
    11  O   -0.003724
    14  O    0.001002
    17  O    0.012916
    20  O   -0.015788
    23  O    0.025382
    26  O   -0.027244
    29  O   -0.082235
    32  O    0.039673
    35  O    0.045598
    38  O   -0.066281
    41  O    0.008956
    44  O   -0.086804
    47  O    0.085800
    50  O   -0.011768
    53  O   -0.043408
    56  O   -0.010875
    59  O   -0.029732
    62  O    0.015575
    65  O    0.041691
    68  O   -0.018775
    71  O   -0.039963
    74  O   -0.018883
    77  O   -0.001836
    80  O   -0.045927
    83  O   -0.048703
    86  O   -0.046525
    89  O    0.008078
    92  O    0.003897
    95  O   -0.047215
         Mulliken charges condensed to fragments:
      1     -0.706966
      2     -0.293034
 Electronic spatial extent (au):  <R**2>=        1586140.9145
 Charge=             -1.0000 electrons
 Dipole moment (field-independent basis, Debye):
    X=            -99.9735    Y=           -101.8338    Z=           -104.8232  Tot=            177.0671
 Quadrupole moment (field-independent basis, Debye-Ang):
   XX=          -2329.4363   YY=          -2397.8393   ZZ=          -2610.6009
   XY=          -2182.1120   XZ=          -2133.7956   YZ=          -2190.9002
 Traceless Quadrupole moment (field-independent basis, Debye-Ang):
   XX=            116.5225   YY=             48.1196   ZZ=           -164.6421
   XY=          -2182.1120   XZ=          -2133.7956   YZ=          -2190.9002
 Octapole moment (field-independent basis, Debye-Ang**2):
  XXX=         -58757.7707  YYY=         -60319.5199  ZZZ=         -69521.6004  XYY=         -52351.3342
  XXY=         -51920.2990  XXZ=         -48454.1816  XZZ=         -52329.6622  YZZ=         -53634.0083
  YYZ=         -50774.6661  XYZ=         -45875.8580
 Hexadecapole moment (field-independent basis, Debye-Ang**3):
 XXXX=       -1551964.9100 YYYY=       -1569385.5574 ZZZZ=       -1894849.0576 XXXY=       -1324060.2410
 XXXZ=       -1195002.5681 YYYX=       -1328576.3132 YYYZ=       -1259961.2667 ZZZX=       -1382777.4379
 ZZZY=       -1408966.1095 XXYY=       -1252547.2335 XXZZ=       -1153602.6083 YYZZ=       -1209231.4206
 XXYZ=       -1065712.9896 YYXZ=       -1085287.5695 ZZXY=       -1101231.4472
 N-N= 6.183380755084D+03 E-N=-2.433459750048D+04  KE= 5.003115511485D+03
 No NMR shielding tensors so no spin-rotation constants.
 Leave Link  601 at Wed May  2 18:18:02 2018, MaxMem= 14763950080 cpu:        78.2
 (Enter /cm/shared/gaussian/g09.e01/intel64-sandybridge/g09/l701.exe)
 Compute integral first derivatives.
 ... and contract with generalized density number  0.
 Leave Link  701 at Wed May  2 18:18:04 2018, MaxMem= 14763950080 cpu:       126.9
 (Enter /cm/shared/gaussian/g09.e01/intel64-sandybridge/g09/l702.exe)
 L702 exits ... SP integral derivatives will be done elsewhere.
 Leave Link  702 at Wed May  2 18:18:04 2018, MaxMem= 14763950080 cpu:         1.7
 (Enter /cm/shared/gaussian/g09.e01/intel64-sandybridge/g09/l703.exe)
 Compute integral first derivatives, UseDBF=F ICtDFT=           0.
 Integral derivatives from FoFJK, PRISM(SPDF).
 Calling FoFJK, ICntrl=      2127 FMM=T ISym2X=0 I1Cent= 0 IOpClX= 0 NMat=1 NMatS=1 NMatT=0.
 FoFJK:  IHMeth= 1 ICntrl=    2127 DoSepK=F KAlg= 0 I1Cent=   0 FoldK=F
 IRaf=         0 NMat=   1 IRICut=       1 DoRegI=T DoRafI=F ISym2E= 0.
 FoFCou: FMM=T IPFlag=           0 FMFlag=      100000 FMFlg1=        2001
         NFxFlg=           0 DoJE=F BraDBF=F KetDBF=F FulRan=T
         wScrn=  0.000000 ICntrl=    2127 IOpCl=  0 I1Cent=           0 NGrid=           0
         NMat0=    1 NMatS0=      1 NMatT0=    0 NMatD0=    1 NMtDS0=    0 NMtDT0=    0
 Symmetry not used in FoFCou.
 FMM levels:  10  Number of levels for PrismC:   9
 Leave Link  703 at Wed May  2 18:18:21 2018, MaxMem= 14763950080 cpu:      1053.6
 (Enter /cm/shared/gaussian/g09.e01/intel64-sandybridge/g09/l716.exe)
 Dipole        =-3.93326138D+01-4.00645181D+01-4.12406417D+01
 Cartesian Forces:  Max     0.027857539 RMS     0.009972997
 Leave Link  716 at Wed May  2 18:18:21 2018, MaxMem= 14763950080 cpu:         3.5
 (Enter /cm/shared/gaussian/g09.e01/intel64-sandybridge/g09/l122.exe)
 CPIOFr:  IOpCl= 0 IRwI=-1 IRwCP=  731 ICalc= -1 LCPTot=     1005244 Len1MO=     2550559 IndFrg=     1005244
 CPIOFr:  IOpCl= 0 IRwI=-1 IRwCP=  731 ICalc=  0 LCPTot=     1005244 Len1MO=     2550559 IndFrg=     3555803
 Counterpoise: doing DCBS calculation for fragment   1 NewBq=T
 Leave Link  122 at Wed May  2 18:18:21 2018, MaxMem= 14763950080 cpu:         7.1
 (Enter /cm/shared/gaussian/g09.e01/intel64-sandybridge/g09/l301.exe)
 Basis read from rwf:  (5D, 7F)
 No pseudopotential information found on rwf file.
   795 basis functions,  1651 primitive gaussians,   829 cartesian basis functions
    18 alpha electrons       18 beta electrons
       nuclear repulsion energy         0.0000000000 Hartrees.
 IExCor= 1009 DFT=T Ex+Corr=PBE1PBE ExCW=0 ScaHFX=  0.250000
 ScaDFX=  0.750000  0.750000  1.000000  1.000000 ScalE2=  1.000000  1.000000
 IRadAn=      0 IRanWt=     -1 IRanGd=            0 ICorTp=0 IEmpDi=  4
 NAtoms=   97 NActive=   97 NUniq=   97 SFac= 1.00D+00 NAtFMM=   60 NAOKFM=T Big=T
 Integral buffers will be    131072 words long.
 Raffenetti 2 integral format.
 Two-electron integral symmetry is turned off.
 No density basis found on file   718.
 Leave Link  301 at Wed May  2 18:18:21 2018, MaxMem= 14763950080 cpu:         4.5
 (Enter /cm/shared/gaussian/g09.e01/intel64-sandybridge/g09/l302.exe)
 NPDir=0 NMtPBC=     1 NCelOv=     1 NCel=       1 NClECP=     1 NCelD=      1
         NCelK=      1 NCelE2=     1 NClLst=     1 CellRange=     0.0.
 One-electron integrals computed using PRISM.
 NBasis=   795 RedAO= T EigKep=  1.60D-02  NBF=   795
 NBsUse=   795 1.00D-06 EigRej= -1.00D+00 NBFU=   795
 Precomputing XC quadrature grid using
 IXCGrd= 4 IRadAn=           0 IRanWt=          -1 IRanGd=           0 AccXCQ= 0.00D+00.
 Generated NRdTot=       0 NPtTot=           0 NUsed=           0 NTot=          32
 NSgBfM=   711   719   725   725   728 MxSgAt=    97 MxSgA2=    97.
 Leave Link  302 at Wed May  2 18:18:25 2018, MaxMem= 14763950080 cpu:       246.4
 (Enter /cm/shared/gaussian/g09.e01/intel64-sandybridge/g09/l303.exe)
 DipDrv:  MaxL=1.
 Leave Link  303 at Wed May  2 18:18:25 2018, MaxMem= 14763950080 cpu:        28.8
 (Enter /cm/shared/gaussian/g09.e01/intel64-sandybridge/g09/l401.exe)
 ExpMin= 1.22D-01 ExpMax= 6.40D+05 ExpMxC= 6.18D+03 IAcc=2 IRadAn=         4 AccDes= 0.00D+00
 Harris functional with IExCor= 1009 and IRadAn=       4 diagonalized for initial guess.
 HarFok:  IExCor= 1009 AccDes= 0.00D+00 IRadAn=         4 IDoV= 1 UseB2=F ITyADJ=14
 ICtDFT=  3500011 ScaDFX=  1.000000  1.000000  1.000000  1.000000
 FoFCou: FMM=F IPFlag=           0 FMFlag=      100000 FMFlg1=        2001
         NFxFlg=           0 DoJE=T BraDBF=F KetDBF=T FulRan=T
         wScrn=  0.000000 ICntrl=     500 IOpCl=  0 I1Cent=   200000004 NGrid=           0
         NMat0=    1 NMatS0=      1 NMatT0=    0 NMatD0=    1 NMtDS0=    0 NMtDT0=    0
 Symmetry not used in FoFCou.
 Harris En= -2574.01985068712    
 JPrj=0 DoOrth=F DoCkMO=F.
 Leave Link  401 at Wed May  2 18:18:30 2018, MaxMem= 14763950080 cpu:       312.6
 (Enter /cm/shared/gaussian/g09.e01/intel64-sandybridge/g09/l502.exe)
 Closed shell SCF:
 Using DIIS extrapolation, IDIIS=  1040.
 Two-electron integral symmetry not used.
 IVT=     2138497 IEndB=     2138497 NGot= 14763950080 MDV= 14762516294
 LenX= 14762516294 LenY= 14761828224
 Requested convergence on RMS density matrix=1.00D-08 within 128 cycles.
 Requested convergence on MAX density matrix=1.00D-06.
 Requested convergence on             energy=1.00D-06.
 No special actions if energy rises.
 Fock matrices will be formed incrementally for  20 cycles.
 Integral accuracy reduced to 1.0D-05 until final iterations.

 Cycle   1  Pass 0  IDiag  1:
 FoFJK:  IHMeth= 1 ICntrl=       0 DoSepK=F KAlg= 0 I1Cent=   0 FoldK=F
 IRaf= 850000000 NMat=   1 IRICut=       1 DoRegI=T DoRafI=F ISym2E= 0.
 FoFCou: FMM=T IPFlag=           0 FMFlag=      100000 FMFlg1=        2001
         NFxFlg=           0 DoJE=F BraDBF=F KetDBF=F FulRan=T
         wScrn=  0.000000 ICntrl=       0 IOpCl=  0 I1Cent=           0 NGrid=           0
         NMat0=    1 NMatS0=      1 NMatT0=    0 NMatD0=    1 NMtDS0=    0 NMtDT0=    0
 Symmetry not used in FoFCou.
 FMM levels:  10  Number of levels for PrismC:   9
 E= -2573.87931216718    
 DIIS: error= 1.22D-02 at cycle   1 NSaved=   1.
 NSaved= 1 IEnMin= 1 EnMin= -2573.87931216718     IErMin= 1 ErrMin= 1.22D-02
 ErrMax= 1.22D-02  0.00D+00 EMaxC= 1.00D-01 BMatC= 3.83D-02 BMatP= 3.83D-02
 IDIUse=3 WtCom= 8.78D-01 WtEn= 1.22D-01
 Coeff-Com:  0.100D+01
 Coeff-En:   0.100D+01
 Coeff:      0.100D+01
 Gap=     0.178 Goal=   None    Shift=    0.000
 GapD=    0.178 DampG=1.000 DampE=0.500 DampFc=0.5000 IDamp=-1.
 Damping current iteration by 5.00D-01
 RMSDP=4.74D-04 MaxDP=6.71D-02              OVMax= 1.48D-01

 Cycle   2  Pass 0  IDiag  1:
 RMSU=  2.35D-04    CP:  9.95D-01
 E= -2573.89617637090     Delta-E=       -0.016864203725 Rises=F Damp=T
 DIIS: error= 7.25D-03 at cycle   2 NSaved=   2.
 NSaved= 2 IEnMin= 2 EnMin= -2573.89617637090     IErMin= 2 ErrMin= 7.25D-03
 ErrMax= 7.25D-03  0.00D+00 EMaxC= 1.00D-01 BMatC= 9.08D-03 BMatP= 3.83D-02
 IDIUse=3 WtCom= 9.28D-01 WtEn= 7.25D-02
 Coeff-Com: -0.565D+00 0.157D+01
 Coeff-En:   0.000D+00 0.100D+01
 Coeff:     -0.524D+00 0.152D+01
 Gap=     0.188 Goal=   None    Shift=    0.000
 RMSDP=1.65D-04 MaxDP=3.87D-02 DE=-1.69D-02 OVMax= 6.76D-02

 Cycle   3  Pass 0  IDiag  1:
 RMSU=  1.47D-04    CP:  9.95D-01  1.33D+00
 E= -2573.90976763972     Delta-E=       -0.013591268821 Rises=F Damp=F
 DIIS: error= 3.29D-03 at cycle   3 NSaved=   3.
 NSaved= 3 IEnMin= 3 EnMin= -2573.90976763972     IErMin= 3 ErrMin= 3.29D-03
 ErrMax= 3.29D-03  0.00D+00 EMaxC= 1.00D-01 BMatC= 2.53D-03 BMatP= 9.08D-03
 IDIUse=3 WtCom= 9.67D-01 WtEn= 3.29D-02
 Coeff-Com: -0.301D+00 0.714D+00 0.587D+00
 Coeff-En:   0.000D+00 0.000D+00 0.100D+01
 Coeff:     -0.291D+00 0.691D+00 0.600D+00
 Gap=     0.171 Goal=   None    Shift=    0.000
 RMSDP=7.19D-05 MaxDP=1.75D-02 DE=-1.36D-02 OVMax= 2.11D-02

 Cycle   4  Pass 0  IDiag  1:
 RMSU=  8.45D-06    CP:  9.93D-01  1.52D+00  6.28D-01
 E= -2573.91251978339     Delta-E=       -0.002752143666 Rises=F Damp=F
 DIIS: error= 1.08D-04 at cycle   4 NSaved=   4.
 NSaved= 4 IEnMin= 4 EnMin= -2573.91251978339     IErMin= 4 ErrMin= 1.08D-04
 ErrMax= 1.08D-04  0.00D+00 EMaxC= 1.00D-01 BMatC= 1.59D-06 BMatP= 2.53D-03
 IDIUse=3 WtCom= 9.99D-01 WtEn= 1.08D-03
 Coeff-Com: -0.155D-01 0.294D-01 0.408D-01 0.945D+00
 Coeff-En:   0.000D+00 0.000D+00 0.000D+00 0.100D+01
 Coeff:     -0.155D-01 0.293D-01 0.407D-01 0.945D+00
 Gap=     0.172 Goal=   None    Shift=    0.000
 RMSDP=2.30D-06 MaxDP=4.34D-04 DE=-2.75D-03 OVMax= 7.10D-04

 Initial convergence to 1.0D-05 achieved.  Increase integral accuracy.
 Cycle   5  Pass 1  IDiag  1:
 E= -2573.91304049943     Delta-E=       -0.000520716040 Rises=F Damp=F
 DIIS: error= 9.25D-06 at cycle   1 NSaved=   1.
 NSaved= 1 IEnMin= 1 EnMin= -2573.91304049943     IErMin= 1 ErrMin= 9.25D-06
 ErrMax= 9.25D-06  0.00D+00 EMaxC= 1.00D-01 BMatC= 5.85D-08 BMatP= 5.85D-08
 IDIUse=1 WtCom= 1.00D+00 WtEn= 0.00D+00
 Coeff-Com:  0.100D+01
 Coeff:      0.100D+01
 Gap=     0.172 Goal=   None    Shift=    0.000
 RMSDP=2.30D-06 MaxDP=4.34D-04 DE=-5.21D-04 OVMax= 1.84D-04

 Cycle   6  Pass 1  IDiag  1:
 RMSU=  1.06D-06    CP:  1.00D+00
 E= -2573.91304061808     Delta-E=       -0.000000118654 Rises=F Damp=F
 DIIS: error= 1.93D-06 at cycle   2 NSaved=   2.
 NSaved= 2 IEnMin= 2 EnMin= -2573.91304061808     IErMin= 2 ErrMin= 1.93D-06
 ErrMax= 1.93D-06  0.00D+00 EMaxC= 1.00D-01 BMatC= 1.08D-09 BMatP= 5.85D-08
 IDIUse=1 WtCom= 1.00D+00 WtEn= 0.00D+00
 Coeff-Com: -0.453D-01 0.105D+01
 Coeff:     -0.453D-01 0.105D+01
 Gap=     0.172 Goal=   None    Shift=    0.000
 RMSDP=1.23D-07 MaxDP=1.34D-05 DE=-1.19D-07 OVMax= 3.79D-05

 Cycle   7  Pass 1  IDiag  1:
 RMSU=  8.78D-08    CP:  1.00D+00  1.08D+00
 E= -2573.91304062008     Delta-E=       -0.000000002002 Rises=F Damp=F
 DIIS: error= 1.61D-06 at cycle   3 NSaved=   3.
 NSaved= 3 IEnMin= 3 EnMin= -2573.91304062008     IErMin= 3 ErrMin= 1.61D-06
 ErrMax= 1.61D-06  0.00D+00 EMaxC= 1.00D-01 BMatC= 4.26D-10 BMatP= 1.08D-09
 IDIUse=1 WtCom= 1.00D+00 WtEn= 0.00D+00
 Coeff-Com: -0.332D-01 0.413D+00 0.620D+00
 Coeff:     -0.332D-01 0.413D+00 0.620D+00
 Gap=     0.172 Goal=   None    Shift=    0.000
 RMSDP=3.15D-08 MaxDP=4.07D-06 DE=-2.00D-09 OVMax= 1.03D-05

 Cycle   8  Pass 1  IDiag  1:
 RMSU=  1.97D-08    CP:  1.00D+00  1.09D+00  7.52D-01
 E= -2573.91304062069     Delta-E=       -0.000000000610 Rises=F Damp=F
 DIIS: error= 8.73D-08 at cycle   4 NSaved=   4.
 NSaved= 4 IEnMin= 4 EnMin= -2573.91304062069     IErMin= 4 ErrMin= 8.73D-08
 ErrMax= 8.73D-08  0.00D+00 EMaxC= 1.00D-01 BMatC= 1.97D-12 BMatP= 4.26D-10
 IDIUse=1 WtCom= 1.00D+00 WtEn= 0.00D+00
 Coeff-Com: -0.572D-03-0.160D-01 0.245D-01 0.992D+00
 Coeff:     -0.572D-03-0.160D-01 0.245D-01 0.992D+00
 Gap=     0.172 Goal=   None    Shift=    0.000
 RMSDP=4.48D-09 MaxDP=6.42D-07 DE=-6.10D-10 OVMax= 1.82D-06

 SCF Done:  E(RPBE1PBE) =  -2573.91304062     A.U. after    8 cycles
            NFock=  8  Conv=0.45D-08     -V/T= 2.0013
 KE= 2.570509468422D+03 PE=-6.162868105298D+03 EE= 1.018445596255D+03
 Leave Link  502 at Wed May  2 18:19:49 2018, MaxMem= 14763950080 cpu:      5001.0
 (Enter /cm/shared/gaussian/g09.e01/intel64-sandybridge/g09/l601.exe)
 Copying SCF densities to generalized density rwf, IOpCl= 0 IROHF=0.

 **********************************************************************

            Population analysis using the SCF density.

 **********************************************************************

 Alpha  occ. eigenvalues -- -482.99100 -62.39247 -56.16500 -56.16499 -56.16498
 Alpha  occ. eigenvalues --   -8.49383  -6.29690  -6.29686  -6.29681  -2.37957
 Alpha  occ. eigenvalues --   -2.37957  -2.37952  -2.37949  -2.37948  -0.47402
 Alpha  occ. eigenvalues --   -0.03261  -0.03246  -0.03230
 Alpha virt. eigenvalues --    0.14017   0.15947   0.16419   0.16718   0.18357
 Alpha virt. eigenvalues --    0.18673   0.19220   0.19886   0.20101   0.21079
 Alpha virt. eigenvalues --    0.22255   0.22508   0.23044   0.23383   0.24003
 Alpha virt. eigenvalues --    0.24431   0.24730   0.25178   0.26163   0.26557
 Alpha virt. eigenvalues --    0.27477   0.27598   0.28150   0.28324   0.28679
 Alpha virt. eigenvalues --    0.28964   0.29461   0.29758   0.30601   0.31035
 Alpha virt. eigenvalues --    0.32006   0.32639   0.33885   0.34530   0.35105
 Alpha virt. eigenvalues --    0.35522   0.36035   0.36834   0.36887   0.37473
 Alpha virt. eigenvalues --    0.37854   0.38362   0.38588   0.38849   0.39054
 Alpha virt. eigenvalues --    0.39603   0.40135   0.40402   0.41288   0.41839
 Alpha virt. eigenvalues --    0.42574   0.43017   0.43760   0.44017   0.44636
 Alpha virt. eigenvalues --    0.44902   0.45691   0.45969   0.46542   0.48173
 Alpha virt. eigenvalues --    0.48595   0.49021   0.50328   0.51087   0.62158
 Alpha virt. eigenvalues --    0.62398   0.63058   0.63133   0.63654   0.64013
 Alpha virt. eigenvalues --    0.64333   0.65329   0.65993   0.66546   0.67128
 Alpha virt. eigenvalues --    0.67896   0.68263   0.68627   0.68797   0.68995
 Alpha virt. eigenvalues --    0.69439   0.70056   0.70416   0.70535   0.71590
 Alpha virt. eigenvalues --    0.71950   0.72418   0.72686   0.73090   0.73262
 Alpha virt. eigenvalues --    0.73655   0.73926   0.74271   0.74802   0.74882
 Alpha virt. eigenvalues --    0.75231   0.75311   0.75590   0.75966   0.76152
 Alpha virt. eigenvalues --    0.76494   0.77140   0.77443   0.77919   0.78277
 Alpha virt. eigenvalues --    0.78549   0.78757   0.79369   0.79424   0.80336
 Alpha virt. eigenvalues --    0.80587   0.80894   0.81214   0.81337   0.81554
 Alpha virt. eigenvalues --    0.82046   0.82469   0.82690   0.82810   0.83455
 Alpha virt. eigenvalues --    0.83734   0.83888   0.84336   0.84584   0.85091
 Alpha virt. eigenvalues --    0.85532   0.85888   0.86810   0.87392   0.87686
 Alpha virt. eigenvalues --    0.88105   0.88447   0.88672   0.89067   0.89509
 Alpha virt. eigenvalues --    0.89987   0.90252   0.90509   0.91049   0.91350
 Alpha virt. eigenvalues --    0.91397   0.91828   0.92235   0.92724   0.93063
 Alpha virt. eigenvalues --    0.93583   0.93942   0.94394   0.94846   0.95065
 Alpha virt. eigenvalues --    0.95610   0.95949   0.96117   0.96511   0.96582
 Alpha virt. eigenvalues --    0.97257   0.97998   0.98622   0.99088   0.99166
 Alpha virt. eigenvalues --    0.99944   1.00383   1.00662   1.01146   1.01825
 Alpha virt. eigenvalues --    1.02255   1.02338   1.02485   1.03036   1.03996
 Alpha virt. eigenvalues --    1.04490   1.04753   1.05271   1.05292   1.06040
 Alpha virt. eigenvalues --    1.06609   1.07602   1.07955   1.08672   1.08891
 Alpha virt. eigenvalues --    1.09440   1.09965   1.10774   1.11641   1.12151
 Alpha virt. eigenvalues --    1.12419   1.13350   1.14137   1.14962   1.15723
 Alpha virt. eigenvalues --    1.16510   1.17747   1.19606   1.20686   1.21088
 Alpha virt. eigenvalues --    1.22038   1.24211   1.24779   1.27184   1.28050
 Alpha virt. eigenvalues --    1.30335   1.65887   1.66776   1.66946   1.67421
 Alpha virt. eigenvalues --    1.68127   1.68198   1.68860   1.69149   1.69243
 Alpha virt. eigenvalues --    1.69989   1.70452   1.70688   1.70976   1.71594
 Alpha virt. eigenvalues --    1.71928   1.72214   1.72747   1.72974   1.73466
 Alpha virt. eigenvalues --    1.73549   1.73684   1.74008   1.74459   1.74633
 Alpha virt. eigenvalues --    1.75058   1.75482   1.75707   1.76105   1.76196
 Alpha virt. eigenvalues --    1.76651   1.77007   1.77168   1.77746   1.77809
 Alpha virt. eigenvalues --    1.78213   1.78591   1.78798   1.79190   1.79586
 Alpha virt. eigenvalues --    1.80111   1.80231   1.80460   1.81461   1.81764
 Alpha virt. eigenvalues --    1.82238   1.82889   1.83405   1.83562   1.83887
 Alpha virt. eigenvalues --    1.84812   1.85145   1.85470   1.86558   1.87132
 Alpha virt. eigenvalues --    1.87994   1.88285   1.88734   1.89680   1.90280
 Alpha virt. eigenvalues --    1.90965   1.91529   1.92201   1.92842   1.94138
 Alpha virt. eigenvalues --    1.95782   1.99330   1.99473   1.99752   2.00061
 Alpha virt. eigenvalues --    2.00335   2.00636   2.00798   2.00990   2.01077
 Alpha virt. eigenvalues --    2.01264   2.01620   2.01833   2.02136   2.02524
 Alpha virt. eigenvalues --    2.02940   2.03112   2.03554   2.03711   2.04005
 Alpha virt. eigenvalues --    2.04186   2.04469   2.04537   2.04895   2.05143
 Alpha virt. eigenvalues --    2.05327   2.05416   2.05766   2.06043   2.06213
 Alpha virt. eigenvalues --    2.06588   2.06872   2.07516   2.07733   2.07931
 Alpha virt. eigenvalues --    2.08283   2.08778   2.08870   2.09131   2.09981
 Alpha virt. eigenvalues --    2.10470   2.10942   2.11117   2.11314   2.12007
 Alpha virt. eigenvalues --    2.12620   2.13230   2.13511   2.13681   2.14066
 Alpha virt. eigenvalues --    2.14980   2.15118   2.15301   2.15675   2.16015
 Alpha virt. eigenvalues --    2.16412   2.16925   2.17142   2.17481   2.17798
 Alpha virt. eigenvalues --    2.18248   2.18369   2.18799   2.19103   2.19462
 Alpha virt. eigenvalues --    2.19651   2.20228   2.21111   2.21309   2.21913
 Alpha virt. eigenvalues --    2.22771   2.23046   2.23560   2.23772   2.24372
 Alpha virt. eigenvalues --    2.25076   2.25234   2.25651   2.26327   2.27588
 Alpha virt. eigenvalues --    2.28053   2.28943   2.29302   2.30010   2.30592
 Alpha virt. eigenvalues --    2.31180   2.33170   2.34128   2.34548   2.35966
 Alpha virt. eigenvalues --    2.36582   2.37381   2.38254   2.38685   2.38836
 Alpha virt. eigenvalues --    2.39699   2.40088   2.40435   2.40979   2.41549
 Alpha virt. eigenvalues --    2.42999   2.43169   2.43336   2.43544   2.43953
 Alpha virt. eigenvalues --    2.44459   2.44930   2.45594   2.46010   2.46544
 Alpha virt. eigenvalues --    2.46975   2.47560   2.47900   2.48228   2.48454
 Alpha virt. eigenvalues --    2.49258   2.49533   2.50221   2.50712   2.50981
 Alpha virt. eigenvalues --    2.51364   2.51711   2.52285   2.53305   2.54143
 Alpha virt. eigenvalues --    2.54311   2.56299   2.56363   2.67226   2.68325
 Alpha virt. eigenvalues --    2.68671   2.68797   2.69433   2.70381   2.70637
 Alpha virt. eigenvalues --    2.70956   2.71352   2.71652   2.72547   2.72871
 Alpha virt. eigenvalues --    2.73602   2.74435   2.74636   2.75219   2.75328
 Alpha virt. eigenvalues --    2.76273   2.76403   2.77342   2.77887   2.77963
 Alpha virt. eigenvalues --    2.78362   2.79136   2.79298   2.80457   2.82489
 Alpha virt. eigenvalues --    2.83221   2.83474   2.84488   2.84724   2.85447
 Alpha virt. eigenvalues --    2.85618   2.86311   2.86648   2.87009   2.87849
 Alpha virt. eigenvalues --    2.87939   2.88412   2.88848   2.89336   2.89450
 Alpha virt. eigenvalues --    2.90101   2.90602   2.92251   2.93311   2.93862
 Alpha virt. eigenvalues --    2.94315   2.94572   2.95217   2.96141   2.96308
 Alpha virt. eigenvalues --    2.98394   2.99138   2.99670   3.01065   3.01833
 Alpha virt. eigenvalues --    3.02120   3.02585   3.04816   3.06298   3.08853
 Alpha virt. eigenvalues --    3.09441   3.11874   3.13075   3.15747   3.16388
 Alpha virt. eigenvalues --    3.17044   3.19155   3.20531   3.21208   3.21678
 Alpha virt. eigenvalues --    3.22296   3.22717   3.24378   3.24611   3.26604
 Alpha virt. eigenvalues --    3.28731   3.30890   3.32273   3.32788   3.34119
 Alpha virt. eigenvalues --    3.35116   3.35794   3.38138   3.40098   3.41362
 Alpha virt. eigenvalues --    3.46128   3.46864   3.47500   3.48275   3.49947
 Alpha virt. eigenvalues --    3.53026   3.53503   3.55756   3.56709   4.52042
 Alpha virt. eigenvalues --    4.52157   4.52337   4.52446   4.52617   4.52652
 Alpha virt. eigenvalues --    4.52798   4.53072   4.53112   4.53131   4.53154
 Alpha virt. eigenvalues --    4.53397   4.53449   4.53586   4.53727   4.53852
 Alpha virt. eigenvalues --    4.53990   4.54059   4.54338   4.54530   4.54940
 Alpha virt. eigenvalues --    4.55004   4.55392   4.55562   4.55728   4.56048
 Alpha virt. eigenvalues --    4.56508   4.56613   4.56785   4.56935   4.57030
 Alpha virt. eigenvalues --    4.57356   4.59462   4.59772   4.60033   4.60289
 Alpha virt. eigenvalues --    4.60435   4.60516   4.60563   4.60853   4.60990
 Alpha virt. eigenvalues --    4.61125   4.61248   4.61315   4.61377   4.61508
 Alpha virt. eigenvalues --    4.61602   4.62006   4.62166   4.62426   4.62595
 Alpha virt. eigenvalues --    4.62723   4.62939   4.63023   4.63099   4.63210
 Alpha virt. eigenvalues --    4.64185   4.64450   4.64644   4.64735   4.65345
 Alpha virt. eigenvalues --    4.65659   4.66036   4.66884   4.75284   4.75345
 Alpha virt. eigenvalues --    4.75501   4.75548   4.75628   4.75652   4.76647
 Alpha virt. eigenvalues --    4.77458   4.77881   4.77997   4.78325   4.78859
 Alpha virt. eigenvalues --    4.79359   4.79655   4.79759   4.80372   4.80622
 Alpha virt. eigenvalues --    4.80911   4.81302   4.81603   4.81625   4.82700
 Alpha virt. eigenvalues --    4.82903   4.83040   4.83262   4.83648   4.83767
 Alpha virt. eigenvalues --    4.83873   4.84588   4.84742   4.85062   4.85310
 Alpha virt. eigenvalues --    4.87221   4.87462   4.87660   4.87895   4.88116
 Alpha virt. eigenvalues --    4.88256   4.88504   4.88667   4.88963   4.89377
 Alpha virt. eigenvalues --    4.89451   4.89867   4.91043   4.91306   4.91560
 Alpha virt. eigenvalues --    4.92288   4.92691   4.93090   4.93895   4.94543
 Alpha virt. eigenvalues --    4.94943   4.95263   4.95900   4.96082   4.97581
 Alpha virt. eigenvalues --    4.98075   4.98369   4.98969   4.99674   5.00079
 Alpha virt. eigenvalues --    5.01167   5.01264   5.05479   5.06062   5.06375
 Alpha virt. eigenvalues --    5.06562   5.07174   5.07512   5.08126   5.08441
 Alpha virt. eigenvalues --    5.09318   5.10273   5.10731   5.11249   5.11795
 Alpha virt. eigenvalues --    5.12297   5.12722   5.13043   5.13844   5.14639
 Alpha virt. eigenvalues --    5.15141   5.15348   5.16348   5.16429   5.17041
 Alpha virt. eigenvalues --    5.17730   5.17956   5.18402   5.19140   5.20624
 Alpha virt. eigenvalues --    5.21400   5.23370   5.26951   5.31917   5.36148
 Alpha virt. eigenvalues --    5.36386   5.37285   5.37928   5.38782   5.39163
 Alpha virt. eigenvalues --    5.39552   5.40747   5.40986   5.41727   5.44568
 Alpha virt. eigenvalues --    5.45289   5.45870   5.47689   5.48929   5.49209
 Alpha virt. eigenvalues --    5.50649   5.51171   5.53322   5.54961   5.55862
 Alpha virt. eigenvalues --    5.56215   5.57807   5.60706   5.64220   5.65928
 Alpha virt. eigenvalues --    5.66257   5.66434   5.66959   5.79552   5.86457
 Alpha virt. eigenvalues --    5.90334   6.57742   6.58160   6.59224   6.59786
 Alpha virt. eigenvalues --    6.60577   6.60853   6.61380   6.61777   6.62217
 Alpha virt. eigenvalues --    6.62474   6.63007   6.63390   6.64249   6.64880
[...]
   Z24       39.17402  -0.00708   0.00000  -0.00239  -0.00272  39.17130
   X25       39.70315  -0.00490   0.00000  -0.02429  -0.02326  39.67989
   Y25       30.14113  -0.00198   0.00000  -0.00147  -0.00060  30.14053
   Z25       39.72204  -0.00447   0.00000  -0.01383  -0.01431  39.70773
   X26       43.36921   0.01656   0.00000   0.01200   0.00978  43.37899
   Y26       43.50150   0.01499   0.00000   0.00777   0.00956  43.51106
   Z26       38.94726  -0.00353   0.00000   0.00231   0.00227  38.94953
   X27       43.08576  -0.00555   0.00000  -0.00192  -0.00370  43.08206
   Y27       41.87633  -0.01681   0.00000  -0.01680  -0.01511  41.86122
   Z27       39.68425   0.00783   0.00000   0.00973   0.00963  39.69387
   X28       41.72515  -0.01518   0.00000  -0.02427  -0.02665  41.69850
   Y28       44.06841  -0.00104   0.00000  -0.01030  -0.00889  44.05953
   Z28       38.45593   0.00629   0.00000   0.03899   0.03909  38.49502
   X29       40.72360   0.00040   0.00000  -0.01706  -0.01758  40.70602
   Y29       34.31743  -0.01360   0.00000  -0.03729  -0.03572  34.28170
   Z29       30.89702  -0.00638   0.00000  -0.00760  -0.00794  30.88908
   X30       41.93302   0.00312   0.00000   0.01008   0.00959  41.94261
   Y30       34.50640   0.00398   0.00000   0.01357   0.01536  34.52176
   Z30       32.23873  -0.00458   0.00000  -0.03312  -0.03353  32.20520
   X31       39.43858  -0.00442   0.00000   0.00413   0.00334  39.44192
   Y31       35.52685   0.00835   0.00000   0.01254   0.01379  35.54064
   Z31       31.29386  -0.00278   0.00000  -0.02599  -0.02618  31.26768
   X32       43.70937   0.02788   0.00000   0.03348   0.03345  43.74281
   Y32       33.37256   0.01397   0.00000  -0.00618  -0.00409  33.36847
   Z32       34.97883   0.01487   0.00000   0.08032   0.07974  35.05857
   X33       44.95658  -0.00180   0.00000  -0.00343  -0.00320  44.95339
   Y33       32.10645  -0.00258   0.00000  -0.00899  -0.00659  32.09986
   Z33       34.58199  -0.00541   0.00000  -0.02625  -0.02698  34.55501
   X34       42.15979  -0.02347   0.00000  -0.01772  -0.01753  42.14226
   Y34       32.46549  -0.01666   0.00000  -0.01702  -0.01532  32.45017
   Z34       35.11111  -0.00320   0.00000  -0.02243  -0.02295  35.08816
   X35       40.98816  -0.01174   0.00000  -0.01920  -0.02217  40.96599
   Y35       45.25894   0.00895   0.00000   0.01097   0.01245  45.27139
   Z35       33.82610  -0.00539   0.00000   0.02395   0.02416  33.85026
   X36       42.10310   0.01419   0.00000   0.04896   0.04575  42.14885
   Y36       46.46837   0.00265   0.00000  -0.00969  -0.00796  46.46040
   Z36       34.58199   0.00069   0.00000  -0.01301  -0.01282  34.56917
   X37       41.25272   0.01074   0.00000   0.04303   0.04049  41.29321
   Y37       43.74716  -0.01672   0.00000  -0.03115  -0.02964  43.71752
   Z37       34.78986   0.00401   0.00000  -0.01556  -0.01545  34.77441
   X38       30.50018  -0.01409   0.00000  -0.02056  -0.02188  30.47830
   Y38       40.25117  -0.00605   0.00000   0.00427   0.00287  40.25404
   Z38       40.79919   0.00539   0.00000   0.00954   0.01016  40.80935
   X39       31.87968   0.00904   0.00000   0.00826   0.00686  31.88654
   Y39       40.83698   0.00253   0.00000  -0.00275  -0.00386  40.83312
   Z39       41.81964   0.00677   0.00000   0.00597   0.00653  41.82617
   X40       30.85923   0.00043   0.00000  -0.00647  -0.00805  30.85118
   Y40       40.87478  -0.00193   0.00000  -0.02462  -0.02584  40.84894
   Z40       39.13623  -0.01181   0.00000  -0.01652  -0.01590  39.12033
   X41       34.52530   0.01214   0.00000   0.01449   0.01511  34.54041
   Y41       30.17893  -0.01600   0.00000  -0.00453  -0.00456  30.17436
   Z41       33.31587  -0.01633   0.00000  -0.01162  -0.01178  33.30409
   X42       32.80565  -0.00948   0.00000  -0.01095  -0.01040  32.79524
   Y42       30.34900  -0.00034   0.00000  -0.01542  -0.01585  30.33315
   Z42       32.78675   0.00526   0.00000   0.02420   0.02416  32.81091
   X43       34.67647  -0.00787   0.00000  -0.03083  -0.03040  34.64607
   Y43       31.31276   0.01453   0.00000   0.01113   0.01105  31.32381
   Z43       34.71427   0.01830   0.00000   0.02224   0.02214  34.73641
   X44       34.88434  -0.01757   0.00000  -0.02177  -0.02065  34.86370
   Y44       30.68915  -0.01016   0.00000  -0.02245  -0.02291  30.66624
   Z44       42.99127   0.00220   0.00000  -0.00579  -0.00594  42.98533
   X45       33.84500   0.00564   0.00000   0.01499   0.01586  33.86086
   Y45       31.29386   0.00354   0.00000   0.01700   0.01638  31.31024
   Z45       41.61177  -0.00154   0.00000  -0.01142  -0.01148  41.60029
   X46       36.52841   0.01123   0.00000  -0.00004   0.00090  36.52930
   Y46       31.33166   0.00443   0.00000  -0.00437  -0.00440  31.32726
   Z46       42.61332  -0.00190   0.00000   0.01075   0.01053  42.62385
   X47       34.10956  -0.00121   0.00000  -0.00772  -0.00929  34.10027
   Y47       42.17869  -0.01290   0.00000  -0.00904  -0.00974  42.16895
   Z47       44.18180  -0.00401   0.00000  -0.02933  -0.02884  44.15295
   X48       32.80565  -0.00528   0.00000   0.00628   0.00452  32.81017
   Y48       43.16134   0.00454   0.00000   0.00108   0.00003  43.16138
   Z48       44.95658   0.00752   0.00000   0.01727   0.01789  44.97447
   X49       35.05442   0.01192   0.00000   0.03248   0.03056  35.08498
   Y49       43.36921   0.00894   0.00000   0.01257   0.01215  43.38137
   Z49       43.19914  -0.00504   0.00000   0.00222   0.00270  43.20184
   X50       32.54108  -0.00921   0.00000  -0.00653  -0.00788  32.53320
   Y50       37.68114   0.01414   0.00000   0.02573   0.02534  37.70648
   Z50       30.80254   0.01040   0.00000  -0.00707  -0.00671  30.79582
   X51       31.80409  -0.00429   0.00000   0.00126   0.00015  31.80424
   Y51       36.43392  -0.01089   0.00000  -0.01001  -0.01052  36.42340
   Z51       29.74429  -0.00904   0.00000  -0.00692  -0.00658  29.73771
   X52       34.27963   0.01697   0.00000   0.02586   0.02448  34.30411
   Y52       37.73783  -0.00317   0.00000  -0.01475  -0.01469  37.72314
   Z52       30.31121   0.00056   0.00000   0.02151   0.02176  30.33296
   X53       38.68269  -0.00137   0.00000   0.01067   0.01147  38.69417
   Y53       32.90013  -0.01434   0.00000  -0.02111  -0.02083  32.87930
   Z53       46.44947   0.00329   0.00000  -0.00077  -0.00105  46.44842
   X54       40.23227   0.00796   0.00000   0.01028   0.01097  40.24324
   Y54       33.54264   0.00646   0.00000   0.01473   0.01536  33.55799
   Z54       47.11087   0.00147   0.00000  -0.00194  -0.00229  47.10858
   X55       38.11578  -0.00747   0.00000  -0.02776  -0.02734  38.08843
   Y55       34.18515   0.00894   0.00000   0.01017   0.01037  34.19552
   Z55       45.29674   0.00040   0.00000   0.02791   0.02774  45.32447
   X56       45.39122   0.01981   0.00000   0.04642   0.04685  45.43807
   Y56       32.74895   0.00616   0.00000  -0.00207   0.00017  32.74912
   Z56       40.04330   0.01414   0.00000  -0.00211  -0.00283  40.04046
   X57       44.63533  -0.01173   0.00000  -0.02959  -0.02878  44.60655
   Y57       31.12379  -0.00885   0.00000   0.00802   0.01006  31.13385
   Z57       39.92991   0.00208   0.00000   0.02135   0.02060  39.95051
   X58       44.93769  -0.00866   0.00000  -0.02126  -0.02112  44.91656
   Y58       33.56154   0.00761   0.00000   0.01121   0.01340  33.57494
   Z58       38.49372  -0.01351   0.00000  -0.00455  -0.00519  38.48853
   X59       39.60866  -0.01239   0.00000  -0.01258  -0.01484  39.59382
   Y59       45.12666   0.00628   0.00000   0.01613   0.01673  45.14339
   Z59       44.44636   0.01159   0.00000   0.00169   0.00198  44.44834
   X60       39.32520   0.00082   0.00000   0.00497   0.00265  39.32785
   Y60       44.93769  -0.00323   0.00000  -0.00965  -0.00902  44.92867
   Z60       42.67002  -0.01380   0.00000  -0.01708  -0.01679  42.65323
   X61       41.38500   0.00866   0.00000  -0.00027  -0.00246  41.38254
   Y61       44.89989  -0.00486   0.00000  -0.01772  -0.01670  44.88320
   Z61       44.65423  -0.00144   0.00000  -0.00395  -0.00379  44.65044
   X62       28.95060   0.00323   0.00000  -0.01059  -0.01097  28.93963
   Y62       35.07332  -0.01543   0.00000  -0.01907  -0.02058  35.05273
   Z62       36.03708  -0.00502   0.00000  -0.02773  -0.02728  36.00979
   X63       27.40103  -0.00762   0.00000   0.00029  -0.00011  27.40092
   Y63       35.37567   0.00293   0.00000   0.00761   0.00567  35.38134
   Z63       36.90635   0.00740   0.00000   0.01482   0.01539  36.92174
   X64       29.32855   0.01019   0.00000   0.03971   0.03889  29.36744
   Y64       36.66069   0.01255   0.00000   0.01599   0.01461  36.67530
   Z64       35.24339  -0.00001   0.00000   0.02210   0.02260  35.26600
   X65       40.09999   0.01317   0.00000   0.00797   0.00882  40.10880
   Y65       29.59311  -0.00257   0.00000  -0.01273  -0.01150  29.58161
   Z65       34.65758   0.01048   0.00000   0.04292   0.04238  34.69995
   X66       41.12044  -0.00346   0.00000  -0.00968  -0.00847  41.11197
   Y66       28.08133   0.00062   0.00000  -0.01354  -0.01206  28.06927
   Z66       34.56309  -0.00116   0.00000  -0.00676  -0.00744  34.55565
   X67       38.41813  -0.01161   0.00000  -0.01060  -0.00965  38.40848
   Y67       29.02619   0.00254   0.00000   0.02524   0.02608  29.05227
   Z67       34.27963  -0.00609   0.00000  -0.01947  -0.01994  34.25970
   X68       36.41502  -0.02027   0.00000  -0.01459  -0.01782  36.39720
   Y68       46.67624   0.00638   0.00000   0.01769   0.01800  46.69424
   Z68       35.13001   0.01857   0.00000   0.01917   0.01974  35.14975
   X69       35.52685  -0.00535   0.00000  -0.01386  -0.01717  35.50968
   Y69       46.61954  -0.00202   0.00000  -0.00784  -0.00766  46.61188
   Z69       33.56154  -0.00645   0.00000   0.00439   0.00502  33.56655
   X70       38.15357   0.01977   0.00000   0.00926   0.00605  38.15963
   Y70       46.48726  -0.00552   0.00000  -0.01697  -0.01621  46.47106
   Z70       34.65758  -0.00958   0.00000  -0.01359  -0.01314  34.64444
   X71       36.69848   0.00645   0.00000   0.00052  -0.00031  36.69818
   Y71       40.27006   0.00468   0.00000   0.00992   0.00961  40.27968
   Z71       48.64155   0.01865   0.00000   0.02625   0.02648  48.66803
   X72       35.58354  -0.00338   0.00000   0.00334   0.00286  35.58641
   Y72       38.87167  -0.00713   0.00000  -0.01298  -0.01357  38.85810
   Z72       48.90611  -0.00325   0.00000  -0.01257  -0.01235  48.89376
   X73       36.49061  -0.00054   0.00000   0.01042   0.00938  36.49999
   Y73       40.68580   0.00309   0.00000   0.00688   0.00661  40.69242
   Z73       46.90300  -0.01200   0.00000   0.00146   0.00172  46.90472
   X74       46.86521   0.00213   0.00000   0.00891   0.00801  46.87321
   Y74       36.05597   0.00027   0.00000  -0.01494  -0.01192  36.04405
   Z74       31.46394  -0.01036   0.00000  -0.01372  -0.01436  31.44958
   X75       48.56596   0.00677   0.00000   0.01506   0.01429  48.58025
   Y75       35.54575  -0.00112   0.00000  -0.00265   0.00076  35.54651
   Z75       31.80409   0.00261   0.00000   0.01105   0.01028  31.81437
   X76       45.97704  -0.00740   0.00000  -0.01436  -0.01511  45.96193
   Y76       35.77252   0.00228   0.00000   0.01518   0.01790  35.79042
   Z76       33.01352   0.00606   0.00000  -0.00427  -0.00486  33.00865
   X77       47.45102  -0.00027   0.00000  -0.00467  -0.00587  47.44515
   Y77       38.70159  -0.00656   0.00000  -0.01391  -0.01103  38.69057
   Z77       36.73628  -0.01350   0.00000   0.00555   0.00501  36.74128
   X78       48.30140   0.00046   0.00000   0.00781   0.00697  48.30837
   Y78       37.11422   0.00153   0.00000  -0.00300   0.00011  37.11433
   Z78       36.47171  -0.00005   0.00000   0.00387   0.00319  36.47491
   X79       47.50771   0.00177   0.00000   0.00951   0.00835  47.51607
   Y79       38.94726   0.00788   0.00000   0.02179   0.02460  38.97186
   Z79       38.53152   0.02111   0.00000   0.02849   0.02795  38.55947
   X80       43.57708   0.00778   0.00000   0.01067   0.00774  43.58482
   Y80       43.89834   0.00729   0.00000   0.00997   0.01232  43.91066
   Z80       29.27186  -0.00460   0.00000  -0.01136  -0.01138  29.26047
   X81       42.84009  -0.00029   0.00000   0.01598   0.01326  42.85335
   Y81       43.40701  -0.00290   0.00000  -0.00505  -0.00296  43.40405
   Z81       30.85923   0.00443   0.00000  -0.00118  -0.00119  30.85804
   X82       42.48104  -0.00366   0.00000   0.00036  -0.00247  42.47857
   Y82       43.18024  -0.00521   0.00000  -0.01594  -0.01380  43.16644
   Z82       28.02464  -0.00207   0.00000   0.00094   0.00094  28.02558
   X83       28.25141  -0.00211   0.00000  -0.00954  -0.00980  28.24160
   Y83       36.86856   0.00067   0.00000   0.01528   0.01314  36.88170
   Z83       44.82430   0.01968   0.00000   0.00969   0.01028  44.83458
   X84       28.76163   0.00712   0.00000   0.01405   0.01349  28.77512
   Y84       37.70004   0.00968   0.00000   0.01348   0.01154  37.71158
   Z84       43.31252  -0.01785   0.00000  -0.01777  -0.01717  43.29535
   X85       27.21206  -0.00305   0.00000   0.00541   0.00545  27.21751
   Y85       35.50795  -0.00704   0.00000  -0.00661  -0.00897  35.49898
   Z85       44.25739  -0.00438   0.00000  -0.00698  -0.00640  44.25099
   X86       47.48882   0.01193   0.00000  -0.00192  -0.00470  47.48412
   Y86       44.99438   0.01478   0.00000   0.01996   0.02291  45.01729
   Z86       35.84810  -0.00696   0.00000  -0.01389  -0.01411  35.83399
   X87       46.09042  -0.01201   0.00000   0.00167  -0.00092  46.08950
   Y87       44.48415  -0.00983   0.00000  -0.02308  -0.02052  44.46363
   Z87       36.86856   0.01102   0.00000   0.01685   0.01669  36.88525
   X88       47.48882  -0.00223   0.00000  -0.00329  -0.00587  47.48295
   Y88       43.82275  -0.00596   0.00000  -0.01068  -0.00767  43.81508
   Z88       34.46860  -0.00354   0.00000  -0.00036  -0.00064  34.46796
   X89       47.43213  -0.00757   0.00000  -0.01702  -0.01688  47.41525
   Y89       35.09221   0.01244   0.00000   0.00277   0.00526  35.09748
   Z89       44.29518   0.01139   0.00000   0.01084   0.01012  44.30530
   X90       49.07619   0.00974   0.00000   0.00425   0.00457  49.08076
   Y90       34.35522  -0.00288   0.00000   0.00693   0.00981  34.36504
   Z90       44.33298  -0.00060   0.00000   0.00022  -0.00065  44.33232
   X91       46.58175  -0.00578   0.00000  -0.00580  -0.00554  46.57621
   Y91       34.20404  -0.00802   0.00000  -0.01009  -0.00773  34.19631
   Z91       42.95348  -0.01228   0.00000  -0.01671  -0.01743  42.93604
   X92       47.86676   0.00898   0.00000  -0.00042  -0.00159  47.86517
   Y92       39.98660  -0.00097   0.00000  -0.00990  -0.00720  39.97941
   Z92       42.25428  -0.01439   0.00000  -0.02352  -0.02402  42.23025
   X93       46.82741  -0.00871   0.00000  -0.01079  -0.01226  46.81516
   Y93       41.36611   0.00979   0.00000   0.00349   0.00592  41.37202
   Z93       42.76450   0.00060   0.00000  -0.01148  -0.01185  42.75266
   X94       47.33764   0.00041   0.00000   0.01755   0.01678  47.35442
   Y94       38.60710  -0.01378   0.00000  -0.02585  -0.02332  38.58378
   Z94       43.31252   0.00648   0.00000   0.00013  -0.00041  43.31211
   X95       35.50795  -0.00807   0.00000  -0.03593  -0.03605  35.47191
   Y95       31.84189   0.01404   0.00000   0.00054   0.00100  31.84288
   Z95       28.13802  -0.02105   0.00000  -0.04175  -0.04188  28.09614
   X96       34.67647   0.00431   0.00000   0.03948   0.03961  34.71609
   Y96       31.23717  -0.00578   0.00000   0.00630   0.00649  31.24367
   Z96       29.61201   0.01733   0.00000   0.03103   0.03092  29.64293
   X97       36.84966   0.00683   0.00000   0.01127   0.01142  36.86108
   Y97       30.67026  -0.00249   0.00000   0.01954   0.02034  30.69060
   Z97       27.83567   0.00486   0.00000   0.01601   0.01573  27.85139
         Item               Value     Threshold  Converged?
 Maximum Force            0.027883     0.000450     NO 
 RMS     Force            0.009983     0.000300     NO 
 Maximum Displacement     0.079743     0.001800     NO 
 RMS     Displacement     0.017563     0.001200     NO 
 Predicted change in Energy=-2.706464D-02
 GradGradGradGradGradGradGradGradGradGradGradGradGradGradGradGradGradGrad

 Leave Link  103 at Wed May  2 18:24:53 2018, MaxMem= 14763950080 cpu:        53.6
 (Enter /cm/shared/gaussian/g09.e01/intel64-sandybridge/g09/l9999.exe)
 1\1\GINC-POPLE03\Force\RPBE1PBE\CC-pVDZ\Br1H64O32(1-)\M.PELUSO\02-May-
 2018\0\\#p PBE1PBE/cc-pvDZ force Counterpoise=2 noSymm\\forces on chlo
 ride comput - NWATER: 32\\-1,1\Br,20.,20.,20.\O,19.31,19.58,23.19\H,18
 .68,20.31,23.23\H,19.64,19.61,22.29\O,20.04,20.48,16.76\H,19.97,20.56,
 17.71\H,20.03,21.38,16.43\O,17.69,17.48,20.12\H,16.87,17.92,19.91\H,18
 .36,18.16,20.03\O,22.17,20.61,22.4\H,22.63,19.8,22.61\H,21.32,20.33,22
 .07\O,20.01,23.21,20.83\H,19.59,23.71,20.14\H,19.63,22.34,20.77\O,16.8
 7,20.99,18.92\H,17.08,21.18,18.\H,17.66,20.59,19.27\O,22.89,21.24,18.0
 5\H,22.21,20.71,18.46\H,23.69,21.,18.51\O,21.,16.81,21.45\H,20.87,17.4
 3,20.73\H,21.01,15.95,21.02\O,22.95,23.02,20.61\H,22.8,22.16,21.\H,22.
 08,23.32,20.35\O,21.55,18.16,16.35\H,22.19,18.26,17.06\H,20.87,18.8,16
 .56\O,23.13,17.66,18.51\H,23.79,16.99,18.3\H,22.31,17.18,18.58\O,21.69
 ,23.95,17.9\H,22.28,24.59,18.3\H,21.83,23.15,18.41\O,16.14,21.3,21.59\
 H,16.87,21.61,22.13\H,16.33,21.63,20.71\O,18.27,15.97,17.63\H,17.36,16
 .06,17.35\H,18.35,16.57,18.37\O,18.46,16.24,22.75\H,17.91,16.56,22.02\
 H,19.33,16.58,22.55\O,18.05,22.32,23.38\H,17.36,22.84,23.79\H,18.55,22
 .95,22.86\O,17.22,19.94,16.3\H,16.83,19.28,15.74\H,18.14,19.97,16.04\O
 ,20.47,17.41,24.58\H,21.29,17.75,24.93\H,20.17,18.09,23.97\O,24.02,17.
 33,21.19\H,23.62,16.47,21.13\H,23.78,17.76,20.37\O,20.96,23.88,23.52\H
 ,20.81,23.78,22.58\H,21.9,23.76,23.63\O,15.32,18.56,19.07\H,14.5,18.72
 ,19.53\H,15.52,19.4,18.65\O,21.22,15.66,18.34\H,21.76,14.86,18.29\H,20
 .33,15.36,18.14\O,19.27,24.7,18.59\H,18.8,24.67,17.76\H,20.19,24.6,18.
 34\O,19.42,21.31,25.74\H,18.83,20.57,25.88\H,19.31,21.53,24.82\O,24.8,
 19.08,16.65\H,25.7,18.81,16.83\H,24.33,18.93,17.47\O,25.11,20.48,19.44
 \H,25.56,19.64,19.3\H,25.14,20.61,20.39\O,23.06,23.23,15.49\H,22.67,22
 .97,16.33\H,22.48,22.85,14.83\O,14.95,19.51,23.72\H,15.22,19.95,22.92\
 H,14.4,18.79,23.42\O,25.13,23.81,18.97\H,24.39,23.54,19.51\H,25.13,23.
 19,18.24\O,25.1,18.57,23.44\H,25.97,18.18,23.46\H,24.65,18.1,22.73\O,2
 5.33,21.16,22.36\H,24.78,21.89,22.63\H,25.05,20.43,22.92\O,18.79,16.85
 ,14.89\H,18.35,16.53,15.67\H,19.5,16.23,14.73\\Version=ES64L-G09RevE.0
 1\HF=-2443.2117997\RMSD=3.660e-09\RMSF=9.983e-03\Dipole=-0.4810145,-2.
 251305,-3.3094888\Quadrupole=85.0379216,36.3538062,-121.3917278,-1622.
 5058346,-1586.4628141,-1627.8883212\PG=C01 [X(Br1H64O32)]\\@


 I WOULD TAKE COUNSEL OF MYSELF.
 I WOULD STOP AND LOOK WITHIN
 AND LOOKING WITHIN, LOOK BACK, ALSO
 THAT I MAY LOOK AHEAD WITH CLEARER UNDERSTANDING
 OF THE WAY I HAVE BEEN MOVING, AND IN WHAT DIRECTION.
 I NEED TO KNOW IF I AM GOING FORWARD OR RETREATING,
 WHETHER I HAVE BEEN WASTING, OR ENJOYING
 THE PRECIOUS MOMENTS OF LIFE.  THERE HAVE BEEN FRICTIONS,
 ANNOYANCES AND SOMETIMES WRATH,
 BUT WERE THEY BECAUSE I WAS RIGHT AND OTHERS WRONG.....
 HAVE I HAD MY THOUGHTS TOO SHARPLY FOCUSED
 ON THAT WHICH PLEASED ME, SERVED MY SELF-ESTEEM,
 UNDERGIRDED MY SECURITY,
 OF WHICH I DID NOT INQUIRE WHETHER IT SERVED OR HAMPERED OTHERS.....
 HAVE I BEEN TRYING TO STOP THE CLOCK
 TO HOLD THE WORLD
 IN PERPETUATION OF WHAT WAS AN IS ALREADY SLIPPING AWAY.....
 HAVE I BEEN CRITICAL OF OTHERS FOR WHAT REALLY NEEDED CHANGING IN ME...
 LET ME INDEED TAKE COUNSEL OF MYSELF
 AND SET MY DIRECTIONS STRAIGHT.

                          R.T. WESTON AS ADAPTED BY D. OSBORN 1967
 Job cpu time:       0 days  9 hours 28 minutes 47.3 seconds.
 File lengths (MBytes):  RWF=    482 Int=      0 D2E=      0 Chk=    160 Scr=      1
 Normal termination of Gaussian 09 at Wed May  2 18:24:53 2018.
