 Entering Gaussian System, Link 0=/cm/shared/gaussian/g09.e01/intel64-sandybridge/g09/g09
 Initial command:
 /cm/shared/gaussian/g09.e01/intel64-sandybridge/g09/l1.exe "/local/scratch/m.peluso/32_wat/Gau-51197.inp" -scrdir="/local/scratch/m.peluso/32_wat/"
 Entering Link 1 = /cm/shared/gaussian/g09.e01/intel64-sandybridge/g09/l1.exe PID=     51198.
  
 Copyright (c) 1988,1990,1992,1993,1995,1998,2003,2009,2015,
            Gaussian, Inc.  All Rights Reserved.
  
 This is part of the Gaussian(R) 09 program.  It is based on
 the Gaussian(R) 03 system (copyright 2003, Gaussian, Inc.),
 the Gaussian(R) 98 system (copyright 1998, Gaussian, Inc.),
 the Gaussian(R) 94 system (copyright 1995, Gaussian, Inc.),
 the Gaussian 92(TM) system (copyright 1992, Gaussian, Inc.),
 the Gaussian 90(TM) system (copyright 1990, Gaussian, Inc.),
 the Gaussian 88(TM) system (copyright 1988, Gaussian, Inc.),
 the Gaussian 86(TM) system (copyright 1986, Carnegie Mellon
 University), and the Gaussian 82(TM) system (copyright 1983,
 Carnegie Mellon University). Gaussian is a federally registered
 trademark of Gaussian, Inc.
  
 This software contains proprietary and confidential information,
 including trade secrets, belonging to Gaussian, Inc.
  
 This software is provided under written license and may be
 used, copied, transmitted, or stored only in accord with that
 written license.
  
 The following legend is applicable only to US Government
 contracts under FAR:
  
                    RESTRICTED RIGHTS LEGEND
  
 Use, reproduction and disclosure by the US Government is
 subject to restrictions as set forth in subparagraphs (a)
 and (c) of the Commercial Computer Software - Restricted
 Rights clause in FAR 52.227-19.
  
 Gaussian, Inc.
 340 Quinnipiac St., Bldg. 40, Wallingford CT 06492
  
  
 ---------------------------------------------------------------
 Warning -- This program may not be used in any manner that
 competes with the business of Gaussian, Inc. or will provide
 assistance to any competitor of Gaussian, Inc.  The licensee
 of this program is prohibited from giving any competitor of
 Gaussian, Inc. access to this program.  By using this program,
 the user acknowledges that Gaussian, Inc. is engaged in the
 business of creating and licensing software in the field of
 computational chemistry and represents and warrants to the
 licensee that it is not a competitor of Gaussian, Inc. and that
 it will not use this program in any manner prohibited above.
 ---------------------------------------------------------------
  

 Cite this work as:
 Gaussian 09, Revision E.01,
 M. J. Frisch, G. W. Trucks, H. B. Schlegel, G. E. Scuseria, 
 M. A. Robb, J. R. Cheeseman, G. Scalmani, V. Barone, B. Mennucci, 
 G. A. Petersson, H. Nakatsuji, M. Caricato, X. Li, H. P. Hratchian, 
 A. F. Izmaylov, J. Bloino, G. Zheng, J. L. Sonnenberg, M. Hada, 
 M. Ehara, K. Toyota, R. Fukuda, J. Hasegawa, M. Ishida, T. Nakajima, 
 Y. Honda, O. Kitao, H. Nakai, T. Vreven, J. A. Montgomery, Jr., 
 J. E. Peralta, F. Ogliaro, M. Bearpark, J. J. Heyd, E. Brothers, 
 K. N. Kudin, V. N. Staroverov, T. Keith, R. Kobayashi, J. Normand, 
 K. Raghavachari, A. Rendell, J. C. Burant, S. S. Iyengar, J. Tomasi, 
 M. Cossi, N. Rega, J. M. Millam, M. Klene, J. E. Knox, J. B. Cross, 
 V. Bakken, C. Adamo, J. Jaramillo, R. Gomperts, R. E. Stratmann, 
 O. Yazyev, A. J. Austin, R. Cammi, C. Pomelli, J. W. Ochterski, 
 R. L. Martin, K. Morokuma, V. G. Zakrzewski, G. A. Voth, 
 P. Salvador, J. J. Dannenberg, S. Dapprich, A. D. Daniels, 
 O. Farkas, J. B. Foresman, J. V. Ortiz, J. Cioslowski, 
 and D. J. Fox, Gaussian, Inc., Wallingford CT, 2013.
 
 ******************************************
 Gaussian 09:  ES64L-G09RevE.01 30-Nov-2015
                 3-May-2018 
 ******************************************
 %Mem=110GB
 %NProcShared=64
 Will use up to   64 processors via shared memory.
 %chk=snap29.chk
 ----------------------------------------------
 #p PBE1PBE/cc-pvDZ force Counterpoise=2 noSymm
 ----------------------------------------------
 1/10=7,30=1,38=1,62=2/1,3;
 2/12=2,15=1,17=6,18=5,40=1/2;
 1/10=7,30=1,38=1,53=2,62=2,63=101/22;
 3/5=16,11=2,16=1,25=1,30=1,71=1,74=-13/1,2,3;
 4//1;
 5/5=2,38=5/2;
 6/7=2,8=2,9=2,10=2,28=1/1;
 7/7=1,29=1,30=1,33=-1/1,2,3,16;
 1/10=7,30=1,53=2,62=2,63=101/22;
 3/5=7,6=11,11=2,16=1,25=1,30=1,71=1,74=-13,82=7/1,2,3;
 4//1;
 5/5=2,38=5/2;
 6/7=2,8=2,9=2,10=2,28=1/1;
 7/7=1,29=1,30=1,33=-1/1,2,3,16;
 1/10=7,30=1,53=2,62=2,63=101/22(-5);
 7/9=1,29=1,44=-1/16;
 1/10=7,30=1,62=2/3;
 99//99;
 Leave Link    1 at Thu May  3 03:42:55 2018, MaxMem= 14763950080 cpu:         7.7
 (Enter /cm/shared/gaussian/g09.e01/intel64-sandybridge/g09/l101.exe)
 --------------------------------------
 forces on chloride comput - NWATER: 32
 --------------------------------------
 Symbolic Z-matrix:
 Charge = -1 Multiplicity = 1 in supermolecule
 Charge = -1 Multiplicity = 1 in fragment      1.
 Charge =  0 Multiplicity = 1 in fragment      2.
 Br(Fragment=1)        20.       20.       20. 
 O(Fragment=2)         23.11     20.11     19.51 
 H(Fragment=2)         23.39     20.92     19.93 
 H(Fragment=2)         22.2      20.       19.79 
 O(Fragment=2)         16.91     20.42     19.33 
 H(Fragment=2)         16.61     21.19     19.81 
 H(Fragment=2)         17.85     20.38     19.52 
 O(Fragment=2)         19.32     23.04     20.8 
 H(Fragment=2)         20.       23.51     20.32 
 H(Fragment=2)         19.43     22.13     20.55 
 O(Fragment=2)         19.44     20.46     16.83 
 H(Fragment=2)         20.32     20.71     16.56 
 H(Fragment=2)         19.47     20.44     17.79 
 O(Fragment=2)         19.7      17.19     18.22 
 H(Fragment=2)         18.85     16.9      18.56 
 H(Fragment=2)         19.69     18.15     18.33 
 O(Fragment=2)         19.07     20.27     23.28 
 H(Fragment=2)         19.67     20.3      22.54 
 H(Fragment=2)         18.23     20.       22.91 
 O(Fragment=2)         23.23     17.41     18.97 
 H(Fragment=2)         22.91     18.28     19.19 
 H(Fragment=2)         24.18     17.46     19.07 
 O(Fragment=2)         22.26     20.33     16.74 
 H(Fragment=2)         22.64     20.43     17.61 
 H(Fragment=2)         22.85     20.83     16.17 
 O(Fragment=2)         18.89     15.86     21.4 
 H(Fragment=2)         19.18     16.62     20.9 
 H(Fragment=2)         19.15     15.1      20.88 
 O(Fragment=2)         21.35     17.75     16.09 
 H(Fragment=2)         21.38     18.58     16.56 
 H(Fragment=2)         20.73     17.21     16.59 
 O(Fragment=2)         16.71     22.75     20.88 
 H(Fragment=2)         17.62     23.06     20.92 
 H(Fragment=2)         16.32     23.24     20.16 
 O(Fragment=2)         23.02     22.76     20.18 
 H(Fragment=2)         22.51     23.1      19.45 
 H(Fragment=2)         23.22     23.53     20.72 
 O(Fragment=2)         17.23     18.74     16.25 
 H(Fragment=2)         17.79     19.47     16.51 
 H(Fragment=2)         17.73     18.3      15.56 
 O(Fragment=2)         22.21     16.15     21.38 
 H(Fragment=2)         22.       16.37     20.47 
 H(Fragment=2)         22.78     15.38     21.31 
 O(Fragment=2)         22.36     18.01     23.21 
 H(Fragment=2)         22.       17.31     22.66 
 H(Fragment=2)         21.66     18.2      23.84 
 O(Fragment=2)         15.28     18.92     21.04 
 H(Fragment=2)         15.66     19.16     21.89 
 H(Fragment=2)         15.62     19.58     20.44 
 O(Fragment=2)         18.17     22.72     16.07 
 H(Fragment=2)         18.9      23.09     15.57 
 H(Fragment=2)         18.45     21.81     16.25 
 O(Fragment=2)         21.24     23.95     18.31 
 H(Fragment=2)         21.9      23.65     17.68 
 H(Fragment=2)         20.67     24.53     17.8 
 O(Fragment=2)         18.65     23.85     23.37 
 H(Fragment=2)         17.77     24.15     23.17 
 H(Fragment=2)         19.02     23.62     22.52 
 O(Fragment=2)         15.14     21.43     17.57 
 H(Fragment=2)         15.84     21.12     18.15 
 H(Fragment=2)         15.07     22.36     17.75 
 O(Fragment=2)         24.07     21.12     23.09 
 H(Fragment=2)         24.13     21.41     24. 
 H(Fragment=2)         23.65     20.26     23.14 
 O(Fragment=2)         16.52     19.52     23.42 
 H(Fragment=2)         16.45     20.46     23.27 
 H(Fragment=2)         16.98     19.44     24.26 
 O(Fragment=2)         19.57     21.62     25.66 
 H(Fragment=2)         19.42     22.57     25.59 
 H(Fragment=2)         19.3      21.28     24.81 
 O(Fragment=2)         25.39     21.44     20.8 
 H(Fragment=2)         24.72     21.89     20.28 
 H(Fragment=2)         24.95     21.21     21.62 
 O(Fragment=2)         16.68     16.5      18.19 
 H(Fragment=2)         16.63     16.99     17.37 
 H(Fragment=2)         16.01     16.91     18.75 
 O(Fragment=2)         15.62     22.06     23.26 
 H(Fragment=2)         15.77     22.31     22.34 
 H(Fragment=2)         14.83     22.54     23.51 
 O(Fragment=2)         16.02     15.33     21.2 
 H(Fragment=2)         16.75     15.72     20.73 
 H(Fragment=2)         15.89     15.91     21.95 
 O(Fragment=2)         22.21     14.44     19.06 
 H(Fragment=2)         22.49     15.31     18.78 
 H(Fragment=2)         21.26     14.45     18.96 
 O(Fragment=2)         25.91     18.55     19.92 
 H(Fragment=2)         26.15     18.61     19. 
 H(Fragment=2)         25.5      19.39     20.12 
 O(Fragment=2)         17.93     19.26     25.89 
 H(Fragment=2)         17.97     20.1      26.34 
 H(Fragment=2)         18.77     19.2      25.41 
 O(Fragment=2)         23.56     23.2      16.67 
 H(Fragment=2)         23.91     23.25     17.56 
 H(Fragment=2)         24.32     23.02     16.12 
 O(Fragment=2)         17.53     25.36     20.34 
 H(Fragment=2)         17.64     25.15     21.27 
 H(Fragment=2)         18.42     25.53     20.03 
 
 NAtoms=     97 NQM=       97 NQMF=       0 NMMI=      0 NMMIF=      0
                NMic=       0 NMicF=      0.
                    Isotopes and Nuclear Properties:
 (Nuclear quadrupole moments (NQMom) in fm**2, nuclear magnetic moments (NMagM)
  in nuclear magnetons)

  Atom         1           2           3           4           5           6           7           8           9          10
 IAtWgt=          79          16           1           1          16           1           1          16           1           1
 AtmWgt=  78.9183361  15.9949146   1.0078250   1.0078250  15.9949146   1.0078250   1.0078250  15.9949146   1.0078250   1.0078250
 NucSpn=           3           0           1           1           0           1           1           0           1           1
 AtZEff=   0.0000000   0.0000000   0.0000000   0.0000000   0.0000000   0.0000000   0.0000000   0.0000000   0.0000000   0.0000000
 NQMom=   31.3000000   0.0000000   0.0000000   0.0000000   0.0000000   0.0000000   0.0000000   0.0000000   0.0000000   0.0000000
 NMagM=    2.1063990   0.0000000   2.7928460   2.7928460   0.0000000   2.7928460   2.7928460   0.0000000   2.7928460   2.7928460
 AtZNuc=  35.0000000   8.0000000   1.0000000   1.0000000   8.0000000   1.0000000   1.0000000   8.0000000   1.0000000   1.0000000

  Atom        11          12          13          14          15          16          17          18          19          20
 IAtWgt=          16           1           1          16           1           1          16           1           1          16
 AtmWgt=  15.9949146   1.0078250   1.0078250  15.9949146   1.0078250   1.0078250  15.9949146   1.0078250   1.0078250  15.9949146
 NucSpn=           0           1           1           0           1           1           0           1           1           0
 AtZEff=   0.0000000   0.0000000   0.0000000   0.0000000   0.0000000   0.0000000   0.0000000   0.0000000   0.0000000   0.0000000
 NQMom=    0.0000000   0.0000000   0.0000000   0.0000000   0.0000000   0.0000000   0.0000000   0.0000000   0.0000000   0.0000000
 NMagM=    0.0000000   2.7928460   2.7928460   0.0000000   2.7928460   2.7928460   0.0000000   2.7928460   2.7928460   0.0000000
 AtZNuc=   8.0000000   1.0000000   1.0000000   8.0000000   1.0000000   1.0000000   8.0000000   1.0000000   1.0000000   8.0000000

  Atom        21          22          23          24          25          26          27          28          29          30
 IAtWgt=           1           1          16           1           1          16           1           1          16           1
 AtmWgt=   1.0078250   1.0078250  15.9949146   1.0078250   1.0078250  15.9949146   1.0078250   1.0078250  15.9949146   1.0078250
 NucSpn=           1           1           0           1           1           0           1           1           0           1
 AtZEff=   0.0000000   0.0000000   0.0000000   0.0000000   0.0000000   0.0000000   0.0000000   0.0000000   0.0000000   0.0000000
 NQMom=    0.0000000   0.0000000   0.0000000   0.0000000   0.0000000   0.0000000   0.0000000   0.0000000   0.0000000   0.0000000
 NMagM=    2.7928460   2.7928460   0.0000000   2.7928460   2.7928460   0.0000000   2.7928460   2.7928460   0.0000000   2.7928460
 AtZNuc=   1.0000000   1.0000000   8.0000000   1.0000000   1.0000000   8.0000000   1.0000000   1.0000000   8.0000000   1.0000000

  Atom        31          32          33          34          35          36          37          38          39          40
 IAtWgt=           1          16           1           1          16           1           1          16           1           1
 AtmWgt=   1.0078250  15.9949146   1.0078250   1.0078250  15.9949146   1.0078250   1.0078250  15.9949146   1.0078250   1.0078250
 NucSpn=           1           0           1           1           0           1           1           0           1           1
 AtZEff=   0.0000000   0.0000000   0.0000000   0.0000000   0.0000000   0.0000000   0.0000000   0.0000000   0.0000000   0.0000000
 NQMom=    0.0000000   0.0000000   0.0000000   0.0000000   0.0000000   0.0000000   0.0000000   0.0000000   0.0000000   0.0000000
 NMagM=    2.7928460   0.0000000   2.7928460   2.7928460   0.0000000   2.7928460   2.7928460   0.0000000   2.7928460   2.7928460
 AtZNuc=   1.0000000   8.0000000   1.0000000   1.0000000   8.0000000   1.0000000   1.0000000   8.0000000   1.0000000   1.0000000

  Atom        41          42          43          44          45          46          47          48          49          50
 IAtWgt=          16           1           1          16           1           1          16           1           1          16
 AtmWgt=  15.9949146   1.0078250   1.0078250  15.9949146   1.0078250   1.0078250  15.9949146   1.0078250   1.0078250  15.9949146
 NucSpn=           0           1           1           0           1           1           0           1           1           0
 AtZEff=   0.0000000   0.0000000   0.0000000   0.0000000   0.0000000   0.0000000   0.0000000   0.0000000   0.0000000   0.0000000
 NQMom=    0.0000000   0.0000000   0.0000000   0.0000000   0.0000000   0.0000000   0.0000000   0.0000000   0.0000000   0.0000000
 NMagM=    0.0000000   2.7928460   2.7928460   0.0000000   2.7928460   2.7928460   0.0000000   2.7928460   2.7928460   0.0000000
 AtZNuc=   8.0000000   1.0000000   1.0000000   8.0000000   1.0000000   1.0000000   8.0000000   1.0000000   1.0000000   8.0000000

  Atom        51          52          53          54          55          56          57          58          59          60
 IAtWgt=           1           1          16           1           1          16           1           1          16           1
 AtmWgt=   1.0078250   1.0078250  15.9949146   1.0078250   1.0078250  15.9949146   1.0078250   1.0078250  15.9949146   1.0078250
 NucSpn=           1           1           0           1           1           0           1           1           0           1
 AtZEff=   0.0000000   0.0000000   0.0000000   0.0000000   0.0000000   0.0000000   0.0000000   0.0000000   0.0000000   0.0000000
 NQMom=    0.0000000   0.0000000   0.0000000   0.0000000   0.0000000   0.0000000   0.0000000   0.0000000   0.0000000   0.0000000
 NMagM=    2.7928460   2.7928460   0.0000000   2.7928460   2.7928460   0.0000000   2.7928460   2.7928460   0.0000000   2.7928460
 AtZNuc=   1.0000000   1.0000000   8.0000000   1.0000000   1.0000000   8.0000000   1.0000000   1.0000000   8.0000000   1.0000000

  Atom        61          62          63          64          65          66          67          68          69          70
 IAtWgt=           1          16           1           1          16           1           1          16           1           1
 AtmWgt=   1.0078250  15.9949146   1.0078250   1.0078250  15.9949146   1.0078250   1.0078250  15.9949146   1.0078250   1.0078250
 NucSpn=           1           0           1           1           0           1           1           0           1           1
 AtZEff=   0.0000000   0.0000000   0.0000000   0.0000000   0.0000000   0.0000000   0.0000000   0.0000000   0.0000000   0.0000000
 NQMom=    0.0000000   0.0000000   0.0000000   0.0000000   0.0000000   0.0000000   0.0000000   0.0000000   0.0000000   0.0000000
 NMagM=    2.7928460   0.0000000   2.7928460   2.7928460   0.0000000   2.7928460   2.7928460   0.0000000   2.7928460   2.7928460
 AtZNuc=   1.0000000   8.0000000   1.0000000   1.0000000   8.0000000   1.0000000   1.0000000   8.0000000   1.0000000   1.0000000

  Atom        71          72          73          74          75          76          77          78          79          80
 IAtWgt=          16           1           1          16           1           1          16           1           1          16
 AtmWgt=  15.9949146   1.0078250   1.0078250  15.9949146   1.0078250   1.0078250  15.9949146   1.0078250   1.0078250  15.9949146
 NucSpn=           0           1           1           0           1           1           0           1           1           0
 AtZEff=   0.0000000   0.0000000   0.0000000   0.0000000   0.0000000   0.0000000   0.0000000   0.0000000   0.0000000   0.0000000
 NQMom=    0.0000000   0.0000000   0.0000000   0.0000000   0.0000000   0.0000000   0.0000000   0.0000000   0.0000000   0.0000000
 NMagM=    0.0000000   2.7928460   2.7928460   0.0000000   2.7928460   2.7928460   0.0000000   2.7928460   2.7928460   0.0000000
 AtZNuc=   8.0000000   1.0000000   1.0000000   8.0000000   1.0000000   1.0000000   8.0000000   1.0000000   1.0000000   8.0000000

  Atom        81          82          83          84          85          86          87          88          89          90
 IAtWgt=           1           1          16           1           1          16           1           1          16           1
 AtmWgt=   1.0078250   1.0078250  15.9949146   1.0078250   1.0078250  15.9949146   1.0078250   1.0078250  15.9949146   1.0078250
 NucSpn=           1           1           0           1           1           0           1           1           0           1
 AtZEff=   0.0000000   0.0000000   0.0000000   0.0000000   0.0000000   0.0000000   0.0000000   0.0000000   0.0000000   0.0000000
 NQMom=    0.0000000   0.0000000   0.0000000   0.0000000   0.0000000   0.0000000   0.0000000   0.0000000   0.0000000   0.0000000
 NMagM=    2.7928460   2.7928460   0.0000000   2.7928460   2.7928460   0.0000000   2.7928460   2.7928460   0.0000000   2.7928460
 AtZNuc=   1.0000000   1.0000000   8.0000000   1.0000000   1.0000000   8.0000000   1.0000000   1.0000000   8.0000000   1.0000000

  Atom        91          92          93          94          95          96          97
 IAtWgt=           1          16           1           1          16           1           1
 AtmWgt=   1.0078250  15.9949146   1.0078250   1.0078250  15.9949146   1.0078250   1.0078250
 NucSpn=           1           0           1           1           0           1           1
 AtZEff=   0.0000000   0.0000000   0.0000000   0.0000000   0.0000000   0.0000000   0.0000000
 NQMom=    0.0000000   0.0000000   0.0000000   0.0000000   0.0000000   0.0000000   0.0000000
 NMagM=    2.7928460   0.0000000   2.7928460   2.7928460   0.0000000   2.7928460   2.7928460
 AtZNuc=   1.0000000   8.0000000   1.0000000   1.0000000   8.0000000   1.0000000   1.0000000
 Leave Link  101 at Thu May  3 03:42:55 2018, MaxMem= 14763950080 cpu:        14.7
 (Enter /cm/shared/gaussian/g09.e01/intel64-sandybridge/g09/l103.exe)

 GradGradGradGradGradGradGradGradGradGradGradGradGradGradGradGradGradGrad
 Berny optimization.
 Initialization pass.
 Trust Radius=3.00D-01 FncErr=1.00D-07 GrdErr=1.00D-07
 Number of steps in this run=      2 maximum allowed number of steps=      2.
 GradGradGradGradGradGradGradGradGradGradGradGradGradGradGradGradGradGrad

 Leave Link  103 at Thu May  3 03:42:55 2018, MaxMem= 14763950080 cpu:         2.0
 (Enter /cm/shared/gaussian/g09.e01/intel64-sandybridge/g09/l202.exe)
 Symmetry turned off by external request.
 Stoichiometry    BrH64O32(1-)
 Framework group  C1[X(BrH64O32)]
 Deg. of freedom   285
 Full point group                 C1      NOp   1
                          Input orientation:                          
 ---------------------------------------------------------------------
 Center     Atomic      Atomic             Coordinates (Angstroms)
 Number     Number       Type             X           Y           Z
 ---------------------------------------------------------------------
      1         35           0       20.000000   20.000000   20.000000
      2          8           0       23.110000   20.110000   19.510000
      3          1           0       23.390000   20.920000   19.930000
      4          1           0       22.200000   20.000000   19.790000
      5          8           0       16.910000   20.420000   19.330000
      6          1           0       16.610000   21.190000   19.810000
      7          1           0       17.850000   20.380000   19.520000
      8          8           0       19.320000   23.040000   20.800000
      9          1           0       20.000000   23.510000   20.320000
     10          1           0       19.430000   22.130000   20.550000
     11          8           0       19.440000   20.460000   16.830000
     12          1           0       20.320000   20.710000   16.560000
     13          1           0       19.470000   20.440000   17.790000
     14          8           0       19.700000   17.190000   18.220000
     15          1           0       18.850000   16.900000   18.560000
     16          1           0       19.690000   18.150000   18.330000
     17          8           0       19.070000   20.270000   23.280000
     18          1           0       19.670000   20.300000   22.540000
     19          1           0       18.230000   20.000000   22.910000
     20          8           0       23.230000   17.410000   18.970000
     21          1           0       22.910000   18.280000   19.190000
     22          1           0       24.180000   17.460000   19.070000
     23          8           0       22.260000   20.330000   16.740000
     24          1           0       22.640000   20.430000   17.610000
     25          1           0       22.850000   20.830000   16.170000
     26          8           0       18.890000   15.860000   21.400000
     27          1           0       19.180000   16.620000   20.900000
     28          1           0       19.150000   15.100000   20.880000
     29          8           0       21.350000   17.750000   16.090000
     30          1           0       21.380000   18.580000   16.560000
     31          1           0       20.730000   17.210000   16.590000
     32          8           0       16.710000   22.750000   20.880000
     33          1           0       17.620000   23.060000   20.920000
     34          1           0       16.320000   23.240000   20.160000
     35          8           0       23.020000   22.760000   20.180000
     36          1           0       22.510000   23.100000   19.450000
     37          1           0       23.220000   23.530000   20.720000
     38          8           0       17.230000   18.740000   16.250000
     39          1           0       17.790000   19.470000   16.510000
     40          1           0       17.730000   18.300000   15.560000
     41          8           0       22.210000   16.150000   21.380000
     42          1           0       22.000000   16.370000   20.470000
     43          1           0       22.780000   15.380000   21.310000
     44          8           0       22.360000   18.010000   23.210000
     45          1           0       22.000000   17.310000   22.660000
     46          1           0       21.660000   18.200000   23.840000
     47          8           0       15.280000   18.920000   21.040000
     48          1           0       15.660000   19.160000   21.890000
     49          1           0       15.620000   19.580000   20.440000
     50          8           0       18.170000   22.720000   16.070000
     51          1           0       18.900000   23.090000   15.570000
     52          1           0       18.450000   21.810000   16.250000
     53          8           0       21.240000   23.950000   18.310000
     54          1           0       21.900000   23.650000   17.680000
     55          1           0       20.670000   24.530000   17.800000
     56          8           0       18.650000   23.850000   23.370000
     57          1           0       17.770000   24.150000   23.170000
     58          1           0       19.020000   23.620000   22.520000
     59          8           0       15.140000   21.430000   17.570000
     60          1           0       15.840000   21.120000   18.150000
     61          1           0       15.070000   22.360000   17.750000
     62          8           0       24.070000   21.120000   23.090000
     63          1           0       24.130000   21.410000   24.000000
     64          1           0       23.650000   20.260000   23.140000
     65          8           0       16.520000   19.520000   23.420000
     66          1           0       16.450000   20.460000   23.270000
     67          1           0       16.980000   19.440000   24.260000
     68          8           0       19.570000   21.620000   25.660000
     69          1           0       19.420000   22.570000   25.590000
     70          1           0       19.300000   21.280000   24.810000
     71          8           0       25.390000   21.440000   20.800000
     72          1           0       24.720000   21.890000   20.280000
     73          1           0       24.950000   21.210000   21.620000
     74          8           0       16.680000   16.500000   18.190000
     75          1           0       16.630000   16.990000   17.370000
     76          1           0       16.010000   16.910000   18.750000
     77          8           0       15.620000   22.060000   23.260000
     78          1           0       15.770000   22.310000   22.340000
     79          1           0       14.830000   22.540000   23.510000
     80          8           0       16.020000   15.330000   21.200000
     81          1           0       16.750000   15.720000   20.730000
     82          1           0       15.890000   15.910000   21.950000
     83          8           0       22.210000   14.440000   19.060000
     84          1           0       22.490000   15.310000   18.780000
     85          1           0       21.260000   14.450000   18.960000
     86          8           0       25.910000   18.550000   19.920000
     87          1           0       26.150000   18.610000   19.000000
     88          1           0       25.500000   19.390000   20.120000
     89          8           0       17.930000   19.260000   25.890000
     90          1           0       17.970000   20.100000   26.340000
     91          1           0       18.770000   19.200000   25.410000
     92          8           0       23.560000   23.200000   16.670000
     93          1           0       23.910000   23.250000   17.560000
     94          1           0       24.320000   23.020000   16.120000
     95          8           0       17.530000   25.360000   20.340000
     96          1           0       17.640000   25.150000   21.270000
     97          1           0       18.420000   25.530000   20.030000
 ---------------------------------------------------------------------
 Rotational constants (GHZ):      0.0614815      0.0530555      0.0512573
 Leave Link  202 at Thu May  3 03:42:55 2018, MaxMem= 14763950080 cpu:         0.6
 (Enter /cm/shared/gaussian/g09.e01/intel64-sandybridge/g09/l122.exe)
 Counterpoise: doing full dimer calculation.
 Leave Link  122 at Thu May  3 03:42:55 2018, MaxMem= 14763950080 cpu:         0.0
 (Enter /cm/shared/gaussian/g09.e01/intel64-sandybridge/g09/l301.exe)
 Standard basis: CC-pVDZ (5D, 7F)
 Ernie: Thresh=  0.10000D-02 Tol=  0.10000D-05 Strict=F.
 Ernie:  87 primitive shells out of 1114 were deleted.
   795 basis functions,  1651 primitive gaussians,   829 cartesian basis functions
   178 alpha electrons      178 beta electrons
       nuclear repulsion energy      6139.9530957456 Hartrees.
 IExCor= 1009 DFT=T Ex+Corr=PBE1PBE ExCW=0 ScaHFX=  0.250000
 ScaDFX=  0.750000  0.750000  1.000000  1.000000 ScalE2=  1.000000  1.000000
 IRadAn=      0 IRanWt=     -1 IRanGd=            0 ICorTp=0 IEmpDi=  4
 NAtoms=   97 NActive=   97 NUniq=   97 SFac= 1.00D+00 NAtFMM=   60 NAOKFM=T Big=T
 Integral buffers will be    131072 words long.
 Raffenetti 2 integral format.
 Two-electron integral symmetry is turned off.
 Leave Link  301 at Thu May  3 03:42:56 2018, MaxMem= 14763950080 cpu:         5.9
 (Enter /cm/shared/gaussian/g09.e01/intel64-sandybridge/g09/l302.exe)
 NPDir=0 NMtPBC=     1 NCelOv=     1 NCel=       1 NClECP=     1 NCelD=      1
         NCelK=      1 NCelE2=     1 NClLst=     1 CellRange=     0.0.
 One-electron integrals computed using PRISM.
 NBasis=   795 RedAO= T EigKep=  1.38D-02  NBF=   795
 NBsUse=   795 1.00D-06 EigRej= -1.00D+00 NBFU=   795
 Precomputing XC quadrature grid using
 IXCGrd= 4 IRadAn=           0 IRanWt=          -1 IRanGd=           0 AccXCQ= 0.00D+00.
 Generated NRdTot=       0 NPtTot=           0 NUsed=           0 NTot=          32
 NSgBfM=   747   747   747   750   750 MxSgAt=    97 MxSgA2=    97.
 Leave Link  302 at Thu May  3 03:43:02 2018, MaxMem= 14763950080 cpu:       389.6
 (Enter /cm/shared/gaussian/g09.e01/intel64-sandybridge/g09/l303.exe)
 DipDrv:  MaxL=1.
 Leave Link  303 at Thu May  3 03:43:02 2018, MaxMem= 14763950080 cpu:        30.7
 (Enter /cm/shared/gaussian/g09.e01/intel64-sandybridge/g09/l401.exe)
 ExpMin= 1.22D-01 ExpMax= 6.40D+05 ExpMxC= 6.18D+03 IAcc=2 IRadAn=         4 AccDes= 0.00D+00
 Harris functional with IExCor= 1009 and IRadAn=       4 diagonalized for initial guess.
 HarFok:  IExCor= 1009 AccDes= 0.00D+00 IRadAn=         4 IDoV= 1 UseB2=F ITyADJ=14
 ICtDFT=  3500011 ScaDFX=  1.000000  1.000000  1.000000  1.000000
 FoFCou: FMM=F IPFlag=           0 FMFlag=      100000 FMFlg1=        2001
         NFxFlg=           0 DoJE=T BraDBF=F KetDBF=T FulRan=T
         wScrn=  0.000000 ICntrl=     500 IOpCl=  0 I1Cent=   200000004 NGrid=           0
         NMat0=    1 NMatS0=      1 NMatT0=    0 NMatD0=    1 NMtDS0=    0 NMtDT0=    0
 Symmetry not used in FoFCou.
 Harris En= -5018.41637066857    
 JPrj=0 DoOrth=F DoCkMO=F.
 Leave Link  401 at Thu May  3 03:43:08 2018, MaxMem= 14763950080 cpu:       330.6
 (Enter /cm/shared/gaussian/g09.e01/intel64-sandybridge/g09/l502.exe)
 Closed shell SCF:
 Using DIIS extrapolation, IDIIS=  1040.
 Two-electron integral symmetry not used.
 IVT=     2138497 IEndB=     2138497 NGot= 14763950080 MDV= 14762516294
 LenX= 14762516294 LenY= 14761828224
 Requested convergence on RMS density matrix=1.00D-08 within 128 cycles.
 Requested convergence on MAX density matrix=1.00D-06.
 Requested convergence on             energy=1.00D-06.
 No special actions if energy rises.
 Fock matrices will be formed incrementally for  20 cycles.
 Integral accuracy reduced to 1.0D-05 until final iterations.

 Cycle   1  Pass 0  IDiag  1:
 FoFJK:  IHMeth= 1 ICntrl=       0 DoSepK=F KAlg= 0 I1Cent=   0 FoldK=F
 IRaf= 820000000 NMat=   1 IRICut=       1 DoRegI=T DoRafI=F ISym2E= 0.
 FoFCou: FMM=T IPFlag=           0 FMFlag=      100000 FMFlg1=        2001
         NFxFlg=           0 DoJE=F BraDBF=F KetDBF=F FulRan=T
         wScrn=  0.000000 ICntrl=       0 IOpCl=  0 I1Cent=           0 NGrid=           0
         NMat0=    1 NMatS0=      1 NMatT0=    0 NMatD0=    1 NMtDS0=    0 NMtDT0=    0
 Symmetry not used in FoFCou.
 FMM levels:  10  Number of levels for PrismC:   9
 E= -5015.34884790269    
 DIIS: error= 2.97D-02 at cycle   1 NSaved=   1.
 NSaved= 1 IEnMin= 1 EnMin= -5015.34884790269     IErMin= 1 ErrMin= 2.97D-02
 ErrMax= 2.97D-02  0.00D+00 EMaxC= 1.00D-01 BMatC= 2.68D+00 BMatP= 2.68D+00
 IDIUse=3 WtCom= 7.03D-01 WtEn= 2.97D-01
 Coeff-Com:  0.100D+01
 Coeff-En:   0.100D+01
 Coeff:      0.100D+01
 Gap=     0.316 Goal=   None    Shift=    0.000
 GapD=    0.316 DampG=1.000 DampE=0.500 DampFc=0.5000 IDamp=-1.
 Damping current iteration by 5.00D-01
 RMSDP=2.85D-03 MaxDP=1.57D-01              OVMax= 1.69D-01

 Cycle   2  Pass 0  IDiag  1:
 RMSU=  1.42D-03    CP:  9.86D-01
 E= -5016.13239881078     Delta-E=       -0.783550908091 Rises=F Damp=T
 DIIS: error= 6.96D-03 at cycle   2 NSaved=   2.
 NSaved= 2 IEnMin= 2 EnMin= -5016.13239881078     IErMin= 2 ErrMin= 6.96D-03
 ErrMax= 6.96D-03  0.00D+00 EMaxC= 1.00D-01 BMatC= 8.35D-02 BMatP= 2.68D+00
 IDIUse=3 WtCom= 9.30D-01 WtEn= 6.96D-02
 Coeff-Com:  0.117D+00 0.883D+00
 Coeff-En:   0.211D+00 0.789D+00
 Coeff:      0.124D+00 0.876D+00
 Gap=     0.181 Goal=   None    Shift=    0.000
 RMSDP=3.50D-04 MaxDP=2.15D-02 DE=-7.84D-01 OVMax= 9.46D-02

 Cycle   3  Pass 0  IDiag  1:
 RMSU=  2.75D-04    CP:  9.87D-01  8.49D-01
 E= -5017.26051340703     Delta-E=       -1.128114596249 Rises=F Damp=F
 DIIS: error= 1.01D-03 at cycle   3 NSaved=   3.
 NSaved= 3 IEnMin= 3 EnMin= -5017.26051340703     IErMin= 3 ErrMin= 1.01D-03
 ErrMax= 1.01D-03  0.00D+00 EMaxC= 1.00D-01 BMatC= 1.51D-03 BMatP= 8.35D-02
 IDIUse=3 WtCom= 9.90D-01 WtEn= 1.01D-02
 Coeff-Com:  0.725D-02 0.628D-01 0.930D+00
 Coeff-En:   0.000D+00 0.000D+00 0.100D+01
 Coeff:      0.718D-02 0.622D-01 0.931D+00
 Gap=     0.196 Goal=   None    Shift=    0.000
 RMSDP=8.57D-05 MaxDP=1.22D-02 DE=-1.13D+00 OVMax= 1.46D-02

 Cycle   4  Pass 0  IDiag  1:
 RMSU=  7.70D-05    CP:  9.88D-01  8.51D-01  8.64D-01
 E= -5017.26085389762     Delta-E=       -0.000340490591 Rises=F Damp=F
 DIIS: error= 9.84D-04 at cycle   4 NSaved=   4.
 NSaved= 4 IEnMin= 4 EnMin= -5017.26085389762     IErMin= 4 ErrMin= 9.84D-04
 ErrMax= 9.84D-04  0.00D+00 EMaxC= 1.00D-01 BMatC= 1.50D-03 BMatP= 1.51D-03
 IDIUse=3 WtCom= 9.90D-01 WtEn= 9.84D-03
 Coeff-Com:  0.121D-02 0.723D-02 0.498D+00 0.494D+00
 Coeff-En:   0.000D+00 0.000D+00 0.433D+00 0.567D+00
 Coeff:      0.120D-02 0.715D-02 0.497D+00 0.495D+00
 Gap=     0.195 Goal=   None    Shift=    0.000
 RMSDP=3.71D-05 MaxDP=4.56D-03 DE=-3.40D-04 OVMax= 4.31D-03

 Cycle   5  Pass 0  IDiag  1:
 RMSU=  1.63D-05    CP:  9.87D-01  8.49D-01  9.12D-01  6.05D-01
 E= -5017.26200549926     Delta-E=       -0.001151601635 Rises=F Damp=F
 DIIS: error= 9.61D-05 at cycle   5 NSaved=   5.
 NSaved= 5 IEnMin= 5 EnMin= -5017.26200549926     IErMin= 5 ErrMin= 9.61D-05
 ErrMax= 9.61D-05  0.00D+00 EMaxC= 1.00D-01 BMatC= 2.97D-05 BMatP= 1.50D-03
 IDIUse=1 WtCom= 1.00D+00 WtEn= 0.00D+00
 Coeff-Com:  0.433D-03-0.135D-02 0.136D+00 0.175D+00 0.690D+00
 Coeff:      0.433D-03-0.135D-02 0.136D+00 0.175D+00 0.690D+00
 Gap=     0.194 Goal=   None    Shift=    0.000
 RMSDP=7.95D-06 MaxDP=1.20D-03 DE=-1.15D-03 OVMax= 1.18D-03

 Cycle   6  Pass 0  IDiag  1:
 RMSU=  5.43D-06    CP:  9.87D-01  8.49D-01  9.23D-01  5.85D-01  7.09D-01
 E= -5017.26202765664     Delta-E=       -0.000022157386 Rises=F Damp=F
 DIIS: error= 9.19D-05 at cycle   6 NSaved=   6.
 NSaved= 6 IEnMin= 6 EnMin= -5017.26202765664     IErMin= 6 ErrMin= 9.19D-05
 ErrMax= 9.19D-05  0.00D+00 EMaxC= 1.00D-01 BMatC= 3.91D-06 BMatP= 2.97D-05
 IDIUse=1 WtCom= 1.00D+00 WtEn= 0.00D+00
 Coeff-Com:  0.819D-04-0.181D-02 0.318D-01 0.437D-01 0.301D+00 0.625D+00
 Coeff:      0.819D-04-0.181D-02 0.318D-01 0.437D-01 0.301D+00 0.625D+00
 Gap=     0.195 Goal=   None    Shift=    0.000
 RMSDP=2.40D-06 MaxDP=4.45D-04 DE=-2.22D-05 OVMax= 3.72D-04

 Initial convergence to 1.0D-05 achieved.  Increase integral accuracy.
 Cycle   7  Pass 1  IDiag  1:
 E= -5017.26247261124     Delta-E=       -0.000444954601 Rises=F Damp=F
 DIIS: error= 2.37D-05 at cycle   1 NSaved=   1.
 NSaved= 1 IEnMin= 1 EnMin= -5017.26247261124     IErMin= 1 ErrMin= 2.37D-05
 ErrMax= 2.37D-05  0.00D+00 EMaxC= 1.00D-01 BMatC= 1.43D-06 BMatP= 1.43D-06
 IDIUse=1 WtCom= 1.00D+00 WtEn= 0.00D+00
 Coeff-Com:  0.100D+01
 Coeff:      0.100D+01
 Gap=     0.195 Goal=   None    Shift=    0.000
 RMSDP=2.40D-06 MaxDP=4.45D-04 DE=-4.45D-04 OVMax= 1.69D-04

 Cycle   8  Pass 1  IDiag  1:
 RMSU=  4.46D-06    CP:  1.00D+00
 E= -5017.26247403874     Delta-E=       -0.000001427494 Rises=F Damp=F
 DIIS: error= 1.00D-05 at cycle   2 NSaved=   2.
 NSaved= 2 IEnMin= 2 EnMin= -5017.26247403874     IErMin= 2 ErrMin= 1.00D-05
 ErrMax= 1.00D-05  0.00D+00 EMaxC= 1.00D-01 BMatC= 2.23D-07 BMatP= 1.43D-06
 IDIUse=1 WtCom= 1.00D+00 WtEn= 0.00D+00
 Coeff-Com:  0.188D+00 0.812D+00
 Coeff:      0.188D+00 0.812D+00
 Gap=     0.195 Goal=   None    Shift=    0.000
 RMSDP=7.38D-07 MaxDP=7.36D-05 DE=-1.43D-06 OVMax= 6.28D-05

 Cycle   9  Pass 1  IDiag  1:
 RMSU=  7.38D-07    CP:  1.00D+00  9.99D-01
 E= -5017.26247406176     Delta-E=       -0.000000023017 Rises=F Damp=F
 DIIS: error= 9.37D-06 at cycle   3 NSaved=   3.
 NSaved= 3 IEnMin= 3 EnMin= -5017.26247406176     IErMin= 3 ErrMin= 9.37D-06
 ErrMax= 9.37D-06  0.00D+00 EMaxC= 1.00D-01 BMatC= 1.95D-07 BMatP= 2.23D-07
 IDIUse=1 WtCom= 1.00D+00 WtEn= 0.00D+00
 Coeff-Com: -0.810D-02 0.484D+00 0.524D+00
 Coeff:     -0.810D-02 0.484D+00 0.524D+00
 Gap=     0.195 Goal=   None    Shift=    0.000
 RMSDP=3.56D-07 MaxDP=3.65D-05 DE=-2.30D-08 OVMax= 3.17D-05

 Cycle  10  Pass 1  IDiag  1:
 RMSU=  8.63D-08    CP:  1.00D+00  1.02D+00  5.44D-01
 E= -5017.26247420015     Delta-E=       -0.000000138400 Rises=F Damp=F
 DIIS: error= 7.65D-07 at cycle   4 NSaved=   4.
 NSaved= 4 IEnMin= 4 EnMin= -5017.26247420015     IErMin= 4 ErrMin= 7.65D-07
 ErrMax= 7.65D-07  0.00D+00 EMaxC= 1.00D-01 BMatC= 7.63D-10 BMatP= 1.95D-07
 IDIUse=1 WtCom= 1.00D+00 WtEn= 0.00D+00
 Coeff-Com: -0.488D-02 0.208D+00 0.231D+00 0.566D+00
 Coeff:     -0.488D-02 0.208D+00 0.231D+00 0.566D+00
 Gap=     0.195 Goal=   None    Shift=    0.000
 RMSDP=3.33D-08 MaxDP=4.63D-06 DE=-1.38D-07 OVMax= 4.57D-06

 Cycle  11  Pass 1  IDiag  1:
 RMSU=  2.69D-08    CP:  1.00D+00  1.02D+00  5.47D-01  7.78D-01
 E= -5017.26247420067     Delta-E=       -0.000000000515 Rises=F Damp=F
 DIIS: error= 1.76D-07 at cycle   5 NSaved=   5.
 NSaved= 5 IEnMin= 5 EnMin= -5017.26247420067     IErMin= 5 ErrMin= 1.76D-07
 ErrMax= 1.76D-07  0.00D+00 EMaxC= 1.00D-01 BMatC= 5.87D-11 BMatP= 7.63D-10
 IDIUse=1 WtCom= 1.00D+00 WtEn= 0.00D+00
 Coeff-Com: -0.125D-02 0.420D-01 0.478D-01 0.241D+00 0.671D+00
 Coeff:     -0.125D-02 0.420D-01 0.478D-01 0.241D+00 0.671D+00
 Gap=     0.195 Goal=   None    Shift=    0.000
 RMSDP=8.10D-09 MaxDP=1.00D-06 DE=-5.15D-10 OVMax= 8.22D-07

 Cycle  12  Pass 1  IDiag  1:
 RMSU=  6.64D-09    CP:  1.00D+00  1.02D+00  5.47D-01  8.23D-01  9.19D-01
 E= -5017.26247420078     Delta-E=       -0.000000000111 Rises=F Damp=F
 DIIS: error= 5.39D-08 at cycle   6 NSaved=   6.
 NSaved= 6 IEnMin= 6 EnMin= -5017.26247420078     IErMin= 6 ErrMin= 5.39D-08
 ErrMax= 5.39D-08  0.00D+00 EMaxC= 1.00D-01 BMatC= 4.45D-12 BMatP= 5.87D-11
 IDIUse=1 WtCom= 1.00D+00 WtEn= 0.00D+00
 Coeff-Com:  0.742D-04-0.725D-02-0.768D-02 0.293D-01 0.256D+00 0.730D+00
 Coeff:      0.742D-04-0.725D-02-0.768D-02 0.293D-01 0.256D+00 0.730D+00
 Gap=     0.195 Goal=   None    Shift=    0.000
 RMSDP=2.83D-09 MaxDP=4.15D-07 DE=-1.11D-10 OVMax= 3.85D-07

 SCF Done:  E(RPBE1PBE) =  -5017.26247420     A.U. after   12 cycles
            NFock= 12  Conv=0.28D-08     -V/T= 2.0028
 KE= 5.003360713976D+03 PE=-2.424761232164D+04 EE= 8.087036037721D+03
 Leave Link  502 at Thu May  3 03:45:35 2018, MaxMem= 14763950080 cpu:      9339.3
 (Enter /cm/shared/gaussian/g09.e01/intel64-sandybridge/g09/l601.exe)
 Copying SCF densities to generalized density rwf, IOpCl= 0 IROHF=0.

 **********************************************************************

            Population analysis using the SCF density.

 **********************************************************************

 Alpha  occ. eigenvalues -- -483.15089 -62.55407 -56.32649 -56.32642 -56.32620
 Alpha  occ. eigenvalues --  -19.21694 -19.20021 -19.19978 -19.17874 -19.17438
 Alpha  occ. eigenvalues --  -19.16793 -19.15670 -19.14852 -19.13609 -19.13422
 Alpha  occ. eigenvalues --  -19.13376 -19.13321 -19.12248 -19.11831 -19.11809
 Alpha  occ. eigenvalues --  -19.11394 -19.11381 -19.10363 -19.10299 -19.10158
 Alpha  occ. eigenvalues --  -19.09991 -19.09976 -19.09697 -19.09481 -19.09237
 Alpha  occ. eigenvalues --  -19.09203 -19.08656 -19.07917 -19.07371 -19.05896
 Alpha  occ. eigenvalues --  -19.04772 -19.04293  -8.65751  -6.46120  -6.46079
 Alpha  occ. eigenvalues --   -6.45980  -2.54411  -2.54404  -2.54325  -2.54291
 Alpha  occ. eigenvalues --   -2.54270  -1.04236  -1.02919  -1.01894  -1.01504
 Alpha  occ. eigenvalues --   -0.99883  -0.99161  -0.98256  -0.97735  -0.96646
 Alpha  occ. eigenvalues --   -0.96227  -0.96134  -0.96069  -0.95211  -0.95107
 Alpha  occ. eigenvalues --   -0.94539  -0.94112  -0.93960  -0.93303  -0.92778
 Alpha  occ. eigenvalues --   -0.92692  -0.92322  -0.92269  -0.91919  -0.91901
 Alpha  occ. eigenvalues --   -0.91642  -0.91630  -0.90639  -0.90242  -0.90129
 Alpha  occ. eigenvalues --   -0.88531  -0.87449  -0.87099  -0.65455  -0.55994
 Alpha  occ. eigenvalues --   -0.53521  -0.52347  -0.51375  -0.50414  -0.49804
 Alpha  occ. eigenvalues --   -0.49306  -0.48529  -0.47694  -0.47636  -0.47212
 Alpha  occ. eigenvalues --   -0.47073  -0.46253  -0.45667  -0.45511  -0.44674
 Alpha  occ. eigenvalues --   -0.44646  -0.43997  -0.43616  -0.43478  -0.43418
 Alpha  occ. eigenvalues --   -0.43408  -0.43094  -0.42857  -0.42220  -0.42156
 Alpha  occ. eigenvalues --   -0.41769  -0.41495  -0.41208  -0.41043  -0.40093
 Alpha  occ. eigenvalues --   -0.39653  -0.39376  -0.39038  -0.38664  -0.38004
 Alpha  occ. eigenvalues --   -0.36668  -0.35481  -0.35393  -0.35165  -0.33781
 Alpha  occ. eigenvalues --   -0.33635  -0.33020  -0.32601  -0.32191  -0.31724
 Alpha  occ. eigenvalues --   -0.31384  -0.31249  -0.30932  -0.30559  -0.30477
 Alpha  occ. eigenvalues --   -0.30174  -0.29909  -0.29493  -0.29271  -0.29270
 Alpha  occ. eigenvalues --   -0.28977  -0.28849  -0.28661  -0.28264  -0.28178
 Alpha  occ. eigenvalues --   -0.27797  -0.27763  -0.27012  -0.26704  -0.26411
 Alpha  occ. eigenvalues --   -0.26385  -0.26331  -0.25439  -0.25183  -0.25020
 Alpha  occ. eigenvalues --   -0.24757  -0.24448  -0.24428  -0.24026  -0.23384
 Alpha  occ. eigenvalues --   -0.23340  -0.23060  -0.22518  -0.22236  -0.21950
 Alpha  occ. eigenvalues --   -0.21565  -0.21448  -0.21389  -0.20847  -0.20806
 Alpha  occ. eigenvalues --   -0.20750  -0.20520  -0.20221  -0.20127  -0.19581
 Alpha  occ. eigenvalues --   -0.19151  -0.19087  -0.19028  -0.18948  -0.18436
 Alpha  occ. eigenvalues --   -0.16663  -0.16004  -0.15602
 Alpha virt. eigenvalues --    0.03853   0.06973   0.09628   0.09954   0.11241
 Alpha virt. eigenvalues --    0.12580   0.13005   0.13804   0.14263   0.14471
 Alpha virt. eigenvalues --    0.15020   0.15389   0.16298   0.17126   0.17399
 Alpha virt. eigenvalues --    0.18082   0.18482   0.18838   0.19707   0.20650
 Alpha virt. eigenvalues --    0.20926   0.21204   0.21427   0.21900   0.22682
 Alpha virt. eigenvalues --    0.22915   0.23236   0.23608   0.24071   0.24276
 Alpha virt. eigenvalues --    0.25005   0.26115   0.26336   0.26655   0.27365
 Alpha virt. eigenvalues --    0.27612   0.27889   0.28258   0.28671   0.29032
 Alpha virt. eigenvalues --    0.29764   0.30161   0.30390   0.30934   0.31175
 Alpha virt. eigenvalues --    0.31365   0.31989   0.32208   0.32704   0.33386
 Alpha virt. eigenvalues --    0.33619   0.34052   0.34372   0.35284   0.35707
 Alpha virt. eigenvalues --    0.35953   0.37049   0.37495   0.37719   0.38675
 Alpha virt. eigenvalues --    0.38938   0.39277   0.40181   0.42658   0.56058
 Alpha virt. eigenvalues --    0.57646   0.58724   0.59454   0.59766   0.60173
 Alpha virt. eigenvalues --    0.60807   0.61002   0.61230   0.62023   0.62128
 Alpha virt. eigenvalues --    0.63284   0.63653   0.63888   0.64103   0.64312
 Alpha virt. eigenvalues --    0.64979   0.65102   0.65492   0.65808   0.66164
 Alpha virt. eigenvalues --    0.66864   0.67260   0.67499   0.67993   0.68178
 Alpha virt. eigenvalues --    0.68598   0.68768   0.68917   0.69137   0.69380
 Alpha virt. eigenvalues --    0.70002   0.70326   0.70586   0.70606   0.70935
 Alpha virt. eigenvalues --    0.71249   0.71697   0.71742   0.72134   0.72520
 Alpha virt. eigenvalues --    0.73133   0.73354   0.73493   0.73773   0.74011
 Alpha virt. eigenvalues --    0.74527   0.74729   0.75135   0.75527   0.76274
 Alpha virt. eigenvalues --    0.76749   0.76950   0.77470   0.77715   0.78069
 Alpha virt. eigenvalues --    0.78201   0.78930   0.79142   0.79578   0.80381
 Alpha virt. eigenvalues --    0.80960   0.81725   0.82124   0.82561   0.82759
 Alpha virt. eigenvalues --    0.84017   0.84373   0.86786   0.87122   0.89296
 Alpha virt. eigenvalues --    0.90722   0.91397   0.92382   0.93699   0.93897
 Alpha virt. eigenvalues --    0.95195   0.95647   0.95675   0.96413   0.96806
 Alpha virt. eigenvalues --    0.97110   0.97359   0.98823   0.99531   0.99828
 Alpha virt. eigenvalues --    0.99945   1.00317   1.00569   1.00780   1.00922
 Alpha virt. eigenvalues --    1.01140   1.01441   1.01798   1.02447   1.02888
 Alpha virt. eigenvalues --    1.03123   1.03215   1.03654   1.03893   1.04022
 Alpha virt. eigenvalues --    1.04385   1.04823   1.05186   1.05603   1.05910
 Alpha virt. eigenvalues --    1.06389   1.06560   1.06800   1.07276   1.07625
 Alpha virt. eigenvalues --    1.07887   1.08129   1.08163   1.08690   1.09114
 Alpha virt. eigenvalues --    1.09713   1.09818   1.10336   1.10883   1.11177
 Alpha virt. eigenvalues --    1.11278   1.11649   1.11811   1.12094   1.12611
 Alpha virt. eigenvalues --    1.12744   1.12904   1.13080   1.13532   1.13783
 Alpha virt. eigenvalues --    1.13849   1.14396   1.14906   1.15021   1.15272
 Alpha virt. eigenvalues --    1.15388   1.15734   1.16240   1.16383   1.16788
 Alpha virt. eigenvalues --    1.17086   1.17479   1.17621   1.18179   1.18360
 Alpha virt. eigenvalues --    1.18715   1.19051   1.19915   1.20122   1.20480
 Alpha virt. eigenvalues --    1.20805   1.21499   1.21838   1.22388   1.22850
 Alpha virt. eigenvalues --    1.23437   1.23729   1.24211   1.24333   1.25130
 Alpha virt. eigenvalues --    1.25191   1.25786   1.26012   1.26339   1.26586
 Alpha virt. eigenvalues --    1.27101   1.27417   1.27660   1.28280   1.28504
 Alpha virt. eigenvalues --    1.28642   1.29071   1.29238   1.29578   1.29807
 Alpha virt. eigenvalues --    1.30390   1.30659   1.30953   1.31042   1.31310
 Alpha virt. eigenvalues --    1.31672   1.32011   1.32657   1.32816   1.33433
 Alpha virt. eigenvalues --    1.33688   1.34048   1.34509   1.34847   1.35077
 Alpha virt. eigenvalues --    1.35335   1.35441   1.35806   1.35968   1.36430
 Alpha virt. eigenvalues --    1.36539   1.36897   1.37442   1.37644   1.37826
 Alpha virt. eigenvalues --    1.38251   1.38720   1.39019   1.39126   1.39458
 Alpha virt. eigenvalues --    1.39545   1.39764   1.39814   1.40624   1.41012
 Alpha virt. eigenvalues --    1.41124   1.41532   1.41954   1.42361   1.42768
 Alpha virt. eigenvalues --    1.43140   1.43383   1.43623   1.44472   1.44568
 Alpha virt. eigenvalues --    1.45377   1.45694   1.46278   1.46385   1.46853
 Alpha virt. eigenvalues --    1.47293   1.47543   1.48526   1.49308   1.49648
 Alpha virt. eigenvalues --    1.50269   1.50910   1.51028   1.52110   1.52602
 Alpha virt. eigenvalues --    1.52856   1.53359   1.53657   1.54101   1.54683
 Alpha virt. eigenvalues --    1.54943   1.55272   1.55667   1.56136   1.56404
 Alpha virt. eigenvalues --    1.57432   1.57664   1.58226   1.58560   1.59292
 Alpha virt. eigenvalues --    1.59713   1.59950   1.60349   1.60682   1.61458
 Alpha virt. eigenvalues --    1.62139   1.63414   1.63735   1.64365   1.65217
 Alpha virt. eigenvalues --    1.66051   1.67076   1.67656   1.68405   1.68754
 Alpha virt. eigenvalues --    1.69142   1.69724   1.71893   1.72736   1.72905
 Alpha virt. eigenvalues --    1.73423   1.73567   1.73857   1.74270   1.74682
 Alpha virt. eigenvalues --    1.75045   1.75930   1.76548   1.76954   1.77430
 Alpha virt. eigenvalues --    1.77499   1.78015   1.78141   1.78873   1.79115
 Alpha virt. eigenvalues --    1.79958   1.80178   1.80453   1.80702   1.81024
 Alpha virt. eigenvalues --    1.81368   1.81645   1.82113   1.82548   1.82878
 Alpha virt. eigenvalues --    1.83579   1.83751   1.84142   1.85041   1.85690
 Alpha virt. eigenvalues --    1.85888   1.86296   1.86873   1.87071   1.87824
 Alpha virt. eigenvalues --    1.88175   1.88508   1.88796   1.89539   1.89848
 Alpha virt. eigenvalues --    1.91050   1.91738   1.92193   1.92940   1.93423
 Alpha virt. eigenvalues --    1.94342   1.95152   1.95587   1.96317   1.97162
 Alpha virt. eigenvalues --    1.97442   1.98629   2.00263   2.00768   2.01505
 Alpha virt. eigenvalues --    2.03207   2.05968   2.10193   2.14906   2.15811
 Alpha virt. eigenvalues --    2.17027   2.17770   2.18908   2.19626   2.20600
 Alpha virt. eigenvalues --    2.20749   2.21641   2.21819   2.23085   2.23592
 Alpha virt. eigenvalues --    2.24178   2.24219   2.24340   2.24866   2.25094
 Alpha virt. eigenvalues --    2.25284   2.25444   2.25544   2.26295   2.26388
 Alpha virt. eigenvalues --    2.26615   2.26942   2.27084   2.28252   2.28714
 Alpha virt. eigenvalues --    2.28843   2.29282   2.30205   2.30522   2.30921
 Alpha virt. eigenvalues --    2.31589   2.31702   2.31850   2.32196   2.33887
 Alpha virt. eigenvalues --    2.34615   2.34765   2.35366   2.35609   2.35974
 Alpha virt. eigenvalues --    2.37353   2.39013   2.40261   2.40426   2.41945
 Alpha virt. eigenvalues --    2.43452   2.43997   2.45173   2.45612   2.46074
 Alpha virt. eigenvalues --    2.49400   2.50417   2.51150   2.51864   2.52838
 Alpha virt. eigenvalues --    2.53909   2.55916   2.57627   2.62321   2.62927
 Alpha virt. eigenvalues --    2.66131   2.70821   2.91743   2.93065   2.93459
 Alpha virt. eigenvalues --    2.95728   2.95977   2.96176   2.98111   2.98312
 Alpha virt. eigenvalues --    2.98630   2.98841   2.99433   2.99532   3.00541
 Alpha virt. eigenvalues --    3.00696   3.00963   3.01209   3.01281   3.01636
 Alpha virt. eigenvalues --    3.01953   3.02557   3.02747   3.02823   3.03175
 Alpha virt. eigenvalues --    3.03242   3.03346   3.03409   3.03787   3.04045
 Alpha virt. eigenvalues --    3.04193   3.04375   3.04516   3.04797   3.05149
 Alpha virt. eigenvalues --    3.05409   3.05478   3.05692   3.05893   3.06277
 Alpha virt. eigenvalues --    3.06390   3.06437   3.07388   3.07761   3.07953
 Alpha virt. eigenvalues --    3.08016   3.08172   3.08225   3.08438   3.08778
 Alpha virt. eigenvalues --    3.08919   3.09052   3.09217   3.09430   3.09468
 Alpha virt. eigenvalues --    3.10161   3.10259   3.10759   3.11068   3.11255
 Alpha virt. eigenvalues --    3.12331   3.13367   3.13790   3.13967   3.14661
 Alpha virt. eigenvalues --    3.15274   3.16250   3.17028   3.17681   3.18114
 Alpha virt. eigenvalues --    3.19760   3.20367   3.22759   3.23133   3.23289
 Alpha virt. eigenvalues --    3.23490   3.23773   3.23833   3.24499   3.24733
 Alpha virt. eigenvalues --    3.25240   3.25302   3.25436   3.25788   3.26230
 Alpha virt. eigenvalues --    3.26364   3.26563   3.26892   3.27274   3.27529
 Alpha virt. eigenvalues --    3.28886   3.29240   3.29498   3.32057   3.32906
 Alpha virt. eigenvalues --    3.33316   3.33691   3.34625   3.49187   3.52311
 Alpha virt. eigenvalues --    3.53510   3.56410   3.56554   3.57610   3.58472
 Alpha virt. eigenvalues --    3.58815   3.59397   3.59832   3.60385   3.60531
 Alpha virt. eigenvalues --    3.60888   3.61830   3.62074   3.62436   3.62718
 Alpha virt. eigenvalues --    3.63131   3.63721   3.64095   3.64658   3.65166
 Alpha virt. eigenvalues --    3.65581   3.65772   3.66831   3.67117   3.67791
 Alpha virt. eigenvalues --    3.68423   3.69504   3.69939   3.72693   3.75805
 Alpha virt. eigenvalues --    3.81287   3.81909   3.83505   3.85699   3.86135
 Alpha virt. eigenvalues --    3.86674   3.86900   3.87031   3.87721   3.88062
 Alpha virt. eigenvalues --    3.88117   3.89175   3.89255   3.89820   3.90304
 Alpha virt. eigenvalues --    3.90759   3.90843   3.91788   3.92336   3.92814
 Alpha virt. eigenvalues --    3.93124   3.93631   3.93904   3.94000   3.94921
 Alpha virt. eigenvalues --    3.95958   3.96290   3.96837   3.99191   4.00345
 Alpha virt. eigenvalues --    4.01897   4.04944
          Condensed to atoms (all electrons):
 Mulliken charges:
               1
     1  Br  -0.685266
     2  O   -0.272107
     3  H    0.108134
     4  H    0.174492
     5  O   -0.248137
     6  H    0.098227
     7  H    0.147417
     8  O   -0.255553
     9  H    0.133274
    10  H    0.149992
    11  O   -0.269095
    12  H    0.126508
    13  H    0.145769
    14  O   -0.291612
    15  H    0.119608
    16  H    0.140826
    17  O   -0.278346
    18  H    0.148773
    19  H    0.108655
    20  O   -0.274738
    21  H    0.133121
    22  H    0.114686
    23  O   -0.238953
    24  H    0.104567
    25  H    0.127594
    26  O   -0.247667
    27  H    0.139184
    28  H    0.134619
    29  O   -0.332864
    30  H    0.115282
    31  H    0.133358
    32  O   -0.266754
    33  H    0.145876
    34  H    0.150573
    35  O   -0.241122
    36  H    0.131729
    37  H    0.151148
    38  O   -0.269443
    39  H    0.146001
    40  H    0.128711
    41  O   -0.261364
    42  H    0.126310
    43  H    0.136853
    44  O   -0.309857
    45  H    0.147265
    46  H    0.120900
    47  O   -0.328439
    48  H    0.121081
    49  H    0.111918
    50  O   -0.315080
    51  H    0.100571
    52  H    0.145994
    53  O   -0.268085
    54  H    0.137224
    55  H    0.153809
    56  O   -0.272815
    57  H    0.116922
    58  H    0.128365
    59  O   -0.291802
    60  H    0.136373
    61  H    0.100172
    62  O   -0.253596
    63  H    0.143581
    64  H    0.155499
    65  O   -0.255523
    66  H    0.124474
    67  H    0.120966
    68  O   -0.322649
    69  H    0.136931
    70  H    0.129641
    71  O   -0.294366
    72  H    0.117955
    73  H    0.146335
    74  O   -0.283313
    75  H    0.132755
    76  H    0.150113
    77  O   -0.258384
    78  H    0.141081
    79  H    0.129589
    80  O   -0.295558
    81  H    0.117563
    82  H    0.133608
    83  O   -0.285975
    84  H    0.146449
    85  H    0.133056
    86  O   -0.265465
    87  H    0.123007
    88  H    0.129123
    89  O   -0.264718
    90  H    0.137340
    91  H    0.160722
    92  O   -0.241916
    93  H    0.136572
    94  H    0.154423
    95  O   -0.249884
    96  H    0.112143
    97  H    0.135641
 Sum of Mulliken charges =  -1.00000
 Mulliken charges with hydrogens summed into heavy atoms:
               1
     1  Br  -0.685266
     2  O    0.010519
     5  O   -0.002493
     8  O    0.027713
    11  O    0.003181
    14  O   -0.031179
    17  O   -0.020918
    20  O   -0.026932
    23  O   -0.006792
    26  O    0.026136
    29  O   -0.084223
    32  O    0.029695
    35  O    0.041755
    38  O    0.005268
    41  O    0.001799
    44  O   -0.041693
    47  O   -0.095441
    50  O   -0.068515
    53  O    0.022948
    56  O   -0.027528
    59  O   -0.055256
    62  O    0.045484
    65  O   -0.010082
    68  O   -0.056077
    71  O   -0.030076
    74  O   -0.000445
    77  O    0.012287
    80  O   -0.044387
    83  O   -0.006469
    86  O   -0.013335
    89  O    0.033344
    92  O    0.049080
    95  O   -0.002100
         Mulliken charges condensed to fragments:
      1     -0.685266
      2     -0.314734
 Electronic spatial extent (au):  <R**2>=        1557211.4999
 Charge=             -1.0000 electrons
 Dipole moment (field-independent basis, Debye):
    X=            -84.9568    Y=            -74.7128    Z=            -98.9017  Tot=            150.2705
 Quadrupole moment (field-independent basis, Debye-Ang):
   XX=          -1784.3185   YY=          -1316.7506   ZZ=          -2309.9129
   XY=          -1268.3130   XZ=          -1784.6024   YZ=          -1556.3783
 Traceless Quadrupole moment (field-independent basis, Debye-Ang):
   XX=             19.3422   YY=            486.9100   ZZ=           -506.2522
   XY=          -1268.3130   XZ=          -1784.6024   YZ=          -1556.3783
 Octapole moment (field-independent basis, Debye-Ang**2):
  XXX=         -43284.0660  YYY=         -27424.0589  ZZZ=         -58565.4597  XYY=         -21599.7920
  XXY=         -26701.4581  XXZ=         -38038.9483  XZZ=         -42693.3640  YZZ=         -37758.3081
  YYZ=         -27748.7129  XYZ=         -27333.8884
 Hexadecapole moment (field-independent basis, Debye-Ang**3):
 XXXX=       -1144310.2270 YYYY=        -666364.8902 ZZZZ=       -1548008.5719 XXXY=        -673016.6969
 XXXZ=        -927573.6975 YYYX=        -446386.5150 YYYZ=        -581764.4707 ZZZX=       -1103735.3435
 ZZZY=       -1000391.5803 XXYY=        -452532.2100 XXZZ=        -912855.1127 YYZZ=        -691950.8816
 XXYZ=        -589069.4407 YYXZ=        -477627.4976 ZZXY=        -689214.4966
 N-N= 6.139953095746D+03 E-N=-2.424761236951D+04  KE= 5.003360713976D+03
 No NMR shielding tensors so no spin-rotation constants.
 Leave Link  601 at Thu May  3 03:45:37 2018, MaxMem= 14763950080 cpu:        69.8
 (Enter /cm/shared/gaussian/g09.e01/intel64-sandybridge/g09/l701.exe)
 Compute integral first derivatives.
 ... and contract with generalized density number  0.
 Leave Link  701 at Thu May  3 03:45:39 2018, MaxMem= 14763950080 cpu:       151.7
 (Enter /cm/shared/gaussian/g09.e01/intel64-sandybridge/g09/l702.exe)
 L702 exits ... SP integral derivatives will be done elsewhere.
 Leave Link  702 at Thu May  3 03:45:39 2018, MaxMem= 14763950080 cpu:         2.5
 (Enter /cm/shared/gaussian/g09.e01/intel64-sandybridge/g09/l703.exe)
 Compute integral first derivatives, UseDBF=F ICtDFT=           0.
 Integral derivatives from FoFJK, PRISM(SPDF).
 Calling FoFJK, ICntrl=      2127 FMM=T ISym2X=0 I1Cent= 0 IOpClX= 0 NMat=1 NMatS=1 NMatT=0.
 FoFJK:  IHMeth= 1 ICntrl=    2127 DoSepK=F KAlg= 0 I1Cent=   0 FoldK=F
 IRaf=         0 NMat=   1 IRICut=       1 DoRegI=T DoRafI=F ISym2E= 0.
 FoFCou: FMM=T IPFlag=           0 FMFlag=      100000 FMFlg1=        2001
         NFxFlg=           0 DoJE=F BraDBF=F KetDBF=F FulRan=T
         wScrn=  0.000000 ICntrl=    2127 IOpCl=  0 I1Cent=           0 NGrid=           0
         NMat0=    1 NMatS0=      1 NMatT0=    0 NMatD0=    1 NMtDS0=    0 NMtDT0=    0
 Symmetry not used in FoFCou.
 FMM levels:  10  Number of levels for PrismC:   9
 Leave Link  703 at Thu May  3 03:45:57 2018, MaxMem= 14763950080 cpu:      1101.3
 (Enter /cm/shared/gaussian/g09.e01/intel64-sandybridge/g09/l716.exe)
 Dipole        =-3.34245933D+01-2.93942945D+01-3.89109175D+01
 Cartesian Forces:  Max     0.034821404 RMS     0.009940764
 Leave Link  716 at Thu May  3 03:45:57 2018, MaxMem= 14763950080 cpu:         4.6
 (Enter /cm/shared/gaussian/g09.e01/intel64-sandybridge/g09/l122.exe)
 CPIOFr:  IOpCl= 0 IRwI=-1 IRwCP=  731 ICalc= -1 LCPTot=     1005244 Len1MO=     2550559 IndFrg=     1005244
 CPIOFr:  IOpCl= 0 IRwI=-1 IRwCP=  731 ICalc=  0 LCPTot=     1005244 Len1MO=     2550559 IndFrg=     3555803
 Counterpoise: doing DCBS calculation for fragment   1 NewBq=T
 Leave Link  122 at Thu May  3 03:45:57 2018, MaxMem= 14763950080 cpu:         7.1
 (Enter /cm/shared/gaussian/g09.e01/intel64-sandybridge/g09/l301.exe)
 Basis read from rwf:  (5D, 7F)
 No pseudopotential information found on rwf file.
   795 basis functions,  1651 primitive gaussians,   829 cartesian basis functions
    18 alpha electrons       18 beta electrons
       nuclear repulsion energy         0.0000000000 Hartrees.
 IExCor= 1009 DFT=T Ex+Corr=PBE1PBE ExCW=0 ScaHFX=  0.250000
 ScaDFX=  0.750000  0.750000  1.000000  1.000000 ScalE2=  1.000000  1.000000
 IRadAn=      0 IRanWt=     -1 IRanGd=            0 ICorTp=0 IEmpDi=  4
 NAtoms=   97 NActive=   97 NUniq=   97 SFac= 1.00D+00 NAtFMM=   60 NAOKFM=T Big=T
 Integral buffers will be    131072 words long.
 Raffenetti 2 integral format.
 Two-electron integral symmetry is turned off.
 No density basis found on file   718.
 Leave Link  301 at Thu May  3 03:45:57 2018, MaxMem= 14763950080 cpu:         6.5
 (Enter /cm/shared/gaussian/g09.e01/intel64-sandybridge/g09/l302.exe)
 NPDir=0 NMtPBC=     1 NCelOv=     1 NCel=       1 NClECP=     1 NCelD=      1
         NCelK=      1 NCelE2=     1 NClLst=     1 CellRange=     0.0.
 One-electron integrals computed using PRISM.
 NBasis=   795 RedAO= T EigKep=  1.38D-02  NBF=   795
 NBsUse=   795 1.00D-06 EigRej= -1.00D+00 NBFU=   795
 Precomputing XC quadrature grid using
 IXCGrd= 4 IRadAn=           0 IRanWt=          -1 IRanGd=           0 AccXCQ= 0.00D+00.
 Generated NRdTot=       0 NPtTot=           0 NUsed=           0 NTot=          32
 NSgBfM=   747   747   747   750   750 MxSgAt=    97 MxSgA2=    97.
 Leave Link  302 at Thu May  3 03:46:03 2018, MaxMem= 14763950080 cpu:       388.1
 (Enter /cm/shared/gaussian/g09.e01/intel64-sandybridge/g09/l303.exe)
 DipDrv:  MaxL=1.
 Leave Link  303 at Thu May  3 03:46:04 2018, MaxMem= 14763950080 cpu:        30.0
 (Enter /cm/shared/gaussian/g09.e01/intel64-sandybridge/g09/l401.exe)
 ExpMin= 1.22D-01 ExpMax= 6.40D+05 ExpMxC= 6.18D+03 IAcc=2 IRadAn=         4 AccDes= 0.00D+00
 Harris functional with IExCor= 1009 and IRadAn=       4 diagonalized for initial guess.
 HarFok:  IExCor= 1009 AccDes= 0.00D+00 IRadAn=         4 IDoV= 1 UseB2=F ITyADJ=14
 ICtDFT=  3500011 ScaDFX=  1.000000  1.000000  1.000000  1.000000
 FoFCou: FMM=F IPFlag=           0 FMFlag=      100000 FMFlg1=        2001
         NFxFlg=           0 DoJE=T BraDBF=F KetDBF=T FulRan=T
         wScrn=  0.000000 ICntrl=     500 IOpCl=  0 I1Cent=   200000004 NGrid=           0
         NMat0=    1 NMatS0=      1 NMatT0=    0 NMatD0=    1 NMtDS0=    0 NMtDT0=    0
 Symmetry not used in FoFCou.
 Harris En= -2574.01975024721    
 JPrj=0 DoOrth=F DoCkMO=F.
 Leave Link  401 at Thu May  3 03:46:09 2018, MaxMem= 14763950080 cpu:       301.2
 (Enter /cm/shared/gaussian/g09.e01/intel64-sandybridge/g09/l502.exe)
 Closed shell SCF:
 Using DIIS extrapolation, IDIIS=  1040.
 Two-electron integral symmetry not used.
 IVT=     2138497 IEndB=     2138497 NGot= 14763950080 MDV= 14762516294
 LenX= 14762516294 LenY= 14761828224
 Requested convergence on RMS density matrix=1.00D-08 within 128 cycles.
 Requested convergence on MAX density matrix=1.00D-06.
 Requested convergence on             energy=1.00D-06.
 No special actions if energy rises.
 Fock matrices will be formed incrementally for  20 cycles.
 Integral accuracy reduced to 1.0D-05 until final iterations.

 Cycle   1  Pass 0  IDiag  1:
 FoFJK:  IHMeth= 1 ICntrl=       0 DoSepK=F KAlg= 0 I1Cent=   0 FoldK=F
 IRaf= 820000000 NMat=   1 IRICut=       1 DoRegI=T DoRafI=F ISym2E= 0.
 FoFCou: FMM=T IPFlag=           0 FMFlag=      100000 FMFlg1=        2001
         NFxFlg=           0 DoJE=F BraDBF=F KetDBF=F FulRan=T
         wScrn=  0.000000 ICntrl=       0 IOpCl=  0 I1Cent=           0 NGrid=           0
         NMat0=    1 NMatS0=      1 NMatT0=    0 NMatD0=    1 NMtDS0=    0 NMtDT0=    0
 Symmetry not used in FoFCou.
 FMM levels:  10  Number of levels for PrismC:   9
 E= -2573.87894297984    
 DIIS: error= 1.17D-02 at cycle   1 NSaved=   1.
 NSaved= 1 IEnMin= 1 EnMin= -2573.87894297984     IErMin= 1 ErrMin= 1.17D-02
 ErrMax= 1.17D-02  0.00D+00 EMaxC= 1.00D-01 BMatC= 3.80D-02 BMatP= 3.80D-02
 IDIUse=3 WtCom= 8.83D-01 WtEn= 1.17D-01
 Coeff-Com:  0.100D+01
 Coeff-En:   0.100D+01
 Coeff:      0.100D+01
 Gap=     0.183 Goal=   None    Shift=    0.000
 GapD=    0.183 DampG=1.000 DampE=0.500 DampFc=0.5000 IDamp=-1.
 Damping current iteration by 5.00D-01
 RMSDP=4.88D-04 MaxDP=6.77D-02              OVMax= 1.50D-01

 Cycle   2  Pass 0  IDiag  1:
 RMSU=  2.42D-04    CP:  9.95D-01
 E= -2573.89532449817     Delta-E=       -0.016381518324 Rises=F Damp=T
 DIIS: error= 6.82D-03 at cycle   2 NSaved=   2.
 NSaved= 2 IEnMin= 2 EnMin= -2573.89532449817     IErMin= 2 ErrMin= 6.82D-03
 ErrMax= 6.82D-03  0.00D+00 EMaxC= 1.00D-01 BMatC= 8.94D-03 BMatP= 3.80D-02
 IDIUse=3 WtCom= 9.32D-01 WtEn= 6.82D-02
 Coeff-Com: -0.585D+00 0.158D+01
 Coeff-En:   0.000D+00 0.100D+01
 Coeff:     -0.545D+00 0.154D+01
 Gap=     0.189 Goal=   None    Shift=    0.000
 RMSDP=1.67D-04 MaxDP=3.90D-02 DE=-1.64D-02 OVMax= 6.54D-02

 Cycle   3  Pass 0  IDiag  1:
 RMSU=  1.44D-04    CP:  9.94D-01  1.35D+00
 E= -2573.90851799969     Delta-E=       -0.013193501518 Rises=F Damp=F
 DIIS: error= 3.14D-03 at cycle   3 NSaved=   3.
 NSaved= 3 IEnMin= 3 EnMin= -2573.90851799969     IErMin= 3 ErrMin= 3.14D-03
 ErrMax= 3.14D-03  0.00D+00 EMaxC= 1.00D-01 BMatC= 2.33D-03 BMatP= 8.94D-03
 IDIUse=3 WtCom= 9.69D-01 WtEn= 3.14D-02
 Coeff-Com: -0.304D+00 0.717D+00 0.587D+00
 Coeff-En:   0.000D+00 0.000D+00 0.100D+01
 Coeff:     -0.294D+00 0.694D+00 0.600D+00
 Gap=     0.172 Goal=   None    Shift=    0.000
 RMSDP=7.04D-05 MaxDP=1.69D-02 DE=-1.32D-02 OVMax= 2.09D-02

 Cycle   4  Pass 0  IDiag  1:
 RMSU=  8.31D-06    CP:  9.93D-01  1.54D+00  6.31D-01
 E= -2573.91102804212     Delta-E=       -0.002510042433 Rises=F Damp=F
 DIIS: error= 9.81D-05 at cycle   4 NSaved=   4.
 NSaved= 4 IEnMin= 4 EnMin= -2573.91102804212     IErMin= 4 ErrMin= 9.81D-05
 ErrMax= 9.81D-05  0.00D+00 EMaxC= 1.00D-01 BMatC= 1.53D-06 BMatP= 2.33D-03
 IDIUse=1 WtCom= 1.00D+00 WtEn= 0.00D+00
 Coeff-Com: -0.145D-01 0.274D-01 0.402D-01 0.947D+00
 Coeff:     -0.145D-01 0.274D-01 0.402D-01 0.947D+00
 Gap=     0.174 Goal=   None    Shift=    0.000
 RMSDP=2.30D-06 MaxDP=4.37D-04 DE=-2.51D-03 OVMax= 7.11D-04

 Initial convergence to 1.0D-05 achieved.  Increase integral accuracy.
 Cycle   5  Pass 1  IDiag  1:
 E= -2573.91169086981     Delta-E=       -0.000662827691 Rises=F Damp=F
 DIIS: error= 8.57D-06 at cycle   1 NSaved=   1.
 NSaved= 1 IEnMin= 1 EnMin= -2573.91169086981     IErMin= 1 ErrMin= 8.57D-06
 ErrMax= 8.57D-06  0.00D+00 EMaxC= 1.00D-01 BMatC= 5.44D-08 BMatP= 5.44D-08
 IDIUse=1 WtCom= 1.00D+00 WtEn= 0.00D+00
 Coeff-Com:  0.100D+01
 Coeff:      0.100D+01
 Gap=     0.174 Goal=   None    Shift=    0.000
 RMSDP=2.30D-06 MaxDP=4.37D-04 DE=-6.63D-04 OVMax= 2.48D-04

 Cycle   6  Pass 1  IDiag  1:
 RMSU=  1.25D-06    CP:  1.00D+00
 E= -2573.91169098235     Delta-E=       -0.000000112539 Rises=F Damp=F
 DIIS: error= 4.51D-06 at cycle   2 NSaved=   2.
 NSaved= 2 IEnMin= 2 EnMin= -2573.91169098235     IErMin= 2 ErrMin= 4.51D-06
 ErrMax= 4.51D-06  0.00D+00 EMaxC= 1.00D-01 BMatC= 1.18D-08 BMatP= 5.44D-08
 IDIUse=1 WtCom= 1.00D+00 WtEn= 0.00D+00
 Coeff-Com:  0.257D+00 0.743D+00
 Coeff:      0.257D+00 0.743D+00
 Gap=     0.174 Goal=   None    Shift=    0.000
 RMSDP=2.32D-07 MaxDP=4.44D-05 DE=-1.13D-07 OVMax= 7.88D-05

 Cycle   7  Pass 1  IDiag  1:
 RMSU=  2.32D-07    CP:  1.00D+00  9.95D-01
 E= -2573.91169099644     Delta-E=       -0.000000014093 Rises=F Damp=F
 DIIS: error= 2.14D-06 at cycle   3 NSaved=   3.
 NSaved= 3 IEnMin= 3 EnMin= -2573.91169099644     IErMin= 3 ErrMin= 2.14D-06
 ErrMax= 2.14D-06  0.00D+00 EMaxC= 1.00D-01 BMatC= 1.93D-09 BMatP= 1.18D-08
 IDIUse=1 WtCom= 1.00D+00 WtEn= 0.00D+00
 Coeff-Com: -0.284D-01 0.268D+00 0.760D+00
 Coeff:     -0.284D-01 0.268D+00 0.760D+00
 Gap=     0.174 Goal=   None    Shift=    0.000
 RMSDP=7.71D-08 MaxDP=1.52D-05 DE=-1.41D-08 OVMax= 2.16D-05

 Cycle   8  Pass 1  IDiag  1:
 RMSU=  3.14D-08    CP:  1.00D+00  1.04D+00  8.01D-01
 E= -2573.91169099887     Delta-E=       -0.000000002426 Rises=F Damp=F
 DIIS: error= 3.54D-07 at cycle   4 NSaved=   4.
 NSaved= 4 IEnMin= 4 EnMin= -2573.91169099887     IErMin= 4 ErrMin= 3.54D-07
 ErrMax= 3.54D-07  0.00D+00 EMaxC= 1.00D-01 BMatC= 3.68D-11 BMatP= 1.93D-09
 IDIUse=1 WtCom= 1.00D+00 WtEn= 0.00D+00
 Coeff-Com: -0.141D-01 0.841D-01 0.262D+00 0.668D+00
 Coeff:     -0.141D-01 0.841D-01 0.262D+00 0.668D+00
 Gap=     0.174 Goal=   None    Shift=    0.000
 RMSDP=1.08D-08 MaxDP=1.82D-06 DE=-2.43D-09 OVMax= 3.39D-06

 Cycle   9  Pass 1  IDiag  1:
 RMSU=  9.07D-09    CP:  1.00D+00  1.04D+00  8.14D-01  8.77D-01
 E= -2573.91169099889     Delta-E=       -0.000000000024 Rises=F Damp=F
 DIIS: error= 5.20D-08 at cycle   5 NSaved=   5.
 NSaved= 5 IEnMin= 5 EnMin= -2573.91169099889     IErMin= 5 ErrMin= 5.20D-08
 ErrMax= 5.20D-08  0.00D+00 EMaxC= 1.00D-01 BMatC= 1.12D-12 BMatP= 3.68D-11
 IDIUse=1 WtCom= 1.00D+00 WtEn= 0.00D+00
 Coeff-Com:  0.844D-03-0.125D-01-0.367D-01 0.926D-01 0.956D+00
 Coeff:      0.844D-03-0.125D-01-0.367D-01 0.926D-01 0.956D+00
 Gap=     0.174 Goal=   None    Shift=    0.000
 RMSDP=2.59D-09 MaxDP=4.38D-07 DE=-2.36D-11 OVMax= 1.07D-06

 SCF Done:  E(RPBE1PBE) =  -2573.91169100     A.U. after    9 cycles
            NFock=  9  Conv=0.26D-08     -V/T= 2.0013
 KE= 2.570512151586D+03 PE=-6.162969284613D+03 EE= 1.018545442029D+03
 Leave Link  502 at Thu May  3 03:47:51 2018, MaxMem= 14763950080 cpu:      6442.1
 (Enter /cm/shared/gaussian/g09.e01/intel64-sandybridge/g09/l601.exe)
 Copying SCF densities to generalized density rwf, IOpCl= 0 IROHF=0.

 **********************************************************************

            Population analysis using the SCF density.

 **********************************************************************

 Alpha  occ. eigenvalues -- -482.98808 -62.38953 -56.16211 -56.16204 -56.16202
 Alpha  occ. eigenvalues --   -8.49083  -6.29401  -6.29381  -6.29376  -2.37665
 Alpha  occ. eigenvalues --   -2.37660  -2.37656  -2.37640  -2.37640  -0.47136
 Alpha  occ. eigenvalues --   -0.03011  -0.03006  -0.02986
 Alpha virt. eigenvalues --    0.14445   0.15810   0.16448   0.17108   0.18297
 Alpha virt. eigenvalues --    0.18685   0.19057   0.19686   0.20329   0.21439
 Alpha virt. eigenvalues --    0.21965   0.22224   0.22812   0.23218   0.23930
 Alpha virt. eigenvalues --    0.24302   0.25312   0.25445   0.26309   0.27089
 Alpha virt. eigenvalues --    0.27332   0.27970   0.28276   0.28525   0.28645
 Alpha virt. eigenvalues --    0.29262   0.29592   0.30364   0.31151   0.32199
 Alpha virt. eigenvalues --    0.32488   0.33387   0.33687   0.34289   0.34587
 Alpha virt. eigenvalues --    0.35232   0.35706   0.36398   0.37266   0.37379
 Alpha virt. eigenvalues --    0.37667   0.38353   0.38598   0.38990   0.39537
 Alpha virt. eigenvalues --    0.39780   0.40385   0.40565   0.41130   0.41662
 Alpha virt. eigenvalues --    0.42212   0.42641   0.43232   0.43853   0.44553
 Alpha virt. eigenvalues --    0.45204   0.45595   0.45963   0.47013   0.47420
 Alpha virt. eigenvalues --    0.48049   0.49132   0.49700   0.52467   0.61276
 Alpha virt. eigenvalues --    0.61986   0.62390   0.63293   0.63937   0.64845
 Alpha virt. eigenvalues --    0.65167   0.65226   0.66062   0.66768   0.66924
 Alpha virt. eigenvalues --    0.67482   0.67883   0.68145   0.69450   0.69828
 Alpha virt. eigenvalues --    0.70312   0.70653   0.70967   0.71169   0.71984
 Alpha virt. eigenvalues --    0.72394   0.72866   0.72925   0.73179   0.73484
 Alpha virt. eigenvalues --    0.74028   0.74164   0.74742   0.74923   0.75246
 Alpha virt. eigenvalues --    0.75695   0.75985   0.76419   0.76934   0.77267
 Alpha virt. eigenvalues --    0.77641   0.77869   0.78348   0.78523   0.78742
 Alpha virt. eigenvalues --    0.79009   0.79988   0.80038   0.80183   0.80380
 Alpha virt. eigenvalues --    0.80854   0.81079   0.81335   0.81856   0.82331
 Alpha virt. eigenvalues --    0.82473   0.82755   0.82952   0.83262   0.83515
 Alpha virt. eigenvalues --    0.83961   0.84054   0.84484   0.85526   0.85886
 Alpha virt. eigenvalues --    0.86368   0.86434   0.86717   0.87061   0.87405
 Alpha virt. eigenvalues --    0.87792   0.88643   0.88988   0.89196   0.89958
 Alpha virt. eigenvalues --    0.90284   0.90379   0.91135   0.91223   0.91440
 Alpha virt. eigenvalues --    0.92127   0.92758   0.92827   0.93142   0.93829
 Alpha virt. eigenvalues --    0.93950   0.94286   0.95046   0.95139   0.95574
 Alpha virt. eigenvalues --    0.95907   0.96383   0.96903   0.97481   0.97730
 Alpha virt. eigenvalues --    0.98000   0.98353   0.99007   0.99181   0.99400
 Alpha virt. eigenvalues --    0.99613   1.00353   1.00477   1.01291   1.01977
 Alpha virt. eigenvalues --    1.02267   1.02918   1.03280   1.03764   1.04390
 Alpha virt. eigenvalues --    1.04990   1.05147   1.05926   1.06044   1.06919
 Alpha virt. eigenvalues --    1.07420   1.07639   1.08314   1.08847   1.09685
 Alpha virt. eigenvalues --    1.10108   1.10315   1.10931   1.11252   1.12248
 Alpha virt. eigenvalues --    1.12759   1.13586   1.14499   1.14701   1.15131
 Alpha virt. eigenvalues --    1.15950   1.16621   1.17460   1.19256   1.19751
 Alpha virt. eigenvalues --    1.20159   1.22680   1.23809   1.25185   1.28530
 Alpha virt. eigenvalues --    1.30302   1.64133   1.64609   1.65363   1.66252
 Alpha virt. eigenvalues --    1.68294   1.68904   1.69717   1.69967   1.70409
 Alpha virt. eigenvalues --    1.70637   1.70854   1.71226   1.71869   1.72185
 Alpha virt. eigenvalues --    1.72447   1.72691   1.73158   1.73321   1.73691
 Alpha virt. eigenvalues --    1.74125   1.74406   1.74600   1.75040   1.75153
 Alpha virt. eigenvalues --    1.75506   1.75630   1.75847   1.76105   1.76464
 Alpha virt. eigenvalues --    1.76851   1.76929   1.77156   1.77357   1.77895
 Alpha virt. eigenvalues --    1.78326   1.78815   1.78968   1.79144   1.79444
 Alpha virt. eigenvalues --    1.80718   1.81083   1.81440   1.82215   1.82901
 Alpha virt. eigenvalues --    1.83244   1.83474   1.83862   1.84029   1.84339
 Alpha virt. eigenvalues --    1.84950   1.85596   1.85671   1.87404   1.87775
 Alpha virt. eigenvalues --    1.88233   1.89237   1.89406   1.89506   1.91667
 Alpha virt. eigenvalues --    1.92617   1.93477   1.93812   1.95182   1.95873
 Alpha virt. eigenvalues --    1.96484   1.98204   1.98970   1.99416   1.99984
 Alpha virt. eigenvalues --    2.00578   2.00773   2.01094   2.01386   2.01644
 Alpha virt. eigenvalues --    2.02025   2.02113   2.02335   2.02411   2.02564
 Alpha virt. eigenvalues --    2.02885   2.03022   2.03221   2.03340   2.03655
 Alpha virt. eigenvalues --    2.03783   2.03952   2.04259   2.04379   2.04581
 Alpha virt. eigenvalues --    2.04679   2.04887   2.05704   2.06085   2.06176
 Alpha virt. eigenvalues --    2.06634   2.06710   2.07025   2.07258   2.07741
 Alpha virt. eigenvalues --    2.08185   2.08374   2.08815   2.09061   2.10003
 Alpha virt. eigenvalues --    2.10175   2.10496   2.10765   2.10959   2.11733
 Alpha virt. eigenvalues --    2.12041   2.12242   2.13015   2.13328   2.13527
 Alpha virt. eigenvalues --    2.13969   2.14442   2.14811   2.15140   2.15603
 Alpha virt. eigenvalues --    2.15887   2.16048   2.16348   2.16704   2.17049
 Alpha virt. eigenvalues --    2.17584   2.17823   2.18142   2.18462   2.19715
 Alpha virt. eigenvalues --    2.19875   2.20239   2.21165   2.21728   2.22141
 Alpha virt. eigenvalues --    2.22899   2.23434   2.23544   2.24124   2.24689
 Alpha virt. eigenvalues --    2.24836   2.25510   2.25690   2.25708   2.27217
 Alpha virt. eigenvalues --    2.27753   2.28599   2.29368   2.30067   2.31006
 Alpha virt. eigenvalues --    2.31997   2.33578   2.33840   2.34073   2.34902
 Alpha virt. eigenvalues --    2.35409   2.37371   2.37712   2.38501   2.39083
 Alpha virt. eigenvalues --    2.39928   2.41420   2.41913   2.42317   2.42500
 Alpha virt. eigenvalues --    2.43340   2.43639   2.44335   2.44502   2.45162
 Alpha virt. eigenvalues --    2.45654   2.45901   2.46119   2.46887   2.47258
 Alpha virt. eigenvalues --    2.47648   2.47914   2.47948   2.48538   2.49612
 Alpha virt. eigenvalues --    2.49749   2.49856   2.50430   2.51734   2.52516
 Alpha virt. eigenvalues --    2.53101   2.53834   2.54456   2.54714   2.55833
 Alpha virt. eigenvalues --    2.56640   2.59161   2.63701   2.67649   2.68527
 Alpha virt. eigenvalues --    2.69372   2.69932   2.70319   2.71289   2.71572
 Alpha virt. eigenvalues --    2.71786   2.72069   2.72387   2.72488   2.72720
 Alpha virt. eigenvalues --    2.73396   2.73714   2.74779   2.74915   2.74984
 Alpha virt. eigenvalues --    2.75643   2.77023   2.77543   2.78348   2.79252
 Alpha virt. eigenvalues --    2.80009   2.80364   2.82322   2.82810   2.83594
 Alpha virt. eigenvalues --    2.84345   2.85003   2.85256   2.86271   2.86776
 Alpha virt. eigenvalues --    2.87125   2.87212   2.87659   2.87773   2.88465
 Alpha virt. eigenvalues --    2.88945   2.89238   2.89768   2.90126   2.91059
 Alpha virt. eigenvalues --    2.91243   2.91863   2.92737   2.93210   2.93964
 Alpha virt. eigenvalues --    2.94119   2.94753   2.95729   2.96422   2.97026
 Alpha virt. eigenvalues --    2.97872   2.98845   2.99410   2.99987   3.01456
 Alpha virt. eigenvalues --    3.03592   3.04746   3.06938   3.07404   3.10857
 Alpha virt. eigenvalues --    3.12392   3.14751   3.15362   3.15872   3.17316
 Alpha virt. eigenvalues --    3.17588   3.18951   3.19263   3.19998   3.21987
 Alpha virt. eigenvalues --    3.22481   3.24147   3.24340   3.25637   3.27194
 Alpha virt. eigenvalues --    3.28230   3.30584   3.32072   3.32830   3.37253
 Alpha virt. eigenvalues --    3.39072   3.40158   3.40240   3.44360   3.46102
 Alpha virt. eigenvalues --    3.47609   3.49223   3.50396   3.54587   3.56914
 Alpha virt. eigenvalues --    3.57746   3.63111   3.63578   3.66543   4.51953
 Alpha virt. eigenvalues --    4.52252   4.52312   4.52665   4.52691   4.52781
 Alpha virt. eigenvalues --    4.52901   4.52926   4.53096   4.53250   4.53531
 Alpha virt. eigenvalues --    4.53572   4.53634   4.53976   4.54031   4.54085
 Alpha virt. eigenvalues --    4.54130   4.54160   4.54202   4.54474   4.54627
 Alpha virt. eigenvalues --    4.54741   4.54841   4.54935   4.55529   4.55800
 Alpha virt. eigenvalues --    4.55827   4.57098   4.57115   4.57407   4.57879
 Alpha virt. eigenvalues --    4.59177   4.60009   4.60189   4.60458   4.60496
 Alpha virt. eigenvalues --    4.60598   4.60704   4.60888   4.60897   4.60924
 Alpha virt. eigenvalues --    4.61079   4.61134   4.61544   4.61584   4.61640
 Alpha virt. eigenvalues --    4.61833   4.62064   4.62153   4.62363   4.62431
 Alpha virt. eigenvalues --    4.62641   4.62651   4.62835   4.63021   4.63604
 Alpha virt. eigenvalues --    4.63829   4.63862   4.63941   4.65057   4.65403
 Alpha virt. eigenvalues --    4.66342   4.68182   4.70738   4.73684   4.75636
 Alpha virt. eigenvalues --    4.75752   4.75819   4.75937   4.76828   4.77236
 Alpha virt. eigenvalues --    4.77333   4.77502   4.77788   4.77982   4.78423
 Alpha virt. eigenvalues --    4.78568   4.79225   4.79638   4.79741   4.80312
 Alpha virt. eigenvalues --    4.81102   4.81594   4.81742   4.82771   4.82833
 Alpha virt. eigenvalues --    4.83205   4.83603   4.84095   4.84742   4.84926
 Alpha virt. eigenvalues --    4.85094   4.85470   4.85598   4.85919   4.86152
 Alpha virt. eigenvalues --    4.86371   4.86985   4.87675   4.87875   4.88058
 Alpha virt. eigenvalues --    4.88252   4.88601   4.89183   4.89688   4.89900
 Alpha virt. eigenvalues --    4.89951   4.90194   4.90508   4.90586   4.91144
 Alpha virt. eigenvalues --    4.91373   4.92134   4.94261   4.95068   4.95255
 Alpha virt. eigenvalues --    4.95392   4.95781   4.97853   4.98489   4.99342
 Alpha virt. eigenvalues --    5.00186   5.00813   5.01096   5.02534   5.03088
 Alpha virt. eigenvalues --    5.03912   5.05120   5.05735   5.06194   5.06238
 Alpha virt. eigenvalues --    5.06988   5.07020   5.07934   5.08421   5.09346
[...]
   Z20       35.84810  -0.01219   0.00000  -0.02415  -0.02582  35.82228
   X21       43.29363   0.00455   0.00000   0.02099   0.01796  43.31159
   Y21       34.54419   0.01068   0.00000  -0.01197  -0.01273  34.53147
   Z21       36.26384   0.00267   0.00000  -0.00439  -0.00601  36.25784
   X22       45.69358   0.00973   0.00000   0.00243  -0.00100  45.69258
   Y22       32.99462   0.00727   0.00000   0.00954   0.00821  33.00283
   Z22       36.03708   0.01022   0.00000   0.03762   0.03556  36.07263
   X23       42.06530  -0.01140   0.00000  -0.01722  -0.02032  42.04499
   Y23       38.41813   0.00681   0.00000   0.03926   0.03861  38.45674
   Z23       31.63402  -0.01759   0.00000  -0.00028  -0.00178  31.63224
   X24       42.78340   0.00811   0.00000   0.00734   0.00464  42.78803
   Y24       38.60710  -0.00256   0.00000  -0.01801  -0.01876  38.58834
   Z24       33.27808   0.02469   0.00000   0.03275   0.03109  33.30917
   X25       43.18024   0.00153   0.00000   0.01074   0.00762  43.18787
   Y25       39.36300   0.00091   0.00000   0.00522   0.00427  39.36726
   Z25       30.55687  -0.00174   0.00000  -0.00219  -0.00398  30.55290
   X26       35.69693  -0.00961   0.00000  -0.01300  -0.01619  35.68074
   Y26       29.97106  -0.00077   0.00000   0.00512   0.00632  29.97738
   Z26       40.44014   0.01084   0.00000   0.00242   0.00264  40.44278
   X27       36.24495   0.00733   0.00000   0.02045   0.01739  36.26234
   Y27       31.40725   0.00680   0.00000   0.00301   0.00404  31.41129
   Z27       39.49528  -0.00832   0.00000  -0.01131  -0.01128  39.48400
   X28       36.18826   0.00426   0.00000   0.01135   0.00760  36.19586
   Y28       28.53486  -0.00294   0.00000   0.00318   0.00422  28.53909
   Z28       39.45748  -0.00495   0.00000  -0.00231  -0.00215  39.45534
   X29       40.34565   0.00252   0.00000  -0.00081  -0.00534  40.34031
   Y29       33.54264  -0.01083   0.00000  -0.01638  -0.01668  33.52596
   Z29       30.40569  -0.01684   0.00000  -0.02851  -0.02945  30.37625
   X30       40.40234   0.00324   0.00000   0.02212   0.01816  40.42050
   Y30       35.11111   0.00714   0.00000  -0.00529  -0.00557  35.10554
   Z30       31.29386   0.00365   0.00000  -0.01232  -0.01333  31.28053
   X31       39.17402  -0.00381   0.00000   0.00081  -0.00374  39.17028
   Y31       32.52219   0.00088   0.00000   0.00970   0.00972  32.53190
   Z31       31.35056   0.00768   0.00000   0.01854   0.01790  31.36846
   X32       31.57732  -0.02348   0.00000  -0.03823  -0.03857  31.53875
   Y32       42.99127  -0.01312   0.00000  -0.00681  -0.00467  42.98660
   Z32       39.45748   0.00834   0.00000   0.00316   0.00376  39.46124
   X33       33.29697   0.01608   0.00000   0.00062   0.00043  33.29740
   Y33       43.57708   0.00316   0.00000  -0.01973  -0.01800  43.55908
   Z33       39.53307  -0.00574   0.00000  -0.02064  -0.02045  39.51262
   X34       30.84033  -0.00138   0.00000  -0.00210  -0.00252  30.83781
   Y34       43.91724   0.01162   0.00000   0.02849   0.03074  43.94797
   Z34       38.09688  -0.00843   0.00000  -0.01045  -0.00975  38.08713
   X35       43.50150   0.01237   0.00000   0.03044   0.02982  43.53131
   Y35       43.01017  -0.00275   0.00000   0.01197   0.01123  43.02140
   Z35       38.13467   0.00467   0.00000  -0.01332  -0.01532  38.11935
   X36       42.53774  -0.01620   0.00000  -0.04521  -0.04597  42.49176
   Y36       43.65267   0.00705   0.00000   0.01396   0.01341  43.66609
   Z36       36.75517  -0.00652   0.00000   0.01329   0.01149  36.76666
   X37       43.87944   0.00013   0.00000  -0.00076  -0.00082  43.87862
   Y37       44.46526   0.00131   0.00000   0.00247   0.00170  44.46695
   Z37       39.15513   0.00379   0.00000   0.01563   0.01349  39.16862
   X38       32.55998  -0.01757   0.00000  -0.01641  -0.02044  32.53954
   Y38       35.41347  -0.01319   0.00000  -0.02095  -0.01940  35.39407
   Z38       30.70805  -0.00129   0.00000  -0.00779  -0.00711  30.70094
   X39       33.61823   0.01035   0.00000   0.00796   0.00437  33.62260
   Y39       36.79297   0.00627   0.00000  -0.01389  -0.01257  36.78040
   Z39       31.19938   0.00267   0.00000   0.00350   0.00388  31.20326
   X40       33.50484   0.00723   0.00000   0.02041   0.01592  33.52076
   Y40       34.58199   0.00013   0.00000  -0.00053   0.00074  34.58273
   Z40       29.40414  -0.00255   0.00000  -0.00225  -0.00175  29.40239
   X41       41.97082  -0.00826   0.00000  -0.02875  -0.03182  41.93899
   Y41       30.51908  -0.00182   0.00000  -0.01639  -0.01666  30.50242
   Z41       40.40234   0.01177   0.00000   0.01526   0.01410  40.41644
   X42       41.57397   0.00525   0.00000   0.02762   0.02427  41.59825
   Y42       30.93482   0.00216   0.00000   0.01074   0.01048  30.94530
   Z42       38.68269  -0.00769   0.00000  -0.00344  -0.00454  38.67815
   X43       43.04796  -0.00041   0.00000  -0.00531  -0.00876  43.03920
   Y43       29.06399  -0.00218   0.00000  -0.00164  -0.00218  29.06181
   Z43       40.27006  -0.00505   0.00000  -0.01219  -0.01353  40.25654
   X44       42.25428   0.00665   0.00000   0.00548   0.00399  42.25827
   Y44       34.03397   0.02161   0.00000   0.03919   0.03899  34.07295
   Z44       43.86054   0.01651   0.00000   0.02874   0.02737  43.88791
   X45       41.57397   0.00242   0.00000   0.04313   0.04109  41.61507
   Y45       32.71116  -0.01166   0.00000   0.00809   0.00799  32.71914
   Z45       42.82119  -0.01390   0.00000  -0.01411  -0.01528  42.80591
   X46       40.93147  -0.00410   0.00000  -0.02105  -0.02221  40.90926
   Y46       34.39302   0.00090   0.00000   0.00363   0.00379  34.39681
   Z46       45.05107   0.00141   0.00000   0.00844   0.00735  45.05842
   X47       28.87502  -0.01550   0.00000  -0.03797  -0.03995  28.83506
   Y47       35.75362  -0.00916   0.00000  -0.00526  -0.00247  35.75115
   Z47       39.75984   0.00079   0.00000   0.00091   0.00238  39.76222
   X48       29.59311   0.00380   0.00000   0.00526   0.00372  29.59683
   Y48       36.20715  -0.00484   0.00000  -0.03283  -0.03015  36.17700
   Z48       41.36611   0.00708   0.00000   0.00377   0.00505  41.37116
   X49       29.51752   0.00866   0.00000   0.02411   0.02217  29.53969
   Y49       37.00084   0.00126   0.00000  -0.02868  -0.02611  36.97473
   Z49       38.62600  -0.01004   0.00000  -0.01824  -0.01697  38.60903
   X50       34.33632  -0.00860   0.00000  -0.00630  -0.00862  34.32771
   Y50       42.93458   0.01337   0.00000   0.02497   0.02609  42.96067
   Z50       30.36790   0.00110   0.00000   0.00308   0.00307  30.37097
   X51       35.71582   0.00398   0.00000   0.00727   0.00491  35.72073
   Y51       43.63378  -0.00151   0.00000  -0.00575  -0.00500  43.62878
   Z51       29.42304  -0.00323   0.00000  -0.00879  -0.00913  29.41391
   X52       34.86545   0.00342   0.00000   0.00066  -0.00198  34.86346
   Y52       41.21493  -0.00434   0.00000   0.01310   0.01410  41.22903
   Z52       30.70805   0.00345   0.00000   0.01277   0.01272  30.72077
   X53       40.13778   0.00053   0.00000   0.01878   0.01792  40.15570
   Y53       45.25894   0.00110   0.00000   0.00912   0.00904  45.26798
   Z53       34.60089   0.01239   0.00000   0.01184   0.01048  34.61136
   X54       41.38500   0.00071   0.00000  -0.01789  -0.01915  41.36585
   Y54       44.69202  -0.00351   0.00000  -0.00894  -0.00936  44.68267
   Z54       33.41036  -0.01553   0.00000  -0.04018  -0.04178  33.36858
   X55       39.06064  -0.00331   0.00000  -0.00771  -0.00852  39.05212
   Y55       46.35498  -0.00001   0.00000  -0.01074  -0.01060  46.34438
   Z55       33.63713  -0.00310   0.00000   0.00417   0.00300  33.64013
   X56       35.24339   0.00733   0.00000   0.01496   0.01614  35.25953
   Y56       45.06997   0.01001   0.00000   0.04218   0.04363  45.11360
   Z56       44.16290   0.01869   0.00000   0.01434   0.01404  44.17694
   X57       33.58043  -0.01541   0.00000  -0.02841  -0.02719  33.55324
   Y57       45.63689  -0.00299   0.00000  -0.02981  -0.02797  45.60891
   Z57       43.78495   0.00041   0.00000   0.01248   0.01253  43.79748
   X58       35.94259   0.00686   0.00000   0.00457   0.00528  35.94787
   Y58       44.63533  -0.01064   0.00000  -0.03325  -0.03203  44.60330
   Z58       42.55663  -0.01361   0.00000   0.00008  -0.00034  42.55629
   X59       28.61045  -0.01383   0.00000  -0.02789  -0.03017  28.58028
   Y59       40.49683  -0.00587   0.00000  -0.00189   0.00070  40.49753
   Z59       33.20249  -0.00872   0.00000  -0.00400  -0.00267  33.19981
   X60       29.93326   0.01040   0.00000   0.01372   0.01153  29.94479
   Y60       39.91102  -0.00865   0.00000  -0.02535  -0.02305  39.88797
   Z60       34.29853  -0.00104   0.00000  -0.03500  -0.03394  34.26459
   X61       28.47817   0.00143   0.00000   0.01134   0.00955  28.48772
   Y61       42.25428   0.01427   0.00000   0.01901   0.02163  42.27591
   Z61       33.54264   0.00098   0.00000  -0.00479  -0.00351  33.53913
   X62       45.48571   0.00009   0.00000  -0.01744  -0.01761  45.46810
   Y62       39.91102   0.00530   0.00000  -0.00749  -0.00846  39.90255
   Z62       43.63378  -0.00471   0.00000   0.00213  -0.00017  43.63361
   X63       45.59909   0.00118   0.00000   0.00274   0.00308  45.60217
   Y63       40.45904   0.00118   0.00000  -0.00275  -0.00368  40.45535
   Z63       45.35343   0.00565   0.00000   0.00802   0.00568  45.35910
   X64       44.69202  -0.00861   0.00000  -0.01901  -0.01955  44.67248
   Y64       38.28585  -0.01516   0.00000  -0.02707  -0.02785  38.25800
   Z64       43.72826   0.00028   0.00000   0.00288   0.00082  43.72909
   X65       31.21828   0.00258   0.00000   0.03968   0.03893  31.25720
   Y65       36.88745  -0.01514   0.00000  -0.00931  -0.00691  36.88054
   Z65       44.25739  -0.01553   0.00000  -0.02664  -0.02574  44.23164
   X66       31.08599  -0.01199   0.00000  -0.05217  -0.05254  31.03345
   Y66       38.66380   0.01918   0.00000   0.02104   0.02348  38.68728
   Z66       43.97393   0.00806   0.00000   0.04445   0.04532  44.01925
   X67       32.08755   0.00296   0.00000  -0.01570  -0.01613  32.07142
   Y67       36.73628  -0.00389   0.00000  -0.01778  -0.01551  36.72077
   Z67       45.84476   0.01827   0.00000   0.03038   0.03110  45.87586
   X68       36.98194   0.00476   0.00000  -0.01154  -0.01043  36.97151
   Y68       40.85588   0.00702   0.00000   0.00220   0.00342  40.85930
   Z68       48.49037   0.02521   0.00000   0.02264   0.02214  48.51251
   X69       36.69848  -0.00208   0.00000  -0.00792  -0.00642  36.69206
   Y69       42.65112  -0.00051   0.00000  -0.00053   0.00075  42.65187
   Z69       48.35809  -0.00480   0.00000  -0.01378  -0.01428  48.34381
   X70       36.47171  -0.00450   0.00000   0.00772   0.00833  36.48004
   Y70       40.21337  -0.00571   0.00000  -0.00140  -0.00013  40.21324
   Z70       46.88411  -0.02385   0.00000  -0.02277  -0.02313  46.86097
   X71       47.98015   0.02029   0.00000   0.02716   0.02619  48.00633
   Y71       40.51573  -0.00419   0.00000  -0.02434  -0.02608  40.48965
   Z71       39.30630  -0.02155   0.00000  -0.02812  -0.03099  39.27532
   X72       46.71403  -0.00122   0.00000   0.01518   0.01422  46.72825
   Y72       41.36611   0.00649   0.00000   0.02441   0.02293  41.38904
   Z72       38.32365   0.00319   0.00000   0.01696   0.01433  38.33798
   X73       47.14867  -0.00796   0.00000   0.01190   0.01118  47.15985
   Y73       40.08109   0.00184   0.00000   0.02424   0.02276  40.10385
   Z73       40.85588   0.01720   0.00000   0.01477   0.01211  40.86798
   X74       31.52063   0.00517   0.00000   0.01055   0.00633  31.52696
   Y74       31.18048  -0.01226   0.00000  -0.01488  -0.01294  31.16754
   Z74       34.37412   0.01145   0.00000   0.00809   0.00916  34.38328
   X75       31.42615   0.00245   0.00000   0.02192   0.01759  31.44374
   Y75       32.10645   0.01478   0.00000   0.03347   0.03537  32.14181
   Z75       32.82454  -0.00815   0.00000   0.00985   0.01089  32.83543
   X76       30.25452  -0.00074   0.00000   0.01171   0.00790  30.26242
   Y76       31.95527   0.00292   0.00000   0.00113   0.00340  31.95867
   Z76       35.43236   0.00306   0.00000   0.00888   0.01019  35.44255
   X77       29.51752   0.00286   0.00000   0.01090   0.01123  29.52875
   Y77       41.68736   0.00296   0.00000   0.01992   0.02271  41.71007
   Z77       43.95503   0.00612   0.00000   0.00256   0.00364  43.95867
   X78       29.80098   0.00510   0.00000   0.01452   0.01458  29.81556
   Y78       42.15979   0.00410   0.00000   0.01149   0.01414  42.17393
   Z78       42.21648  -0.00969   0.00000  -0.01316  -0.01217  42.20431
   X79       28.02464  -0.00527   0.00000  -0.01398  -0.01334  28.01129
   Y79       42.59443  -0.00107   0.00000  -0.01168  -0.00851  42.58591
   Z79       44.42746   0.00283   0.00000   0.00450   0.00587  44.43333
   X80       30.27341  -0.01716   0.00000  -0.02014  -0.02366  30.24976
   Y80       28.96950  -0.01541   0.00000  -0.01397  -0.01150  28.95800
   Z80       40.06219  -0.00174   0.00000  -0.01073  -0.00930  40.05289
   X81       31.65291   0.01395   0.00000   0.01936   0.01583  31.66874
   Y81       29.70649   0.00693   0.00000  -0.00391  -0.00181  29.70469
   Z81       39.17402  -0.00170   0.00000   0.01246   0.01355  39.18758
   X82       30.02775   0.00241   0.00000   0.00706   0.00411  30.03186
   Y82       30.06554   0.00825   0.00000   0.01003   0.01261  30.07815
   Z82       41.47949   0.00257   0.00000  -0.00921  -0.00778  41.47171
   X83       41.97082   0.00797   0.00000   0.01618   0.01140  41.98222
   Y83       27.28765  -0.01591   0.00000  -0.00512  -0.00557  27.28207
   Z83       36.01818   0.00665   0.00000   0.00604   0.00500  36.02318
   X84       42.49994   0.00246   0.00000   0.00442  -0.00009  42.49985
   Y84       28.93171   0.01671   0.00000   0.01906   0.01846  28.95017
   Z84       35.48906  -0.00705   0.00000  -0.01193  -0.01315  35.47591
   X85       40.17558  -0.00847   0.00000   0.00245  -0.00237  40.17321
   Y85       27.30654   0.00434   0.00000   0.01140   0.01136  27.31790
   Z85       35.82921  -0.00283   0.00000  -0.00553  -0.00618  35.82302
   X86       48.96280   0.00302   0.00000  -0.00391  -0.00652  48.95629
   Y86       35.05442  -0.02156   0.00000  -0.02059  -0.02262  35.03180
   Z86       37.64334   0.00615   0.00000   0.00149  -0.00137  37.64198
   X87       49.41634   0.00292   0.00000   0.00801   0.00506  49.42140
   Y87       35.16780   0.00518   0.00000   0.01548   0.01327  35.18108
   Z87       35.90480  -0.01101   0.00000  -0.00912  -0.01208  35.89271
   X88       48.18802  -0.00549   0.00000   0.00561   0.00346  48.19148
   Y88       36.64179   0.01692   0.00000   0.01392   0.01208  36.65387
   Z88       38.02129   0.00295   0.00000   0.00794   0.00518  38.02647
   X89       33.88279  -0.00604   0.00000  -0.01168  -0.01153  33.87126
   Y89       36.39613  -0.01911   0.00000  -0.01908  -0.01712  36.37901
   Z89       48.92501  -0.00874   0.00000  -0.00879  -0.00844  48.91657
   X90       33.95838   0.00894   0.00000   0.02387   0.02457  33.98295
   Y90       37.98350   0.01511   0.00000   0.01048   0.01246  37.99595
   Z90       49.77539   0.00162   0.00000  -0.01620  -0.01594  49.75945
   X91       35.47016  -0.00138   0.00000  -0.00593  -0.00600  35.46416
   Y91       36.28274   0.00521   0.00000   0.00888   0.01044  36.29318
   Z91       48.01794   0.00224   0.00000   0.00219   0.00220  48.02014
   X92       44.52195  -0.01436   0.00000  -0.00973  -0.01159  44.51036
   Y92       43.84165   0.00207   0.00000   0.00442   0.00318  43.84483
   Z92       31.50173   0.00107   0.00000   0.01505   0.01281  31.51454
   X93       45.18335   0.00923   0.00000   0.02726   0.02578  45.20913
   Y93       43.93613  -0.00189   0.00000  -0.00825  -0.00958  43.92656
   Z93       33.18359   0.00781   0.00000   0.01321   0.01081  33.19440
   X94       45.95814   0.00742   0.00000  -0.00136  -0.00353  45.95461
   Y94       43.50150  -0.00075   0.00000   0.00545   0.00383  43.50533
   Z94       30.46239  -0.00477   0.00000  -0.00149  -0.00404  30.45835
   X95       33.12690  -0.01071   0.00000  -0.01475  -0.01415  33.11275
   Y95       47.92345   0.00460   0.00000   0.01771   0.01944  47.94289
   Z95       38.43703  -0.00458   0.00000  -0.00105  -0.00100  38.43603
   X96       33.33477   0.00465   0.00000   0.01091   0.01180  33.34656
   Y96       47.52661   0.00013   0.00000   0.00346   0.00520  47.53181
   Z96       40.19447   0.00480   0.00000   0.00158   0.00160  40.19607
   X97       34.80876   0.00570   0.00000   0.00033   0.00088  34.80963
   Y97       48.24471  -0.00019   0.00000  -0.00462  -0.00332  48.24139
   Z97       37.85121  -0.00018   0.00000   0.00049   0.00016  37.85138
         Item               Value     Threshold  Converged?
 Maximum Force            0.034585     0.000450     NO 
 RMS     Force            0.009961     0.000300     NO 
 Maximum Displacement     0.052543     0.001800     NO 
 RMS     Displacement     0.017532     0.001200     NO 
 Predicted change in Energy=-2.795439D-02
 GradGradGradGradGradGradGradGradGradGradGradGradGradGradGradGradGradGrad

 Leave Link  103 at Thu May  3 03:53:35 2018, MaxMem= 14763950080 cpu:        64.6
 (Enter /cm/shared/gaussian/g09.e01/intel64-sandybridge/g09/l9999.exe)
 1\1\GINC-POPLE03\Force\RPBE1PBE\CC-pVDZ\Br1H64O32(1-)\M.PELUSO\03-May-
 2018\0\\#p PBE1PBE/cc-pvDZ force Counterpoise=2 noSymm\\forces on chlo
 ride comput - NWATER: 32\\-1,1\Br,20.,20.,20.\O,23.11,20.11,19.51\H,23
 .39,20.92,19.93\H,22.2,20.,19.79\O,16.91,20.42,19.33\H,16.61,21.19,19.
 81\H,17.85,20.38,19.52\O,19.32,23.04,20.8\H,20.,23.51,20.32\H,19.43,22
 .13,20.55\O,19.44,20.46,16.83\H,20.32,20.71,16.56\H,19.47,20.44,17.79\
 O,19.7,17.19,18.22\H,18.85,16.9,18.56\H,19.69,18.15,18.33\O,19.07,20.2
 7,23.28\H,19.67,20.3,22.54\H,18.23,20.,22.91\O,23.23,17.41,18.97\H,22.
 91,18.28,19.19\H,24.18,17.46,19.07\O,22.26,20.33,16.74\H,22.64,20.43,1
 7.61\H,22.85,20.83,16.17\O,18.89,15.86,21.4\H,19.18,16.62,20.9\H,19.15
 ,15.1,20.88\O,21.35,17.75,16.09\H,21.38,18.58,16.56\H,20.73,17.21,16.5
 9\O,16.71,22.75,20.88\H,17.62,23.06,20.92\H,16.32,23.24,20.16\O,23.02,
 22.76,20.18\H,22.51,23.1,19.45\H,23.22,23.53,20.72\O,17.23,18.74,16.25
 \H,17.79,19.47,16.51\H,17.73,18.3,15.56\O,22.21,16.15,21.38\H,22.,16.3
 7,20.47\H,22.78,15.38,21.31\O,22.36,18.01,23.21\H,22.,17.31,22.66\H,21
 .66,18.2,23.84\O,15.28,18.92,21.04\H,15.66,19.16,21.89\H,15.62,19.58,2
 0.44\O,18.17,22.72,16.07\H,18.9,23.09,15.57\H,18.45,21.81,16.25\O,21.2
 4,23.95,18.31\H,21.9,23.65,17.68\H,20.67,24.53,17.8\O,18.65,23.85,23.3
 7\H,17.77,24.15,23.17\H,19.02,23.62,22.52\O,15.14,21.43,17.57\H,15.84,
 21.12,18.15\H,15.07,22.36,17.75\O,24.07,21.12,23.09\H,24.13,21.41,24.\
 H,23.65,20.26,23.14\O,16.52,19.52,23.42\H,16.45,20.46,23.27\H,16.98,19
 .44,24.26\O,19.57,21.62,25.66\H,19.42,22.57,25.59\H,19.3,21.28,24.81\O
 ,25.39,21.44,20.8\H,24.72,21.89,20.28\H,24.95,21.21,21.62\O,16.68,16.5
 ,18.19\H,16.63,16.99,17.37\H,16.01,16.91,18.75\O,15.62,22.06,23.26\H,1
 5.77,22.31,22.34\H,14.83,22.54,23.51\O,16.02,15.33,21.2\H,16.75,15.72,
 20.73\H,15.89,15.91,21.95\O,22.21,14.44,19.06\H,22.49,15.31,18.78\H,21
 .26,14.45,18.96\O,25.91,18.55,19.92\H,26.15,18.61,19.\H,25.5,19.39,20.
 12\O,17.93,19.26,25.89\H,17.97,20.1,26.34\H,18.77,19.2,25.41\O,23.56,2
 3.2,16.67\H,23.91,23.25,17.56\H,24.32,23.02,16.12\O,17.53,25.36,20.34\
 H,17.64,25.15,21.27\H,18.42,25.53,20.03\\Version=ES64L-G09RevE.01\HF=-
 2443.2138657\RMSD=3.360e-09\RMSF=9.961e-03\Dipole=4.0545195,8.5117658,
 -0.8436589\Quadrupole=14.2250484,366.0015141,-380.2265625,-943.7208881
 ,-1331.4999202,-1159.4781722\PG=C01 [X(Br1H64O32)]\\@


  ON THE CHOICE OF THE CORRECT LANGUAGE -
 I SPEAK SPANISH TO GOD, ITALIAN TO WOMEN,
 FRENCH TO MEN, AND GERMAN TO MY HORSE.
          -- CHARLES V
 Job cpu time:       0 days 11 hours 10 minutes 52.9 seconds.
 File lengths (MBytes):  RWF=    482 Int=      0 D2E=      0 Chk=    160 Scr=      1
 Normal termination of Gaussian 09 at Thu May  3 03:53:36 2018.
