 Entering Gaussian System, Link 0=/cm/shared/gaussian/g09.e01/intel64-sandybridge/g09/g09
 Initial command:
 /cm/shared/gaussian/g09.e01/intel64-sandybridge/g09/l1.exe "/local/scratch/m.peluso/32_wat/Gau-65382.inp" -scrdir="/local/scratch/m.peluso/32_wat/"
 Entering Link 1 = /cm/shared/gaussian/g09.e01/intel64-sandybridge/g09/l1.exe PID=     65383.
  
 Copyright (c) 1988,1990,1992,1993,1995,1998,2003,2009,2015,
            Gaussian, Inc.  All Rights Reserved.
  
 This is part of the Gaussian(R) 09 program.  It is based on
 the Gaussian(R) 03 system (copyright 2003, Gaussian, Inc.),
 the Gaussian(R) 98 system (copyright 1998, Gaussian, Inc.),
 the Gaussian(R) 94 system (copyright 1995, Gaussian, Inc.),
 the Gaussian 92(TM) system (copyright 1992, Gaussian, Inc.),
 the Gaussian 90(TM) system (copyright 1990, Gaussian, Inc.),
 the Gaussian 88(TM) system (copyright 1988, Gaussian, Inc.),
 the Gaussian 86(TM) system (copyright 1986, Carnegie Mellon
 University), and the Gaussian 82(TM) system (copyright 1983,
 Carnegie Mellon University). Gaussian is a federally registered
 trademark of Gaussian, Inc.
  
 This software contains proprietary and confidential information,
 including trade secrets, belonging to Gaussian, Inc.
  
 This software is provided under written license and may be
 used, copied, transmitted, or stored only in accord with that
 written license.
  
 The following legend is applicable only to US Government
 contracts under FAR:
  
                    RESTRICTED RIGHTS LEGEND
  
 Use, reproduction and disclosure by the US Government is
 subject to restrictions as set forth in subparagraphs (a)
 and (c) of the Commercial Computer Software - Restricted
 Rights clause in FAR 52.227-19.
  
 Gaussian, Inc.
 340 Quinnipiac St., Bldg. 40, Wallingford CT 06492
  
  
 ---------------------------------------------------------------
 Warning -- This program may not be used in any manner that
 competes with the business of Gaussian, Inc. or will provide
 assistance to any competitor of Gaussian, Inc.  The licensee
 of this program is prohibited from giving any competitor of
 Gaussian, Inc. access to this program.  By using this program,
 the user acknowledges that Gaussian, Inc. is engaged in the
 business of creating and licensing software in the field of
 computational chemistry and represents and warrants to the
 licensee that it is not a competitor of Gaussian, Inc. and that
 it will not use this program in any manner prohibited above.
 ---------------------------------------------------------------
  

 Cite this work as:
 Gaussian 09, Revision E.01,
 M. J. Frisch, G. W. Trucks, H. B. Schlegel, G. E. Scuseria, 
 M. A. Robb, J. R. Cheeseman, G. Scalmani, V. Barone, B. Mennucci, 
 G. A. Petersson, H. Nakatsuji, M. Caricato, X. Li, H. P. Hratchian, 
 A. F. Izmaylov, J. Bloino, G. Zheng, J. L. Sonnenberg, M. Hada, 
 M. Ehara, K. Toyota, R. Fukuda, J. Hasegawa, M. Ishida, T. Nakajima, 
 Y. Honda, O. Kitao, H. Nakai, T. Vreven, J. A. Montgomery, Jr., 
 J. E. Peralta, F. Ogliaro, M. Bearpark, J. J. Heyd, E. Brothers, 
 K. N. Kudin, V. N. Staroverov, T. Keith, R. Kobayashi, J. Normand, 
 K. Raghavachari, A. Rendell, J. C. Burant, S. S. Iyengar, J. Tomasi, 
 M. Cossi, N. Rega, J. M. Millam, M. Klene, J. E. Knox, J. B. Cross, 
 V. Bakken, C. Adamo, J. Jaramillo, R. Gomperts, R. E. Stratmann, 
 O. Yazyev, A. J. Austin, R. Cammi, C. Pomelli, J. W. Ochterski, 
 R. L. Martin, K. Morokuma, V. G. Zakrzewski, G. A. Voth, 
 P. Salvador, J. J. Dannenberg, S. Dapprich, A. D. Daniels, 
 O. Farkas, J. B. Foresman, J. V. Ortiz, J. Cioslowski, 
 and D. J. Fox, Gaussian, Inc., Wallingford CT, 2013.
 
 ******************************************
 Gaussian 09:  ES64L-G09RevE.01 30-Nov-2015
                 2-May-2018 
 ******************************************
 %Mem=110GB
 %NProcShared=64
 Will use up to   64 processors via shared memory.
 %chk=snap21.chk
 ----------------------------------------------
 #p PBE1PBE/cc-pvDZ force Counterpoise=2 noSymm
 ----------------------------------------------
 1/10=7,30=1,38=1,62=2/1,3;
 2/12=2,15=1,17=6,18=5,40=1/2;
 1/10=7,30=1,38=1,53=2,62=2,63=101/22;
 3/5=16,11=2,16=1,25=1,30=1,71=1,74=-13/1,2,3;
 4//1;
 5/5=2,38=5/2;
 6/7=2,8=2,9=2,10=2,28=1/1;
 7/7=1,29=1,30=1,33=-1/1,2,3,16;
 1/10=7,30=1,53=2,62=2,63=101/22;
 3/5=7,6=11,11=2,16=1,25=1,30=1,71=1,74=-13,82=7/1,2,3;
 4//1;
 5/5=2,38=5/2;
 6/7=2,8=2,9=2,10=2,28=1/1;
 7/7=1,29=1,30=1,33=-1/1,2,3,16;
 1/10=7,30=1,53=2,62=2,63=101/22(-5);
 7/9=1,29=1,44=-1/16;
 1/10=7,30=1,62=2/3;
 99//99;
 Leave Link    1 at Wed May  2 19:17:43 2018, MaxMem= 14763950080 cpu:        11.2
 (Enter /cm/shared/gaussian/g09.e01/intel64-sandybridge/g09/l101.exe)
 --------------------------------------
 forces on chloride comput - NWATER: 32
 --------------------------------------
 Symbolic Z-matrix:
 Charge = -1 Multiplicity = 1 in supermolecule
 Charge = -1 Multiplicity = 1 in fragment      1.
 Charge =  0 Multiplicity = 1 in fragment      2.
 Br(Fragment=1)        20.       20.       20. 
 O(Fragment=2)         18.11     21.04     22.3 
 H(Fragment=2)         18.6      20.53     21.66 
 H(Fragment=2)         17.26     20.6      22.38 
 O(Fragment=2)         22.49     21.76     18.89 
 H(Fragment=2)         22.68     22.15     19.74 
 H(Fragment=2)         21.83     21.09     19.06 
 O(Fragment=2)         20.21     18.26     22.88 
 H(Fragment=2)         20.16     18.69     22.03 
 H(Fragment=2)         19.45     17.67     22.9 
 O(Fragment=2)         18.65     20.45     17.15 
 H(Fragment=2)         18.89     21.27     17.58 
 H(Fragment=2)         18.74     19.79     17.84 
 O(Fragment=2)         17.46     18.25     18.56 
 H(Fragment=2)         16.72     17.92     19.07 
 H(Fragment=2)         18.02     18.67     19.2 
 O(Fragment=2)         22.85     18.67     21.26 
 H(Fragment=2)         22.69     17.88     20.74 
 H(Fragment=2)         22.02     19.14     21.26 
 O(Fragment=2)         20.13     23.45     20.22 
 H(Fragment=2)         20.15     23.07     21.1 
 H(Fragment=2)         19.54     22.88     19.72 
 O(Fragment=2)         20.72     22.6      22.66 
 H(Fragment=2)         20.15     21.85     22.79 
 H(Fragment=2)         20.6      23.14     23.44 
 O(Fragment=2)         20.78     22.69     16.79 
 H(Fragment=2)         21.17     22.21     17.52 
 H(Fragment=2)         21.31     23.48     16.71 
 O(Fragment=2)         23.67     22.       21.9 
 H(Fragment=2)         24.17     22.09     22.71 
 H(Fragment=2)         22.76     21.94     22.19 
 O(Fragment=2)         18.3      16.34     17.05 
 H(Fragment=2)         18.09     16.89     17.8 
 H(Fragment=2)         18.13     16.88     16.28 
 O(Fragment=2)         21.54     20.82     24.87 
 H(Fragment=2)         21.57     20.38     24.02 
 H(Fragment=2)         21.29     20.13     25.49 
 O(Fragment=2)         15.51     22.36     20.74 
 H(Fragment=2)         16.11     22.98     20.33 
 H(Fragment=2)         16.02     21.55     20.82 
 O(Fragment=2)         23.42     19.92     16.6 
 H(Fragment=2)         23.51     20.73     16.1 
 H(Fragment=2)         23.64     20.17     17.5 
 O(Fragment=2)         18.16     22.29     24.69 
 H(Fragment=2)         17.4      22.87     24.58 
 H(Fragment=2)         18.22     21.81     23.87 
 O(Fragment=2)         19.72     20.31     14.55 
 H(Fragment=2)         20.04     21.17     14.27 
 H(Fragment=2)         19.37     20.46     15.43 
 O(Fragment=2)         20.85     15.51     17.41 
 H(Fragment=2)         19.99     15.76     17.09 
 H(Fragment=2)         20.82     15.7      18.35 
 O(Fragment=2)         17.17     23.58     18.95 
 H(Fragment=2)         16.95     23.33     18.05 
 H(Fragment=2)         16.81     24.46     19.04 
 O(Fragment=2)         22.32     15.7      19.77 
 H(Fragment=2)         23.09     15.15     19.86 
 H(Fragment=2)         21.98     15.8      20.66 
 O(Fragment=2)         16.22     19.37     15.79 
 H(Fragment=2)         15.5      19.12     16.37 
 H(Fragment=2)         16.94     19.58     16.39 
 O(Fragment=2)         22.5      25.       20.72 
 H(Fragment=2)         22.74     25.04     21.65 
 H(Fragment=2)         21.77     24.39     20.69 
 O(Fragment=2)         20.04     25.28     17.69 
 H(Fragment=2)         20.95     25.54     17.56 
 H(Fragment=2)         20.08     24.47     18.19 
 O(Fragment=2)         15.67     19.94     22.15 
 H(Fragment=2)         14.8      20.12     22.51 
 H(Fragment=2)         15.85     19.03     22.37 
 O(Fragment=2)         23.07     24.16     17.43 
 H(Fragment=2)         24.       24.03     17.26 
 H(Fragment=2)         22.83     23.43     17.99 
 O(Fragment=2)         18.23     23.42     16. 
 H(Fragment=2)         19.13     23.17     16.21 
 H(Fragment=2)         18.17     23.31     15.05 
 O(Fragment=2)         23.33     16.54     16.59 
 H(Fragment=2)         22.55     15.99     16.61 
 H(Fragment=2)         23.15     17.22     17.24 
 O(Fragment=2)         17.81     16.56     22.96 
 H(Fragment=2)         17.19     16.23     23.61 
 H(Fragment=2)         17.93     15.84     22.35 
 O(Fragment=2)         17.77     25.22     21.54 
 H(Fragment=2)         18.4      24.69     21.05 
 H(Fragment=2)         17.12     25.48     20.9 
 O(Fragment=2)         15.89     16.58     19.86 
 H(Fragment=2)         16.7      16.13     20.09 
 H(Fragment=2)         15.2      15.94     20.04 
 O(Fragment=2)         21.43     16.73     24.66 
 H(Fragment=2)         21.28     17.62     24.33 
 H(Fragment=2)         20.58     16.31     24.61 
 O(Fragment=2)         25.71     21.18     20.1 
 H(Fragment=2)         25.83     22.07     19.76 
 H(Fragment=2)         24.94     21.24     20.67 
 O(Fragment=2)         24.14     19.17     24.08 
 H(Fragment=2)         24.4      20.09     24.03 
 H(Fragment=2)         24.21     18.85     23.18 
 
 NAtoms=     97 NQM=       97 NQMF=       0 NMMI=      0 NMMIF=      0
                NMic=       0 NMicF=      0.
                    Isotopes and Nuclear Properties:
 (Nuclear quadrupole moments (NQMom) in fm**2, nuclear magnetic moments (NMagM)
  in nuclear magnetons)

  Atom         1           2           3           4           5           6           7           8           9          10
 IAtWgt=          79          16           1           1          16           1           1          16           1           1
 AtmWgt=  78.9183361  15.9949146   1.0078250   1.0078250  15.9949146   1.0078250   1.0078250  15.9949146   1.0078250   1.0078250
 NucSpn=           3           0           1           1           0           1           1           0           1           1
 AtZEff=   0.0000000   0.0000000   0.0000000   0.0000000   0.0000000   0.0000000   0.0000000   0.0000000   0.0000000   0.0000000
 NQMom=   31.3000000   0.0000000   0.0000000   0.0000000   0.0000000   0.0000000   0.0000000   0.0000000   0.0000000   0.0000000
 NMagM=    2.1063990   0.0000000   2.7928460   2.7928460   0.0000000   2.7928460   2.7928460   0.0000000   2.7928460   2.7928460
 AtZNuc=  35.0000000   8.0000000   1.0000000   1.0000000   8.0000000   1.0000000   1.0000000   8.0000000   1.0000000   1.0000000

  Atom        11          12          13          14          15          16          17          18          19          20
 IAtWgt=          16           1           1          16           1           1          16           1           1          16
 AtmWgt=  15.9949146   1.0078250   1.0078250  15.9949146   1.0078250   1.0078250  15.9949146   1.0078250   1.0078250  15.9949146
 NucSpn=           0           1           1           0           1           1           0           1           1           0
 AtZEff=   0.0000000   0.0000000   0.0000000   0.0000000   0.0000000   0.0000000   0.0000000   0.0000000   0.0000000   0.0000000
 NQMom=    0.0000000   0.0000000   0.0000000   0.0000000   0.0000000   0.0000000   0.0000000   0.0000000   0.0000000   0.0000000
 NMagM=    0.0000000   2.7928460   2.7928460   0.0000000   2.7928460   2.7928460   0.0000000   2.7928460   2.7928460   0.0000000
 AtZNuc=   8.0000000   1.0000000   1.0000000   8.0000000   1.0000000   1.0000000   8.0000000   1.0000000   1.0000000   8.0000000

  Atom        21          22          23          24          25          26          27          28          29          30
 IAtWgt=           1           1          16           1           1          16           1           1          16           1
 AtmWgt=   1.0078250   1.0078250  15.9949146   1.0078250   1.0078250  15.9949146   1.0078250   1.0078250  15.9949146   1.0078250
 NucSpn=           1           1           0           1           1           0           1           1           0           1
 AtZEff=   0.0000000   0.0000000   0.0000000   0.0000000   0.0000000   0.0000000   0.0000000   0.0000000   0.0000000   0.0000000
 NQMom=    0.0000000   0.0000000   0.0000000   0.0000000   0.0000000   0.0000000   0.0000000   0.0000000   0.0000000   0.0000000
 NMagM=    2.7928460   2.7928460   0.0000000   2.7928460   2.7928460   0.0000000   2.7928460   2.7928460   0.0000000   2.7928460
 AtZNuc=   1.0000000   1.0000000   8.0000000   1.0000000   1.0000000   8.0000000   1.0000000   1.0000000   8.0000000   1.0000000

  Atom        31          32          33          34          35          36          37          38          39          40
 IAtWgt=           1          16           1           1          16           1           1          16           1           1
 AtmWgt=   1.0078250  15.9949146   1.0078250   1.0078250  15.9949146   1.0078250   1.0078250  15.9949146   1.0078250   1.0078250
 NucSpn=           1           0           1           1           0           1           1           0           1           1
 AtZEff=   0.0000000   0.0000000   0.0000000   0.0000000   0.0000000   0.0000000   0.0000000   0.0000000   0.0000000   0.0000000
 NQMom=    0.0000000   0.0000000   0.0000000   0.0000000   0.0000000   0.0000000   0.0000000   0.0000000   0.0000000   0.0000000
 NMagM=    2.7928460   0.0000000   2.7928460   2.7928460   0.0000000   2.7928460   2.7928460   0.0000000   2.7928460   2.7928460
 AtZNuc=   1.0000000   8.0000000   1.0000000   1.0000000   8.0000000   1.0000000   1.0000000   8.0000000   1.0000000   1.0000000

  Atom        41          42          43          44          45          46          47          48          49          50
 IAtWgt=          16           1           1          16           1           1          16           1           1          16
 AtmWgt=  15.9949146   1.0078250   1.0078250  15.9949146   1.0078250   1.0078250  15.9949146   1.0078250   1.0078250  15.9949146
 NucSpn=           0           1           1           0           1           1           0           1           1           0
 AtZEff=   0.0000000   0.0000000   0.0000000   0.0000000   0.0000000   0.0000000   0.0000000   0.0000000   0.0000000   0.0000000
 NQMom=    0.0000000   0.0000000   0.0000000   0.0000000   0.0000000   0.0000000   0.0000000   0.0000000   0.0000000   0.0000000
 NMagM=    0.0000000   2.7928460   2.7928460   0.0000000   2.7928460   2.7928460   0.0000000   2.7928460   2.7928460   0.0000000
 AtZNuc=   8.0000000   1.0000000   1.0000000   8.0000000   1.0000000   1.0000000   8.0000000   1.0000000   1.0000000   8.0000000

  Atom        51          52          53          54          55          56          57          58          59          60
 IAtWgt=           1           1          16           1           1          16           1           1          16           1
 AtmWgt=   1.0078250   1.0078250  15.9949146   1.0078250   1.0078250  15.9949146   1.0078250   1.0078250  15.9949146   1.0078250
 NucSpn=           1           1           0           1           1           0           1           1           0           1
 AtZEff=   0.0000000   0.0000000   0.0000000   0.0000000   0.0000000   0.0000000   0.0000000   0.0000000   0.0000000   0.0000000
 NQMom=    0.0000000   0.0000000   0.0000000   0.0000000   0.0000000   0.0000000   0.0000000   0.0000000   0.0000000   0.0000000
 NMagM=    2.7928460   2.7928460   0.0000000   2.7928460   2.7928460   0.0000000   2.7928460   2.7928460   0.0000000   2.7928460
 AtZNuc=   1.0000000   1.0000000   8.0000000   1.0000000   1.0000000   8.0000000   1.0000000   1.0000000   8.0000000   1.0000000

  Atom        61          62          63          64          65          66          67          68          69          70
 IAtWgt=           1          16           1           1          16           1           1          16           1           1
 AtmWgt=   1.0078250  15.9949146   1.0078250   1.0078250  15.9949146   1.0078250   1.0078250  15.9949146   1.0078250   1.0078250
 NucSpn=           1           0           1           1           0           1           1           0           1           1
 AtZEff=   0.0000000   0.0000000   0.0000000   0.0000000   0.0000000   0.0000000   0.0000000   0.0000000   0.0000000   0.0000000
 NQMom=    0.0000000   0.0000000   0.0000000   0.0000000   0.0000000   0.0000000   0.0000000   0.0000000   0.0000000   0.0000000
 NMagM=    2.7928460   0.0000000   2.7928460   2.7928460   0.0000000   2.7928460   2.7928460   0.0000000   2.7928460   2.7928460
 AtZNuc=   1.0000000   8.0000000   1.0000000   1.0000000   8.0000000   1.0000000   1.0000000   8.0000000   1.0000000   1.0000000

  Atom        71          72          73          74          75          76          77          78          79          80
 IAtWgt=          16           1           1          16           1           1          16           1           1          16
 AtmWgt=  15.9949146   1.0078250   1.0078250  15.9949146   1.0078250   1.0078250  15.9949146   1.0078250   1.0078250  15.9949146
 NucSpn=           0           1           1           0           1           1           0           1           1           0
 AtZEff=   0.0000000   0.0000000   0.0000000   0.0000000   0.0000000   0.0000000   0.0000000   0.0000000   0.0000000   0.0000000
 NQMom=    0.0000000   0.0000000   0.0000000   0.0000000   0.0000000   0.0000000   0.0000000   0.0000000   0.0000000   0.0000000
 NMagM=    0.0000000   2.7928460   2.7928460   0.0000000   2.7928460   2.7928460   0.0000000   2.7928460   2.7928460   0.0000000
 AtZNuc=   8.0000000   1.0000000   1.0000000   8.0000000   1.0000000   1.0000000   8.0000000   1.0000000   1.0000000   8.0000000

  Atom        81          82          83          84          85          86          87          88          89          90
 IAtWgt=           1           1          16           1           1          16           1           1          16           1
 AtmWgt=   1.0078250   1.0078250  15.9949146   1.0078250   1.0078250  15.9949146   1.0078250   1.0078250  15.9949146   1.0078250
 NucSpn=           1           1           0           1           1           0           1           1           0           1
 AtZEff=   0.0000000   0.0000000   0.0000000   0.0000000   0.0000000   0.0000000   0.0000000   0.0000000   0.0000000   0.0000000
 NQMom=    0.0000000   0.0000000   0.0000000   0.0000000   0.0000000   0.0000000   0.0000000   0.0000000   0.0000000   0.0000000
 NMagM=    2.7928460   2.7928460   0.0000000   2.7928460   2.7928460   0.0000000   2.7928460   2.7928460   0.0000000   2.7928460
 AtZNuc=   1.0000000   1.0000000   8.0000000   1.0000000   1.0000000   8.0000000   1.0000000   1.0000000   8.0000000   1.0000000

  Atom        91          92          93          94          95          96          97
 IAtWgt=           1          16           1           1          16           1           1
 AtmWgt=   1.0078250  15.9949146   1.0078250   1.0078250  15.9949146   1.0078250   1.0078250
 NucSpn=           1           0           1           1           0           1           1
 AtZEff=   0.0000000   0.0000000   0.0000000   0.0000000   0.0000000   0.0000000   0.0000000
 NQMom=    0.0000000   0.0000000   0.0000000   0.0000000   0.0000000   0.0000000   0.0000000
 NMagM=    2.7928460   0.0000000   2.7928460   2.7928460   0.0000000   2.7928460   2.7928460
 AtZNuc=   1.0000000   8.0000000   1.0000000   1.0000000   8.0000000   1.0000000   1.0000000
 Leave Link  101 at Wed May  2 19:17:43 2018, MaxMem= 14763950080 cpu:        12.5
 (Enter /cm/shared/gaussian/g09.e01/intel64-sandybridge/g09/l103.exe)

 GradGradGradGradGradGradGradGradGradGradGradGradGradGradGradGradGradGrad
 Berny optimization.
 Initialization pass.
 Trust Radius=3.00D-01 FncErr=1.00D-07 GrdErr=1.00D-07
 Number of steps in this run=      2 maximum allowed number of steps=      2.
 GradGradGradGradGradGradGradGradGradGradGradGradGradGradGradGradGradGrad

 Leave Link  103 at Wed May  2 19:17:43 2018, MaxMem= 14763950080 cpu:         1.7
 (Enter /cm/shared/gaussian/g09.e01/intel64-sandybridge/g09/l202.exe)
 Symmetry turned off by external request.
 Stoichiometry    BrH64O32(1-)
 Framework group  C1[X(BrH64O32)]
 Deg. of freedom   285
 Full point group                 C1      NOp   1
                          Input orientation:                          
 ---------------------------------------------------------------------
 Center     Atomic      Atomic             Coordinates (Angstroms)
 Number     Number       Type             X           Y           Z
 ---------------------------------------------------------------------
      1         35           0       20.000000   20.000000   20.000000
      2          8           0       18.110000   21.040000   22.300000
      3          1           0       18.600000   20.530000   21.660000
      4          1           0       17.260000   20.600000   22.380000
      5          8           0       22.490000   21.760000   18.890000
      6          1           0       22.680000   22.150000   19.740000
      7          1           0       21.830000   21.090000   19.060000
      8          8           0       20.210000   18.260000   22.880000
      9          1           0       20.160000   18.690000   22.030000
     10          1           0       19.450000   17.670000   22.900000
     11          8           0       18.650000   20.450000   17.150000
     12          1           0       18.890000   21.270000   17.580000
     13          1           0       18.740000   19.790000   17.840000
     14          8           0       17.460000   18.250000   18.560000
     15          1           0       16.720000   17.920000   19.070000
     16          1           0       18.020000   18.670000   19.200000
     17          8           0       22.850000   18.670000   21.260000
     18          1           0       22.690000   17.880000   20.740000
     19          1           0       22.020000   19.140000   21.260000
     20          8           0       20.130000   23.450000   20.220000
     21          1           0       20.150000   23.070000   21.100000
     22          1           0       19.540000   22.880000   19.720000
     23          8           0       20.720000   22.600000   22.660000
     24          1           0       20.150000   21.850000   22.790000
     25          1           0       20.600000   23.140000   23.440000
     26          8           0       20.780000   22.690000   16.790000
     27          1           0       21.170000   22.210000   17.520000
     28          1           0       21.310000   23.480000   16.710000
     29          8           0       23.670000   22.000000   21.900000
     30          1           0       24.170000   22.090000   22.710000
     31          1           0       22.760000   21.940000   22.190000
     32          8           0       18.300000   16.340000   17.050000
     33          1           0       18.090000   16.890000   17.800000
     34          1           0       18.130000   16.880000   16.280000
     35          8           0       21.540000   20.820000   24.870000
     36          1           0       21.570000   20.380000   24.020000
     37          1           0       21.290000   20.130000   25.490000
     38          8           0       15.510000   22.360000   20.740000
     39          1           0       16.110000   22.980000   20.330000
     40          1           0       16.020000   21.550000   20.820000
     41          8           0       23.420000   19.920000   16.600000
     42          1           0       23.510000   20.730000   16.100000
     43          1           0       23.640000   20.170000   17.500000
     44          8           0       18.160000   22.290000   24.690000
     45          1           0       17.400000   22.870000   24.580000
     46          1           0       18.220000   21.810000   23.870000
     47          8           0       19.720000   20.310000   14.550000
     48          1           0       20.040000   21.170000   14.270000
     49          1           0       19.370000   20.460000   15.430000
     50          8           0       20.850000   15.510000   17.410000
     51          1           0       19.990000   15.760000   17.090000
     52          1           0       20.820000   15.700000   18.350000
     53          8           0       17.170000   23.580000   18.950000
     54          1           0       16.950000   23.330000   18.050000
     55          1           0       16.810000   24.460000   19.040000
     56          8           0       22.320000   15.700000   19.770000
     57          1           0       23.090000   15.150000   19.860000
     58          1           0       21.980000   15.800000   20.660000
     59          8           0       16.220000   19.370000   15.790000
     60          1           0       15.500000   19.120000   16.370000
     61          1           0       16.940000   19.580000   16.390000
     62          8           0       22.500000   25.000000   20.720000
     63          1           0       22.740000   25.040000   21.650000
     64          1           0       21.770000   24.390000   20.690000
     65          8           0       20.040000   25.280000   17.690000
     66          1           0       20.950000   25.540000   17.560000
     67          1           0       20.080000   24.470000   18.190000
     68          8           0       15.670000   19.940000   22.150000
     69          1           0       14.800000   20.120000   22.510000
     70          1           0       15.850000   19.030000   22.370000
     71          8           0       23.070000   24.160000   17.430000
     72          1           0       24.000000   24.030000   17.260000
     73          1           0       22.830000   23.430000   17.990000
     74          8           0       18.230000   23.420000   16.000000
     75          1           0       19.130000   23.170000   16.210000
     76          1           0       18.170000   23.310000   15.050000
     77          8           0       23.330000   16.540000   16.590000
     78          1           0       22.550000   15.990000   16.610000
     79          1           0       23.150000   17.220000   17.240000
     80          8           0       17.810000   16.560000   22.960000
     81          1           0       17.190000   16.230000   23.610000
     82          1           0       17.930000   15.840000   22.350000
     83          8           0       17.770000   25.220000   21.540000
     84          1           0       18.400000   24.690000   21.050000
     85          1           0       17.120000   25.480000   20.900000
     86          8           0       15.890000   16.580000   19.860000
     87          1           0       16.700000   16.130000   20.090000
     88          1           0       15.200000   15.940000   20.040000
     89          8           0       21.430000   16.730000   24.660000
     90          1           0       21.280000   17.620000   24.330000
     91          1           0       20.580000   16.310000   24.610000
     92          8           0       25.710000   21.180000   20.100000
     93          1           0       25.830000   22.070000   19.760000
     94          1           0       24.940000   21.240000   20.670000
     95          8           0       24.140000   19.170000   24.080000
     96          1           0       24.400000   20.090000   24.030000
     97          1           0       24.210000   18.850000   23.180000
 ---------------------------------------------------------------------
 Rotational constants (GHZ):      0.0568433      0.0555476      0.0522949
 Leave Link  202 at Wed May  2 19:17:43 2018, MaxMem= 14763950080 cpu:         0.5
 (Enter /cm/shared/gaussian/g09.e01/intel64-sandybridge/g09/l122.exe)
 Counterpoise: doing full dimer calculation.
 Leave Link  122 at Wed May  2 19:17:43 2018, MaxMem= 14763950080 cpu:         0.0
 (Enter /cm/shared/gaussian/g09.e01/intel64-sandybridge/g09/l301.exe)
 Standard basis: CC-pVDZ (5D, 7F)
 Ernie: Thresh=  0.10000D-02 Tol=  0.10000D-05 Strict=F.
 Ernie:  87 primitive shells out of 1114 were deleted.
   795 basis functions,  1651 primitive gaussians,   829 cartesian basis functions
   178 alpha electrons      178 beta electrons
       nuclear repulsion energy      6106.1231217112 Hartrees.
 IExCor= 1009 DFT=T Ex+Corr=PBE1PBE ExCW=0 ScaHFX=  0.250000
 ScaDFX=  0.750000  0.750000  1.000000  1.000000 ScalE2=  1.000000  1.000000
 IRadAn=      0 IRanWt=     -1 IRanGd=            0 ICorTp=0 IEmpDi=  4
 NAtoms=   97 NActive=   97 NUniq=   97 SFac= 1.00D+00 NAtFMM=   60 NAOKFM=T Big=T
 Integral buffers will be    131072 words long.
 Raffenetti 2 integral format.
 Two-electron integral symmetry is turned off.
 Leave Link  301 at Wed May  2 19:17:43 2018, MaxMem= 14763950080 cpu:         4.3
 (Enter /cm/shared/gaussian/g09.e01/intel64-sandybridge/g09/l302.exe)
 NPDir=0 NMtPBC=     1 NCelOv=     1 NCel=       1 NClECP=     1 NCelD=      1
         NCelK=      1 NCelE2=     1 NClLst=     1 CellRange=     0.0.
 One-electron integrals computed using PRISM.
 NBasis=   795 RedAO= T EigKep=  1.65D-02  NBF=   795
 NBsUse=   795 1.00D-06 EigRej= -1.00D+00 NBFU=   795
 Precomputing XC quadrature grid using
 IXCGrd= 4 IRadAn=           0 IRanWt=          -1 IRanGd=           0 AccXCQ= 0.00D+00.
 Generated NRdTot=       0 NPtTot=           0 NUsed=           0 NTot=          32
 NSgBfM=   784   784   787   791   797 MxSgAt=    97 MxSgA2=    97.
 Leave Link  302 at Wed May  2 19:17:49 2018, MaxMem= 14763950080 cpu:       369.3
 (Enter /cm/shared/gaussian/g09.e01/intel64-sandybridge/g09/l303.exe)
 DipDrv:  MaxL=1.
 Leave Link  303 at Wed May  2 19:17:50 2018, MaxMem= 14763950080 cpu:        29.2
 (Enter /cm/shared/gaussian/g09.e01/intel64-sandybridge/g09/l401.exe)
 ExpMin= 1.22D-01 ExpMax= 6.40D+05 ExpMxC= 6.18D+03 IAcc=2 IRadAn=         4 AccDes= 0.00D+00
 Harris functional with IExCor= 1009 and IRadAn=       4 diagonalized for initial guess.
 HarFok:  IExCor= 1009 AccDes= 0.00D+00 IRadAn=         4 IDoV= 1 UseB2=F ITyADJ=14
 ICtDFT=  3500011 ScaDFX=  1.000000  1.000000  1.000000  1.000000
 FoFCou: FMM=F IPFlag=           0 FMFlag=      100000 FMFlg1=        2001
         NFxFlg=           0 DoJE=T BraDBF=F KetDBF=T FulRan=T
         wScrn=  0.000000 ICntrl=     500 IOpCl=  0 I1Cent=   200000004 NGrid=           0
         NMat0=    1 NMatS0=      1 NMatT0=    0 NMatD0=    1 NMtDS0=    0 NMtDT0=    0
 Symmetry not used in FoFCou.
 Harris En= -5018.41920412390    
 JPrj=0 DoOrth=F DoCkMO=F.
 Leave Link  401 at Wed May  2 19:17:55 2018, MaxMem= 14763950080 cpu:       312.5
 (Enter /cm/shared/gaussian/g09.e01/intel64-sandybridge/g09/l502.exe)
 Closed shell SCF:
 Using DIIS extrapolation, IDIIS=  1040.
 Two-electron integral symmetry not used.
 IVT=     2138497 IEndB=     2138497 NGot= 14763950080 MDV= 14762516294
 LenX= 14762516294 LenY= 14761828224
 Requested convergence on RMS density matrix=1.00D-08 within 128 cycles.
 Requested convergence on MAX density matrix=1.00D-06.
 Requested convergence on             energy=1.00D-06.
 No special actions if energy rises.
 Fock matrices will be formed incrementally for  20 cycles.
 Integral accuracy reduced to 1.0D-05 until final iterations.

 Cycle   1  Pass 0  IDiag  1:
 FoFJK:  IHMeth= 1 ICntrl=       0 DoSepK=F KAlg= 0 I1Cent=   0 FoldK=F
 IRaf= 830000000 NMat=   1 IRICut=       1 DoRegI=T DoRafI=F ISym2E= 0.
 FoFCou: FMM=T IPFlag=           0 FMFlag=      100000 FMFlg1=        2001
         NFxFlg=           0 DoJE=F BraDBF=F KetDBF=F FulRan=T
         wScrn=  0.000000 ICntrl=       0 IOpCl=  0 I1Cent=           0 NGrid=           0
         NMat0=    1 NMatS0=      1 NMatT0=    0 NMatD0=    1 NMtDS0=    0 NMtDT0=    0
 Symmetry not used in FoFCou.
 FMM levels:  10  Number of levels for PrismC:   9
 E= -5015.21858889394    
 DIIS: error= 3.31D-02 at cycle   1 NSaved=   1.
 NSaved= 1 IEnMin= 1 EnMin= -5015.21858889394     IErMin= 1 ErrMin= 3.31D-02
 ErrMax= 3.31D-02  0.00D+00 EMaxC= 1.00D-01 BMatC= 2.76D+00 BMatP= 2.76D+00
 IDIUse=3 WtCom= 6.69D-01 WtEn= 3.31D-01
 Coeff-Com:  0.100D+01
 Coeff-En:   0.100D+01
 Coeff:      0.100D+01
 Gap=     0.318 Goal=   None    Shift=    0.000
 GapD=    0.318 DampG=1.000 DampE=0.500 DampFc=0.5000 IDamp=-1.
 Damping current iteration by 5.00D-01
 RMSDP=2.87D-03 MaxDP=1.55D-01              OVMax= 1.79D-01

 Cycle   2  Pass 0  IDiag  1:
 RMSU=  1.42D-03    CP:  9.85D-01
 E= -5016.02406930821     Delta-E=       -0.805480414278 Rises=F Damp=T
 DIIS: error= 7.91D-03 at cycle   2 NSaved=   2.
 NSaved= 2 IEnMin= 2 EnMin= -5016.02406930821     IErMin= 2 ErrMin= 7.91D-03
 ErrMax= 7.91D-03  0.00D+00 EMaxC= 1.00D-01 BMatC= 8.87D-02 BMatP= 2.76D+00
 IDIUse=3 WtCom= 9.21D-01 WtEn= 7.91D-02
 Coeff-Com:  0.120D+00 0.880D+00
 Coeff-En:   0.215D+00 0.785D+00
 Coeff:      0.128D+00 0.872D+00
 Gap=     0.165 Goal=   None    Shift=    0.000
 RMSDP=3.60D-04 MaxDP=1.81D-02 DE=-8.05D-01 OVMax= 9.83D-02

 Cycle   3  Pass 0  IDiag  1:
 RMSU=  2.84D-04    CP:  9.87D-01  8.46D-01
 E= -5017.19500132831     Delta-E=       -1.170932020097 Rises=F Damp=F
 DIIS: error= 1.07D-03 at cycle   3 NSaved=   3.
 NSaved= 3 IEnMin= 3 EnMin= -5017.19500132831     IErMin= 3 ErrMin= 1.07D-03
 ErrMax= 1.07D-03  0.00D+00 EMaxC= 1.00D-01 BMatC= 1.75D-03 BMatP= 8.87D-02
 IDIUse=3 WtCom= 9.89D-01 WtEn= 1.07D-02
 Coeff-Com:  0.987D-02 0.669D-01 0.923D+00
 Coeff-En:   0.000D+00 0.000D+00 0.100D+01
 Coeff:      0.976D-02 0.662D-01 0.924D+00
 Gap=     0.183 Goal=   None    Shift=    0.000
 RMSDP=9.32D-05 MaxDP=1.44D-02 DE=-1.17D+00 OVMax= 1.35D-02

 Cycle   4  Pass 0  IDiag  1:
 RMSU=  8.24D-05    CP:  9.88D-01  8.48D-01  8.47D-01
 E= -5017.19551456563     Delta-E=       -0.000513237323 Rises=F Damp=F
 DIIS: error= 1.12D-03 at cycle   4 NSaved=   4.
 NSaved= 4 IEnMin= 4 EnMin= -5017.19551456563     IErMin= 3 ErrMin= 1.07D-03
 ErrMax= 1.12D-03  0.00D+00 EMaxC= 1.00D-01 BMatC= 1.59D-03 BMatP= 1.75D-03
 IDIUse=3 WtCom= 9.89D-01 WtEn= 1.12D-02
 Coeff-Com:  0.238D-02 0.703D-02 0.485D+00 0.506D+00
 Coeff-En:   0.000D+00 0.000D+00 0.410D+00 0.590D+00
 Coeff:      0.235D-02 0.695D-02 0.484D+00 0.507D+00
 Gap=     0.180 Goal=   None    Shift=    0.000
 RMSDP=3.97D-05 MaxDP=5.63D-03 DE=-5.13D-04 OVMax= 5.35D-03

 Cycle   5  Pass 0  IDiag  1:
 RMSU=  1.61D-05    CP:  9.87D-01  8.46D-01  9.05D-01  6.11D-01
 E= -5017.19676703898     Delta-E=       -0.001252473348 Rises=F Damp=F
 DIIS: error= 1.67D-04 at cycle   5 NSaved=   5.
 NSaved= 5 IEnMin= 5 EnMin= -5017.19676703898     IErMin= 5 ErrMin= 1.67D-04
 ErrMax= 1.67D-04  0.00D+00 EMaxC= 1.00D-01 BMatC= 3.41D-05 BMatP= 1.59D-03
 IDIUse=3 WtCom= 9.98D-01 WtEn= 1.67D-03
 Coeff-Com:  0.750D-03-0.186D-02 0.136D+00 0.181D+00 0.684D+00
 Coeff-En:   0.000D+00 0.000D+00 0.000D+00 0.000D+00 0.100D+01
 Coeff:      0.749D-03-0.185D-02 0.136D+00 0.181D+00 0.684D+00
 Gap=     0.181 Goal=   None    Shift=    0.000
 RMSDP=7.66D-06 MaxDP=1.07D-03 DE=-1.25D-03 OVMax= 1.12D-03

 Cycle   6  Pass 0  IDiag  1:
 RMSU=  5.34D-06    CP:  9.87D-01  8.45D-01  9.15D-01  5.92D-01  7.24D-01
 E= -5017.19679116014     Delta-E=       -0.000024121158 Rises=F Damp=F
 DIIS: error= 8.33D-05 at cycle   6 NSaved=   6.
 NSaved= 6 IEnMin= 6 EnMin= -5017.19679116014     IErMin= 6 ErrMin= 8.33D-05
 ErrMax= 8.33D-05  0.00D+00 EMaxC= 1.00D-01 BMatC= 3.97D-06 BMatP= 3.41D-05
 IDIUse=1 WtCom= 1.00D+00 WtEn= 0.00D+00
 Coeff-Com:  0.170D-03-0.199D-02 0.321D-01 0.450D-01 0.292D+00 0.633D+00
 Coeff:      0.170D-03-0.199D-02 0.321D-01 0.450D-01 0.292D+00 0.633D+00
 Gap=     0.181 Goal=   None    Shift=    0.000
 RMSDP=2.30D-06 MaxDP=4.31D-04 DE=-2.41D-05 OVMax= 3.47D-04

 Initial convergence to 1.0D-05 achieved.  Increase integral accuracy.
 Cycle   7  Pass 1  IDiag  1:
 E= -5017.19729714203     Delta-E=       -0.000505981894 Rises=F Damp=F
 DIIS: error= 2.48D-05 at cycle   1 NSaved=   1.
 NSaved= 1 IEnMin= 1 EnMin= -5017.19729714203     IErMin= 1 ErrMin= 2.48D-05
 ErrMax= 2.48D-05  0.00D+00 EMaxC= 1.00D-01 BMatC= 1.39D-06 BMatP= 1.39D-06
 IDIUse=1 WtCom= 1.00D+00 WtEn= 0.00D+00
 Coeff-Com:  0.100D+01
 Coeff:      0.100D+01
 Gap=     0.181 Goal=   None    Shift=    0.000
 RMSDP=2.30D-06 MaxDP=4.31D-04 DE=-5.06D-04 OVMax= 1.91D-04

 Cycle   8  Pass 1  IDiag  1:
 RMSU=  4.30D-06    CP:  1.00D+00
 E= -5017.19729851585     Delta-E=       -0.000001373814 Rises=F Damp=F
 DIIS: error= 1.56D-05 at cycle   2 NSaved=   2.
 NSaved= 2 IEnMin= 2 EnMin= -5017.19729851585     IErMin= 2 ErrMin= 1.56D-05
 ErrMax= 1.56D-05  0.00D+00 EMaxC= 1.00D-01 BMatC= 2.27D-07 BMatP= 1.39D-06
 IDIUse=1 WtCom= 1.00D+00 WtEn= 0.00D+00
 Coeff-Com:  0.196D+00 0.804D+00
 Coeff:      0.196D+00 0.804D+00
 Gap=     0.181 Goal=   None    Shift=    0.000
 RMSDP=7.02D-07 MaxDP=8.48D-05 DE=-1.37D-06 OVMax= 6.52D-05

 Cycle   9  Pass 1  IDiag  1:
 RMSU=  7.02D-07    CP:  1.00D+00  9.98D-01
 E= -5017.19729855408     Delta-E=       -0.000000038237 Rises=F Damp=F
 DIIS: error= 1.48D-05 at cycle   3 NSaved=   3.
 NSaved= 3 IEnMin= 3 EnMin= -5017.19729855408     IErMin= 3 ErrMin= 1.48D-05
 ErrMax= 1.48D-05  0.00D+00 EMaxC= 1.00D-01 BMatC= 1.80D-07 BMatP= 2.27D-07
 IDIUse=1 WtCom= 1.00D+00 WtEn= 0.00D+00
 Coeff-Com: -0.836D-02 0.471D+00 0.537D+00
 Coeff:     -0.836D-02 0.471D+00 0.537D+00
 Gap=     0.181 Goal=   None    Shift=    0.000
 RMSDP=3.30D-07 MaxDP=4.34D-05 DE=-3.82D-08 OVMax= 3.39D-05

 Cycle  10  Pass 1  IDiag  1:
 RMSU=  9.35D-08    CP:  1.00D+00  1.02D+00  5.64D-01
 E= -5017.19729868194     Delta-E=       -0.000000127860 Rises=F Damp=F
 DIIS: error= 8.59D-07 at cycle   4 NSaved=   4.
 NSaved= 4 IEnMin= 4 EnMin= -5017.19729868194     IErMin= 4 ErrMin= 8.59D-07
 ErrMax= 8.59D-07  0.00D+00 EMaxC= 1.00D-01 BMatC= 7.79D-10 BMatP= 1.80D-07
 IDIUse=1 WtCom= 1.00D+00 WtEn= 0.00D+00
 Coeff-Com: -0.500D-02 0.192D+00 0.226D+00 0.586D+00
 Coeff:     -0.500D-02 0.192D+00 0.226D+00 0.586D+00
 Gap=     0.181 Goal=   None    Shift=    0.000
 RMSDP=3.53D-08 MaxDP=4.69D-06 DE=-1.28D-07 OVMax= 6.29D-06

 Cycle  11  Pass 1  IDiag  1:
 RMSU=  2.86D-08    CP:  1.00D+00  1.02D+00  5.65D-01  7.84D-01
 E= -5017.19729868263     Delta-E=       -0.000000000689 Rises=F Damp=F
 DIIS: error= 2.25D-07 at cycle   5 NSaved=   5.
 NSaved= 5 IEnMin= 5 EnMin= -5017.19729868263     IErMin= 5 ErrMin= 2.25D-07
 ErrMax= 2.25D-07  0.00D+00 EMaxC= 1.00D-01 BMatC= 6.02D-11 BMatP= 7.79D-10
 IDIUse=1 WtCom= 1.00D+00 WtEn= 0.00D+00
 Coeff-Com: -0.135D-02 0.395D-01 0.476D-01 0.244D+00 0.671D+00
 Coeff:     -0.135D-02 0.395D-01 0.476D-01 0.244D+00 0.671D+00
 Gap=     0.181 Goal=   None    Shift=    0.000
 RMSDP=8.34D-09 MaxDP=7.71D-07 DE=-6.89D-10 OVMax= 7.11D-07

 SCF Done:  E(RPBE1PBE) =  -5017.19729868     A.U. after   11 cycles
            NFock= 11  Conv=0.83D-08     -V/T= 2.0028
 KE= 5.003366487634D+03 PE=-2.418090634453D+04 EE= 8.054219436502D+03
 Leave Link  502 at Wed May  2 19:19:53 2018, MaxMem= 14763950080 cpu:      7430.6
 (Enter /cm/shared/gaussian/g09.e01/intel64-sandybridge/g09/l601.exe)
 Copying SCF densities to generalized density rwf, IOpCl= 0 IROHF=0.

 **********************************************************************

            Population analysis using the SCF density.

 **********************************************************************

 Alpha  occ. eigenvalues -- -483.15102 -62.55393 -56.32642 -56.32634 -56.32604
 Alpha  occ. eigenvalues --  -19.22005 -19.20727 -19.19276 -19.16151 -19.15660
 Alpha  occ. eigenvalues --  -19.15432 -19.15006 -19.14414 -19.13854 -19.13015
 Alpha  occ. eigenvalues --  -19.12532 -19.12146 -19.11853 -19.11819 -19.11724
 Alpha  occ. eigenvalues --  -19.11548 -19.10878 -19.10627 -19.10462 -19.10239
 Alpha  occ. eigenvalues --  -19.09962 -19.09593 -19.09226 -19.09107 -19.08802
 Alpha  occ. eigenvalues --  -19.08400 -19.08305 -19.08232 -19.07575 -19.06998
 Alpha  occ. eigenvalues --  -19.05379 -19.03752  -8.65702  -6.46079  -6.46039
 Alpha  occ. eigenvalues --   -6.45913  -2.54372  -2.54367  -2.54266  -2.54231
 Alpha  occ. eigenvalues --   -2.54207  -1.04422  -1.03365  -1.01910  -0.98835
 Alpha  occ. eigenvalues --   -0.98472  -0.98119  -0.97796  -0.96910  -0.96868
 Alpha  occ. eigenvalues --   -0.95948  -0.95379  -0.95315  -0.94439  -0.94358
 Alpha  occ. eigenvalues --   -0.94029  -0.94019  -0.93328  -0.93322  -0.93105
 Alpha  occ. eigenvalues --   -0.92910  -0.92683  -0.92114  -0.91750  -0.91671
 Alpha  occ. eigenvalues --   -0.91250  -0.91001  -0.90745  -0.90671  -0.90330
 Alpha  occ. eigenvalues --   -0.89936  -0.87980  -0.86444  -0.65163  -0.54924
 Alpha  occ. eigenvalues --   -0.54083  -0.52340  -0.49372  -0.49269  -0.48652
 Alpha  occ. eigenvalues --   -0.48573  -0.47861  -0.47318  -0.47269  -0.46965
 Alpha  occ. eigenvalues --   -0.46323  -0.45969  -0.45114  -0.44981  -0.44709
 Alpha  occ. eigenvalues --   -0.44361  -0.43992  -0.43893  -0.43855  -0.43585
 Alpha  occ. eigenvalues --   -0.43558  -0.42897  -0.42781  -0.42255  -0.41951
 Alpha  occ. eigenvalues --   -0.41640  -0.41516  -0.41393  -0.41283  -0.40340
 Alpha  occ. eigenvalues --   -0.39688  -0.39322  -0.37628  -0.37453  -0.35694
 Alpha  occ. eigenvalues --   -0.35160  -0.34811  -0.34020  -0.33683  -0.33430
 Alpha  occ. eigenvalues --   -0.33396  -0.32664  -0.32465  -0.32455  -0.31567
 Alpha  occ. eigenvalues --   -0.31310  -0.31193  -0.30661  -0.30474  -0.30355
 Alpha  occ. eigenvalues --   -0.30106  -0.29658  -0.29247  -0.28679  -0.28123
 Alpha  occ. eigenvalues --   -0.27869  -0.27809  -0.27800  -0.27655  -0.27412
 Alpha  occ. eigenvalues --   -0.27146  -0.26981  -0.26788  -0.26585  -0.26432
 Alpha  occ. eigenvalues --   -0.26084  -0.25834  -0.25212  -0.25063  -0.24708
 Alpha  occ. eigenvalues --   -0.24578  -0.24116  -0.23527  -0.23448  -0.23110
 Alpha  occ. eigenvalues --   -0.22947  -0.22729  -0.22687  -0.22156  -0.21703
 Alpha  occ. eigenvalues --   -0.21276  -0.21020  -0.20825  -0.20753  -0.20428
 Alpha  occ. eigenvalues --   -0.20381  -0.20136  -0.20040  -0.19939  -0.19617
 Alpha  occ. eigenvalues --   -0.19143  -0.19068  -0.18782  -0.18780  -0.18553
 Alpha  occ. eigenvalues --   -0.18073  -0.16353  -0.14970
 Alpha virt. eigenvalues --    0.03094   0.08293   0.09154   0.09361   0.11029
 Alpha virt. eigenvalues --    0.11247   0.12430   0.13056   0.13528   0.14351
 Alpha virt. eigenvalues --    0.14890   0.15924   0.16742   0.17069   0.17730
 Alpha virt. eigenvalues --    0.18137   0.18316   0.18712   0.19226   0.19424
 Alpha virt. eigenvalues --    0.20032   0.20416   0.20715   0.20908   0.21236
 Alpha virt. eigenvalues --    0.21629   0.21830   0.22000   0.22930   0.22978
 Alpha virt. eigenvalues --    0.23912   0.24424   0.24786   0.25359   0.25902
 Alpha virt. eigenvalues --    0.26088   0.27024   0.27321   0.27956   0.28413
 Alpha virt. eigenvalues --    0.29038   0.29385   0.29782   0.29973   0.30316
 Alpha virt. eigenvalues --    0.30612   0.31093   0.31947   0.32643   0.32780
 Alpha virt. eigenvalues --    0.33334   0.33470   0.33909   0.34134   0.34662
 Alpha virt. eigenvalues --    0.34892   0.35442   0.35693   0.36794   0.37492
 Alpha virt. eigenvalues --    0.37899   0.38356   0.38967   0.39252   0.55399
 Alpha virt. eigenvalues --    0.57266   0.58831   0.60004   0.61228   0.62036
 Alpha virt. eigenvalues --    0.62561   0.62620   0.63209   0.63376   0.63616
 Alpha virt. eigenvalues --    0.63851   0.64080   0.64455   0.64852   0.65442
 Alpha virt. eigenvalues --    0.65645   0.66182   0.66341   0.66641   0.67002
 Alpha virt. eigenvalues --    0.67068   0.67438   0.67806   0.68043   0.68212
 Alpha virt. eigenvalues --    0.68763   0.69023   0.69148   0.69339   0.69655
 Alpha virt. eigenvalues --    0.69957   0.70269   0.70706   0.70996   0.71003
 Alpha virt. eigenvalues --    0.71760   0.72009   0.72202   0.72410   0.72967
 Alpha virt. eigenvalues --    0.73179   0.73693   0.73840   0.74059   0.74553
 Alpha virt. eigenvalues --    0.74889   0.75016   0.75202   0.75778   0.76144
 Alpha virt. eigenvalues --    0.76666   0.76838   0.77180   0.78056   0.78417
 Alpha virt. eigenvalues --    0.79037   0.79550   0.80185   0.80331   0.80657
 Alpha virt. eigenvalues --    0.81412   0.81986   0.82112   0.82738   0.83551
 Alpha virt. eigenvalues --    0.83972   0.85302   0.86143   0.86792   0.88264
 Alpha virt. eigenvalues --    0.90612   0.91860   0.93365   0.93996   0.94890
 Alpha virt. eigenvalues --    0.95343   0.96039   0.96269   0.96697   0.97193
 Alpha virt. eigenvalues --    0.97320   0.97768   0.98422   0.98849   0.99082
 Alpha virt. eigenvalues --    0.99250   0.99642   1.00180   1.00472   1.01066
 Alpha virt. eigenvalues --    1.01300   1.01722   1.01927   1.02574   1.02823
 Alpha virt. eigenvalues --    1.02990   1.03392   1.03518   1.03624   1.04134
 Alpha virt. eigenvalues --    1.04324   1.04571   1.05111   1.05221   1.05373
 Alpha virt. eigenvalues --    1.05704   1.06041   1.06344   1.06455   1.06774
 Alpha virt. eigenvalues --    1.07019   1.07445   1.07745   1.07805   1.07987
 Alpha virt. eigenvalues --    1.08414   1.08688   1.09002   1.09155   1.09579
 Alpha virt. eigenvalues --    1.10266   1.10469   1.11323   1.11724   1.12002
 Alpha virt. eigenvalues --    1.12094   1.12368   1.12426   1.12802   1.13479
 Alpha virt. eigenvalues --    1.13688   1.14202   1.14469   1.14564   1.14643
 Alpha virt. eigenvalues --    1.14810   1.15307   1.15384   1.15733   1.16219
 Alpha virt. eigenvalues --    1.16758   1.17031   1.17267   1.17606   1.18011
 Alpha virt. eigenvalues --    1.18388   1.18974   1.19107   1.19553   1.19878
 Alpha virt. eigenvalues --    1.20190   1.20279   1.20373   1.20795   1.21077
 Alpha virt. eigenvalues --    1.21873   1.22157   1.22286   1.22779   1.22992
 Alpha virt. eigenvalues --    1.23902   1.24345   1.24501   1.25221   1.25243
 Alpha virt. eigenvalues --    1.25728   1.26063   1.26710   1.27386   1.27625
 Alpha virt. eigenvalues --    1.28093   1.28524   1.28946   1.29368   1.30646
 Alpha virt. eigenvalues --    1.30879   1.31025   1.31296   1.31648   1.31917
 Alpha virt. eigenvalues --    1.32402   1.32718   1.32822   1.33024   1.33153
 Alpha virt. eigenvalues --    1.33617   1.33838   1.34036   1.34391   1.34668
 Alpha virt. eigenvalues --    1.34820   1.35316   1.35565   1.35800   1.36032
 Alpha virt. eigenvalues --    1.36323   1.36624   1.37028   1.37197   1.37766
 Alpha virt. eigenvalues --    1.37796   1.38163   1.38878   1.39107   1.39318
 Alpha virt. eigenvalues --    1.39964   1.40085   1.40417   1.40914   1.41563
 Alpha virt. eigenvalues --    1.41595   1.42041   1.42288   1.43100   1.43467
 Alpha virt. eigenvalues --    1.43807   1.44063   1.44416   1.44523   1.44576
 Alpha virt. eigenvalues --    1.45691   1.45823   1.45933   1.46473   1.46960
 Alpha virt. eigenvalues --    1.47058   1.47671   1.47733   1.48457   1.49319
 Alpha virt. eigenvalues --    1.50063   1.50307   1.50673   1.51489   1.51894
 Alpha virt. eigenvalues --    1.52626   1.53267   1.53500   1.54041   1.54489
 Alpha virt. eigenvalues --    1.54694   1.55197   1.55392   1.55702   1.55902
 Alpha virt. eigenvalues --    1.56028   1.56400   1.57655   1.57958   1.58172
 Alpha virt. eigenvalues --    1.58718   1.59395   1.59690   1.60329   1.60660
 Alpha virt. eigenvalues --    1.61197   1.61618   1.61871   1.62329   1.62729
 Alpha virt. eigenvalues --    1.63601   1.64163   1.64663   1.65573   1.66717
 Alpha virt. eigenvalues --    1.67051   1.67798   1.68439   1.69118   1.70568
 Alpha virt. eigenvalues --    1.71952   1.72737   1.73289   1.73766   1.73835
 Alpha virt. eigenvalues --    1.73904   1.74766   1.75261   1.75549   1.76657
 Alpha virt. eigenvalues --    1.76735   1.77002   1.77978   1.78649   1.78663
 Alpha virt. eigenvalues --    1.79375   1.79810   1.79876   1.80206   1.80417
 Alpha virt. eigenvalues --    1.80945   1.81415   1.81621   1.82057   1.82375
 Alpha virt. eigenvalues --    1.82412   1.84019   1.84392   1.84523   1.85038
 Alpha virt. eigenvalues --    1.85688   1.86064   1.86340   1.86882   1.87230
 Alpha virt. eigenvalues --    1.88120   1.89111   1.90088   1.90495   1.91504
 Alpha virt. eigenvalues --    1.92001   1.92294   1.92433   1.93293   1.93950
 Alpha virt. eigenvalues --    1.94463   1.95022   1.95624   1.95807   1.96631
 Alpha virt. eigenvalues --    1.97055   1.98552   1.99366   1.99606   2.01112
 Alpha virt. eigenvalues --    2.02266   2.04336   2.05888   2.13766   2.14326
 Alpha virt. eigenvalues --    2.17506   2.18044   2.19812   2.19974   2.21031
 Alpha virt. eigenvalues --    2.21536   2.21856   2.22362   2.23211   2.23810
 Alpha virt. eigenvalues --    2.23884   2.24252   2.24668   2.24831   2.24941
 Alpha virt. eigenvalues --    2.25022   2.25148   2.25531   2.26163   2.26231
 Alpha virt. eigenvalues --    2.26377   2.26655   2.26828   2.27393   2.27644
 Alpha virt. eigenvalues --    2.27947   2.28363   2.28862   2.29051   2.29184
 Alpha virt. eigenvalues --    2.29723   2.29849   2.30310   2.30940   2.31481
 Alpha virt. eigenvalues --    2.31679   2.31765   2.32223   2.32706   2.33414
 Alpha virt. eigenvalues --    2.33558   2.33712   2.34407   2.35455   2.37177
 Alpha virt. eigenvalues --    2.38210   2.38559   2.41730   2.42223   2.45527
 Alpha virt. eigenvalues --    2.45612   2.46129   2.49001   2.50516   2.51757
 Alpha virt. eigenvalues --    2.54036   2.55886   2.57847   2.59029   2.59717
 Alpha virt. eigenvalues --    2.62712   2.63511   2.91693   2.92303   2.94468
 Alpha virt. eigenvalues --    2.96428   2.97004   2.97457   2.97751   2.98507
 Alpha virt. eigenvalues --    2.99335   2.99376   3.00026   3.00538   3.00934
 Alpha virt. eigenvalues --    3.01600   3.01642   3.01951   3.02527   3.02739
 Alpha virt. eigenvalues --    3.02906   3.02926   3.03085   3.03184   3.03239
 Alpha virt. eigenvalues --    3.03284   3.03481   3.03683   3.04186   3.04294
 Alpha virt. eigenvalues --    3.04480   3.04590   3.04793   3.04934   3.05163
 Alpha virt. eigenvalues --    3.05331   3.05659   3.05752   3.05878   3.06192
 Alpha virt. eigenvalues --    3.06322   3.06566   3.06659   3.06679   3.07616
 Alpha virt. eigenvalues --    3.07819   3.07951   3.08151   3.08327   3.08483
 Alpha virt. eigenvalues --    3.08542   3.09071   3.09250   3.09407   3.09427
 Alpha virt. eigenvalues --    3.09952   3.10029   3.10290   3.10665   3.11410
 Alpha virt. eigenvalues --    3.11462   3.12334   3.12583   3.12859   3.13953
 Alpha virt. eigenvalues --    3.14245   3.14722   3.14773   3.17034   3.20796
 Alpha virt. eigenvalues --    3.20847   3.22048   3.22155   3.22446   3.22976
 Alpha virt. eigenvalues --    3.23535   3.23765   3.24413   3.24745   3.25151
 Alpha virt. eigenvalues --    3.25333   3.25628   3.25729   3.26105   3.26533
 Alpha virt. eigenvalues --    3.26817   3.26974   3.27113   3.27564   3.28270
 Alpha virt. eigenvalues --    3.28567   3.29540   3.29938   3.30020   3.30346
 Alpha virt. eigenvalues --    3.31415   3.32924   3.33693   3.50350   3.52303
 Alpha virt. eigenvalues --    3.54522   3.56933   3.57545   3.58147   3.58735
 Alpha virt. eigenvalues --    3.59343   3.59747   3.59823   3.60160   3.60736
 Alpha virt. eigenvalues --    3.61155   3.61647   3.62390   3.62550   3.62637
 Alpha virt. eigenvalues --    3.63464   3.63856   3.64827   3.65735   3.65890
 Alpha virt. eigenvalues --    3.66442   3.66630   3.67214   3.67359   3.67878
 Alpha virt. eigenvalues --    3.68732   3.68762   3.69465   3.71205   3.73380
 Alpha virt. eigenvalues --    3.77119   3.80039   3.81572   3.83048   3.84922
 Alpha virt. eigenvalues --    3.86496   3.87450   3.87640   3.88591   3.88966
 Alpha virt. eigenvalues --    3.89252   3.89372   3.89655   3.89870   3.90050
 Alpha virt. eigenvalues --    3.90224   3.90689   3.91201   3.91560   3.91832
 Alpha virt. eigenvalues --    3.92204   3.93508   3.93996   3.94227   3.95422
 Alpha virt. eigenvalues --    3.96038   3.96307   3.96927   3.99944   4.00019
 Alpha virt. eigenvalues --    4.00521   4.04767
          Condensed to atoms (all electrons):
 Mulliken charges:
               1
     1  Br  -0.715853
     2  O   -0.289919
     3  H    0.126810
     4  H    0.131302
     5  O   -0.268527
     6  H    0.139032
     7  H    0.174912
     8  O   -0.284920
     9  H    0.111354
    10  H    0.113164
    11  O   -0.246229
    12  H    0.137174
    13  H    0.152231
    14  O   -0.247957
    15  H    0.141193
    16  H    0.122403
    17  O   -0.268729
    18  H    0.110723
    19  H    0.138809
    20  O   -0.277374
    21  H    0.147724
    22  H    0.145524
    23  O   -0.251096
    24  H    0.165064
    25  H    0.162589
    26  O   -0.274904
    27  H    0.125054
    28  H    0.123025
    29  O   -0.246262
    30  H    0.136813
    31  H    0.136354
    32  O   -0.299266
    33  H    0.122075
    34  H    0.150952
    35  O   -0.283708
    36  H    0.128810
    37  H    0.146485
    38  O   -0.332533
    39  H    0.109644
    40  H    0.117858
    41  O   -0.262730
    42  H    0.120187
    43  H    0.130724
    44  O   -0.316528
    45  H    0.127875
    46  H    0.136616
    47  O   -0.308202
    48  H    0.109441
    49  H    0.136759
    50  O   -0.297264
    51  H    0.130324
    52  H    0.107733
    53  O   -0.237832
    54  H    0.158711
    55  H    0.129462
    56  O   -0.213312
    57  H    0.146022
    58  H    0.135554
    59  O   -0.297064
    60  H    0.113544
    61  H    0.138935
    62  O   -0.285824
    63  H    0.115904
    64  H    0.128875
    65  O   -0.280819
    66  H    0.132159
    67  H    0.119005
    68  O   -0.206108
    69  H    0.156377
    70  H    0.130297
    71  O   -0.266124
    72  H    0.133533
    73  H    0.130404
    74  O   -0.293718
    75  H    0.141504
    76  H    0.123300
    77  O   -0.318366
    78  H    0.130265
    79  H    0.121160
    80  O   -0.224403
    81  H    0.148397
    82  H    0.141985
    83  O   -0.278060
    84  H    0.122095
    85  H    0.121621
    86  O   -0.223884
    87  H    0.133377
    88  H    0.142812
    89  O   -0.290961
    90  H    0.143934
    91  H    0.098561
    92  O   -0.301218
    93  H    0.119330
    94  H    0.136813
    95  O   -0.273041
    96  H    0.111624
    97  H    0.140440
 Sum of Mulliken charges =  -1.00000
 Mulliken charges with hydrogens summed into heavy atoms:
               1
     1  Br  -0.715853
     2  O   -0.031808
     5  O    0.045418
     8  O   -0.060402
    11  O    0.043176
    14  O    0.015639
    17  O   -0.019197
    20  O    0.015874
    23  O    0.076557
    26  O   -0.026824
    29  O    0.026904
    32  O   -0.026238
    35  O   -0.008413
    38  O   -0.105031
    41  O   -0.011820
    44  O   -0.052037
    47  O   -0.062002
    50  O   -0.059207
    53  O    0.050341
    56  O    0.068263
    59  O   -0.044585
    62  O   -0.041045
    65  O   -0.029655
    68  O    0.080566
    71  O   -0.002187
    74  O   -0.028914
    77  O   -0.066940
    80  O    0.065979
    83  O   -0.034343
    86  O    0.052305
    89  O   -0.048466
    92  O   -0.045075
    95  O   -0.020978
         Mulliken charges condensed to fragments:
      1     -0.715853
      2     -0.284147
 Electronic spatial extent (au):  <R**2>=        1576209.9914
 Charge=             -1.0000 electrons
 Dipole moment (field-independent basis, Debye):
    X=           -107.4929    Y=           -103.0403    Z=            -83.7639  Tot=            170.8462
 Quadrupole moment (field-independent basis, Debye-Ang):
   XX=          -2621.6768   YY=          -2458.0663   ZZ=          -1754.9702
   XY=          -2222.8421   XZ=          -1927.9269   YZ=          -1860.5566
 Traceless Quadrupole moment (field-independent basis, Debye-Ang):
   XX=           -343.4390   YY=           -179.8285   ZZ=            523.2675
   XY=          -2222.8421   XZ=          -1927.9269   YZ=          -1860.5566
 Octapole moment (field-independent basis, Debye-Ang**2):
  XXX=         -67074.3124  YYY=         -62879.4928  ZZZ=         -43061.2124  XYY=         -51240.0999
  XXY=         -52674.8049  XXZ=         -48323.6358  XZZ=         -40750.1993  YZZ=         -39671.6530
  YYZ=         -45887.3207  XYZ=         -40859.5081
 Hexadecapole moment (field-independent basis, Debye-Ang**3):
 XXXX=       -1754719.3458 YYYY=       -1671756.0283 ZZZZ=       -1157455.2850 XXXY=       -1323057.5049
 XXXZ=       -1263472.9634 YYYX=       -1278928.8593 YYYZ=       -1203552.9792 ZZZX=        -989493.6450
 ZZZY=        -969513.8239 XXYY=       -1170909.9316 XXZZ=       -1022859.5629 YYZZ=        -984572.0146
 XXYZ=        -987045.4143 YYXZ=        -966089.8342 ZZXY=        -875977.9705
 N-N= 6.106123121711D+03 E-N=-2.418090632670D+04  KE= 5.003366487634D+03
 No NMR shielding tensors so no spin-rotation constants.
 Leave Link  601 at Wed May  2 19:19:56 2018, MaxMem= 14763950080 cpu:        73.0
 (Enter /cm/shared/gaussian/g09.e01/intel64-sandybridge/g09/l701.exe)
 Compute integral first derivatives.
 ... and contract with generalized density number  0.
 Leave Link  701 at Wed May  2 19:19:58 2018, MaxMem= 14763950080 cpu:       125.9
 (Enter /cm/shared/gaussian/g09.e01/intel64-sandybridge/g09/l702.exe)
 L702 exits ... SP integral derivatives will be done elsewhere.
 Leave Link  702 at Wed May  2 19:19:58 2018, MaxMem= 14763950080 cpu:         1.7
 (Enter /cm/shared/gaussian/g09.e01/intel64-sandybridge/g09/l703.exe)
 Compute integral first derivatives, UseDBF=F ICtDFT=           0.
 Integral derivatives from FoFJK, PRISM(SPDF).
 Calling FoFJK, ICntrl=      2127 FMM=T ISym2X=0 I1Cent= 0 IOpClX= 0 NMat=1 NMatS=1 NMatT=0.
 FoFJK:  IHMeth= 1 ICntrl=    2127 DoSepK=F KAlg= 0 I1Cent=   0 FoldK=F
 IRaf=         0 NMat=   1 IRICut=       1 DoRegI=T DoRafI=F ISym2E= 0.
 FoFCou: FMM=T IPFlag=           0 FMFlag=      100000 FMFlg1=        2001
         NFxFlg=           0 DoJE=F BraDBF=F KetDBF=F FulRan=T
         wScrn=  0.000000 ICntrl=    2127 IOpCl=  0 I1Cent=           0 NGrid=           0
         NMat0=    1 NMatS0=      1 NMatT0=    0 NMatD0=    1 NMtDS0=    0 NMtDT0=    0
 Symmetry not used in FoFCou.
 FMM levels:  10  Number of levels for PrismC:   9
 Leave Link  703 at Wed May  2 19:20:14 2018, MaxMem= 14763950080 cpu:      1047.1
 (Enter /cm/shared/gaussian/g09.e01/intel64-sandybridge/g09/l716.exe)
 Dipole        =-4.22909521D+01-4.05391694D+01-3.29552730D+01
 Cartesian Forces:  Max     0.034153286 RMS     0.009415529
 Leave Link  716 at Wed May  2 19:20:15 2018, MaxMem= 14763950080 cpu:         3.5
 (Enter /cm/shared/gaussian/g09.e01/intel64-sandybridge/g09/l122.exe)
 CPIOFr:  IOpCl= 0 IRwI=-1 IRwCP=  731 ICalc= -1 LCPTot=     1005244 Len1MO=     2550559 IndFrg=     1005244
 CPIOFr:  IOpCl= 0 IRwI=-1 IRwCP=  731 ICalc=  0 LCPTot=     1005244 Len1MO=     2550559 IndFrg=     3555803
 Counterpoise: doing DCBS calculation for fragment   1 NewBq=T
 Leave Link  122 at Wed May  2 19:20:15 2018, MaxMem= 14763950080 cpu:         7.0
 (Enter /cm/shared/gaussian/g09.e01/intel64-sandybridge/g09/l301.exe)
 Basis read from rwf:  (5D, 7F)
 No pseudopotential information found on rwf file.
   795 basis functions,  1651 primitive gaussians,   829 cartesian basis functions
    18 alpha electrons       18 beta electrons
       nuclear repulsion energy         0.0000000000 Hartrees.
 IExCor= 1009 DFT=T Ex+Corr=PBE1PBE ExCW=0 ScaHFX=  0.250000
 ScaDFX=  0.750000  0.750000  1.000000  1.000000 ScalE2=  1.000000  1.000000
 IRadAn=      0 IRanWt=     -1 IRanGd=            0 ICorTp=0 IEmpDi=  4
 NAtoms=   97 NActive=   97 NUniq=   97 SFac= 1.00D+00 NAtFMM=   60 NAOKFM=T Big=T
 Integral buffers will be    131072 words long.
 Raffenetti 2 integral format.
 Two-electron integral symmetry is turned off.
 No density basis found on file   718.
 Leave Link  301 at Wed May  2 19:20:15 2018, MaxMem= 14763950080 cpu:         4.6
 (Enter /cm/shared/gaussian/g09.e01/intel64-sandybridge/g09/l302.exe)
 NPDir=0 NMtPBC=     1 NCelOv=     1 NCel=       1 NClECP=     1 NCelD=      1
         NCelK=      1 NCelE2=     1 NClLst=     1 CellRange=     0.0.
 One-electron integrals computed using PRISM.
 NBasis=   795 RedAO= T EigKep=  1.65D-02  NBF=   795
 NBsUse=   795 1.00D-06 EigRej= -1.00D+00 NBFU=   795
 Precomputing XC quadrature grid using
 IXCGrd= 4 IRadAn=           0 IRanWt=          -1 IRanGd=           0 AccXCQ= 0.00D+00.
 Generated NRdTot=       0 NPtTot=           0 NUsed=           0 NTot=          32
 NSgBfM=   784   784   787   791   797 MxSgAt=    97 MxSgA2=    97.
 Leave Link  302 at Wed May  2 19:20:19 2018, MaxMem= 14763950080 cpu:       244.5
 (Enter /cm/shared/gaussian/g09.e01/intel64-sandybridge/g09/l303.exe)
 DipDrv:  MaxL=1.
 Leave Link  303 at Wed May  2 19:20:19 2018, MaxMem= 14763950080 cpu:        28.6
 (Enter /cm/shared/gaussian/g09.e01/intel64-sandybridge/g09/l401.exe)
 ExpMin= 1.22D-01 ExpMax= 6.40D+05 ExpMxC= 6.18D+03 IAcc=2 IRadAn=         4 AccDes= 0.00D+00
 Harris functional with IExCor= 1009 and IRadAn=       4 diagonalized for initial guess.
 HarFok:  IExCor= 1009 AccDes= 0.00D+00 IRadAn=         4 IDoV= 1 UseB2=F ITyADJ=14
 ICtDFT=  3500011 ScaDFX=  1.000000  1.000000  1.000000  1.000000
 FoFCou: FMM=F IPFlag=           0 FMFlag=      100000 FMFlg1=        2001
         NFxFlg=           0 DoJE=T BraDBF=F KetDBF=T FulRan=T
         wScrn=  0.000000 ICntrl=     500 IOpCl=  0 I1Cent=   200000004 NGrid=           0
         NMat0=    1 NMatS0=      1 NMatT0=    0 NMatD0=    1 NMtDS0=    0 NMtDT0=    0
 Symmetry not used in FoFCou.
 Harris En= -2574.01955636637    
 JPrj=0 DoOrth=F DoCkMO=F.
 Leave Link  401 at Wed May  2 19:20:24 2018, MaxMem= 14763950080 cpu:       291.7
 (Enter /cm/shared/gaussian/g09.e01/intel64-sandybridge/g09/l502.exe)
 Closed shell SCF:
 Using DIIS extrapolation, IDIIS=  1040.
 Two-electron integral symmetry not used.
 IVT=     2138497 IEndB=     2138497 NGot= 14763950080 MDV= 14762516294
 LenX= 14762516294 LenY= 14761828224
 Requested convergence on RMS density matrix=1.00D-08 within 128 cycles.
 Requested convergence on MAX density matrix=1.00D-06.
 Requested convergence on             energy=1.00D-06.
 No special actions if energy rises.
 Fock matrices will be formed incrementally for  20 cycles.
 Integral accuracy reduced to 1.0D-05 until final iterations.

 Cycle   1  Pass 0  IDiag  1:
 FoFJK:  IHMeth= 1 ICntrl=       0 DoSepK=F KAlg= 0 I1Cent=   0 FoldK=F
 IRaf= 830000000 NMat=   1 IRICut=       1 DoRegI=T DoRafI=F ISym2E= 0.
 FoFCou: FMM=T IPFlag=           0 FMFlag=      100000 FMFlg1=        2001
         NFxFlg=           0 DoJE=F BraDBF=F KetDBF=F FulRan=T
         wScrn=  0.000000 ICntrl=       0 IOpCl=  0 I1Cent=           0 NGrid=           0
         NMat0=    1 NMatS0=      1 NMatT0=    0 NMatD0=    1 NMtDS0=    0 NMtDT0=    0
 Symmetry not used in FoFCou.
 FMM levels:  10  Number of levels for PrismC:   9
 E= -2573.87880293562    
 DIIS: error= 9.97D-03 at cycle   1 NSaved=   1.
 NSaved= 1 IEnMin= 1 EnMin= -2573.87880293562     IErMin= 1 ErrMin= 9.97D-03
 ErrMax= 9.97D-03  0.00D+00 EMaxC= 1.00D-01 BMatC= 3.78D-02 BMatP= 3.78D-02
 IDIUse=3 WtCom= 9.00D-01 WtEn= 9.97D-02
 Coeff-Com:  0.100D+01
 Coeff-En:   0.100D+01
 Coeff:      0.100D+01
 Gap=     0.179 Goal=   None    Shift=    0.000
 GapD=    0.179 DampG=1.000 DampE=1.000 DampFc=1.0000 IDamp=-1.
 RMSDP=4.58D-04 MaxDP=6.92D-02              OVMax= 1.47D-01

 Cycle   2  Pass 0  IDiag  1:
 RMSU=  4.55D-04    CP:  9.91D-01
 E= -2573.90032816901     Delta-E=       -0.021525233391 Rises=F Damp=F
 DIIS: error= 3.23D-03 at cycle   2 NSaved=   2.
 NSaved= 2 IEnMin= 2 EnMin= -2573.90032816901     IErMin= 2 ErrMin= 3.23D-03
 ErrMax= 3.23D-03  0.00D+00 EMaxC= 1.00D-01 BMatC= 7.09D-03 BMatP= 3.78D-02
 IDIUse=3 WtCom= 9.68D-01 WtEn= 3.23D-02
 Coeff-Com:  0.221D+00 0.779D+00
 Coeff-En:   0.164D-01 0.984D+00
 Coeff:      0.214D+00 0.786D+00
 Gap=     0.192 Goal=   None    Shift=    0.000
 RMSDP=2.15D-04 MaxDP=5.25D-02 DE=-2.15D-02 OVMax= 6.67D-02

 Cycle   3  Pass 0  IDiag  1:
 RMSU=  1.44D-04    CP:  9.95D-01  6.54D-01
 E= -2573.90796400077     Delta-E=       -0.007635831756 Rises=F Damp=F
 DIIS: error= 3.15D-03 at cycle   3 NSaved=   3.
 NSaved= 3 IEnMin= 3 EnMin= -2573.90796400077     IErMin= 3 ErrMin= 3.15D-03
 ErrMax= 3.15D-03  0.00D+00 EMaxC= 1.00D-01 BMatC= 2.60D-03 BMatP= 7.09D-03
 IDIUse=3 WtCom= 9.69D-01 WtEn= 3.15D-02
 Coeff-Com:  0.593D-01 0.365D+00 0.576D+00
 Coeff-En:   0.000D+00 0.175D+00 0.825D+00
 Coeff:      0.575D-01 0.359D+00 0.584D+00
 Gap=     0.172 Goal=   None    Shift=    0.000
 RMSDP=7.44D-05 MaxDP=1.81D-02 DE=-7.64D-03 OVMax= 2.25D-02

 Cycle   4  Pass 0  IDiag  1:
 RMSU=  8.36D-06    CP:  9.94D-01  7.60D-01  6.17D-01
 E= -2573.91087654953     Delta-E=       -0.002912548758 Rises=F Damp=F
 DIIS: error= 9.32D-05 at cycle   4 NSaved=   4.
 NSaved= 4 IEnMin= 4 EnMin= -2573.91087654953     IErMin= 4 ErrMin= 9.32D-05
 ErrMax= 9.32D-05  0.00D+00 EMaxC= 1.00D-01 BMatC= 1.50D-06 BMatP= 2.60D-03
 IDIUse=1 WtCom= 1.00D+00 WtEn= 0.00D+00
 Coeff-Com: -0.916D-03 0.106D-01 0.345D-01 0.956D+00
 Coeff:     -0.916D-03 0.106D-01 0.345D-01 0.956D+00
 Gap=     0.172 Goal=   None    Shift=    0.000
 RMSDP=2.37D-06 MaxDP=5.64D-04 DE=-2.91D-03 OVMax= 6.34D-04

 Initial convergence to 1.0D-05 achieved.  Increase integral accuracy.
 Cycle   5  Pass 1  IDiag  1:
 E= -2573.91152818940     Delta-E=       -0.000651639878 Rises=F Damp=F
 DIIS: error= 1.70D-05 at cycle   1 NSaved=   1.
 NSaved= 1 IEnMin= 1 EnMin= -2573.91152818940     IErMin= 1 ErrMin= 1.70D-05
 ErrMax= 1.70D-05  0.00D+00 EMaxC= 1.00D-01 BMatC= 1.33D-07 BMatP= 1.33D-07
 IDIUse=1 WtCom= 1.00D+00 WtEn= 0.00D+00
 Coeff-Com:  0.100D+01
 Coeff:      0.100D+01
 Gap=     0.172 Goal=   None    Shift=    0.000
 RMSDP=2.37D-06 MaxDP=5.64D-04 DE=-6.52D-04 OVMax= 2.91D-04

 Cycle   6  Pass 1  IDiag  1:
 RMSU=  1.53D-06    CP:  1.00D+00
 E= -2573.91152834325     Delta-E=       -0.000000153845 Rises=F Damp=F
 DIIS: error= 1.27D-05 at cycle   2 NSaved=   2.
 NSaved= 2 IEnMin= 2 EnMin= -2573.91152834325     IErMin= 2 ErrMin= 1.27D-05
 ErrMax= 1.27D-05  0.00D+00 EMaxC= 1.00D-01 BMatC= 6.15D-08 BMatP= 1.33D-07
 IDIUse=1 WtCom= 1.00D+00 WtEn= 0.00D+00
 Coeff-Com:  0.386D+00 0.614D+00
 Coeff:      0.386D+00 0.614D+00
 Gap=     0.172 Goal=   None    Shift=    0.000
 RMSDP=4.39D-07 MaxDP=1.06D-04 DE=-1.54D-07 OVMax= 1.41D-04

 Cycle   7  Pass 1  IDiag  1:
 RMSU=  3.85D-07    CP:  1.00D+00  8.65D-01
 E= -2573.91152841695     Delta-E=       -0.000000073695 Rises=F Damp=F
 DIIS: error= 3.06D-06 at cycle   3 NSaved=   3.
 NSaved= 3 IEnMin= 3 EnMin= -2573.91152841695     IErMin= 3 ErrMin= 3.06D-06
 ErrMax= 3.06D-06  0.00D+00 EMaxC= 1.00D-01 BMatC= 2.71D-09 BMatP= 6.15D-08
 IDIUse=1 WtCom= 1.00D+00 WtEn= 0.00D+00
 Coeff-Com: -0.222D-01 0.153D+00 0.869D+00
 Coeff:     -0.222D-01 0.153D+00 0.869D+00
 Gap=     0.172 Goal=   None    Shift=    0.000
 RMSDP=9.13D-08 MaxDP=1.95D-05 DE=-7.37D-08 OVMax= 2.36D-05

 Cycle   8  Pass 1  IDiag  1:
 RMSU=  3.39D-08    CP:  1.00D+00  9.17D-01  9.22D-01
 E= -2573.91152841999     Delta-E=       -0.000000003046 Rises=F Damp=F
 DIIS: error= 4.66D-07 at cycle   4 NSaved=   4.
 NSaved= 4 IEnMin= 4 EnMin= -2573.91152841999     IErMin= 4 ErrMin= 4.66D-07
 ErrMax= 4.66D-07  0.00D+00 EMaxC= 1.00D-01 BMatC= 4.83D-11 BMatP= 2.71D-09
 IDIUse=1 WtCom= 1.00D+00 WtEn= 0.00D+00
 Coeff-Com: -0.122D-01 0.439D-01 0.242D+00 0.726D+00
 Coeff:     -0.122D-01 0.439D-01 0.242D+00 0.726D+00
 Gap=     0.172 Goal=   None    Shift=    0.000
 RMSDP=1.24D-08 MaxDP=1.47D-06 DE=-3.05D-09 OVMax= 3.83D-06

 Cycle   9  Pass 1  IDiag  1:
 RMSU=  1.02D-08    CP:  1.00D+00  9.20D-01  9.21D-01  8.80D-01
 E= -2573.91152842006     Delta-E=       -0.000000000066 Rises=F Damp=F
 DIIS: error= 8.11D-08 at cycle   5 NSaved=   5.
 NSaved= 5 IEnMin= 5 EnMin= -2573.91152842006     IErMin= 5 ErrMin= 8.11D-08
 ErrMax= 8.11D-08  0.00D+00 EMaxC= 1.00D-01 BMatC= 2.62D-12 BMatP= 4.83D-11
 IDIUse=1 WtCom= 1.00D+00 WtEn= 0.00D+00
 Coeff-Com: -0.120D-02 0.523D-03-0.133D-01 0.159D+00 0.855D+00
 Coeff:     -0.120D-02 0.523D-03-0.133D-01 0.159D+00 0.855D+00
 Gap=     0.172 Goal=   None    Shift=    0.000
 RMSDP=3.32D-09 MaxDP=5.87D-07 DE=-6.59D-11 OVMax= 1.17D-06

 SCF Done:  E(RPBE1PBE) =  -2573.91152842     A.U. after    9 cycles
            NFock=  9  Conv=0.33D-08     -V/T= 2.0013
 KE= 2.570519990534D+03 PE=-6.162983583948D+03 EE= 1.018552064994D+03
 Leave Link  502 at Wed May  2 19:21:48 2018, MaxMem= 14763950080 cpu:      5341.0
 (Enter /cm/shared/gaussian/g09.e01/intel64-sandybridge/g09/l601.exe)
 Copying SCF densities to generalized density rwf, IOpCl= 0 IROHF=0.

 **********************************************************************

            Population analysis using the SCF density.

 **********************************************************************

 Alpha  occ. eigenvalues -- -482.98770 -62.38923 -56.16178 -56.16177 -56.16168
 Alpha  occ. eigenvalues --   -8.49064  -6.29380  -6.29375  -6.29347  -2.37651
 Alpha  occ. eigenvalues --   -2.37651  -2.37627  -2.37624  -2.37617  -0.47132
 Alpha  occ. eigenvalues --   -0.03017  -0.03004  -0.02967
 Alpha virt. eigenvalues --    0.14221   0.16060   0.16383   0.16930   0.18246
 Alpha virt. eigenvalues --    0.18282   0.18660   0.19772   0.20123   0.21324
 Alpha virt. eigenvalues --    0.21818   0.22335   0.22967   0.23513   0.24211
 Alpha virt. eigenvalues --    0.24382   0.24593   0.25505   0.26093   0.26958
 Alpha virt. eigenvalues --    0.27104   0.27542   0.27830   0.28258   0.28479
 Alpha virt. eigenvalues --    0.28629   0.29153   0.29939   0.30321   0.30613
 Alpha virt. eigenvalues --    0.31146   0.31915   0.32295   0.33426   0.34034
 Alpha virt. eigenvalues --    0.34963   0.35519   0.35647   0.36484   0.37179
 Alpha virt. eigenvalues --    0.37460   0.37686   0.37716   0.38188   0.38712
 Alpha virt. eigenvalues --    0.38924   0.39797   0.40008   0.40418   0.40951
 Alpha virt. eigenvalues --    0.41798   0.41942   0.42747   0.43513   0.44144
 Alpha virt. eigenvalues --    0.44573   0.45049   0.45520   0.47015   0.47363
 Alpha virt. eigenvalues --    0.47711   0.51321   0.52047   0.52842   0.61414
 Alpha virt. eigenvalues --    0.62195   0.63018   0.63321   0.63703   0.63868
 Alpha virt. eigenvalues --    0.64585   0.64843   0.65250   0.65580   0.66012
 Alpha virt. eigenvalues --    0.66454   0.67574   0.68112   0.68723   0.68857
 Alpha virt. eigenvalues --    0.69966   0.70518   0.70791   0.70947   0.71150
 Alpha virt. eigenvalues --    0.71383   0.72041   0.72497   0.73158   0.73256
 Alpha virt. eigenvalues --    0.73363   0.73732   0.74147   0.74321   0.74635
 Alpha virt. eigenvalues --    0.74747   0.75104   0.75388   0.75693   0.75968
 Alpha virt. eigenvalues --    0.76107   0.76757   0.76827   0.77249   0.77445
 Alpha virt. eigenvalues --    0.77941   0.78332   0.78605   0.78677   0.78889
 Alpha virt. eigenvalues --    0.79467   0.79928   0.80503   0.80589   0.81111
 Alpha virt. eigenvalues --    0.81247   0.81614   0.81846   0.82191   0.82665
 Alpha virt. eigenvalues --    0.82770   0.83171   0.83337   0.84138   0.84165
 Alpha virt. eigenvalues --    0.84484   0.84633   0.85418   0.85579   0.85964
 Alpha virt. eigenvalues --    0.86866   0.87234   0.87413   0.87818   0.88139
 Alpha virt. eigenvalues --    0.88337   0.89201   0.89372   0.89928   0.90969
 Alpha virt. eigenvalues --    0.91188   0.91361   0.91533   0.92073   0.92138
 Alpha virt. eigenvalues --    0.92757   0.93556   0.93781   0.93976   0.94049
 Alpha virt. eigenvalues --    0.94703   0.95013   0.95347   0.96025   0.96439
 Alpha virt. eigenvalues --    0.96539   0.96954   0.97528   0.97545   0.98044
 Alpha virt. eigenvalues --    0.98863   0.99075   0.99431   0.99779   0.99917
 Alpha virt. eigenvalues --    1.00518   1.00937   1.01511   1.01681   1.01924
 Alpha virt. eigenvalues --    1.02446   1.02729   1.04072   1.05003   1.05304
 Alpha virt. eigenvalues --    1.05657   1.06349   1.07114   1.07600   1.07758
 Alpha virt. eigenvalues --    1.08573   1.09127   1.09376   1.09571   1.10072
 Alpha virt. eigenvalues --    1.11559   1.12667   1.13582   1.14313   1.14810
 Alpha virt. eigenvalues --    1.15525   1.16387   1.17005   1.18444   1.20608
 Alpha virt. eigenvalues --    1.21075   1.22706   1.23494   1.24206   1.26830
 Alpha virt. eigenvalues --    1.31213   1.66976   1.67484   1.68383   1.68793
 Alpha virt. eigenvalues --    1.69298   1.69754   1.70160   1.70394   1.70455
 Alpha virt. eigenvalues --    1.70727   1.71160   1.71667   1.72255   1.72364
 Alpha virt. eigenvalues --    1.72456   1.73536   1.73670   1.74059   1.74213
 Alpha virt. eigenvalues --    1.74619   1.75121   1.75307   1.75512   1.75631
 Alpha virt. eigenvalues --    1.75862   1.76047   1.76313   1.76505   1.76782
 Alpha virt. eigenvalues --    1.77134   1.77257   1.77736   1.78002   1.78179
 Alpha virt. eigenvalues --    1.78516   1.78928   1.79171   1.79245   1.79519
 Alpha virt. eigenvalues --    1.79734   1.80460   1.80598   1.81110   1.81464
 Alpha virt. eigenvalues --    1.81733   1.82389   1.82470   1.83208   1.83784
 Alpha virt. eigenvalues --    1.84577   1.84739   1.85544   1.86188   1.86770
 Alpha virt. eigenvalues --    1.87876   1.88514   1.89203   1.89627   1.91164
 Alpha virt. eigenvalues --    1.91321   1.92159   1.93886   1.94816   1.95688
 Alpha virt. eigenvalues --    1.98412   1.99006   1.99134   1.99580   2.00176
 Alpha virt. eigenvalues --    2.00404   2.00873   2.00975   2.01489   2.01576
 Alpha virt. eigenvalues --    2.01895   2.02149   2.02176   2.02300   2.02690
 Alpha virt. eigenvalues --    2.02765   2.02957   2.03359   2.03503   2.03517
 Alpha virt. eigenvalues --    2.03638   2.04030   2.04184   2.04223   2.04668
 Alpha virt. eigenvalues --    2.05064   2.05354   2.05903   2.05997   2.06245
 Alpha virt. eigenvalues --    2.06605   2.06806   2.07268   2.07510   2.08187
 Alpha virt. eigenvalues --    2.08517   2.08912   2.09075   2.09327   2.10145
 Alpha virt. eigenvalues --    2.10656   2.10854   2.11200   2.11962   2.12671
 Alpha virt. eigenvalues --    2.12834   2.13565   2.13874   2.14659   2.14717
 Alpha virt. eigenvalues --    2.14854   2.15065   2.15530   2.15873   2.16001
 Alpha virt. eigenvalues --    2.16128   2.16508   2.16993   2.17142   2.17484
 Alpha virt. eigenvalues --    2.17838   2.17946   2.18273   2.18604   2.19047
 Alpha virt. eigenvalues --    2.19224   2.19419   2.19792   2.19821   2.20228
 Alpha virt. eigenvalues --    2.20715   2.21566   2.21719   2.22154   2.22527
 Alpha virt. eigenvalues --    2.23052   2.24551   2.24934   2.25831   2.26047
 Alpha virt. eigenvalues --    2.26393   2.26906   2.27289   2.28180   2.28289
 Alpha virt. eigenvalues --    2.29133   2.30021   2.31353   2.33528   2.33884
 Alpha virt. eigenvalues --    2.34798   2.35281   2.37001   2.37052   2.38419
 Alpha virt. eigenvalues --    2.39146   2.40422   2.40811   2.41871   2.42641
 Alpha virt. eigenvalues --    2.42775   2.43280   2.43711   2.44012   2.44347
 Alpha virt. eigenvalues --    2.44612   2.44761   2.45202   2.45351   2.46669
 Alpha virt. eigenvalues --    2.47048   2.47517   2.48260   2.48451   2.48796
 Alpha virt. eigenvalues --    2.49382   2.49891   2.49990   2.51390   2.52056
 Alpha virt. eigenvalues --    2.52358   2.53824   2.54157   2.54589   2.55577
 Alpha virt. eigenvalues --    2.56600   2.57916   2.58194   2.68209   2.68928
 Alpha virt. eigenvalues --    2.69511   2.69841   2.70241   2.70541   2.70687
 Alpha virt. eigenvalues --    2.70790   2.71059   2.71442   2.71642   2.72043
 Alpha virt. eigenvalues --    2.72313   2.72580   2.72774   2.73345   2.73639
 Alpha virt. eigenvalues --    2.74845   2.75601   2.77023   2.77736   2.78290
 Alpha virt. eigenvalues --    2.78797   2.80450   2.80709   2.81351   2.82370
 Alpha virt. eigenvalues --    2.83169   2.83566   2.84724   2.85074   2.85474
 Alpha virt. eigenvalues --    2.85589   2.85998   2.86200   2.86468   2.87482
 Alpha virt. eigenvalues --    2.87769   2.88523   2.89072   2.89450   2.89761
 Alpha virt. eigenvalues --    2.90876   2.91352   2.91584   2.92202   2.92435
 Alpha virt. eigenvalues --    2.92969   2.93589   2.93972   2.94747   2.96913
 Alpha virt. eigenvalues --    2.97081   2.97449   2.98958   2.99500   3.00860
 Alpha virt. eigenvalues --    3.01890   3.03402   3.04712   3.05590   3.07299
 Alpha virt. eigenvalues --    3.08705   3.10130   3.14482   3.15706   3.16773
 Alpha virt. eigenvalues --    3.17032   3.18003   3.18668   3.19058   3.20816
 Alpha virt. eigenvalues --    3.21834   3.22304   3.23166   3.24551   3.24741
 Alpha virt. eigenvalues --    3.26996   3.29611   3.30508   3.31413   3.32107
 Alpha virt. eigenvalues --    3.35865   3.36141   3.36973   3.38115   3.41482
 Alpha virt. eigenvalues --    3.42303   3.44789   3.45745   3.47623   3.48462
 Alpha virt. eigenvalues --    3.53256   3.55148   3.59207   3.59490   4.52082
 Alpha virt. eigenvalues --    4.52197   4.52485   4.52667   4.52736   4.52760
 Alpha virt. eigenvalues --    4.52862   4.52892   4.52939   4.52964   4.52994
 Alpha virt. eigenvalues --    4.53020   4.53035   4.53100   4.53225   4.53367
 Alpha virt. eigenvalues --    4.53520   4.53685   4.53711   4.53836   4.54112
 Alpha virt. eigenvalues --    4.54567   4.54626   4.54850   4.54970   4.55030
 Alpha virt. eigenvalues --    4.56048   4.56268   4.56578   4.57517   4.58365
 Alpha virt. eigenvalues --    4.58787   4.59991   4.60173   4.60180   4.60286
 Alpha virt. eigenvalues --    4.60412   4.60550   4.60867   4.60957   4.60968
 Alpha virt. eigenvalues --    4.61121   4.61183   4.61221   4.61245   4.61506
 Alpha virt. eigenvalues --    4.61645   4.61845   4.61852   4.61995   4.62375
 Alpha virt. eigenvalues --    4.62619   4.62836   4.63075   4.63371   4.63456
 Alpha virt. eigenvalues --    4.63731   4.64240   4.64350   4.64613   4.65370
 Alpha virt. eigenvalues --    4.66930   4.67561   4.69231   4.74550   4.75555
 Alpha virt. eigenvalues --    4.75920   4.75982   4.76062   4.76105   4.76426
 Alpha virt. eigenvalues --    4.76530   4.76747   4.76859   4.77172   4.77421
 Alpha virt. eigenvalues --    4.77838   4.79700   4.79942   4.80255   4.80482
 Alpha virt. eigenvalues --    4.80930   4.81221   4.81313   4.81768   4.82168
 Alpha virt. eigenvalues --    4.82440   4.82676   4.82893   4.82973   4.84246
 Alpha virt. eigenvalues --    4.84662   4.84754   4.85286   4.85653   4.86384
 Alpha virt. eigenvalues --    4.87078   4.87311   4.87449   4.87476   4.88310
 Alpha virt. eigenvalues --    4.88382   4.88666   4.88896   4.88932   4.88998
 Alpha virt. eigenvalues --    4.89255   4.89556   4.89615   4.89865   4.90217
 Alpha virt. eigenvalues --    4.91470   4.91656   4.92329   4.92672   4.92941
 Alpha virt. eigenvalues --    4.93753   4.94683   4.96192   4.97322   4.97353
 Alpha virt. eigenvalues --    4.99285   4.99823   5.00062   5.00684   5.01797
 Alpha virt. eigenvalues --    5.02679   5.03292   5.04139   5.04779   5.05423
 Alpha virt. eigenvalues --    5.06224   5.06587   5.06907   5.07138   5.07448
 Alpha virt. eigenvalues --    5.08953   5.09572   5.09709   5.09822   5.10486
 Alpha virt. eigenvalues --    5.12867   5.12931   5.13426   5.13540   5.13953
 Alpha virt. eigenvalues --    5.14683   5.16048   5.16770   5.17093   5.18500
 Alpha virt. eigenvalues --    5.19778   5.20427   5.21101   5.22924   5.26161
 Alpha virt. eigenvalues --    5.27342   5.30293   5.31853   5.34101   5.35179
 Alpha virt. eigenvalues --    5.37346   5.37440   5.37840   5.37975   5.38835
 Alpha virt. eigenvalues --    5.39036   5.40422   5.40992   5.41073   5.41844
 Alpha virt. eigenvalues --    5.42139   5.42978   5.44366   5.45563   5.45600
[...]
   Y21       43.59598  -0.00726   0.00000   0.00232   0.00163  43.59761
   Z21       39.87322   0.01647   0.00000   0.00719   0.00714  39.88036
   X22       36.92525  -0.00413   0.00000  -0.00972  -0.01033  36.91492
   Y22       43.23693  -0.00376   0.00000  -0.00449  -0.00591  43.23103
   Z22       37.26540  -0.00101   0.00000   0.00042   0.00074  37.26613
   X23       39.15513   0.02062   0.00000   0.03693   0.03764  39.19276
   Y23       42.70781   0.00593   0.00000  -0.01897  -0.01885  42.68896
   Z23       42.82119  -0.01390   0.00000   0.00516   0.00508  42.82627
   X24       38.07798  -0.01451   0.00000  -0.02159  -0.02073  38.05725
   Y24       41.29052  -0.01384   0.00000  -0.01031  -0.01022  41.28030
   Z24       43.06686   0.00782   0.00000   0.01636   0.01689  43.08375
   X25       38.92836  -0.00595   0.00000  -0.01694  -0.01597  38.91239
   Y25       43.72826   0.00137   0.00000  -0.01451  -0.01405  43.71421
   Z25       44.29518   0.01186   0.00000   0.01581   0.01554  44.31072
   X26       39.26851  -0.01951   0.00000  -0.02072  -0.02259  39.24592
   Y26       42.87789  -0.00982   0.00000  -0.01208  -0.01471  42.86318
   Z26       31.72850  -0.01278   0.00000  -0.01961  -0.01974  31.70876
   X27       40.00550   0.00919   0.00000   0.01900   0.01752  40.02302
   Y27       41.97082  -0.00505   0.00000  -0.00815  -0.01038  41.96044
   Z27       33.10800   0.00678   0.00000  -0.01241  -0.01250  33.09550
   X28       40.27006   0.01054   0.00000   0.00826   0.00627  40.27633
   Y28       44.37077   0.01082   0.00000   0.00036  -0.00224  44.36853
   Z28       31.57732   0.00006   0.00000  -0.00463  -0.00537  31.57195
   X29       44.72982   0.00783   0.00000  -0.00693  -0.00649  44.72333
   Y29       41.57397  -0.00076   0.00000  -0.00708  -0.00695  41.56703
   Z29       41.38500  -0.01038   0.00000  -0.00171  -0.00278  41.38222
   X30       45.67468   0.00326   0.00000   0.00023   0.00102  45.67570
   Y30       41.74405   0.00229   0.00000   0.01011   0.01069  41.75474
   Z30       42.91568   0.00638   0.00000   0.00556   0.00422  42.91990
   X31       43.01017  -0.01614   0.00000  -0.02743  -0.02685  42.98332
   Y31       41.46059   0.00156   0.00000   0.01437   0.01453  41.47512
   Z31       41.93302   0.00600   0.00000   0.01254   0.01189  41.94491
   X32       34.58199   0.00811   0.00000  -0.00567  -0.00660  34.57539
   Y32       30.87813  -0.03424   0.00000  -0.05016  -0.05299  30.82513
   Z32       32.21983  -0.01453   0.00000  -0.03375  -0.02984  32.18999
   X33       34.18515  -0.00590   0.00000   0.00213   0.00146  34.18660
   Y33       31.91747   0.02025   0.00000   0.02336   0.02085  31.93833
   Z33       33.63713   0.00813   0.00000  -0.03696  -0.03323  33.60389
   X34       34.26073  -0.00383   0.00000  -0.00421  -0.00554  34.25519
   Y34       31.89858   0.01044   0.00000   0.01107   0.00786  31.90644
   Z34       30.76474  -0.00445   0.00000  -0.00936  -0.00564  30.75910
   X35       40.70470   0.00038   0.00000  -0.01120  -0.00931  40.69539
   Y35       39.34410   0.01307   0.00000   0.01815   0.01939  39.36349
   Z35       46.99749   0.00311   0.00000  -0.00602  -0.00562  46.99187
   X36       40.76139   0.00149   0.00000   0.01188   0.01346  40.77485
   Y36       38.51262  -0.00982   0.00000  -0.02995  -0.02910  38.48352
   Z36       45.39122  -0.00310   0.00000   0.00724   0.00784  45.39906
   X37       40.23227   0.00005   0.00000   0.00558   0.00783  40.24010
   Y37       38.04019  -0.00454   0.00000  -0.00158  -0.00008  38.04011
   Z37       48.16912  -0.00136   0.00000  -0.01091  -0.01008  48.15904
   X38       29.30965  -0.02027   0.00000  -0.03125  -0.03134  29.27831
   Y38       42.25428  -0.00596   0.00000  -0.00388  -0.00534  42.24894
   Z38       39.19292   0.01111   0.00000   0.02217   0.02448  39.21740
   X39       30.44349   0.01189   0.00000   0.00666   0.00630  30.44979
   Y39       43.42591   0.00160   0.00000  -0.02538  -0.02696  43.39895
   Z39       38.41813  -0.00679   0.00000  -0.00825  -0.00649  38.41164
   X40       30.27341   0.00408   0.00000  -0.00269  -0.00265  30.27076
   Y40       40.72360   0.00026   0.00000   0.00602   0.00466  40.72826
   Z40       39.34410  -0.00108   0.00000   0.00053   0.00299  39.34709
   X41       44.25739  -0.00166   0.00000   0.00852   0.00694  44.26432
   Y41       37.64334  -0.01214   0.00000  -0.01184  -0.01420  37.62914
   Z41       31.36945  -0.00064   0.00000   0.01007   0.01008  31.37953
   X42       44.42746  -0.00138   0.00000  -0.01471  -0.01661  44.41085
   Y42       39.17402   0.00734   0.00000   0.00441   0.00182  39.17585
   Z42       30.42459  -0.00116   0.00000   0.00799   0.00758  30.43217
   X43       44.67313   0.00180   0.00000   0.00273   0.00151  44.67464
   Y43       38.11578   0.00677   0.00000   0.02527   0.02335  38.13912
   Z43       33.07021   0.00629   0.00000   0.01145   0.01124  33.08145
   X44       34.31743   0.00281   0.00000   0.00240   0.00403  34.32146
   Y44       42.12200   0.01125   0.00000   0.00813   0.00886  42.13086
   Z44       46.65734   0.02672   0.00000   0.03127   0.03245  46.68979
   X45       32.88123   0.00036   0.00000   0.00842   0.00992  32.89115
   Y45       43.21804   0.00117   0.00000   0.00938   0.00995  43.22799
   Z45       46.44947  -0.00537   0.00000  -0.01858  -0.01734  46.43213
   X46       34.43081  -0.00100   0.00000  -0.00193  -0.00060  34.43021
   Y46       41.21493  -0.00964   0.00000  -0.00310  -0.00275  41.21217
   Z46       45.10776  -0.01963   0.00000  -0.00497  -0.00359  45.10418
   X47       37.26540   0.00186   0.00000  -0.01131  -0.01384  37.25156
   Y47       38.38034  -0.00482   0.00000   0.00591   0.00210  38.38244
   Z47       27.49552  -0.01686   0.00000  -0.03061  -0.02918  27.46634
   X48       37.87011   0.00203   0.00000   0.01350   0.01075  37.88086
   Y48       40.00550   0.00386   0.00000   0.01552   0.01164  40.01714
   Z48       26.96639   0.00345   0.00000   0.01817   0.01905  26.98544
   X49       36.60400  -0.00292   0.00000   0.01120   0.00904  36.61304
   Y49       38.66380   0.00053   0.00000  -0.01455  -0.01798  38.64581
   Z49       29.15847   0.01316   0.00000   0.00730   0.00881  29.16729
   X50       39.40079   0.02138   0.00000   0.00637   0.00570  39.40649
   Y50       29.30965  -0.01366   0.00000  -0.03867  -0.04100  29.26865
   Z50       32.90013  -0.00029   0.00000  -0.01790  -0.01471  32.88542
   X51       37.77563  -0.02380   0.00000  -0.02506  -0.02589  37.74974
   Y51       29.78208   0.00875   0.00000   0.01957   0.01699  29.79907
   Z51       32.29542  -0.00648   0.00000  -0.00031   0.00312  32.29854
   X52       39.34410   0.00691   0.00000   0.04882   0.04854  39.39264
   Y52       29.66870   0.00083   0.00000  -0.00170  -0.00359  29.66511
   Z52       34.67647   0.00306   0.00000  -0.01445  -0.01136  34.66511
   X53       32.44660   0.00670   0.00000   0.00765   0.00661  32.45321
   Y53       44.55974  -0.00533   0.00000   0.00025  -0.00183  44.55792
   Z53       35.81031   0.00990   0.00000   0.00018   0.00119  35.81150
   X54       32.03086   0.00234   0.00000   0.03267   0.03127  32.06212
   Y54       44.08731  -0.00201   0.00000   0.00129  -0.00125  44.08606
   Z54       34.10956  -0.01361   0.00000  -0.02580  -0.02458  34.08497
   X55       31.76630   0.00074   0.00000   0.02507   0.02395  31.79024
   Y55       46.22270   0.01073   0.00000   0.02498   0.02289  46.24559
   Z55       35.98039  -0.00456   0.00000  -0.02962  -0.02888  35.95151
   X56       42.17869  -0.01396   0.00000  -0.01739  -0.01705  42.16164
   Y56       29.66870   0.01420   0.00000   0.03464   0.03361  29.70231
   Z56       37.35989  -0.00340   0.00000   0.01546   0.01791  37.37779
   X57       43.63378   0.01236   0.00000   0.00062   0.00106  43.63484
   Y57       28.62935  -0.00747   0.00000   0.00901   0.00811  28.63746
   Z57       37.52996   0.00001   0.00000  -0.01582  -0.01344  37.51652
   X58       41.53618   0.00024   0.00000   0.00646   0.00718  41.54336
   Y58       29.85767  -0.00135   0.00000  -0.00825  -0.00890  29.84878
   Z58       39.04174   0.01027   0.00000   0.03742   0.03997  39.08171
   X59       30.65136  -0.00403   0.00000   0.00318   0.00132  30.65267
   Y59       36.60400  -0.00496   0.00000  -0.02009  -0.02377  36.58022
   Z59       29.83878  -0.01153   0.00000  -0.01335  -0.00996  29.82881
   X60       29.29076  -0.00187   0.00000   0.00751   0.00594  29.29669
   Y60       36.13156  -0.00120   0.00000   0.00088  -0.00262  36.12895
   Z60       30.93482   0.00606   0.00000   0.01445   0.01826  30.95308
   X61       32.01196   0.00798   0.00000   0.00756   0.00593  32.01789
   Y61       37.00084   0.00693   0.00000   0.03324   0.02993  37.03077
   Z61       30.97261   0.00582   0.00000  -0.00854  -0.00558  30.96703
   X62       42.51884   0.01730   0.00000   0.02883   0.02837  42.54721
   Y62       47.24315   0.01032   0.00000  -0.00374  -0.00430  47.23885
   Z62       39.15513  -0.00123   0.00000  -0.00163  -0.00360  39.15153
   X63       42.97237  -0.00048   0.00000  -0.00332  -0.00337  42.96900
   Y63       47.31874  -0.00271   0.00000  -0.01691  -0.01701  47.30173
   Z63       40.91257   0.00186   0.00000   0.00857   0.00649  40.91906
   X64       41.13934  -0.01666   0.00000  -0.02367  -0.02406  41.11527
   Y64       46.09042  -0.00858   0.00000   0.01439   0.01371  46.10413
   Z64       39.09843  -0.00464   0.00000  -0.02643  -0.02780  39.07064
   X65       37.87011  -0.01320   0.00000  -0.00523  -0.00704  37.86307
   Y65       47.77228   0.01463   0.00000   0.02893   0.02663  47.79891
   Z65       33.42926  -0.00945   0.00000  -0.01413  -0.01516  33.41409
   X66       39.58976   0.01201   0.00000   0.02434   0.02246  39.61222
   Y66       48.26361  -0.00105   0.00000  -0.00370  -0.00594  48.25767
   Z66       33.18359   0.00436   0.00000   0.02585   0.02430  33.20789
   X67       37.94570   0.00358   0.00000   0.00111  -0.00037  37.94533
   Y67       46.24160  -0.00727   0.00000   0.02004   0.01799  46.25959
   Z67       34.37412   0.00823   0.00000   0.01190   0.01123  34.38535
   X68       29.61201   0.00254   0.00000  -0.00105  -0.00023  29.61178
   Y68       37.68114   0.00102   0.00000  -0.02850  -0.02929  37.65185
   Z68       41.85743  -0.00431   0.00000  -0.01358  -0.01021  41.84723
   X69       27.96795  -0.00449   0.00000   0.00231   0.00327  27.97121
   Y69       38.02129   0.00494   0.00000   0.01837   0.01765  38.03893
   Z69       42.53774   0.00165   0.00000  -0.00248   0.00117  42.53891
   X70       29.95216   0.00058   0.00000  -0.01306  -0.01202  29.94014
   Y70       35.96149  -0.01434   0.00000  -0.04258  -0.04324  35.91825
   Z70       42.27317   0.00165   0.00000  -0.00040   0.00332  42.27650
   X71       43.59598  -0.00711   0.00000  -0.01132  -0.01309  43.58289
   Y71       45.65578   0.02049   0.00000   0.01741   0.01538  45.67116
   Z71       32.93793  -0.01253   0.00000  -0.00673  -0.00855  32.92937
   X72       45.35343   0.00836   0.00000   0.00207   0.00024  45.35367
   Y72       45.41012  -0.00171   0.00000   0.00631   0.00432  45.41444
   Z72       32.61667  -0.00211   0.00000  -0.00853  -0.01069  32.60598
   X73       43.14245  -0.00219   0.00000   0.00810   0.00667  43.14912
   Y73       44.27628  -0.01733   0.00000  -0.01022  -0.01201  44.26427
   Z73       33.99617   0.01500   0.00000   0.02340   0.02203  34.01820
   X74       34.44971  -0.02142   0.00000  -0.02761  -0.02990  34.41981
   Y74       44.25739   0.00427   0.00000  -0.00157  -0.00489  44.25250
   Z74       30.23562   0.00272   0.00000   0.00780   0.00844  30.24405
   X75       36.15046   0.01678   0.00000   0.00626   0.00409  36.15455
   Y75       43.78495  -0.00252   0.00000   0.01455   0.01145  43.79640
   Z75       30.63246   0.00597   0.00000   0.01917   0.01952  30.65198
   X76       34.33632  -0.00101   0.00000  -0.00783  -0.01052  34.32581
   Y76       44.04952  -0.00394   0.00000  -0.01845  -0.02222  44.02730
   Z76       28.44038  -0.00415   0.00000   0.00069   0.00140  28.44178
   X77       44.08731   0.02342   0.00000   0.03573   0.03458  44.12189
   Y77       31.25607  -0.00058   0.00000  -0.02376  -0.02614  31.22993
   Z77       31.35056  -0.00647   0.00000   0.00564   0.00726  31.35782
   X78       42.61332  -0.01788   0.00000  -0.02613  -0.02719  42.58613
   Y78       30.21672  -0.00369   0.00000   0.01878   0.01630  30.23302
   Z78       31.38835   0.00674   0.00000   0.02316   0.02538  31.41373
   X79       43.74716  -0.00502   0.00000  -0.00336  -0.00432  43.74284
   Y79       32.54108   0.00465   0.00000   0.01280   0.01068  32.55177
   Z79       32.57888   0.00065   0.00000  -0.02738  -0.02600  32.55288
   X80       33.65602   0.00275   0.00000  -0.01060  -0.00899  33.64703
   Y80       31.29386   0.01565   0.00000   0.01737   0.01724  31.31110
   Z80       43.38811   0.00048   0.00000  -0.01951  -0.01550  43.37261
   X81       32.48439  -0.00363   0.00000   0.00624   0.00818  32.49257
   Y81       30.67026  -0.00331   0.00000   0.00002   0.00012  30.67037
   Z81       44.61643   0.00605   0.00000   0.00704   0.01147  44.62791
   X82       33.88279   0.00187   0.00000   0.00542   0.00686  33.88965
   Y82       29.93326  -0.01244   0.00000  -0.01920  -0.01960  29.91367
   Z82       42.23538  -0.00744   0.00000  -0.00515  -0.00086  42.23452
   X83       33.58043   0.00160   0.00000   0.00254   0.00242  33.58286
   Y83       47.65889   0.00134   0.00000  -0.01218  -0.01297  47.64592
   Z83       40.70470   0.01918   0.00000   0.01800   0.01799  40.72269
   X84       34.77096   0.00902   0.00000   0.01565   0.01538  34.78634
   Y84       46.65734  -0.00615   0.00000  -0.00068  -0.00163  46.65571
   Z84       39.77874  -0.00960   0.00000  -0.01677  -0.01681  39.76192
   X85       32.35211  -0.00773   0.00000   0.00063   0.00019  32.35230
   Y85       48.15022   0.00344   0.00000   0.00532   0.00414  48.15436
   Z85       39.49528  -0.01020   0.00000  -0.00475  -0.00461  39.49067
   X86       30.02775  -0.00576   0.00000  -0.00832  -0.00805  30.01970
   Y86       31.33166   0.00610   0.00000   0.00864   0.00683  31.33849
   Z86       37.52996   0.00534   0.00000   0.04014   0.04497  37.57493
   X87       31.55843   0.00883   0.00000   0.00954   0.00996  31.56838
   Y87       30.48128  -0.00614   0.00000  -0.01694  -0.01855  30.46273
   Z87       37.96460   0.00027   0.00000  -0.01265  -0.00796  37.95664
   X88       28.72384  -0.00506   0.00000  -0.01530  -0.01488  28.70896
   Y88       30.12223  -0.00308   0.00000  -0.00776  -0.00959  30.11265
   Z88       37.87011  -0.00135   0.00000  -0.01453  -0.00909  37.86102
   X89       40.49683   0.02001   0.00000   0.01697   0.01932  40.51615
   Y89       31.61512  -0.00626   0.00000  -0.01381  -0.01266  31.60246
   Z89       46.60065   0.01375   0.00000   0.05040   0.05275  46.65340
   X90       40.21337  -0.00254   0.00000   0.01159   0.01365  40.22703
   Y90       33.29697   0.00224   0.00000  -0.03112  -0.03016  33.26681
   Z90       45.97704  -0.00909   0.00000  -0.03772  -0.03570  45.94133
   X91       38.89056  -0.01372   0.00000  -0.01183  -0.00947  38.88109
   Y91       30.82143  -0.00161   0.00000   0.00431   0.00531  30.82674
   Z91       46.50616  -0.00267   0.00000  -0.00664  -0.00372  46.50244
   X92       48.58486   0.01177   0.00000   0.01624   0.01602  48.60087
   Y92       40.02440  -0.00700   0.00000  -0.00867  -0.00911  40.01529
   Z92       37.98350  -0.00574   0.00000   0.00138  -0.00020  37.98330
   X93       48.81163  -0.00361   0.00000  -0.01426  -0.01475  48.79688
   Y93       41.70626   0.00351   0.00000   0.00303   0.00245  41.70870
   Z93       37.34099   0.00121   0.00000   0.00805   0.00601  37.34700
   X94       47.12977  -0.01019   0.00000  -0.01454  -0.01453  47.11524
   Y94       40.13778   0.00232   0.00000  -0.00219  -0.00247  40.13532
   Z94       39.06064   0.00335   0.00000  -0.01155  -0.01281  39.04783
   X95       45.61799  -0.00154   0.00000   0.00406   0.00582  45.62381
   Y95       36.22605  -0.00405   0.00000  -0.01343  -0.01221  36.21384
   Z95       45.50461   0.01317   0.00000   0.01002   0.01006  45.51467
   X96       46.10932  -0.00010   0.00000  -0.01141  -0.00980  46.09952
   Y96       37.96460   0.00453   0.00000  -0.00105   0.00017  37.96477
   Z96       45.41012  -0.00302   0.00000  -0.00826  -0.00876  45.40136
   X97       45.75027  -0.00474   0.00000  -0.03861  -0.03721  45.71306
   Y97       35.62134  -0.00087   0.00000   0.00700   0.00779  35.62913
   Z97       43.80385  -0.01310   0.00000  -0.01990  -0.01973  43.78412
         Item               Value     Threshold  Converged?
 Maximum Force            0.034237     0.000450     NO 
 RMS     Force            0.009449     0.000300     NO 
 Maximum Displacement     0.052993     0.001800     NO 
 RMS     Displacement     0.017523     0.001200     NO 
 Predicted change in Energy=-2.315572D-02
 GradGradGradGradGradGradGradGradGradGradGradGradGradGradGradGradGradGrad

 Leave Link  103 at Wed May  2 19:26:43 2018, MaxMem= 14763950080 cpu:        52.7
 (Enter /cm/shared/gaussian/g09.e01/intel64-sandybridge/g09/l9999.exe)
 1\1\GINC-POPLE03\Force\RPBE1PBE\CC-pVDZ\Br1H64O32(1-)\M.PELUSO\02-May-
 2018\0\\#p PBE1PBE/cc-pvDZ force Counterpoise=2 noSymm\\forces on chlo
 ride comput - NWATER: 32\\-1,1\Br,20.,20.,20.\O,18.11,21.04,22.3\H,18.
 6,20.53,21.66\H,17.26,20.6,22.38\O,22.49,21.76,18.89\H,22.68,22.15,19.
 74\H,21.83,21.09,19.06\O,20.21,18.26,22.88\H,20.16,18.69,22.03\H,19.45
 ,17.67,22.9\O,18.65,20.45,17.15\H,18.89,21.27,17.58\H,18.74,19.79,17.8
 4\O,17.46,18.25,18.56\H,16.72,17.92,19.07\H,18.02,18.67,19.2\O,22.85,1
 8.67,21.26\H,22.69,17.88,20.74\H,22.02,19.14,21.26\O,20.13,23.45,20.22
 \H,20.15,23.07,21.1\H,19.54,22.88,19.72\O,20.72,22.6,22.66\H,20.15,21.
 85,22.79\H,20.6,23.14,23.44\O,20.78,22.69,16.79\H,21.17,22.21,17.52\H,
 21.31,23.48,16.71\O,23.67,22.,21.9\H,24.17,22.09,22.71\H,22.76,21.94,2
 2.19\O,18.3,16.34,17.05\H,18.09,16.89,17.8\H,18.13,16.88,16.28\O,21.54
 ,20.82,24.87\H,21.57,20.38,24.02\H,21.29,20.13,25.49\O,15.51,22.36,20.
 74\H,16.11,22.98,20.33\H,16.02,21.55,20.82\O,23.42,19.92,16.6\H,23.51,
 20.73,16.1\H,23.64,20.17,17.5\O,18.16,22.29,24.69\H,17.4,22.87,24.58\H
 ,18.22,21.81,23.87\O,19.72,20.31,14.55\H,20.04,21.17,14.27\H,19.37,20.
 46,15.43\O,20.85,15.51,17.41\H,19.99,15.76,17.09\H,20.82,15.7,18.35\O,
 17.17,23.58,18.95\H,16.95,23.33,18.05\H,16.81,24.46,19.04\O,22.32,15.7
 ,19.77\H,23.09,15.15,19.86\H,21.98,15.8,20.66\O,16.22,19.37,15.79\H,15
 .5,19.12,16.37\H,16.94,19.58,16.39\O,22.5,25.,20.72\H,22.74,25.04,21.6
 5\H,21.77,24.39,20.69\O,20.04,25.28,17.69\H,20.95,25.54,17.56\H,20.08,
 24.47,18.19\O,15.67,19.94,22.15\H,14.8,20.12,22.51\H,15.85,19.03,22.37
 \O,23.07,24.16,17.43\H,24.,24.03,17.26\H,22.83,23.43,17.99\O,18.23,23.
 42,16.\H,19.13,23.17,16.21\H,18.17,23.31,15.05\O,23.33,16.54,16.59\H,2
 2.55,15.99,16.61\H,23.15,17.22,17.24\O,17.81,16.56,22.96\H,17.19,16.23
 ,23.61\H,17.93,15.84,22.35\O,17.77,25.22,21.54\H,18.4,24.69,21.05\H,17
 .12,25.48,20.9\O,15.89,16.58,19.86\H,16.7,16.13,20.09\H,15.2,15.94,20.
 04\O,21.43,16.73,24.66\H,21.28,17.62,24.33\H,20.58,16.31,24.61\O,25.71
 ,21.18,20.1\H,25.83,22.07,19.76\H,24.94,21.24,20.67\O,24.14,19.17,24.0
 8\H,24.4,20.09,24.03\H,24.21,18.85,23.18\\Version=ES64L-G09RevE.01\HF=
 -2443.1474483\RMSD=3.103e-09\RMSF=9.449e-03\Dipole=-4.3225905,-1.84524
 45,4.7878301\Quadrupole=-260.3507752,-130.3429294,390.6937046,-1648.46
 11405,-1430.1789477,-1376.0472286\PG=C01 [X(Br1H64O32)]\\@


 THE RARE EARTHS PERPLEX US IN OUR RESEARCHES,
 BAFFLE US IN OUR SPECULATIONS, AND HAUNT US IN OUR
 VERY DREAMS.  THEY STRETCH LIKE AN UNKNOWN BEFORE US,
 MOCKING, MYSTIFYING, AND MURMURING STRANGE REVELATIONS
 AND POSSIBILITIES.  -- SIR WILLIAM CROOKE, 1832-1919
 Job cpu time:       0 days  9 hours 19 minutes 36.8 seconds.
 File lengths (MBytes):  RWF=    482 Int=      0 D2E=      0 Chk=    160 Scr=      1
 Normal termination of Gaussian 09 at Wed May  2 19:26:43 2018.
