 Entering Gaussian System, Link 0=/cm/shared/gaussian/g09.e01/intel64-sandybridge/g09/g09
 Initial command:
 /cm/shared/gaussian/g09.e01/intel64-sandybridge/g09/l1.exe "/local/scratch/m.peluso/32_wat/Gau-20694.inp" -scrdir="/local/scratch/m.peluso/32_wat/"
 Entering Link 1 = /cm/shared/gaussian/g09.e01/intel64-sandybridge/g09/l1.exe PID=     20695.
  
 Copyright (c) 1988,1990,1992,1993,1995,1998,2003,2009,2015,
            Gaussian, Inc.  All Rights Reserved.
  
 This is part of the Gaussian(R) 09 program.  It is based on
 the Gaussian(R) 03 system (copyright 2003, Gaussian, Inc.),
 the Gaussian(R) 98 system (copyright 1998, Gaussian, Inc.),
 the Gaussian(R) 94 system (copyright 1995, Gaussian, Inc.),
 the Gaussian 92(TM) system (copyright 1992, Gaussian, Inc.),
 the Gaussian 90(TM) system (copyright 1990, Gaussian, Inc.),
 the Gaussian 88(TM) system (copyright 1988, Gaussian, Inc.),
 the Gaussian 86(TM) system (copyright 1986, Carnegie Mellon
 University), and the Gaussian 82(TM) system (copyright 1983,
 Carnegie Mellon University). Gaussian is a federally registered
 trademark of Gaussian, Inc.
  
 This software contains proprietary and confidential information,
 including trade secrets, belonging to Gaussian, Inc.
  
 This software is provided under written license and may be
 used, copied, transmitted, or stored only in accord with that
 written license.
  
 The following legend is applicable only to US Government
 contracts under FAR:
  
                    RESTRICTED RIGHTS LEGEND
  
 Use, reproduction and disclosure by the US Government is
 subject to restrictions as set forth in subparagraphs (a)
 and (c) of the Commercial Computer Software - Restricted
 Rights clause in FAR 52.227-19.
  
 Gaussian, Inc.
 340 Quinnipiac St., Bldg. 40, Wallingford CT 06492
  
  
 ---------------------------------------------------------------
 Warning -- This program may not be used in any manner that
 competes with the business of Gaussian, Inc. or will provide
 assistance to any competitor of Gaussian, Inc.  The licensee
 of this program is prohibited from giving any competitor of
 Gaussian, Inc. access to this program.  By using this program,
 the user acknowledges that Gaussian, Inc. is engaged in the
 business of creating and licensing software in the field of
 computational chemistry and represents and warrants to the
 licensee that it is not a competitor of Gaussian, Inc. and that
 it will not use this program in any manner prohibited above.
 ---------------------------------------------------------------
  

 Cite this work as:
 Gaussian 09, Revision E.01,
 M. J. Frisch, G. W. Trucks, H. B. Schlegel, G. E. Scuseria, 
 M. A. Robb, J. R. Cheeseman, G. Scalmani, V. Barone, B. Mennucci, 
 G. A. Petersson, H. Nakatsuji, M. Caricato, X. Li, H. P. Hratchian, 
 A. F. Izmaylov, J. Bloino, G. Zheng, J. L. Sonnenberg, M. Hada, 
 M. Ehara, K. Toyota, R. Fukuda, J. Hasegawa, M. Ishida, T. Nakajima, 
 Y. Honda, O. Kitao, H. Nakai, T. Vreven, J. A. Montgomery, Jr., 
 J. E. Peralta, F. Ogliaro, M. Bearpark, J. J. Heyd, E. Brothers, 
 K. N. Kudin, V. N. Staroverov, T. Keith, R. Kobayashi, J. Normand, 
 K. Raghavachari, A. Rendell, J. C. Burant, S. S. Iyengar, J. Tomasi, 
 M. Cossi, N. Rega, J. M. Millam, M. Klene, J. E. Knox, J. B. Cross, 
 V. Bakken, C. Adamo, J. Jaramillo, R. Gomperts, R. E. Stratmann, 
 O. Yazyev, A. J. Austin, R. Cammi, C. Pomelli, J. W. Ochterski, 
 R. L. Martin, K. Morokuma, V. G. Zakrzewski, G. A. Voth, 
 P. Salvador, J. J. Dannenberg, S. Dapprich, A. D. Daniels, 
 O. Farkas, J. B. Foresman, J. V. Ortiz, J. Cioslowski, 
 and D. J. Fox, Gaussian, Inc., Wallingford CT, 2013.
 
 ******************************************
 Gaussian 09:  ES64L-G09RevE.01 30-Nov-2015
                 3-May-2018 
 ******************************************
 %Mem=110GB
 %NProcShared=64
 Will use up to   64 processors via shared memory.
 %chk=snap49.chk
 ----------------------------------------------
 #p PBE1PBE/cc-pvDZ force Counterpoise=2 noSymm
 ----------------------------------------------
 1/10=7,30=1,38=1,62=2/1,3;
 2/12=2,15=1,17=6,18=5,40=1/2;
 1/10=7,30=1,38=1,53=2,62=2,63=101/22;
 3/5=16,11=2,16=1,25=1,30=1,71=1,74=-13/1,2,3;
 4//1;
 5/5=2,38=5/2;
 6/7=2,8=2,9=2,10=2,28=1/1;
 7/7=1,29=1,30=1,33=-1/1,2,3,16;
 1/10=7,30=1,53=2,62=2,63=101/22;
 3/5=7,6=11,11=2,16=1,25=1,30=1,71=1,74=-13,82=7/1,2,3;
 4//1;
 5/5=2,38=5/2;
 6/7=2,8=2,9=2,10=2,28=1/1;
 7/7=1,29=1,30=1,33=-1/1,2,3,16;
 1/10=7,30=1,53=2,62=2,63=101/22(-5);
 7/9=1,29=1,44=-1/16;
 1/10=7,30=1,62=2/3;
 99//99;
 Leave Link    1 at Thu May  3 00:21:21 2018, MaxMem= 14763950080 cpu:         6.0
 (Enter /cm/shared/gaussian/g09.e01/intel64-sandybridge/g09/l101.exe)
 --------------------------------------
 forces on chloride comput - NWATER: 32
 --------------------------------------
 Symbolic Z-matrix:
 Charge = -1 Multiplicity = 1 in supermolecule
 Charge = -1 Multiplicity = 1 in fragment      1.
 Charge =  0 Multiplicity = 1 in fragment      2.
 Br(Fragment=1)        20.       20.       20. 
 O(Fragment=2)         17.64     21.92     21.17 
 H(Fragment=2)         18.04     22.77     21.34 
 H(Fragment=2)         18.32     21.42     20.72 
 O(Fragment=2)         18.13     21.24     17.63 
 H(Fragment=2)         17.94     22.15     17.83 
 H(Fragment=2)         18.56     20.9      18.42 
 O(Fragment=2)         21.81     21.37     17.73 
 H(Fragment=2)         21.24     21.35     18.49 
 H(Fragment=2)         22.7      21.28     18.09 
 O(Fragment=2)         17.77     18.46     21.98 
 H(Fragment=2)         18.44     18.59     21.31 
 H(Fragment=2)         18.05     19.02     22.7 
 O(Fragment=2)         20.92     22.26     22.74 
 H(Fragment=2)         21.82     22.56     22.68 
 H(Fragment=2)         20.84     21.59     22.05 
 O(Fragment=2)         23.3      18.54     18.69 
 H(Fragment=2)         23.87     19.3      18.79 
 H(Fragment=2)         22.43     18.86     18.92 
 O(Fragment=2)         17.52     16.69     18.77 
 H(Fragment=2)         18.24     17.3      18.95 
 H(Fragment=2)         17.91     16.02     18.21 
 O(Fragment=2)         23.67     19.2      22.08 
 H(Fragment=2)         23.53     18.27     21.92 
 H(Fragment=2)         23.04     19.64     21.51 
 O(Fragment=2)         19.65     17.92     15.99 
 H(Fragment=2)         19.65     18.31     16.87 
 H(Fragment=2)         19.13     18.52     15.46 
 O(Fragment=2)         23.77     21.29     19.36 
 H(Fragment=2)         23.48     21.59     20.23 
 H(Fragment=2)         24.27     22.03     19.02 
 O(Fragment=2)         19.99     21.63     15.29 
 H(Fragment=2)         20.36     21.44     16.15 
 H(Fragment=2)         19.07     21.4      15.37 
 O(Fragment=2)         15.65     18.77     19.65 
 H(Fragment=2)         15.93     19.13     20.49 
 H(Fragment=2)         16.31     18.11     19.43 
 O(Fragment=2)         20.22     20.22     24.68 
 H(Fragment=2)         20.27     20.95     24.07 
 H(Fragment=2)         19.32     19.91     24.61 
 O(Fragment=2)         17.79     19.78     15.52 
 H(Fragment=2)         17.95     20.28     16.32 
 H(Fragment=2)         16.87     19.96     15.3 
 O(Fragment=2)         20.26     24.31     19.82 
 H(Fragment=2)         21.2      24.26     20. 
 H(Fragment=2)         19.86     24.34     20.69 
 O(Fragment=2)         19.       24.21     22.28 
 H(Fragment=2)         19.74     23.62     22.37 
 H(Fragment=2)         19.05     24.78     23.06 
 O(Fragment=2)         20.33     17.15     23.34 
 H(Fragment=2)         21.03     17.57     23.84 
 H(Fragment=2)         20.74     16.37     22.96 
 O(Fragment=2)         18.07     24.05     18.45 
 H(Fragment=2)         17.94     24.69     17.75 
 H(Fragment=2)         18.81     24.39     18.95 
 O(Fragment=2)         15.02     21.17     21.64 
 H(Fragment=2)         15.31     20.97     22.53 
 H(Fragment=2)         15.77     21.58     21.23 
 O(Fragment=2)         23.26     23.12     21.39 
 H(Fragment=2)         23.51     23.78     20.74 
 H(Fragment=2)         23.54     23.49     22.22 
 O(Fragment=2)         21.14     24.26     16.42 
 H(Fragment=2)         21.       23.98     15.51 
 H(Fragment=2)         20.91     23.49     16.94 
 O(Fragment=2)         23.1      16.25     17.72 
 H(Fragment=2)         22.8      16.43     16.83 
 H(Fragment=2)         23.24     17.12     18.1 
 O(Fragment=2)         17.75     15.57     22.03 
 H(Fragment=2)         17.17     16.17     21.57 
 H(Fragment=2)         18.43     16.14     22.4 
 O(Fragment=2)         22.22     18.63     24.58 
 H(Fragment=2)         22.82     18.92     23.9 
 H(Fragment=2)         21.5      19.26     24.54 
 O(Fragment=2)         23.86     16.51     21.14 
 H(Fragment=2)         23.43     16.59     20.29 
 H(Fragment=2)         23.6      15.64     21.45 
 O(Fragment=2)         15.51     23.07     18.54 
 H(Fragment=2)         15.37     22.13     18.41 
 H(Fragment=2)         16.47     23.16     18.58 
 O(Fragment=2)         20.73     15.05     18.13 
 H(Fragment=2)         21.12     14.18     18.24 
 H(Fragment=2)         21.48     15.65     18.1 
 O(Fragment=2)         23.18     21.19     15.01 
 H(Fragment=2)         22.61     21.35     15.76 
 H(Fragment=2)         23.01     20.28     14.77 
 O(Fragment=2)         17.48     19.95     24.64 
 H(Fragment=2)         17.5      20.78     25.11 
 H(Fragment=2)         16.56     19.85     24.38 
 O(Fragment=2)         14.61     20.09     17.63 
 H(Fragment=2)         14.82     19.6      18.42 
 H(Fragment=2)         14.97     19.56     16.92 
 O(Fragment=2)         18.94     17.58     25.82 
 H(Fragment=2)         18.62     18.21     26.47 
 H(Fragment=2)         19.28     18.12     25.11 
 O(Fragment=2)         21.87     16.27     15.46 
 H(Fragment=2)         21.38     15.61     15.94 
 H(Fragment=2)         21.28     17.02     15.38 
 
 NAtoms=     97 NQM=       97 NQMF=       0 NMMI=      0 NMMIF=      0
                NMic=       0 NMicF=      0.
                    Isotopes and Nuclear Properties:
 (Nuclear quadrupole moments (NQMom) in fm**2, nuclear magnetic moments (NMagM)
  in nuclear magnetons)

  Atom         1           2           3           4           5           6           7           8           9          10
 IAtWgt=          79          16           1           1          16           1           1          16           1           1
 AtmWgt=  78.9183361  15.9949146   1.0078250   1.0078250  15.9949146   1.0078250   1.0078250  15.9949146   1.0078250   1.0078250
 NucSpn=           3           0           1           1           0           1           1           0           1           1
 AtZEff=   0.0000000   0.0000000   0.0000000   0.0000000   0.0000000   0.0000000   0.0000000   0.0000000   0.0000000   0.0000000
 NQMom=   31.3000000   0.0000000   0.0000000   0.0000000   0.0000000   0.0000000   0.0000000   0.0000000   0.0000000   0.0000000
 NMagM=    2.1063990   0.0000000   2.7928460   2.7928460   0.0000000   2.7928460   2.7928460   0.0000000   2.7928460   2.7928460
 AtZNuc=  35.0000000   8.0000000   1.0000000   1.0000000   8.0000000   1.0000000   1.0000000   8.0000000   1.0000000   1.0000000

  Atom        11          12          13          14          15          16          17          18          19          20
 IAtWgt=          16           1           1          16           1           1          16           1           1          16
 AtmWgt=  15.9949146   1.0078250   1.0078250  15.9949146   1.0078250   1.0078250  15.9949146   1.0078250   1.0078250  15.9949146
 NucSpn=           0           1           1           0           1           1           0           1           1           0
 AtZEff=   0.0000000   0.0000000   0.0000000   0.0000000   0.0000000   0.0000000   0.0000000   0.0000000   0.0000000   0.0000000
 NQMom=    0.0000000   0.0000000   0.0000000   0.0000000   0.0000000   0.0000000   0.0000000   0.0000000   0.0000000   0.0000000
 NMagM=    0.0000000   2.7928460   2.7928460   0.0000000   2.7928460   2.7928460   0.0000000   2.7928460   2.7928460   0.0000000
 AtZNuc=   8.0000000   1.0000000   1.0000000   8.0000000   1.0000000   1.0000000   8.0000000   1.0000000   1.0000000   8.0000000

  Atom        21          22          23          24          25          26          27          28          29          30
 IAtWgt=           1           1          16           1           1          16           1           1          16           1
 AtmWgt=   1.0078250   1.0078250  15.9949146   1.0078250   1.0078250  15.9949146   1.0078250   1.0078250  15.9949146   1.0078250
 NucSpn=           1           1           0           1           1           0           1           1           0           1
 AtZEff=   0.0000000   0.0000000   0.0000000   0.0000000   0.0000000   0.0000000   0.0000000   0.0000000   0.0000000   0.0000000
 NQMom=    0.0000000   0.0000000   0.0000000   0.0000000   0.0000000   0.0000000   0.0000000   0.0000000   0.0000000   0.0000000
 NMagM=    2.7928460   2.7928460   0.0000000   2.7928460   2.7928460   0.0000000   2.7928460   2.7928460   0.0000000   2.7928460
 AtZNuc=   1.0000000   1.0000000   8.0000000   1.0000000   1.0000000   8.0000000   1.0000000   1.0000000   8.0000000   1.0000000

  Atom        31          32          33          34          35          36          37          38          39          40
 IAtWgt=           1          16           1           1          16           1           1          16           1           1
 AtmWgt=   1.0078250  15.9949146   1.0078250   1.0078250  15.9949146   1.0078250   1.0078250  15.9949146   1.0078250   1.0078250
 NucSpn=           1           0           1           1           0           1           1           0           1           1
 AtZEff=   0.0000000   0.0000000   0.0000000   0.0000000   0.0000000   0.0000000   0.0000000   0.0000000   0.0000000   0.0000000
 NQMom=    0.0000000   0.0000000   0.0000000   0.0000000   0.0000000   0.0000000   0.0000000   0.0000000   0.0000000   0.0000000
 NMagM=    2.7928460   0.0000000   2.7928460   2.7928460   0.0000000   2.7928460   2.7928460   0.0000000   2.7928460   2.7928460
 AtZNuc=   1.0000000   8.0000000   1.0000000   1.0000000   8.0000000   1.0000000   1.0000000   8.0000000   1.0000000   1.0000000

  Atom        41          42          43          44          45          46          47          48          49          50
 IAtWgt=          16           1           1          16           1           1          16           1           1          16
 AtmWgt=  15.9949146   1.0078250   1.0078250  15.9949146   1.0078250   1.0078250  15.9949146   1.0078250   1.0078250  15.9949146
 NucSpn=           0           1           1           0           1           1           0           1           1           0
 AtZEff=   0.0000000   0.0000000   0.0000000   0.0000000   0.0000000   0.0000000   0.0000000   0.0000000   0.0000000   0.0000000
 NQMom=    0.0000000   0.0000000   0.0000000   0.0000000   0.0000000   0.0000000   0.0000000   0.0000000   0.0000000   0.0000000
 NMagM=    0.0000000   2.7928460   2.7928460   0.0000000   2.7928460   2.7928460   0.0000000   2.7928460   2.7928460   0.0000000
 AtZNuc=   8.0000000   1.0000000   1.0000000   8.0000000   1.0000000   1.0000000   8.0000000   1.0000000   1.0000000   8.0000000

  Atom        51          52          53          54          55          56          57          58          59          60
 IAtWgt=           1           1          16           1           1          16           1           1          16           1
 AtmWgt=   1.0078250   1.0078250  15.9949146   1.0078250   1.0078250  15.9949146   1.0078250   1.0078250  15.9949146   1.0078250
 NucSpn=           1           1           0           1           1           0           1           1           0           1
 AtZEff=   0.0000000   0.0000000   0.0000000   0.0000000   0.0000000   0.0000000   0.0000000   0.0000000   0.0000000   0.0000000
 NQMom=    0.0000000   0.0000000   0.0000000   0.0000000   0.0000000   0.0000000   0.0000000   0.0000000   0.0000000   0.0000000
 NMagM=    2.7928460   2.7928460   0.0000000   2.7928460   2.7928460   0.0000000   2.7928460   2.7928460   0.0000000   2.7928460
 AtZNuc=   1.0000000   1.0000000   8.0000000   1.0000000   1.0000000   8.0000000   1.0000000   1.0000000   8.0000000   1.0000000

  Atom        61          62          63          64          65          66          67          68          69          70
 IAtWgt=           1          16           1           1          16           1           1          16           1           1
 AtmWgt=   1.0078250  15.9949146   1.0078250   1.0078250  15.9949146   1.0078250   1.0078250  15.9949146   1.0078250   1.0078250
 NucSpn=           1           0           1           1           0           1           1           0           1           1
 AtZEff=   0.0000000   0.0000000   0.0000000   0.0000000   0.0000000   0.0000000   0.0000000   0.0000000   0.0000000   0.0000000
 NQMom=    0.0000000   0.0000000   0.0000000   0.0000000   0.0000000   0.0000000   0.0000000   0.0000000   0.0000000   0.0000000
 NMagM=    2.7928460   0.0000000   2.7928460   2.7928460   0.0000000   2.7928460   2.7928460   0.0000000   2.7928460   2.7928460
 AtZNuc=   1.0000000   8.0000000   1.0000000   1.0000000   8.0000000   1.0000000   1.0000000   8.0000000   1.0000000   1.0000000

  Atom        71          72          73          74          75          76          77          78          79          80
 IAtWgt=          16           1           1          16           1           1          16           1           1          16
 AtmWgt=  15.9949146   1.0078250   1.0078250  15.9949146   1.0078250   1.0078250  15.9949146   1.0078250   1.0078250  15.9949146
 NucSpn=           0           1           1           0           1           1           0           1           1           0
 AtZEff=   0.0000000   0.0000000   0.0000000   0.0000000   0.0000000   0.0000000   0.0000000   0.0000000   0.0000000   0.0000000
 NQMom=    0.0000000   0.0000000   0.0000000   0.0000000   0.0000000   0.0000000   0.0000000   0.0000000   0.0000000   0.0000000
 NMagM=    0.0000000   2.7928460   2.7928460   0.0000000   2.7928460   2.7928460   0.0000000   2.7928460   2.7928460   0.0000000
 AtZNuc=   8.0000000   1.0000000   1.0000000   8.0000000   1.0000000   1.0000000   8.0000000   1.0000000   1.0000000   8.0000000

  Atom        81          82          83          84          85          86          87          88          89          90
 IAtWgt=           1           1          16           1           1          16           1           1          16           1
 AtmWgt=   1.0078250   1.0078250  15.9949146   1.0078250   1.0078250  15.9949146   1.0078250   1.0078250  15.9949146   1.0078250
 NucSpn=           1           1           0           1           1           0           1           1           0           1
 AtZEff=   0.0000000   0.0000000   0.0000000   0.0000000   0.0000000   0.0000000   0.0000000   0.0000000   0.0000000   0.0000000
 NQMom=    0.0000000   0.0000000   0.0000000   0.0000000   0.0000000   0.0000000   0.0000000   0.0000000   0.0000000   0.0000000
 NMagM=    2.7928460   2.7928460   0.0000000   2.7928460   2.7928460   0.0000000   2.7928460   2.7928460   0.0000000   2.7928460
 AtZNuc=   1.0000000   1.0000000   8.0000000   1.0000000   1.0000000   8.0000000   1.0000000   1.0000000   8.0000000   1.0000000

  Atom        91          92          93          94          95          96          97
 IAtWgt=           1          16           1           1          16           1           1
 AtmWgt=   1.0078250  15.9949146   1.0078250   1.0078250  15.9949146   1.0078250   1.0078250
 NucSpn=           1           0           1           1           0           1           1
 AtZEff=   0.0000000   0.0000000   0.0000000   0.0000000   0.0000000   0.0000000   0.0000000
 NQMom=    0.0000000   0.0000000   0.0000000   0.0000000   0.0000000   0.0000000   0.0000000
 NMagM=    2.7928460   0.0000000   2.7928460   2.7928460   0.0000000   2.7928460   2.7928460
 AtZNuc=   1.0000000   8.0000000   1.0000000   1.0000000   8.0000000   1.0000000   1.0000000
 Leave Link  101 at Thu May  3 00:21:21 2018, MaxMem= 14763950080 cpu:        12.5
 (Enter /cm/shared/gaussian/g09.e01/intel64-sandybridge/g09/l103.exe)

 GradGradGradGradGradGradGradGradGradGradGradGradGradGradGradGradGradGrad
 Berny optimization.
 Initialization pass.
 Trust Radius=3.00D-01 FncErr=1.00D-07 GrdErr=1.00D-07
 Number of steps in this run=      2 maximum allowed number of steps=      2.
 GradGradGradGradGradGradGradGradGradGradGradGradGradGradGradGradGradGrad

 Leave Link  103 at Thu May  3 00:21:21 2018, MaxMem= 14763950080 cpu:         1.7
 (Enter /cm/shared/gaussian/g09.e01/intel64-sandybridge/g09/l202.exe)
 Symmetry turned off by external request.
 Stoichiometry    BrH64O32(1-)
 Framework group  C1[X(BrH64O32)]
 Deg. of freedom   285
 Full point group                 C1      NOp   1
                          Input orientation:                          
 ---------------------------------------------------------------------
 Center     Atomic      Atomic             Coordinates (Angstroms)
 Number     Number       Type             X           Y           Z
 ---------------------------------------------------------------------
      1         35           0       20.000000   20.000000   20.000000
      2          8           0       17.640000   21.920000   21.170000
      3          1           0       18.040000   22.770000   21.340000
      4          1           0       18.320000   21.420000   20.720000
      5          8           0       18.130000   21.240000   17.630000
      6          1           0       17.940000   22.150000   17.830000
      7          1           0       18.560000   20.900000   18.420000
      8          8           0       21.810000   21.370000   17.730000
      9          1           0       21.240000   21.350000   18.490000
     10          1           0       22.700000   21.280000   18.090000
     11          8           0       17.770000   18.460000   21.980000
     12          1           0       18.440000   18.590000   21.310000
     13          1           0       18.050000   19.020000   22.700000
     14          8           0       20.920000   22.260000   22.740000
     15          1           0       21.820000   22.560000   22.680000
     16          1           0       20.840000   21.590000   22.050000
     17          8           0       23.300000   18.540000   18.690000
     18          1           0       23.870000   19.300000   18.790000
     19          1           0       22.430000   18.860000   18.920000
     20          8           0       17.520000   16.690000   18.770000
     21          1           0       18.240000   17.300000   18.950000
     22          1           0       17.910000   16.020000   18.210000
     23          8           0       23.670000   19.200000   22.080000
     24          1           0       23.530000   18.270000   21.920000
     25          1           0       23.040000   19.640000   21.510000
     26          8           0       19.650000   17.920000   15.990000
     27          1           0       19.650000   18.310000   16.870000
     28          1           0       19.130000   18.520000   15.460000
     29          8           0       23.770000   21.290000   19.360000
     30          1           0       23.480000   21.590000   20.230000
     31          1           0       24.270000   22.030000   19.020000
     32          8           0       19.990000   21.630000   15.290000
     33          1           0       20.360000   21.440000   16.150000
     34          1           0       19.070000   21.400000   15.370000
     35          8           0       15.650000   18.770000   19.650000
     36          1           0       15.930000   19.130000   20.490000
     37          1           0       16.310000   18.110000   19.430000
     38          8           0       20.220000   20.220000   24.680000
     39          1           0       20.270000   20.950000   24.070000
     40          1           0       19.320000   19.910000   24.610000
     41          8           0       17.790000   19.780000   15.520000
     42          1           0       17.950000   20.280000   16.320000
     43          1           0       16.870000   19.960000   15.300000
     44          8           0       20.260000   24.310000   19.820000
     45          1           0       21.200000   24.260000   20.000000
     46          1           0       19.860000   24.340000   20.690000
     47          8           0       19.000000   24.210000   22.280000
     48          1           0       19.740000   23.620000   22.370000
     49          1           0       19.050000   24.780000   23.060000
     50          8           0       20.330000   17.150000   23.340000
     51          1           0       21.030000   17.570000   23.840000
     52          1           0       20.740000   16.370000   22.960000
     53          8           0       18.070000   24.050000   18.450000
     54          1           0       17.940000   24.690000   17.750000
     55          1           0       18.810000   24.390000   18.950000
     56          8           0       15.020000   21.170000   21.640000
     57          1           0       15.310000   20.970000   22.530000
     58          1           0       15.770000   21.580000   21.230000
     59          8           0       23.260000   23.120000   21.390000
     60          1           0       23.510000   23.780000   20.740000
     61          1           0       23.540000   23.490000   22.220000
     62          8           0       21.140000   24.260000   16.420000
     63          1           0       21.000000   23.980000   15.510000
     64          1           0       20.910000   23.490000   16.940000
     65          8           0       23.100000   16.250000   17.720000
     66          1           0       22.800000   16.430000   16.830000
     67          1           0       23.240000   17.120000   18.100000
     68          8           0       17.750000   15.570000   22.030000
     69          1           0       17.170000   16.170000   21.570000
     70          1           0       18.430000   16.140000   22.400000
     71          8           0       22.220000   18.630000   24.580000
     72          1           0       22.820000   18.920000   23.900000
     73          1           0       21.500000   19.260000   24.540000
     74          8           0       23.860000   16.510000   21.140000
     75          1           0       23.430000   16.590000   20.290000
     76          1           0       23.600000   15.640000   21.450000
     77          8           0       15.510000   23.070000   18.540000
     78          1           0       15.370000   22.130000   18.410000
     79          1           0       16.470000   23.160000   18.580000
     80          8           0       20.730000   15.050000   18.130000
     81          1           0       21.120000   14.180000   18.240000
     82          1           0       21.480000   15.650000   18.100000
     83          8           0       23.180000   21.190000   15.010000
     84          1           0       22.610000   21.350000   15.760000
     85          1           0       23.010000   20.280000   14.770000
     86          8           0       17.480000   19.950000   24.640000
     87          1           0       17.500000   20.780000   25.110000
     88          1           0       16.560000   19.850000   24.380000
     89          8           0       14.610000   20.090000   17.630000
     90          1           0       14.820000   19.600000   18.420000
     91          1           0       14.970000   19.560000   16.920000
     92          8           0       18.940000   17.580000   25.820000
     93          1           0       18.620000   18.210000   26.470000
     94          1           0       19.280000   18.120000   25.110000
     95          8           0       21.870000   16.270000   15.460000
     96          1           0       21.380000   15.610000   15.940000
     97          1           0       21.280000   17.020000   15.380000
 ---------------------------------------------------------------------
 Rotational constants (GHZ):      0.0615253      0.0566437      0.0508113
 Leave Link  202 at Thu May  3 00:21:22 2018, MaxMem= 14763950080 cpu:         0.5
 (Enter /cm/shared/gaussian/g09.e01/intel64-sandybridge/g09/l122.exe)
 Counterpoise: doing full dimer calculation.
 Leave Link  122 at Thu May  3 00:21:22 2018, MaxMem= 14763950080 cpu:         0.0
 (Enter /cm/shared/gaussian/g09.e01/intel64-sandybridge/g09/l301.exe)
 Standard basis: CC-pVDZ (5D, 7F)
 Ernie: Thresh=  0.10000D-02 Tol=  0.10000D-05 Strict=F.
 Ernie:  87 primitive shells out of 1114 were deleted.
   795 basis functions,  1651 primitive gaussians,   829 cartesian basis functions
   178 alpha electrons      178 beta electrons
       nuclear repulsion energy      6167.6722043885 Hartrees.
 IExCor= 1009 DFT=T Ex+Corr=PBE1PBE ExCW=0 ScaHFX=  0.250000
 ScaDFX=  0.750000  0.750000  1.000000  1.000000 ScalE2=  1.000000  1.000000
 IRadAn=      0 IRanWt=     -1 IRanGd=            0 ICorTp=0 IEmpDi=  4
 NAtoms=   97 NActive=   97 NUniq=   97 SFac= 1.00D+00 NAtFMM=   60 NAOKFM=T Big=T
 Integral buffers will be    131072 words long.
 Raffenetti 2 integral format.
 Two-electron integral symmetry is turned off.
 Leave Link  301 at Thu May  3 00:21:22 2018, MaxMem= 14763950080 cpu:         4.3
 (Enter /cm/shared/gaussian/g09.e01/intel64-sandybridge/g09/l302.exe)
 NPDir=0 NMtPBC=     1 NCelOv=     1 NCel=       1 NClECP=     1 NCelD=      1
         NCelK=      1 NCelE2=     1 NClLst=     1 CellRange=     0.0.
 One-electron integrals computed using PRISM.
 NBasis=   795 RedAO= T EigKep=  1.55D-02  NBF=   795
 NBsUse=   795 1.00D-06 EigRej= -1.00D+00 NBFU=   795
 Precomputing XC quadrature grid using
 IXCGrd= 4 IRadAn=           0 IRanWt=          -1 IRanGd=           0 AccXCQ= 0.00D+00.
 Generated NRdTot=       0 NPtTot=           0 NUsed=           0 NTot=          32
 NSgBfM=   734   740   753   760   761 MxSgAt=    97 MxSgA2=    97.
 Leave Link  302 at Thu May  3 00:21:28 2018, MaxMem= 14763950080 cpu:       406.3
 (Enter /cm/shared/gaussian/g09.e01/intel64-sandybridge/g09/l303.exe)
 DipDrv:  MaxL=1.
 Leave Link  303 at Thu May  3 00:21:29 2018, MaxMem= 14763950080 cpu:        29.4
 (Enter /cm/shared/gaussian/g09.e01/intel64-sandybridge/g09/l401.exe)
 ExpMin= 1.22D-01 ExpMax= 6.40D+05 ExpMxC= 6.18D+03 IAcc=2 IRadAn=         4 AccDes= 0.00D+00
 Harris functional with IExCor= 1009 and IRadAn=       4 diagonalized for initial guess.
 HarFok:  IExCor= 1009 AccDes= 0.00D+00 IRadAn=         4 IDoV= 1 UseB2=F ITyADJ=14
 ICtDFT=  3500011 ScaDFX=  1.000000  1.000000  1.000000  1.000000
 FoFCou: FMM=F IPFlag=           0 FMFlag=      100000 FMFlg1=        2001
         NFxFlg=           0 DoJE=T BraDBF=F KetDBF=T FulRan=T
         wScrn=  0.000000 ICntrl=     500 IOpCl=  0 I1Cent=   200000004 NGrid=           0
         NMat0=    1 NMatS0=      1 NMatT0=    0 NMatD0=    1 NMtDS0=    0 NMtDT0=    0
 Symmetry not used in FoFCou.
 Harris En= -5018.42824925744    
 JPrj=0 DoOrth=F DoCkMO=F.
 Leave Link  401 at Thu May  3 00:21:34 2018, MaxMem= 14763950080 cpu:       330.4
 (Enter /cm/shared/gaussian/g09.e01/intel64-sandybridge/g09/l502.exe)
 Closed shell SCF:
 Using DIIS extrapolation, IDIIS=  1040.
 Two-electron integral symmetry not used.
 IVT=     2138497 IEndB=     2138497 NGot= 14763950080 MDV= 14762516294
 LenX= 14762516294 LenY= 14761828224
 Requested convergence on RMS density matrix=1.00D-08 within 128 cycles.
 Requested convergence on MAX density matrix=1.00D-06.
 Requested convergence on             energy=1.00D-06.
 No special actions if energy rises.
 Fock matrices will be formed incrementally for  20 cycles.
 Integral accuracy reduced to 1.0D-05 until final iterations.

 Cycle   1  Pass 0  IDiag  1:
 FoFJK:  IHMeth= 1 ICntrl=       0 DoSepK=F KAlg= 0 I1Cent=   0 FoldK=F
 IRaf= 830000000 NMat=   1 IRICut=       1 DoRegI=T DoRafI=F ISym2E= 0.
 FoFCou: FMM=T IPFlag=           0 FMFlag=      100000 FMFlg1=        2001
         NFxFlg=           0 DoJE=F BraDBF=F KetDBF=F FulRan=T
         wScrn=  0.000000 ICntrl=       0 IOpCl=  0 I1Cent=           0 NGrid=           0
         NMat0=    1 NMatS0=      1 NMatT0=    0 NMatD0=    1 NMtDS0=    0 NMtDT0=    0
 Symmetry not used in FoFCou.
 FMM levels:  10  Number of levels for PrismC:   9
 E= -5015.36578582394    
 DIIS: error= 2.83D-02 at cycle   1 NSaved=   1.
 NSaved= 1 IEnMin= 1 EnMin= -5015.36578582394     IErMin= 1 ErrMin= 2.83D-02
 ErrMax= 2.83D-02  0.00D+00 EMaxC= 1.00D-01 BMatC= 2.66D+00 BMatP= 2.66D+00
 IDIUse=3 WtCom= 7.17D-01 WtEn= 2.83D-01
 Coeff-Com:  0.100D+01
 Coeff-En:   0.100D+01
 Coeff:      0.100D+01
 Gap=     0.298 Goal=   None    Shift=    0.000
 GapD=    0.298 DampG=1.000 DampE=0.500 DampFc=0.5000 IDamp=-1.
 Damping current iteration by 5.00D-01
 RMSDP=2.83D-03 MaxDP=1.57D-01              OVMax= 1.76D-01

 Cycle   2  Pass 0  IDiag  1:
 RMSU=  1.40D-03    CP:  9.86D-01
 E= -5016.14954110691     Delta-E=       -0.783755282970 Rises=F Damp=T
 DIIS: error= 6.25D-03 at cycle   2 NSaved=   2.
 NSaved= 2 IEnMin= 2 EnMin= -5016.14954110691     IErMin= 2 ErrMin= 6.25D-03
 ErrMax= 6.25D-03  0.00D+00 EMaxC= 1.00D-01 BMatC= 8.09D-02 BMatP= 2.66D+00
 IDIUse=3 WtCom= 9.37D-01 WtEn= 6.25D-02
 Coeff-Com:  0.115D+00 0.885D+00
 Coeff-En:   0.206D+00 0.794D+00
 Coeff:      0.120D+00 0.880D+00
 Gap=     0.168 Goal=   None    Shift=    0.000
 RMSDP=3.53D-04 MaxDP=1.98D-02 DE=-7.84D-01 OVMax= 9.77D-02

 Cycle   3  Pass 0  IDiag  1:
 RMSU=  2.86D-04    CP:  9.87D-01  8.53D-01
 E= -5017.26350913323     Delta-E=       -1.113968026322 Rises=F Damp=F
 DIIS: error= 9.86D-04 at cycle   3 NSaved=   3.
 NSaved= 3 IEnMin= 3 EnMin= -5017.26350913323     IErMin= 3 ErrMin= 9.86D-04
 ErrMax= 9.86D-04  0.00D+00 EMaxC= 1.00D-01 BMatC= 2.03D-03 BMatP= 8.09D-02
 IDIUse=3 WtCom= 9.90D-01 WtEn= 9.86D-03
 Coeff-Com:  0.776D-02 0.789D-01 0.913D+00
 Coeff-En:   0.000D+00 0.000D+00 0.100D+01
 Coeff:      0.768D-02 0.781D-01 0.914D+00
 Gap=     0.183 Goal=   None    Shift=    0.000
 RMSDP=1.01D-04 MaxDP=1.52D-02 DE=-1.11D+00 OVMax= 1.76D-02

 Cycle   4  Pass 0  IDiag  1:
 RMSU=  8.81D-05    CP:  9.88D-01  8.56D-01  8.27D-01
 E= -5017.26399892389     Delta-E=       -0.000489790658 Rises=F Damp=F
 DIIS: error= 9.20D-04 at cycle   4 NSaved=   4.
 NSaved= 4 IEnMin= 4 EnMin= -5017.26399892389     IErMin= 4 ErrMin= 9.20D-04
 ErrMax= 9.20D-04  0.00D+00 EMaxC= 1.00D-01 BMatC= 1.97D-03 BMatP= 2.03D-03
 IDIUse=3 WtCom= 9.91D-01 WtEn= 9.20D-03
 Coeff-Com:  0.878D-03 0.970D-02 0.495D+00 0.494D+00
 Coeff-En:   0.000D+00 0.000D+00 0.431D+00 0.569D+00
 Coeff:      0.870D-03 0.961D-02 0.494D+00 0.495D+00
 Gap=     0.182 Goal=   None    Shift=    0.000
 RMSDP=4.35D-05 MaxDP=5.79D-03 DE=-4.90D-04 OVMax= 5.54D-03

 Cycle   5  Pass 0  IDiag  1:
 RMSU=  1.68D-05    CP:  9.88D-01  8.55D-01  8.91D-01  5.96D-01
 E= -5017.26555486142     Delta-E=       -0.001555937530 Rises=F Damp=F
 DIIS: error= 8.67D-05 at cycle   5 NSaved=   5.
 NSaved= 5 IEnMin= 5 EnMin= -5017.26555486142     IErMin= 5 ErrMin= 8.67D-05
 ErrMax= 8.67D-05  0.00D+00 EMaxC= 1.00D-01 BMatC= 3.09D-05 BMatP= 1.97D-03
 IDIUse=1 WtCom= 1.00D+00 WtEn= 0.00D+00
 Coeff-Com:  0.354D-03-0.634D-03 0.140D+00 0.169D+00 0.692D+00
 Coeff:      0.354D-03-0.634D-03 0.140D+00 0.169D+00 0.692D+00
 Gap=     0.182 Goal=   None    Shift=    0.000
 RMSDP=8.32D-06 MaxDP=1.26D-03 DE=-1.56D-03 OVMax= 1.21D-03

 Cycle   6  Pass 0  IDiag  1:
 RMSU=  5.58D-06    CP:  9.88D-01  8.54D-01  9.02D-01  5.74D-01  7.15D-01
 E= -5017.26557947446     Delta-E=       -0.000024613035 Rises=F Damp=F
 DIIS: error= 9.16D-05 at cycle   6 NSaved=   6.
 NSaved= 6 IEnMin= 6 EnMin= -5017.26557947446     IErMin= 5 ErrMin= 8.67D-05
 ErrMax= 9.16D-05  0.00D+00 EMaxC= 1.00D-01 BMatC= 4.32D-06 BMatP= 3.09D-05
 IDIUse=1 WtCom= 1.00D+00 WtEn= 0.00D+00
 Coeff-Com:  0.534D-04-0.174D-02 0.323D-01 0.403D-01 0.300D+00 0.629D+00
 Coeff:      0.534D-04-0.174D-02 0.323D-01 0.403D-01 0.300D+00 0.629D+00
 Gap=     0.182 Goal=   None    Shift=    0.000
 RMSDP=2.47D-06 MaxDP=4.62D-04 DE=-2.46D-05 OVMax= 3.72D-04

 Initial convergence to 1.0D-05 achieved.  Increase integral accuracy.
 Cycle   7  Pass 1  IDiag  1:
 E= -5017.26597295474     Delta-E=       -0.000393480288 Rises=F Damp=F
 DIIS: error= 2.30D-05 at cycle   1 NSaved=   1.
 NSaved= 1 IEnMin= 1 EnMin= -5017.26597295474     IErMin= 1 ErrMin= 2.30D-05
 ErrMax= 2.30D-05  0.00D+00 EMaxC= 1.00D-01 BMatC= 1.42D-06 BMatP= 1.42D-06
 IDIUse=1 WtCom= 1.00D+00 WtEn= 0.00D+00
 Coeff-Com:  0.100D+01
 Coeff:      0.100D+01
 Gap=     0.182 Goal=   None    Shift=    0.000
 RMSDP=2.47D-06 MaxDP=4.62D-04 DE=-3.93D-04 OVMax= 2.07D-04

 Cycle   8  Pass 1  IDiag  1:
 RMSU=  4.32D-06    CP:  1.00D+00
 E= -5017.26597434043     Delta-E=       -0.000001385688 Rises=F Damp=F
 DIIS: error= 1.01D-05 at cycle   2 NSaved=   2.
 NSaved= 2 IEnMin= 2 EnMin= -5017.26597434043     IErMin= 2 ErrMin= 1.01D-05
 ErrMax= 1.01D-05  0.00D+00 EMaxC= 1.00D-01 BMatC= 2.42D-07 BMatP= 1.42D-06
 IDIUse=1 WtCom= 1.00D+00 WtEn= 0.00D+00
 Coeff-Com:  0.202D+00 0.798D+00
 Coeff:      0.202D+00 0.798D+00
 Gap=     0.182 Goal=   None    Shift=    0.000
 RMSDP=7.39D-07 MaxDP=6.91D-05 DE=-1.39D-06 OVMax= 6.74D-05

 Cycle   9  Pass 1  IDiag  1:
 RMSU=  7.39D-07    CP:  1.00D+00  9.97D-01
 E= -5017.26597438103     Delta-E=       -0.000000040596 Rises=F Damp=F
 DIIS: error= 8.67D-06 at cycle   3 NSaved=   3.
 NSaved= 3 IEnMin= 3 EnMin= -5017.26597438103     IErMin= 3 ErrMin= 8.67D-06
 ErrMax= 8.67D-06  0.00D+00 EMaxC= 1.00D-01 BMatC= 1.90D-07 BMatP= 2.42D-07
 IDIUse=1 WtCom= 1.00D+00 WtEn= 0.00D+00
 Coeff-Com: -0.855D-02 0.471D+00 0.538D+00
 Coeff:     -0.855D-02 0.471D+00 0.538D+00
 Gap=     0.182 Goal=   None    Shift=    0.000
 RMSDP=3.48D-07 MaxDP=3.52D-05 DE=-4.06D-08 OVMax= 3.22D-05

 Cycle  10  Pass 1  IDiag  1:
 RMSU=  9.22D-08    CP:  1.00D+00  1.02D+00  5.60D-01
 E= -5017.26597451612     Delta-E=       -0.000000135093 Rises=F Damp=F
 DIIS: error= 5.41D-07 at cycle   4 NSaved=   4.
 NSaved= 4 IEnMin= 4 EnMin= -5017.26597451612     IErMin= 4 ErrMin= 5.41D-07
 ErrMax= 5.41D-07  0.00D+00 EMaxC= 1.00D-01 BMatC= 8.65D-10 BMatP= 1.90D-07
 IDIUse=1 WtCom= 1.00D+00 WtEn= 0.00D+00
 Coeff-Com: -0.503D-02 0.194D+00 0.229D+00 0.583D+00
 Coeff:     -0.503D-02 0.194D+00 0.229D+00 0.583D+00
 Gap=     0.182 Goal=   None    Shift=    0.000
 RMSDP=3.36D-08 MaxDP=3.29D-06 DE=-1.35D-07 OVMax= 2.98D-06

 Cycle  11  Pass 1  IDiag  1:
 RMSU=  2.83D-08    CP:  1.00D+00  1.02D+00  5.63D-01  8.12D-01
 E= -5017.26597451681     Delta-E=       -0.000000000689 Rises=F Damp=F
 DIIS: error= 1.76D-07 at cycle   5 NSaved=   5.
 NSaved= 5 IEnMin= 5 EnMin= -5017.26597451681     IErMin= 5 ErrMin= 1.76D-07
 ErrMax= 1.76D-07  0.00D+00 EMaxC= 1.00D-01 BMatC= 7.57D-11 BMatP= 8.65D-10
 IDIUse=1 WtCom= 1.00D+00 WtEn= 0.00D+00
 Coeff-Com: -0.135D-02 0.362D-01 0.448D-01 0.247D+00 0.674D+00
 Coeff:     -0.135D-02 0.362D-01 0.448D-01 0.247D+00 0.674D+00
 Gap=     0.182 Goal=   None    Shift=    0.000
 RMSDP=9.20D-09 MaxDP=9.35D-07 DE=-6.89D-10 OVMax= 9.47D-07

 SCF Done:  E(RPBE1PBE) =  -5017.26597452     A.U. after   11 cycles
            NFock= 11  Conv=0.92D-08     -V/T= 2.0027
 KE= 5.003535865182D+03 PE=-2.430228368475D+04 EE= 8.113809640659D+03
 Leave Link  502 at Thu May  3 00:23:37 2018, MaxMem= 14763950080 cpu:      7813.8
 (Enter /cm/shared/gaussian/g09.e01/intel64-sandybridge/g09/l601.exe)
 Copying SCF densities to generalized density rwf, IOpCl= 0 IROHF=0.

 **********************************************************************

            Population analysis using the SCF density.

 **********************************************************************

 Alpha  occ. eigenvalues -- -483.15339 -62.55596 -56.32847 -56.32834 -56.32821
 Alpha  occ. eigenvalues --  -19.25518 -19.20874 -19.20364 -19.19035 -19.19017
 Alpha  occ. eigenvalues --  -19.16635 -19.15270 -19.15066 -19.14525 -19.13417
 Alpha  occ. eigenvalues --  -19.13326 -19.12036 -19.11985 -19.11814 -19.11703
 Alpha  occ. eigenvalues --  -19.11266 -19.11009 -19.10712 -19.10168 -19.09709
 Alpha  occ. eigenvalues --  -19.09617 -19.09472 -19.09320 -19.09123 -19.08785
 Alpha  occ. eigenvalues --  -19.08640 -19.08639 -19.08450 -19.07435 -19.06682
 Alpha  occ. eigenvalues --  -19.05428 -19.05317  -8.65859  -6.46206  -6.46169
 Alpha  occ. eigenvalues --   -6.46124  -2.54479  -2.54475  -2.54441  -2.54407
 Alpha  occ. eigenvalues --   -2.54403  -1.08131  -1.03493  -1.03248  -1.01811
 Alpha  occ. eigenvalues --   -1.01540  -0.99503  -0.98436  -0.98376  -0.96967
 Alpha  occ. eigenvalues --   -0.96224  -0.95778  -0.95641  -0.94996  -0.94688
 Alpha  occ. eigenvalues --   -0.94135  -0.94101  -0.93954  -0.93007  -0.92758
 Alpha  occ. eigenvalues --   -0.92754  -0.92355  -0.92152  -0.91954  -0.91832
 Alpha  occ. eigenvalues --   -0.91637  -0.91163  -0.91141  -0.90919  -0.90414
 Alpha  occ. eigenvalues --   -0.89309  -0.87949  -0.87730  -0.64966  -0.58762
 Alpha  occ. eigenvalues --   -0.53772  -0.53446  -0.53116  -0.52238  -0.50471
 Alpha  occ. eigenvalues --   -0.49072  -0.49017  -0.47384  -0.46983  -0.46787
 Alpha  occ. eigenvalues --   -0.46573  -0.46519  -0.45770  -0.45451  -0.45258
 Alpha  occ. eigenvalues --   -0.45076  -0.44968  -0.44836  -0.44029  -0.43595
 Alpha  occ. eigenvalues --   -0.43474  -0.43218  -0.43032  -0.42906  -0.42393
 Alpha  occ. eigenvalues --   -0.42334  -0.41755  -0.41555  -0.41543  -0.41054
 Alpha  occ. eigenvalues --   -0.40835  -0.39751  -0.39529  -0.38541  -0.38457
 Alpha  occ. eigenvalues --   -0.37381  -0.36708  -0.35621  -0.35350  -0.34966
 Alpha  occ. eigenvalues --   -0.34495  -0.34171  -0.33701  -0.32574  -0.32135
 Alpha  occ. eigenvalues --   -0.31647  -0.31516  -0.31333  -0.31257  -0.30331
 Alpha  occ. eigenvalues --   -0.29899  -0.29704  -0.29583  -0.29399  -0.29324
 Alpha  occ. eigenvalues --   -0.29033  -0.28955  -0.28674  -0.28404  -0.28125
 Alpha  occ. eigenvalues --   -0.27749  -0.27707  -0.27345  -0.27145  -0.26808
 Alpha  occ. eigenvalues --   -0.25918  -0.25682  -0.25538  -0.25120  -0.25059
 Alpha  occ. eigenvalues --   -0.24655  -0.24222  -0.23945  -0.23901  -0.23855
 Alpha  occ. eigenvalues --   -0.23258  -0.22849  -0.22595  -0.22346  -0.22011
 Alpha  occ. eigenvalues --   -0.21412  -0.21099  -0.20952  -0.20634  -0.20437
 Alpha  occ. eigenvalues --   -0.20208  -0.20182  -0.20155  -0.20033  -0.19805
 Alpha  occ. eigenvalues --   -0.19715  -0.19558  -0.19498  -0.19426  -0.18982
 Alpha  occ. eigenvalues --   -0.17741  -0.16457  -0.16420
 Alpha virt. eigenvalues --    0.01768   0.07362   0.08953   0.09315   0.09591
 Alpha virt. eigenvalues --    0.11667   0.12428   0.13155   0.14031   0.14579
 Alpha virt. eigenvalues --    0.14985   0.15819   0.16614   0.16983   0.17356
 Alpha virt. eigenvalues --    0.17991   0.18200   0.18960   0.19658   0.20001
 Alpha virt. eigenvalues --    0.20273   0.21160   0.22007   0.22228   0.23031
 Alpha virt. eigenvalues --    0.23300   0.23339   0.23893   0.24286   0.24425
 Alpha virt. eigenvalues --    0.25027   0.25370   0.26234   0.27338   0.27360
 Alpha virt. eigenvalues --    0.27541   0.27893   0.28250   0.28830   0.29347
 Alpha virt. eigenvalues --    0.29377   0.29750   0.30392   0.30977   0.31490
 Alpha virt. eigenvalues --    0.31592   0.32838   0.32893   0.33310   0.34224
 Alpha virt. eigenvalues --    0.34791   0.35328   0.35557   0.35660   0.36062
 Alpha virt. eigenvalues --    0.36551   0.36957   0.37603   0.38128   0.39540
 Alpha virt. eigenvalues --    0.40906   0.41022   0.42853   0.45724   0.54977
 Alpha virt. eigenvalues --    0.57027   0.57489   0.58921   0.59190   0.60436
 Alpha virt. eigenvalues --    0.60786   0.61355   0.62159   0.62291   0.62462
 Alpha virt. eigenvalues --    0.62987   0.63150   0.63798   0.64187   0.64598
 Alpha virt. eigenvalues --    0.64689   0.65282   0.65418   0.65783   0.66178
 Alpha virt. eigenvalues --    0.66626   0.66700   0.67261   0.67422   0.67680
 Alpha virt. eigenvalues --    0.67858   0.68350   0.68853   0.69422   0.69545
 Alpha virt. eigenvalues --    0.69662   0.70121   0.70382   0.70819   0.71202
 Alpha virt. eigenvalues --    0.71406   0.71425   0.71836   0.72040   0.72744
 Alpha virt. eigenvalues --    0.72824   0.73266   0.73631   0.73954   0.74659
 Alpha virt. eigenvalues --    0.74750   0.74969   0.75572   0.75668   0.76171
 Alpha virt. eigenvalues --    0.76656   0.77053   0.77265   0.77506   0.77877
 Alpha virt. eigenvalues --    0.78081   0.78534   0.79182   0.79523   0.79742
 Alpha virt. eigenvalues --    0.79992   0.80438   0.81853   0.82175   0.82425
 Alpha virt. eigenvalues --    0.82866   0.83749   0.84837   0.85270   0.86066
 Alpha virt. eigenvalues --    0.88023   0.90613   0.92109   0.93134   0.93882
 Alpha virt. eigenvalues --    0.94668   0.94976   0.95536   0.96083   0.96206
 Alpha virt. eigenvalues --    0.96990   0.97226   0.97541   0.98305   0.98723
 Alpha virt. eigenvalues --    0.99778   0.99984   1.00152   1.00188   1.00664
 Alpha virt. eigenvalues --    1.01141   1.01372   1.01539   1.02302   1.02324
 Alpha virt. eigenvalues --    1.02640   1.03206   1.03486   1.03843   1.04085
 Alpha virt. eigenvalues --    1.04491   1.04614   1.04835   1.05346   1.05795
 Alpha virt. eigenvalues --    1.06147   1.06502   1.06657   1.07290   1.07824
 Alpha virt. eigenvalues --    1.07999   1.08337   1.08617   1.08820   1.08904
 Alpha virt. eigenvalues --    1.09364   1.09703   1.09778   1.10163   1.10675
 Alpha virt. eigenvalues --    1.10868   1.10985   1.11253   1.11652   1.11873
 Alpha virt. eigenvalues --    1.12245   1.12664   1.12899   1.13053   1.13358
 Alpha virt. eigenvalues --    1.13462   1.13869   1.14119   1.14632   1.14799
 Alpha virt. eigenvalues --    1.15248   1.15516   1.15859   1.16192   1.16815
 Alpha virt. eigenvalues --    1.16981   1.17651   1.17800   1.18394   1.18778
 Alpha virt. eigenvalues --    1.19119   1.19614   1.20241   1.20487   1.21070
 Alpha virt. eigenvalues --    1.21339   1.21606   1.22175   1.22765   1.22812
 Alpha virt. eigenvalues --    1.23108   1.23554   1.23652   1.24091   1.24440
 Alpha virt. eigenvalues --    1.25142   1.25511   1.26064   1.26304   1.27096
 Alpha virt. eigenvalues --    1.27930   1.28118   1.28556   1.28740   1.29218
 Alpha virt. eigenvalues --    1.29349   1.29593   1.29942   1.30483   1.30838
 Alpha virt. eigenvalues --    1.31200   1.31443   1.31749   1.32008   1.32251
 Alpha virt. eigenvalues --    1.32325   1.32739   1.32969   1.33388   1.33715
 Alpha virt. eigenvalues --    1.33929   1.34317   1.34397   1.34643   1.34886
 Alpha virt. eigenvalues --    1.35241   1.35738   1.35818   1.36278   1.36520
 Alpha virt. eigenvalues --    1.36893   1.36937   1.37423   1.37580   1.37840
 Alpha virt. eigenvalues --    1.38089   1.38519   1.39026   1.39334   1.39505
 Alpha virt. eigenvalues --    1.39821   1.40050   1.40396   1.40805   1.41066
 Alpha virt. eigenvalues --    1.41405   1.42158   1.42672   1.42985   1.43284
 Alpha virt. eigenvalues --    1.43835   1.44067   1.44402   1.44856   1.45191
 Alpha virt. eigenvalues --    1.45970   1.46512   1.46958   1.47710   1.47905
 Alpha virt. eigenvalues --    1.48231   1.48893   1.49517   1.50167   1.50451
 Alpha virt. eigenvalues --    1.51074   1.51364   1.51892   1.52587   1.53232
 Alpha virt. eigenvalues --    1.53336   1.53850   1.54339   1.54447   1.54831
 Alpha virt. eigenvalues --    1.56146   1.56623   1.56805   1.57471   1.57661
 Alpha virt. eigenvalues --    1.57867   1.58312   1.58451   1.58873   1.59177
 Alpha virt. eigenvalues --    1.59521   1.59612   1.60337   1.60715   1.61152
 Alpha virt. eigenvalues --    1.62214   1.63001   1.63128   1.63418   1.64522
 Alpha virt. eigenvalues --    1.64956   1.65870   1.66247   1.66646   1.67578
 Alpha virt. eigenvalues --    1.67648   1.69211   1.69605   1.70089   1.71780
 Alpha virt. eigenvalues --    1.72472   1.72750   1.73163   1.73911   1.74998
 Alpha virt. eigenvalues --    1.75820   1.76474   1.77416   1.77672   1.77962
 Alpha virt. eigenvalues --    1.78838   1.79027   1.79856   1.79913   1.80413
 Alpha virt. eigenvalues --    1.80711   1.80807   1.81071   1.81186   1.81641
 Alpha virt. eigenvalues --    1.82294   1.82520   1.82619   1.82813   1.82973
 Alpha virt. eigenvalues --    1.83915   1.84196   1.84295   1.84978   1.85741
 Alpha virt. eigenvalues --    1.86076   1.87168   1.87619   1.87960   1.89321
 Alpha virt. eigenvalues --    1.89861   1.90438   1.90593   1.91235   1.91680
 Alpha virt. eigenvalues --    1.92106   1.92668   1.93663   1.93909   1.94166
 Alpha virt. eigenvalues --    1.94357   1.95270   1.96334   1.97077   1.98875
 Alpha virt. eigenvalues --    1.99481   2.00171   2.00357   2.01579   2.02310
 Alpha virt. eigenvalues --    2.02488   2.03837   2.06220   2.12083   2.13415
 Alpha virt. eigenvalues --    2.14488   2.17016   2.17854   2.18629   2.19836
 Alpha virt. eigenvalues --    2.20704   2.20926   2.21868   2.23276   2.24335
 Alpha virt. eigenvalues --    2.24458   2.24683   2.25345   2.25372   2.25737
 Alpha virt. eigenvalues --    2.26176   2.26294   2.26574   2.26628   2.26816
 Alpha virt. eigenvalues --    2.27164   2.27848   2.28140   2.28274   2.28646
 Alpha virt. eigenvalues --    2.28765   2.29003   2.29653   2.30001   2.30248
 Alpha virt. eigenvalues --    2.30826   2.31256   2.32371   2.32650   2.33513
 Alpha virt. eigenvalues --    2.33747   2.35576   2.36751   2.37316   2.38027
 Alpha virt. eigenvalues --    2.38558   2.39199   2.40786   2.41709   2.42595
 Alpha virt. eigenvalues --    2.43656   2.44345   2.46103   2.47918   2.49318
 Alpha virt. eigenvalues --    2.49687   2.49809   2.56576   2.58296   2.58335
 Alpha virt. eigenvalues --    2.60506   2.62684   2.63283   2.64767   2.68194
 Alpha virt. eigenvalues --    2.68461   2.69792   2.88240   2.91019   2.93037
 Alpha virt. eigenvalues --    2.94110   2.94312   2.94849   2.97154   2.98172
 Alpha virt. eigenvalues --    2.98593   2.99244   2.99284   2.99677   3.00525
 Alpha virt. eigenvalues --    3.00878   3.01100   3.01296   3.01306   3.01624
 Alpha virt. eigenvalues --    3.02155   3.02393   3.02711   3.02819   3.03053
 Alpha virt. eigenvalues --    3.03126   3.03267   3.03507   3.03608   3.03816
 Alpha virt. eigenvalues --    3.04065   3.04140   3.04282   3.04408   3.04831
 Alpha virt. eigenvalues --    3.05352   3.05414   3.05775   3.06118   3.06223
 Alpha virt. eigenvalues --    3.06446   3.07147   3.07476   3.07791   3.07832
 Alpha virt. eigenvalues --    3.07959   3.08198   3.08259   3.08373   3.08704
 Alpha virt. eigenvalues --    3.08733   3.08800   3.09088   3.09392   3.09442
 Alpha virt. eigenvalues --    3.09497   3.10694   3.11030   3.11181   3.11497
 Alpha virt. eigenvalues --    3.11647   3.12135   3.12904   3.13718   3.15694
 Alpha virt. eigenvalues --    3.15735   3.16110   3.17448   3.18007   3.18583
 Alpha virt. eigenvalues --    3.19678   3.21337   3.21527   3.22384   3.23071
 Alpha virt. eigenvalues --    3.23629   3.23723   3.25001   3.25388   3.25571
 Alpha virt. eigenvalues --    3.25741   3.26054   3.26231   3.26782   3.27449
 Alpha virt. eigenvalues --    3.27753   3.27944   3.28614   3.28725   3.29250
 Alpha virt. eigenvalues --    3.29484   3.29928   3.30335   3.30931   3.31661
 Alpha virt. eigenvalues --    3.32868   3.33087   3.35679   3.47214   3.53518
 Alpha virt. eigenvalues --    3.53762   3.54338   3.54674   3.55986   3.58005
 Alpha virt. eigenvalues --    3.58875   3.59550   3.60138   3.60590   3.60880
 Alpha virt. eigenvalues --    3.61166   3.61542   3.61679   3.62627   3.63370
 Alpha virt. eigenvalues --    3.64008   3.64825   3.65160   3.65895   3.66381
 Alpha virt. eigenvalues --    3.66729   3.67201   3.67952   3.68199   3.68516
 Alpha virt. eigenvalues --    3.69347   3.69677   3.71297   3.72441   3.75593
 Alpha virt. eigenvalues --    3.80394   3.82139   3.83773   3.85289   3.85473
 Alpha virt. eigenvalues --    3.85807   3.86414   3.88103   3.88406   3.89361
 Alpha virt. eigenvalues --    3.89520   3.89601   3.89967   3.90036   3.90785
 Alpha virt. eigenvalues --    3.91010   3.91454   3.92204   3.92566   3.93120
 Alpha virt. eigenvalues --    3.94120   3.94364   3.95350   3.95769   3.96286
 Alpha virt. eigenvalues --    3.97337   3.98996   3.99465   3.99789   4.00478
 Alpha virt. eigenvalues --    4.02193   4.05909
          Condensed to atoms (all electrons):
 Mulliken charges:
               1
     1  Br  -0.708794
     2  O   -0.279100
     3  H    0.118066
     4  H    0.129162
     5  O   -0.271209
     6  H    0.111944
     7  H    0.153377
     8  O   -0.291041
     9  H    0.128027
    10  H    0.127689
    11  O   -0.273199
    12  H    0.148092
    13  H    0.112188
    14  O   -0.243446
    15  H    0.135601
    16  H    0.158082
    17  O   -0.238349
    18  H    0.142332
    19  H    0.140585
    20  O   -0.247867
    21  H    0.140803
    22  H    0.147449
    23  O   -0.282363
    24  H    0.142328
    25  H    0.120267
    26  O   -0.286954
    27  H    0.135764
    28  H    0.150793
    29  O   -0.242308
    30  H    0.153898
    31  H    0.146652
    32  O   -0.293537
    33  H    0.115443
    34  H    0.114099
    35  O   -0.280094
    36  H    0.119619
    37  H    0.128933
    38  O   -0.271078
    39  H    0.123863
    40  H    0.130557
    41  O   -0.285561
    42  H    0.152176
    43  H    0.140102
    44  O   -0.245914
    45  H    0.108516
    46  H    0.116664
    47  O   -0.235419
    48  H    0.117677
    49  H    0.152098
    50  O   -0.284594
    51  H    0.104926
    52  H    0.125698
    53  O   -0.247202
    54  H    0.148045
    55  H    0.140934
    56  O   -0.269774
    57  H    0.096712
    58  H    0.141834
    59  O   -0.227753
    60  H    0.160365
    61  H    0.157209
    62  O   -0.317408
    63  H    0.144718
    64  H    0.119546
    65  O   -0.351657
    66  H    0.124406
    67  H    0.165061
    68  O   -0.316216
    69  H    0.129255
    70  H    0.130192
    71  O   -0.299931
    72  H    0.107608
    73  H    0.143231
    74  O   -0.250319
    75  H    0.140851
    76  H    0.143911
    77  O   -0.329680
    78  H    0.124731
    79  H    0.125661
    80  O   -0.300747
    81  H    0.128296
    82  H    0.111678
    83  O   -0.298720
    84  H    0.137638
    85  H    0.130750
    86  O   -0.220818
    87  H    0.137555
    88  H    0.161343
    89  O   -0.292660
    90  H    0.153663
    91  H    0.103429
    92  O   -0.263585
    93  H    0.106538
    94  H    0.137731
    95  O   -0.263969
    96  H    0.118837
    97  H    0.146067
 Sum of Mulliken charges =  -1.00000
 Mulliken charges with hydrogens summed into heavy atoms:
               1
     1  Br  -0.708794
     2  O   -0.031872
     5  O   -0.005888
     8  O   -0.035325
    11  O   -0.012919
    14  O    0.050237
    17  O    0.044567
    20  O    0.040385
    23  O   -0.019767
    26  O   -0.000398
    29  O    0.058243
    32  O   -0.063995
    35  O   -0.031542
    38  O   -0.016658
    41  O    0.006717
    44  O   -0.020734
    47  O    0.034356
    50  O   -0.053970
    53  O    0.041777
    56  O   -0.031228
    59  O    0.089822
    62  O   -0.053143
    65  O   -0.062190
    68  O   -0.056769
    71  O   -0.049093
    74  O    0.034443
    77  O   -0.079289
    80  O   -0.060773
    83  O   -0.030332
    86  O    0.078080
    89  O   -0.035568
    92  O   -0.019316
    95  O    0.000935
         Mulliken charges condensed to fragments:
      1     -0.708794
      2     -0.291206
 Electronic spatial extent (au):  <R**2>=        1535893.6935
 Charge=             -1.0000 electrons
 Dipole moment (field-independent basis, Debye):
    X=            -84.6609    Y=            -82.7787    Z=            -86.2223  Tot=            146.4721
 Quadrupole moment (field-independent basis, Debye-Ang):
   XX=          -1775.1840   YY=          -1643.0529   ZZ=          -1823.8545
   XY=          -1395.1891   XZ=          -1487.6572   YZ=          -1395.2941
 Traceless Quadrupole moment (field-independent basis, Debye-Ang):
   XX=            -27.8202   YY=            104.3109   ZZ=            -76.4907
   XY=          -1395.1891   XZ=          -1487.6572   YZ=          -1395.2941
 Octapole moment (field-independent basis, Debye-Ang**2):
  XXX=         -42861.5309  YYY=         -37464.5190  ZZZ=         -44141.3915  XYY=         -26774.1927
  XXY=         -28824.9747  XXZ=         -31057.1840  XZZ=         -31793.3385  YZZ=         -28410.2629
  YYZ=         -26245.1672  XYZ=         -22554.0884
 Hexadecapole moment (field-independent basis, Debye-Ang**3):
 XXXX=       -1121018.1625 YYYY=        -943143.9731 ZZZZ=       -1157818.7213 XXXY=        -706103.9862
 XXXZ=        -758408.5306 YYYX=        -604922.9791 YYYZ=        -584740.6452 ZZZX=        -794428.2094
 ZZZY=        -686064.0658 XXYY=        -538304.8707 XXZZ=        -663412.5178 YYZZ=        -506531.7631
 XXYZ=        -462952.9784 YYXZ=        -400149.0249 ZZXY=        -462775.9870
 N-N= 6.167672204389D+03 E-N=-2.430228368011D+04  KE= 5.003535865182D+03
 No NMR shielding tensors so no spin-rotation constants.
 Leave Link  601 at Thu May  3 00:23:41 2018, MaxMem= 14763950080 cpu:        70.7
 (Enter /cm/shared/gaussian/g09.e01/intel64-sandybridge/g09/l701.exe)
 Compute integral first derivatives.
 ... and contract with generalized density number  0.
 Leave Link  701 at Thu May  3 00:23:43 2018, MaxMem= 14763950080 cpu:       131.0
 (Enter /cm/shared/gaussian/g09.e01/intel64-sandybridge/g09/l702.exe)
 L702 exits ... SP integral derivatives will be done elsewhere.
 Leave Link  702 at Thu May  3 00:23:43 2018, MaxMem= 14763950080 cpu:         1.7
 (Enter /cm/shared/gaussian/g09.e01/intel64-sandybridge/g09/l703.exe)
 Compute integral first derivatives, UseDBF=F ICtDFT=           0.
 Integral derivatives from FoFJK, PRISM(SPDF).
 Calling FoFJK, ICntrl=      2127 FMM=T ISym2X=0 I1Cent= 0 IOpClX= 0 NMat=1 NMatS=1 NMatT=0.
 FoFJK:  IHMeth= 1 ICntrl=    2127 DoSepK=F KAlg= 0 I1Cent=   0 FoldK=F
 IRaf=         0 NMat=   1 IRICut=       1 DoRegI=T DoRafI=F ISym2E= 0.
 FoFCou: FMM=T IPFlag=           0 FMFlag=      100000 FMFlg1=        2001
         NFxFlg=           0 DoJE=F BraDBF=F KetDBF=F FulRan=T
         wScrn=  0.000000 ICntrl=    2127 IOpCl=  0 I1Cent=           0 NGrid=           0
         NMat0=    1 NMatS0=      1 NMatT0=    0 NMatD0=    1 NMtDS0=    0 NMtDT0=    0
 Symmetry not used in FoFCou.
 FMM levels:  10  Number of levels for PrismC:   9
 Leave Link  703 at Thu May  3 00:23:59 2018, MaxMem= 14763950080 cpu:      1027.2
 (Enter /cm/shared/gaussian/g09.e01/intel64-sandybridge/g09/l716.exe)
 Dipole        =-3.33081514D+01-3.25676591D+01-3.39224847D+01
 Cartesian Forces:  Max     0.037253961 RMS     0.010657666
 Leave Link  716 at Thu May  3 00:23:59 2018, MaxMem= 14763950080 cpu:         3.5
 (Enter /cm/shared/gaussian/g09.e01/intel64-sandybridge/g09/l122.exe)
 CPIOFr:  IOpCl= 0 IRwI=-1 IRwCP=  731 ICalc= -1 LCPTot=     1005244 Len1MO=     2550559 IndFrg=     1005244
 CPIOFr:  IOpCl= 0 IRwI=-1 IRwCP=  731 ICalc=  0 LCPTot=     1005244 Len1MO=     2550559 IndFrg=     3555803
 Counterpoise: doing DCBS calculation for fragment   1 NewBq=T
 Leave Link  122 at Thu May  3 00:23:59 2018, MaxMem= 14763950080 cpu:         7.0
 (Enter /cm/shared/gaussian/g09.e01/intel64-sandybridge/g09/l301.exe)
 Basis read from rwf:  (5D, 7F)
 No pseudopotential information found on rwf file.
   795 basis functions,  1651 primitive gaussians,   829 cartesian basis functions
    18 alpha electrons       18 beta electrons
       nuclear repulsion energy         0.0000000000 Hartrees.
 IExCor= 1009 DFT=T Ex+Corr=PBE1PBE ExCW=0 ScaHFX=  0.250000
 ScaDFX=  0.750000  0.750000  1.000000  1.000000 ScalE2=  1.000000  1.000000
 IRadAn=      0 IRanWt=     -1 IRanGd=            0 ICorTp=0 IEmpDi=  4
 NAtoms=   97 NActive=   97 NUniq=   97 SFac= 1.00D+00 NAtFMM=   60 NAOKFM=T Big=T
 Integral buffers will be    131072 words long.
 Raffenetti 2 integral format.
 Two-electron integral symmetry is turned off.
 No density basis found on file   718.
 Leave Link  301 at Thu May  3 00:24:00 2018, MaxMem= 14763950080 cpu:         4.5
 (Enter /cm/shared/gaussian/g09.e01/intel64-sandybridge/g09/l302.exe)
 NPDir=0 NMtPBC=     1 NCelOv=     1 NCel=       1 NClECP=     1 NCelD=      1
         NCelK=      1 NCelE2=     1 NClLst=     1 CellRange=     0.0.
 One-electron integrals computed using PRISM.
 NBasis=   795 RedAO= T EigKep=  1.55D-02  NBF=   795
 NBsUse=   795 1.00D-06 EigRej= -1.00D+00 NBFU=   795
 Precomputing XC quadrature grid using
 IXCGrd= 4 IRadAn=           0 IRanWt=          -1 IRanGd=           0 AccXCQ= 0.00D+00.
 Generated NRdTot=       0 NPtTot=           0 NUsed=           0 NTot=          32
 NSgBfM=   734   740   753   760   761 MxSgAt=    97 MxSgA2=    97.
 Leave Link  302 at Thu May  3 00:24:08 2018, MaxMem= 14763950080 cpu:       537.4
 (Enter /cm/shared/gaussian/g09.e01/intel64-sandybridge/g09/l303.exe)
 DipDrv:  MaxL=1.
 Leave Link  303 at Thu May  3 00:24:09 2018, MaxMem= 14763950080 cpu:        28.7
 (Enter /cm/shared/gaussian/g09.e01/intel64-sandybridge/g09/l401.exe)
 ExpMin= 1.22D-01 ExpMax= 6.40D+05 ExpMxC= 6.18D+03 IAcc=2 IRadAn=         4 AccDes= 0.00D+00
 Harris functional with IExCor= 1009 and IRadAn=       4 diagonalized for initial guess.
 HarFok:  IExCor= 1009 AccDes= 0.00D+00 IRadAn=         4 IDoV= 1 UseB2=F ITyADJ=14
 ICtDFT=  3500011 ScaDFX=  1.000000  1.000000  1.000000  1.000000
 FoFCou: FMM=F IPFlag=           0 FMFlag=      100000 FMFlg1=        2001
         NFxFlg=           0 DoJE=T BraDBF=F KetDBF=T FulRan=T
         wScrn=  0.000000 ICntrl=     500 IOpCl=  0 I1Cent=   200000004 NGrid=           0
         NMat0=    1 NMatS0=      1 NMatT0=    0 NMatD0=    1 NMtDS0=    0 NMtDT0=    0
 Symmetry not used in FoFCou.
 Harris En= -2574.01949718111    
 JPrj=0 DoOrth=F DoCkMO=F.
 Leave Link  401 at Thu May  3 00:24:13 2018, MaxMem= 14763950080 cpu:       271.2
 (Enter /cm/shared/gaussian/g09.e01/intel64-sandybridge/g09/l502.exe)
 Closed shell SCF:
 Using DIIS extrapolation, IDIIS=  1040.
 Two-electron integral symmetry not used.
 IVT=     2138497 IEndB=     2138497 NGot= 14763950080 MDV= 14762516294
 LenX= 14762516294 LenY= 14761828224
 Requested convergence on RMS density matrix=1.00D-08 within 128 cycles.
 Requested convergence on MAX density matrix=1.00D-06.
 Requested convergence on             energy=1.00D-06.
 No special actions if energy rises.
 Fock matrices will be formed incrementally for  20 cycles.
 Integral accuracy reduced to 1.0D-05 until final iterations.

 Cycle   1  Pass 0  IDiag  1:
 FoFJK:  IHMeth= 1 ICntrl=       0 DoSepK=F KAlg= 0 I1Cent=   0 FoldK=F
 IRaf= 830000000 NMat=   1 IRICut=       1 DoRegI=T DoRafI=F ISym2E= 0.
 FoFCou: FMM=T IPFlag=           0 FMFlag=      100000 FMFlg1=        2001
         NFxFlg=           0 DoJE=F BraDBF=F KetDBF=F FulRan=T
         wScrn=  0.000000 ICntrl=       0 IOpCl=  0 I1Cent=           0 NGrid=           0
         NMat0=    1 NMatS0=      1 NMatT0=    0 NMatD0=    1 NMtDS0=    0 NMtDT0=    0
 Symmetry not used in FoFCou.
 FMM levels:  10  Number of levels for PrismC:   9
 E= -2573.87951952472    
 DIIS: error= 1.13D-02 at cycle   1 NSaved=   1.
 NSaved= 1 IEnMin= 1 EnMin= -2573.87951952472     IErMin= 1 ErrMin= 1.13D-02
 ErrMax= 1.13D-02  0.00D+00 EMaxC= 1.00D-01 BMatC= 3.73D-02 BMatP= 3.73D-02
 IDIUse=3 WtCom= 8.87D-01 WtEn= 1.13D-01
 Coeff-Com:  0.100D+01
 Coeff-En:   0.100D+01
 Coeff:      0.100D+01
 Gap=     0.177 Goal=   None    Shift=    0.000
 GapD=    0.177 DampG=1.000 DampE=0.500 DampFc=0.5000 IDamp=-1.
 Damping current iteration by 5.00D-01
 RMSDP=4.56D-04 MaxDP=6.82D-02              OVMax= 1.49D-01

 Cycle   2  Pass 0  IDiag  1:
 RMSU=  2.26D-04    CP:  9.96D-01
 E= -2573.89576706199     Delta-E=       -0.016247537270 Rises=F Damp=T
 DIIS: error= 6.69D-03 at cycle   2 NSaved=   2.
 NSaved= 2 IEnMin= 2 EnMin= -2573.89576706199     IErMin= 2 ErrMin= 6.69D-03
 ErrMax= 6.69D-03  0.00D+00 EMaxC= 1.00D-01 BMatC= 8.80D-03 BMatP= 3.73D-02
 IDIUse=3 WtCom= 9.33D-01 WtEn= 6.69D-02
 Coeff-Com: -0.576D+00 0.158D+01
 Coeff-En:   0.000D+00 0.100D+01
 Coeff:     -0.537D+00 0.154D+01
 Gap=     0.189 Goal=   None    Shift=    0.000
 RMSDP=1.56D-04 MaxDP=3.74D-02 DE=-1.62D-02 OVMax= 6.56D-02

 Cycle   3  Pass 0  IDiag  1:
 RMSU=  1.40D-04    CP:  9.96D-01  1.30D+00
 E= -2573.90887634660     Delta-E=       -0.013109284601 Rises=F Damp=F
 DIIS: error= 3.07D-03 at cycle   3 NSaved=   3.
 NSaved= 3 IEnMin= 3 EnMin= -2573.90887634660     IErMin= 3 ErrMin= 3.07D-03
 ErrMax= 3.07D-03  0.00D+00 EMaxC= 1.00D-01 BMatC= 2.33D-03 BMatP= 8.80D-03
 IDIUse=3 WtCom= 9.69D-01 WtEn= 3.07D-02
 Coeff-Com: -0.302D+00 0.713D+00 0.589D+00
 Coeff-En:   0.000D+00 0.000D+00 0.100D+01
 Coeff:     -0.293D+00 0.691D+00 0.602D+00
 Gap=     0.172 Goal=   None    Shift=    0.000
 RMSDP=7.05D-05 MaxDP=1.70D-02 DE=-1.31D-02 OVMax= 2.08D-02

 Cycle   4  Pass 0  IDiag  1:
 RMSU=  7.96D-06    CP:  9.94D-01  1.50D+00  6.34D-01
 E= -2573.91140226457     Delta-E=       -0.002525917977 Rises=F Damp=F
 DIIS: error= 9.55D-05 at cycle   4 NSaved=   4.
 NSaved= 4 IEnMin= 4 EnMin= -2573.91140226457     IErMin= 4 ErrMin= 9.55D-05
 ErrMax= 9.55D-05  0.00D+00 EMaxC= 1.00D-01 BMatC= 1.39D-06 BMatP= 2.33D-03
 IDIUse=1 WtCom= 1.00D+00 WtEn= 0.00D+00
 Coeff-Com: -0.149D-01 0.286D-01 0.403D-01 0.946D+00
 Coeff:     -0.149D-01 0.286D-01 0.403D-01 0.946D+00
 Gap=     0.174 Goal=   None    Shift=    0.000
 RMSDP=2.10D-06 MaxDP=4.01D-04 DE=-2.53D-03 OVMax= 7.04D-04

 Initial convergence to 1.0D-05 achieved.  Increase integral accuracy.
 Cycle   5  Pass 1  IDiag  1:
 E= -2573.91189635798     Delta-E=       -0.000494093402 Rises=F Damp=F
 DIIS: error= 1.03D-05 at cycle   1 NSaved=   1.
 NSaved= 1 IEnMin= 1 EnMin= -2573.91189635798     IErMin= 1 ErrMin= 1.03D-05
 ErrMax= 1.03D-05  0.00D+00 EMaxC= 1.00D-01 BMatC= 8.82D-08 BMatP= 8.82D-08
 IDIUse=1 WtCom= 1.00D+00 WtEn= 0.00D+00
 Coeff-Com:  0.100D+01
 Coeff:      0.100D+01
 Gap=     0.174 Goal=   None    Shift=    0.000
 RMSDP=2.10D-06 MaxDP=4.01D-04 DE=-4.94D-04 OVMax= 3.14D-04

 Cycle   6  Pass 1  IDiag  1:
 RMSU=  1.46D-06    CP:  1.00D+00
 E= -2573.91189656244     Delta-E=       -0.000000204466 Rises=F Damp=F
 DIIS: error= 4.72D-06 at cycle   2 NSaved=   2.
 NSaved= 2 IEnMin= 2 EnMin= -2573.91189656244     IErMin= 2 ErrMin= 4.72D-06
 ErrMax= 4.72D-06  0.00D+00 EMaxC= 1.00D-01 BMatC= 5.21D-09 BMatP= 8.82D-08
 IDIUse=1 WtCom= 1.00D+00 WtEn= 0.00D+00
 Coeff-Com:  0.425D-01 0.957D+00
 Coeff:      0.425D-01 0.957D+00
 Gap=     0.174 Goal=   None    Shift=    0.000
 RMSDP=1.85D-07 MaxDP=2.06D-05 DE=-2.04D-07 OVMax= 6.15D-05

 Cycle   7  Pass 1  IDiag  1:
 RMSU=  1.75D-07    CP:  1.00D+00  1.04D+00
 E= -2573.91189656873     Delta-E=       -0.000000006291 Rises=F Damp=F
 DIIS: error= 3.01D-06 at cycle   3 NSaved=   3.
 NSaved= 3 IEnMin= 3 EnMin= -2573.91189656873     IErMin= 3 ErrMin= 3.01D-06
 ErrMax= 3.01D-06  0.00D+00 EMaxC= 1.00D-01 BMatC= 1.89D-09 BMatP= 5.21D-09
 IDIUse=1 WtCom= 1.00D+00 WtEn= 0.00D+00
 Coeff-Com: -0.355D-01 0.374D+00 0.662D+00
 Coeff:     -0.355D-01 0.374D+00 0.662D+00
 Gap=     0.174 Goal=   None    Shift=    0.000
 RMSDP=6.45D-08 MaxDP=8.32D-06 DE=-6.29D-09 OVMax= 2.06D-05

 Cycle   8  Pass 1  IDiag  1:
 RMSU=  2.93D-08    CP:  1.00D+00  1.06D+00  7.48D-01
 E= -2573.91189657130     Delta-E=       -0.000000002565 Rises=F Damp=F
 DIIS: error= 1.61D-07 at cycle   4 NSaved=   4.
 NSaved= 4 IEnMin= 4 EnMin= -2573.91189657130     IErMin= 4 ErrMin= 1.61D-07
 ErrMax= 1.61D-07  0.00D+00 EMaxC= 1.00D-01 BMatC= 6.68D-12 BMatP= 1.89D-09
 IDIUse=1 WtCom= 1.00D+00 WtEn= 0.00D+00
 Coeff-Com: -0.550D-02 0.392D-01 0.762D-01 0.890D+00
 Coeff:     -0.550D-02 0.392D-01 0.762D-01 0.890D+00
 Gap=     0.174 Goal=   None    Shift=    0.000
 RMSDP=6.77D-09 MaxDP=1.30D-06 DE=-2.56D-09 OVMax= 2.65D-06

 Cycle   9  Pass 1  IDiag  1:
 RMSU=  5.92D-09    CP:  1.00D+00  1.07D+00  7.60D-01  1.03D+00
 E= -2573.91189657131     Delta-E=       -0.000000000015 Rises=F Damp=F
 DIIS: error= 8.62D-08 at cycle   5 NSaved=   5.
 NSaved= 5 IEnMin= 5 EnMin= -2573.91189657131     IErMin= 5 ErrMin= 8.62D-08
 ErrMax= 8.62D-08  0.00D+00 EMaxC= 1.00D-01 BMatC= 2.49D-12 BMatP= 6.68D-12
 IDIUse=1 WtCom= 1.00D+00 WtEn= 0.00D+00
 Coeff-Com:  0.729D-03-0.155D-01-0.258D-01 0.367D+00 0.673D+00
 Coeff:      0.729D-03-0.155D-01-0.258D-01 0.367D+00 0.673D+00
 Gap=     0.174 Goal=   None    Shift=    0.000
 RMSDP=2.92D-09 MaxDP=6.28D-07 DE=-1.46D-11 OVMax= 1.06D-06

 SCF Done:  E(RPBE1PBE) =  -2573.91189657     A.U. after    9 cycles
            NFock=  9  Conv=0.29D-08     -V/T= 2.0013
 KE= 2.570513248140D+03 PE=-6.162945604420D+03 EE= 1.018520459709D+03
 Leave Link  502 at Thu May  3 00:25:42 2018, MaxMem= 14763950080 cpu:      5589.9
 (Enter /cm/shared/gaussian/g09.e01/intel64-sandybridge/g09/l601.exe)
 Copying SCF densities to generalized density rwf, IOpCl= 0 IROHF=0.

 **********************************************************************

            Population analysis using the SCF density.

 **********************************************************************

 Alpha  occ. eigenvalues -- -482.98878 -62.39028 -56.16284 -56.16282 -56.16274
 Alpha  occ. eigenvalues --   -8.49160  -6.29476  -6.29470  -6.29443  -2.37745
 Alpha  occ. eigenvalues --   -2.37744  -2.37722  -2.37719  -2.37712  -0.47194
 Alpha  occ. eigenvalues --   -0.03073  -0.03063  -0.03025
 Alpha virt. eigenvalues --    0.14354   0.16011   0.16460   0.16844   0.18249
 Alpha virt. eigenvalues --    0.18817   0.19310   0.19621   0.19997   0.21617
 Alpha virt. eigenvalues --    0.22387   0.22821   0.22891   0.23237   0.24571
 Alpha virt. eigenvalues --    0.24796   0.24985   0.25810   0.26313   0.26790
 Alpha virt. eigenvalues --    0.27501   0.28001   0.28457   0.28754   0.29613
 Alpha virt. eigenvalues --    0.29816   0.30450   0.31094   0.31787   0.32083
 Alpha virt. eigenvalues --    0.32524   0.32904   0.34129   0.34331   0.34642
 Alpha virt. eigenvalues --    0.35250   0.35553   0.36325   0.37131   0.37292
 Alpha virt. eigenvalues --    0.38062   0.38300   0.38987   0.39822   0.40028
 Alpha virt. eigenvalues --    0.40246   0.40811   0.41194   0.41671   0.42326
 Alpha virt. eigenvalues --    0.42858   0.43438   0.43618   0.44459   0.45435
 Alpha virt. eigenvalues --    0.45762   0.45984   0.46948   0.47488   0.48377
 Alpha virt. eigenvalues --    0.48614   0.49792   0.50671   0.51364   0.61847
 Alpha virt. eigenvalues --    0.62007   0.63107   0.63487   0.63991   0.64313
 Alpha virt. eigenvalues --    0.64777   0.65637   0.65757   0.66189   0.67288
 Alpha virt. eigenvalues --    0.68229   0.68471   0.68707   0.69254   0.69946
 Alpha virt. eigenvalues --    0.70320   0.70725   0.71292   0.71743   0.72280
 Alpha virt. eigenvalues --    0.72735   0.72843   0.73066   0.73227   0.73872
 Alpha virt. eigenvalues --    0.74226   0.74470   0.74627   0.75065   0.75614
 Alpha virt. eigenvalues --    0.76225   0.76336   0.76672   0.76756   0.77557
 Alpha virt. eigenvalues --    0.77768   0.77830   0.78106   0.78336   0.78901
 Alpha virt. eigenvalues --    0.79363   0.79693   0.79889   0.80398   0.80709
 Alpha virt. eigenvalues --    0.80906   0.81454   0.81963   0.82150   0.82650
 Alpha virt. eigenvalues --    0.83213   0.83491   0.83759   0.84057   0.84429
 Alpha virt. eigenvalues --    0.84729   0.85206   0.85372   0.85543   0.85911
 Alpha virt. eigenvalues --    0.86305   0.86723   0.86979   0.87281   0.87523
 Alpha virt. eigenvalues --    0.88890   0.89047   0.89630   0.89955   0.90381
 Alpha virt. eigenvalues --    0.90519   0.90927   0.91238   0.91652   0.92161
 Alpha virt. eigenvalues --    0.92562   0.93048   0.93340   0.93608   0.93654
 Alpha virt. eigenvalues --    0.93920   0.94200   0.95448   0.95978   0.96142
 Alpha virt. eigenvalues --    0.96339   0.97139   0.97371   0.98022   0.98677
 Alpha virt. eigenvalues --    0.99001   0.99629   0.99744   1.00515   1.00839
 Alpha virt. eigenvalues --    1.01332   1.01523   1.02112   1.02415   1.02553
 Alpha virt. eigenvalues --    1.03109   1.03568   1.03899   1.04461   1.04619
 Alpha virt. eigenvalues --    1.04831   1.05353   1.05951   1.06405   1.06958
 Alpha virt. eigenvalues --    1.07213   1.07928   1.08033   1.08977   1.09383
 Alpha virt. eigenvalues --    1.09934   1.10569   1.10722   1.11868   1.12697
 Alpha virt. eigenvalues --    1.13167   1.14197   1.14788   1.15563   1.15624
 Alpha virt. eigenvalues --    1.16815   1.17302   1.18755   1.19659   1.20094
 Alpha virt. eigenvalues --    1.20801   1.21587   1.22235   1.23165   1.25321
 Alpha virt. eigenvalues --    1.28420   1.65051   1.65799   1.66607   1.67153
 Alpha virt. eigenvalues --    1.67531   1.68640   1.68818   1.69449   1.69970
 Alpha virt. eigenvalues --    1.70041   1.70591   1.71080   1.71746   1.71945
 Alpha virt. eigenvalues --    1.72555   1.72918   1.73191   1.73529   1.73704
 Alpha virt. eigenvalues --    1.74103   1.74351   1.74689   1.75018   1.75509
 Alpha virt. eigenvalues --    1.75684   1.75834   1.76049   1.76354   1.76659
 Alpha virt. eigenvalues --    1.77188   1.77460   1.77865   1.78575   1.78587
 Alpha virt. eigenvalues --    1.78921   1.79208   1.79501   1.79966   1.80260
 Alpha virt. eigenvalues --    1.80678   1.81206   1.81865   1.82050   1.82508
 Alpha virt. eigenvalues --    1.83032   1.83692   1.84225   1.84627   1.85447
 Alpha virt. eigenvalues --    1.85677   1.86307   1.86802   1.87239   1.87684
 Alpha virt. eigenvalues --    1.88354   1.88925   1.89295   1.89776   1.90593
 Alpha virt. eigenvalues --    1.91866   1.92814   1.93056   1.94182   1.95160
 Alpha virt. eigenvalues --    1.95755   1.98159   1.98717   1.99106   1.99867
 Alpha virt. eigenvalues --    2.00137   2.00366   2.00726   2.01127   2.01208
 Alpha virt. eigenvalues --    2.01482   2.01865   2.02005   2.02347   2.02758
 Alpha virt. eigenvalues --    2.02898   2.03063   2.03316   2.03379   2.03634
 Alpha virt. eigenvalues --    2.03915   2.04275   2.04323   2.04632   2.04908
 Alpha virt. eigenvalues --    2.05243   2.05716   2.05894   2.06075   2.06616
 Alpha virt. eigenvalues --    2.06759   2.06852   2.07115   2.07886   2.08582
 Alpha virt. eigenvalues --    2.09003   2.09211   2.09396   2.10203   2.10557
 Alpha virt. eigenvalues --    2.10638   2.11237   2.11518   2.11975   2.12519
 Alpha virt. eigenvalues --    2.12948   2.13589   2.13673   2.13895   2.14980
 Alpha virt. eigenvalues --    2.15237   2.15602   2.16030   2.16620   2.16896
 Alpha virt. eigenvalues --    2.17093   2.17385   2.17933   2.18231   2.19125
 Alpha virt. eigenvalues --    2.19335   2.19713   2.20176   2.20363   2.20677
 Alpha virt. eigenvalues --    2.21108   2.21560   2.22227   2.22396   2.22633
 Alpha virt. eigenvalues --    2.23600   2.23653   2.24172   2.24983   2.25785
 Alpha virt. eigenvalues --    2.26092   2.26739   2.27554   2.27759   2.28234
 Alpha virt. eigenvalues --    2.29104   2.30054   2.30582   2.31167   2.31417
 Alpha virt. eigenvalues --    2.32017   2.32978   2.33324   2.34419   2.34858
 Alpha virt. eigenvalues --    2.35294   2.36609   2.38141   2.39519   2.40359
 Alpha virt. eigenvalues --    2.40461   2.41189   2.42255   2.42664   2.42972
 Alpha virt. eigenvalues --    2.43193   2.44017   2.44537   2.44979   2.45680
 Alpha virt. eigenvalues --    2.45995   2.46258   2.46543   2.46754   2.47441
 Alpha virt. eigenvalues --    2.47920   2.48382   2.48760   2.49166   2.49956
 Alpha virt. eigenvalues --    2.50501   2.50898   2.51814   2.52402   2.52900
 Alpha virt. eigenvalues --    2.53324   2.54568   2.54809   2.55040   2.56448
 Alpha virt. eigenvalues --    2.56961   2.59040   2.61861   2.66073   2.67945
 Alpha virt. eigenvalues --    2.68028   2.70060   2.70738   2.71203   2.71638
 Alpha virt. eigenvalues --    2.71976   2.72122   2.72848   2.73267   2.73642
 Alpha virt. eigenvalues --    2.74004   2.74939   2.75159   2.75813   2.76158
 Alpha virt. eigenvalues --    2.76884   2.77165   2.77998   2.80332   2.82090
 Alpha virt. eigenvalues --    2.83171   2.83755   2.84160   2.84461   2.85104
 Alpha virt. eigenvalues --    2.85203   2.85768   2.86681   2.86732   2.87130
 Alpha virt. eigenvalues --    2.87818   2.88006   2.88433   2.88793   2.89482
 Alpha virt. eigenvalues --    2.89661   2.90177   2.90776   2.91365   2.91630
 Alpha virt. eigenvalues --    2.91985   2.93424   2.94003   2.94642   2.95194
 Alpha virt. eigenvalues --    2.95880   2.96586   2.97631   2.98105   2.98822
 Alpha virt. eigenvalues --    3.00146   3.01809   3.03195   3.04271   3.04534
 Alpha virt. eigenvalues --    3.04930   3.05896   3.08837   3.10034   3.10456
 Alpha virt. eigenvalues --    3.13132   3.13829   3.15070   3.16738   3.17058
 Alpha virt. eigenvalues --    3.19227   3.20079   3.21786   3.23228   3.24643
 Alpha virt. eigenvalues --    3.26383   3.28075   3.28949   3.29352   3.31385
 Alpha virt. eigenvalues --    3.32351   3.33188   3.35059   3.35308   3.36449
 Alpha virt. eigenvalues --    3.37483   3.39729   3.42627   3.43154   3.45062
 Alpha virt. eigenvalues --    3.49118   3.52291   3.52405   3.54580   3.56425
 Alpha virt. eigenvalues --    3.61918   3.64451   3.66001   3.68502   4.51532
 Alpha virt. eigenvalues --    4.51814   4.51972   4.52065   4.52373   4.52406
 Alpha virt. eigenvalues --    4.52691   4.52787   4.53009   4.53194   4.53239
 Alpha virt. eigenvalues --    4.53323   4.53513   4.53943   4.54000   4.54106
 Alpha virt. eigenvalues --    4.54144   4.54303   4.54606   4.55043   4.55104
 Alpha virt. eigenvalues --    4.55692   4.55857   4.56264   4.56368   4.56451
 Alpha virt. eigenvalues --    4.56619   4.56769   4.56841   4.57019   4.57601
 Alpha virt. eigenvalues --    4.59682   4.59834   4.60089   4.60289   4.60505
 Alpha virt. eigenvalues --    4.60597   4.60830   4.60861   4.61023   4.61161
 Alpha virt. eigenvalues --    4.61518   4.61695   4.61852   4.61940   4.62193
 Alpha virt. eigenvalues --    4.62321   4.62441   4.62827   4.62879   4.62993
 Alpha virt. eigenvalues --    4.63252   4.63535   4.63790   4.63903   4.63984
 Alpha virt. eigenvalues --    4.64008   4.64157   4.64703   4.65124   4.66075
 Alpha virt. eigenvalues --    4.66508   4.66675   4.66929   4.74912   4.74927
 Alpha virt. eigenvalues --    4.76105   4.76430   4.76510   4.77135   4.77149
 Alpha virt. eigenvalues --    4.78173   4.78380   4.78516   4.78812   4.78992
 Alpha virt. eigenvalues --    4.79359   4.79590   4.80325   4.80636   4.81114
 Alpha virt. eigenvalues --    4.81347   4.81516   4.81970   4.82248   4.82800
 Alpha virt. eigenvalues --    4.83185   4.83678   4.83948   4.84343   4.84807
 Alpha virt. eigenvalues --    4.85557   4.85925   4.86318   4.86807   4.87082
 Alpha virt. eigenvalues --    4.87357   4.87387   4.87968   4.87998   4.88386
 Alpha virt. eigenvalues --    4.88556   4.88702   4.89152   4.89789   4.90543
 Alpha virt. eigenvalues --    4.90665   4.90958   4.91296   4.92362   4.92363
 Alpha virt. eigenvalues --    4.93895   4.94070   4.94729   4.95260   4.95551
 Alpha virt. eigenvalues --    4.96741   4.96851   4.97412   4.98083   4.98414
 Alpha virt. eigenvalues --    4.99025   5.00458   5.01013   5.02825   5.03989
 Alpha virt. eigenvalues --    5.04266   5.05098   5.05496   5.06121   5.07073
 Alpha virt. eigenvalues --    5.07731   5.08169   5.09290   5.10288   5.10356
 Alpha virt. eigenvalues --    5.11001   5.11661   5.13060   5.13361   5.14301
 Alpha virt. eigenvalues --    5.14576   5.15402   5.15595   5.16372   5.16659
 Alpha virt. eigenvalues --    5.17636   5.18657   5.19864   5.20441   5.22372
 Alpha virt. eigenvalues --    5.23179   5.24384   5.24985   5.25989   5.26629
 Alpha virt. eigenvalues --    5.27804   5.29753   5.31456   5.34975   5.36767
 Alpha virt. eigenvalues --    5.37835   5.37858   5.39395   5.40407   5.40683
 Alpha virt. eigenvalues --    5.41982   5.43877   5.44705   5.45167   5.45951
 Alpha virt. eigenvalues --    5.46708   5.47952   5.48273   5.48862   5.50264
[...]
   Y20       31.53953   0.00905   0.00000   0.01810   0.01917  31.55870
   Z20       35.47016   0.00656   0.00000   0.00585   0.00420  35.47436
   X21       34.46860   0.00810   0.00000   0.02344   0.02355  34.49215
   Y21       32.69226  -0.00096   0.00000  -0.00903  -0.00799  32.68427
   Z21       35.81031  -0.00008   0.00000   0.00324   0.00206  35.81237
   X22       33.84500   0.00729   0.00000   0.00817   0.00866  33.85366
   Y22       30.27341  -0.00540   0.00000   0.00081   0.00193  30.27534
   Z22       34.41191  -0.00400   0.00000   0.00839   0.00689  34.41880
   X23       44.72982   0.00763   0.00000  -0.00489  -0.00648  44.72334
   Y23       36.28274   0.02275   0.00000   0.01717   0.01776  36.30050
   Z23       41.72515   0.01439   0.00000   0.02221   0.02424  41.74939
   X24       44.46526   0.00053   0.00000   0.02640   0.02490  44.49015
   Y24       34.52530  -0.02358   0.00000  -0.01805  -0.01744  34.50785
   Z24       41.42280  -0.00896   0.00000  -0.02104  -0.01919  41.40361
   X25       43.53929  -0.00890   0.00000  -0.01951  -0.02077  43.51852
   Y25       37.11422  -0.00232   0.00000  -0.01684  -0.01617  37.09805
   Z25       40.64801  -0.00546   0.00000  -0.00634  -0.00462  40.64339
   X26       37.13312   0.02016   0.00000   0.03747   0.03924  37.17236
   Y26       33.86389  -0.01930   0.00000  -0.01604  -0.01472  33.84917
   Z26       30.21672   0.00491   0.00000  -0.00660  -0.00692  30.20980
   X27       37.13312  -0.00108   0.00000   0.00297   0.00426  37.13738
   Y27       34.60089   0.00235   0.00000  -0.00561  -0.00439  34.59650
   Z27       31.87968  -0.00040   0.00000  -0.00668  -0.00698  31.87270
   X28       36.15046  -0.01481   0.00000  -0.02332  -0.02125  36.12921
   Y28       34.99773   0.01392   0.00000   0.00254   0.00393  35.00166
   Z28       29.21517  -0.00421   0.00000   0.01661   0.01604  29.23121
   X29       44.91879   0.01124   0.00000   0.06434   0.06430  44.98309
   Y29       40.23227  -0.00891   0.00000  -0.01781  -0.01693  40.21534
   Z29       36.58510   0.00333   0.00000   0.02223   0.02455  36.60965
   X30       44.37077  -0.00038   0.00000   0.00712   0.00661  44.37738
   Y30       40.79919   0.00151   0.00000   0.00141   0.00220  40.80139
   Z30       38.22916   0.00608   0.00000   0.00657   0.00874  38.23790
   X31       45.86365   0.00920   0.00000   0.02912   0.02929  45.89295
   Y31       41.63067   0.00633   0.00000   0.00812   0.00902  41.63969
   Z31       35.94259  -0.00313   0.00000  -0.00402  -0.00135  35.94124
   X32       37.77563   0.01465   0.00000   0.01758   0.01981  37.79543
   Y32       40.87478   0.01259   0.00000   0.02823   0.02962  40.90439
   Z32       28.89391  -0.01446   0.00000  -0.00861  -0.00835  28.88556
   X33       38.47482   0.00369   0.00000   0.00554   0.00728  38.48211
   Y33       40.51573  -0.00472   0.00000  -0.01135  -0.01006  40.50566
   Z33       30.51908   0.01155   0.00000   0.00816   0.00859  30.52767
   X34       36.03708  -0.01195   0.00000   0.00342   0.00560  36.04267
   Y34       40.44014  -0.00632   0.00000  -0.01355  -0.01215  40.42799
   Z34       29.04509   0.00084   0.00000  -0.00958  -0.00987  29.03522
   X35       29.57421  -0.00684   0.00000  -0.00368  -0.00393  29.57028
   Y35       35.47016  -0.00175   0.00000  -0.01438  -0.01336  35.45680
   Z35       37.13312  -0.00320   0.00000   0.01585   0.01338  37.14650
   X36       30.10334   0.00237   0.00000   0.00418   0.00347  30.10681
   Y36       36.15046   0.00643   0.00000   0.00953   0.01045  36.16091
   Z36       38.72049   0.01238   0.00000   0.02193   0.01966  38.74015
   X37       30.82143   0.00367   0.00000  -0.00232  -0.00245  30.81898
   Y37       34.22294  -0.00994   0.00000  -0.02427  -0.02325  34.19969
   Z37       36.71738  -0.00427   0.00000  -0.00584  -0.00801  36.70937
   X38       38.21026   0.00357   0.00000  -0.02047  -0.02348  38.18678
   Y38       38.21026   0.00190   0.00000   0.03845   0.03883  38.24910
   Z38       46.63844   0.01442   0.00000   0.02903   0.02925  46.66769
   X39       38.30475   0.00300   0.00000   0.00991   0.00727  38.31201
   Y39       39.58976   0.01537   0.00000   0.02543   0.02588  39.61564
   Z39       45.48571  -0.01225   0.00000  -0.01995  -0.01961  45.46610
   X40       36.50951  -0.01520   0.00000  -0.02218  -0.02515  36.48436
   Y40       37.62445  -0.00525   0.00000  -0.00600  -0.00559  37.61886
   Z40       46.50616  -0.00406   0.00000  -0.01811  -0.01843  46.48773
   X41       33.61823  -0.00521   0.00000  -0.00704  -0.00497  33.61326
   Y41       37.37878  -0.01306   0.00000   0.00278   0.00419  37.38298
   Z41       29.32855  -0.02953   0.00000  -0.03207  -0.03325  29.29530
   X42       33.92058  -0.00332   0.00000  -0.02869  -0.02707  33.89352
   Y42       38.32365   0.01340   0.00000  -0.00117   0.00015  38.32380
   Z42       30.84033   0.02585   0.00000   0.02710   0.02606  30.86639
   X43       31.87968   0.00011   0.00000  -0.01053  -0.00834  31.87134
   Y43       37.71893   0.00043   0.00000  -0.00215  -0.00070  37.71823
   Z43       28.91281   0.00109   0.00000  -0.00342  -0.00509  28.90772
   X44       38.28585   0.00925   0.00000   0.01292   0.01269  38.29854
   Y44       45.93924   0.00052   0.00000   0.00310   0.00400  45.94324
   Z44       37.45437  -0.00666   0.00000   0.00899   0.00968  37.46405
   X45       40.06219   0.00275   0.00000   0.01496   0.01463  40.07683
   Y45       45.84476  -0.00089   0.00000  -0.00498  -0.00411  45.84064
   Z45       37.79452  -0.00346   0.00000  -0.00880  -0.00760  37.78692
   X46       37.52996  -0.00906   0.00000  -0.01096  -0.01167  37.51829
   Y46       45.99593   0.00556   0.00000   0.02459   0.02540  46.02134
   Z46       39.09843   0.01480   0.00000   0.02146   0.02192  39.12036
   X47       35.90480  -0.01498   0.00000   0.02160   0.02002  35.92481
   Y47       45.75027   0.02126   0.00000   0.02215   0.02281  45.77308
   Z47       42.10310  -0.00386   0.00000  -0.01775  -0.01777  42.08533
   X48       37.30319   0.01977   0.00000   0.00762   0.00595  37.30914
   Y48       44.63533  -0.02480   0.00000  -0.05140  -0.05076  44.58457
   Z48       42.27317   0.01249   0.00000   0.04895   0.04927  42.32244
   X49       35.99928  -0.00214   0.00000  -0.00981  -0.01182  35.98746
   Y49       46.82741  -0.00152   0.00000   0.00210   0.00268  46.83010
   Z49       43.57708  -0.00409   0.00000  -0.00826  -0.00820  43.56889
   X50       38.41813  -0.02168   0.00000  -0.00955  -0.01187  38.40627
   Y50       32.40880  -0.00677   0.00000   0.00100   0.00153  32.41033
   Z50       44.10621  -0.01611   0.00000  -0.02600  -0.02605  44.08016
   X51       39.74094   0.02145   0.00000   0.02569   0.02309  39.76403
   Y51       33.20249   0.00742   0.00000  -0.00343  -0.00297  33.19951
   Z51       45.05107   0.01081   0.00000   0.00089   0.00128  45.05235
   X52       39.19292   0.00206   0.00000   0.00095  -0.00118  39.19174
   Y52       30.93482  -0.00264   0.00000  -0.00920  -0.00864  30.92617
   Z52       43.38811  -0.00006   0.00000  -0.00089  -0.00079  43.38732
   X53       34.14735  -0.01568   0.00000  -0.02120  -0.02067  34.12668
   Y53       45.44791  -0.00867   0.00000  -0.00479  -0.00370  45.44421
   Z53       34.86545  -0.00869   0.00000  -0.01576  -0.01633  34.84912
   X54       33.90169  -0.00147   0.00000  -0.00567  -0.00474  33.89695
   Y54       46.65734   0.00357   0.00000   0.00423   0.00540  46.66274
   Z54       33.54264  -0.00668   0.00000  -0.01943  -0.02000  33.52264
   X55       35.54575   0.01757   0.00000   0.02863   0.02889  35.57464
   Y55       46.09042  -0.00014   0.00000  -0.02873  -0.02771  46.06271
   Z55       35.81031   0.00342   0.00000  -0.02170  -0.02180  35.78851
   X56       28.38369  -0.02900   0.00000  -0.02231  -0.02361  28.36008
   Y56       40.00550  -0.01311   0.00000  -0.01427  -0.01346  39.99204
   Z56       40.89367   0.00528   0.00000   0.00303   0.00047  40.89414
   X57       28.93171   0.00697   0.00000   0.01880   0.01700  28.94871
   Y57       39.62756   0.00073   0.00000   0.00099   0.00170  39.62926
   Z57       42.57553   0.00184   0.00000  -0.00091  -0.00332  42.57221
   X58       29.80098   0.02369   0.00000   0.01694   0.01588  29.81686
   Y58       40.78029   0.01073   0.00000   0.00259   0.00343  40.78372
   Z58       40.11889  -0.00906   0.00000  -0.00377  -0.00586  40.11302
   X59       43.95503  -0.00737   0.00000  -0.00655  -0.00767  43.94736
   Y59       43.69047  -0.00748   0.00000   0.00651   0.00718  43.69765
   Z59       40.42124  -0.00898   0.00000  -0.00518  -0.00297  40.41827
   X60       44.42746   0.00132   0.00000   0.00033  -0.00042  44.42704
   Y60       44.93769   0.00641   0.00000   0.01399   0.01473  44.95241
   Z60       39.19292  -0.00385   0.00000  -0.00708  -0.00465  39.18827
   X61       44.48415   0.01130   0.00000   0.03682   0.03525  44.51940
   Y61       44.38967   0.00637   0.00000   0.00328   0.00386  44.39353
   Z61       41.98971   0.01321   0.00000   0.00806   0.01048  42.00020
   X62       39.94881   0.00416   0.00000  -0.00168  -0.00002  39.94879
   Y62       45.84476   0.01624   0.00000   0.01795   0.01919  45.86395
   Z62       31.02930   0.00175   0.00000   0.00403   0.00519  31.03450
   X63       39.68425  -0.00291   0.00000  -0.00830  -0.00615  39.67810
   Y63       45.31563  -0.00881   0.00000  -0.02476  -0.02342  45.29221
   Z63       29.30965   0.00020   0.00000   0.01151   0.01256  29.32221
   X64       39.51417  -0.00145   0.00000   0.00529   0.00665  39.52082
   Y64       44.38967  -0.01029   0.00000  -0.01136  -0.01016  44.37950
   Z64       32.01196  -0.00027   0.00000  -0.00978  -0.00882  32.00314
   X65       43.65267   0.00524   0.00000  -0.00418  -0.00342  43.64926
   Y65       30.70805  -0.02771   0.00000  -0.04395  -0.04289  30.66516
   Z65       33.48595   0.02426   0.00000   0.02777   0.02916  33.51511
   X66       43.08576  -0.00489   0.00000   0.01045   0.01172  43.09748
   Y66       31.04820   0.00171   0.00000  -0.02562  -0.02445  31.02375
   Z66       31.80409  -0.02467   0.00000  -0.01779  -0.01654  31.78755
   X67       43.91724   0.00674   0.00000   0.02742   0.02800  43.94523
   Y67       32.35211   0.01109   0.00000  -0.00768  -0.00665  32.34546
   Z67       34.20404   0.00124   0.00000  -0.00930  -0.00773  34.19631
   X68       33.54264   0.00505   0.00000   0.01378   0.01215  33.55479
   Y68       29.42304  -0.02006   0.00000  -0.02493  -0.02421  29.39883
   Z68       41.63067   0.00326   0.00000  -0.00024  -0.00188  41.62879
   X69       32.44660  -0.00203   0.00000   0.01500   0.01364  32.46024
   Y69       30.55687   0.01167   0.00000   0.00917   0.00995  30.56682
   Z69       40.76139  -0.00435   0.00000   0.00191   0.00002  40.76142
   X70       34.82765  -0.00166   0.00000  -0.01623  -0.01805  34.80960
   Y70       30.50018   0.00924   0.00000   0.01758   0.01825  30.51843
   Z70       42.32987   0.00280   0.00000   0.01222   0.01102  42.34088
   X71       41.98971   0.01222   0.00000   0.03713   0.03415  42.02386
   Y71       35.20560  -0.02354   0.00000  -0.02427  -0.02392  35.18168
   Z71       46.44947   0.01400   0.00000   0.00694   0.00811  46.45758
   X72       43.12355   0.01315   0.00000   0.02257   0.01998  43.14353
   Y72       35.75362   0.00471   0.00000  -0.00244  -0.00203  35.75159
   Z72       45.16445  -0.01742   0.00000  -0.03321  -0.03168  45.13278
   X73       40.62911  -0.01349   0.00000   0.00875   0.00579  40.63491
   Y73       36.39613   0.01365   0.00000  -0.00038  -0.00001  36.39612
   Z73       46.37388   0.00477   0.00000   0.03019   0.03102  46.40490
   X74       45.08887   0.00380   0.00000  -0.01011  -0.01123  45.07763
   Y74       31.19938   0.00582   0.00000   0.01203   0.01271  31.21209
   Z74       39.94881   0.01142   0.00000   0.01039   0.01223  39.96104
   X75       44.27628  -0.00363   0.00000   0.00794   0.00730  44.28358
   Y75       31.35056   0.00093   0.00000   0.00072   0.00151  31.35206
   Z75       38.34254  -0.01412   0.00000  -0.02198  -0.02036  38.32218
   X76       44.59754  -0.00221   0.00000  -0.00363  -0.00494  44.59259
   Y76       29.55532  -0.00394   0.00000  -0.00135  -0.00069  29.55463
   Z76       40.53463   0.00151   0.00000   0.00120   0.00280  40.53743
   X77       29.30965  -0.00142   0.00000  -0.01233  -0.01188  29.29778
   Y77       43.59598   0.00591   0.00000  -0.00702  -0.00588  43.59010
   Z77       35.03552  -0.00024   0.00000  -0.00186  -0.00395  35.03158
   X78       29.04509  -0.00398   0.00000  -0.00932  -0.00880  29.03629
   Y78       41.81964  -0.01194   0.00000  -0.02058  -0.01943  41.80021
   Z78       34.78986  -0.00469   0.00000  -0.01609  -0.01836  34.77150
   X79       31.12379  -0.00172   0.00000  -0.01355  -0.01313  31.11066
   Y79       43.76606   0.00365   0.00000   0.01237   0.01348  43.77954
   Z79       35.11111   0.00677   0.00000   0.03372   0.03217  35.14329
   X80       39.17402  -0.02825   0.00000  -0.02889  -0.02837  39.14565
   Y80       28.44038  -0.00700   0.00000  -0.00090   0.00018  28.44056
   Z80       34.26073  -0.00443   0.00000  -0.02019  -0.02025  34.24049
   X81       39.91102   0.00474   0.00000  -0.00092  -0.00048  39.91053
   Y81       26.79632  -0.00089   0.00000   0.00621   0.00726  26.80358
   Z81       34.46860   0.00078   0.00000   0.00163   0.00171  34.47032
   X82       40.59132   0.02276   0.00000   0.02571   0.02625  40.61757
   Y82       29.57421   0.00744   0.00000  -0.01098  -0.00992  29.56429
   Z82       34.20404   0.00086   0.00000   0.00521   0.00565  34.20969
   X83       43.80385   0.01524   0.00000   0.02502   0.02739  43.83124
   Y83       40.04330   0.00777   0.00000   0.00270   0.00405  40.04735
   Z83       28.36479  -0.00595   0.00000   0.00685   0.00882  28.37361
   X84       42.72671  -0.01128   0.00000  -0.02232  -0.02036  42.70635
   Y84       40.34565   0.00072   0.00000   0.00335   0.00463  40.35028
   Z84       29.78208   0.00720   0.00000  -0.00554  -0.00387  29.77821
   X85       43.48260  -0.00552   0.00000  -0.01605  -0.01356  43.46904
   Y85       38.32365  -0.00667   0.00000  -0.00136   0.00002  38.32366
   Z85       27.91125   0.00070   0.00000   0.00347   0.00524  27.91650
   X86       33.03241   0.00197   0.00000   0.00492   0.00193  33.03434
   Y86       37.70004  -0.00483   0.00000   0.00474   0.00519  37.70523
   Z86       46.56285  -0.00172   0.00000   0.00840   0.00708  46.56993
   X87       33.07021  -0.00116   0.00000  -0.00783  -0.01106  33.05915
   Y87       39.26851   0.01187   0.00000   0.02404   0.02444  39.29295
   Z87       47.45102   0.00466   0.00000   0.00373   0.00250  47.45352
   X88       31.29386  -0.00226   0.00000   0.00590   0.00306  31.29693
   Y88       37.51106  -0.00532   0.00000  -0.02184  -0.02135  37.48972
   Z88       46.07152  -0.00295   0.00000  -0.00727  -0.00912  46.06241
   X89       27.60890  -0.01448   0.00000  -0.02418  -0.02328  27.58562
   Y89       37.96460   0.02496   0.00000   0.02295   0.02420  37.98880
   Z89       33.31587  -0.02218   0.00000  -0.01863  -0.02154  33.29433
   X90       28.00574   0.01067   0.00000   0.01894   0.01939  28.02513
   Y90       37.03863  -0.01389   0.00000   0.00468   0.00584  37.04447
   Z90       34.80876   0.02154   0.00000   0.01221   0.00938  34.81814
   X91       28.28920   0.00490   0.00000   0.00917   0.01045  28.29965
   Y91       36.96304  -0.00496   0.00000  -0.00135  -0.00003  36.96301
   Z91       31.97417  -0.00182   0.00000   0.00349   0.00074  31.97491
   X92       35.79141  -0.00324   0.00000   0.00358  -0.00012  35.79129
   Y92       33.22139  -0.00839   0.00000  -0.01563  -0.01534  33.20604
   Z92       48.79273   0.01084   0.00000   0.02909   0.02832  48.82105
   X93       35.18670  -0.00054   0.00000   0.00096  -0.00307  35.18363
   Y93       34.41191   0.00454   0.00000   0.01869   0.01892  34.43083
   Z93       50.02105  -0.00045   0.00000  -0.00338  -0.00425  50.01680
   X94       36.43392   0.00232   0.00000   0.00031  -0.00297  36.43095
   Y94       34.24184  -0.00337   0.00000  -0.03986  -0.03950  34.20234
   Z94       47.45102  -0.00769   0.00000  -0.00946  -0.00998  47.44104
   X95       41.32831   0.02435   0.00000   0.00058   0.00261  41.33092
   Y95       30.74584  -0.00203   0.00000  -0.01040  -0.00906  30.73678
   Z95       29.21517  -0.01878   0.00000  -0.04705  -0.04633  29.16883
   X96       40.40234  -0.01631   0.00000  -0.02324  -0.02150  40.38084
   Y96       29.49862  -0.00787   0.00000   0.00391   0.00520  29.50382
   Z96       30.12223   0.00967   0.00000   0.00545   0.00582  30.12806
   X97       40.21337  -0.01905   0.00000  -0.03646  -0.03438  40.17899
   Y97       32.16314   0.00962   0.00000   0.00088   0.00223  32.16537
   Z97       29.06399   0.00532   0.00000   0.02182   0.02229  29.08627
         Item               Value     Threshold  Converged?
 Maximum Force            0.037931     0.000450     NO 
 RMS     Force            0.010672     0.000300     NO 
 Maximum Displacement     0.064298     0.001800     NO 
 RMS     Displacement     0.017550     0.001200     NO 
 Predicted change in Energy=-2.848243D-02
 GradGradGradGradGradGradGradGradGradGradGradGradGradGradGradGradGradGrad

 Leave Link  103 at Thu May  3 00:30:43 2018, MaxMem= 14763950080 cpu:        52.3
 (Enter /cm/shared/gaussian/g09.e01/intel64-sandybridge/g09/l9999.exe)
 1\1\GINC-POPLE03\Force\RPBE1PBE\CC-pVDZ\Br1H64O32(1-)\M.PELUSO\03-May-
 2018\0\\#p PBE1PBE/cc-pvDZ force Counterpoise=2 noSymm\\forces on chlo
 ride comput - NWATER: 32\\-1,1\Br,20.,20.,20.\O,17.64,21.92,21.17\H,18
 .04,22.77,21.34\H,18.32,21.42,20.72\O,18.13,21.24,17.63\H,17.94,22.15,
 17.83\H,18.56,20.9,18.42\O,21.81,21.37,17.73\H,21.24,21.35,18.49\H,22.
 7,21.28,18.09\O,17.77,18.46,21.98\H,18.44,18.59,21.31\H,18.05,19.02,22
 .7\O,20.92,22.26,22.74\H,21.82,22.56,22.68\H,20.84,21.59,22.05\O,23.3,
 18.54,18.69\H,23.87,19.3,18.79\H,22.43,18.86,18.92\O,17.52,16.69,18.77
 \H,18.24,17.3,18.95\H,17.91,16.02,18.21\O,23.67,19.2,22.08\H,23.53,18.
 27,21.92\H,23.04,19.64,21.51\O,19.65,17.92,15.99\H,19.65,18.31,16.87\H
 ,19.13,18.52,15.46\O,23.77,21.29,19.36\H,23.48,21.59,20.23\H,24.27,22.
 03,19.02\O,19.99,21.63,15.29\H,20.36,21.44,16.15\H,19.07,21.4,15.37\O,
 15.65,18.77,19.65\H,15.93,19.13,20.49\H,16.31,18.11,19.43\O,20.22,20.2
 2,24.68\H,20.27,20.95,24.07\H,19.32,19.91,24.61\O,17.79,19.78,15.52\H,
 17.95,20.28,16.32\H,16.87,19.96,15.3\O,20.26,24.31,19.82\H,21.2,24.26,
 20.\H,19.86,24.34,20.69\O,19.,24.21,22.28\H,19.74,23.62,22.37\H,19.05,
 24.78,23.06\O,20.33,17.15,23.34\H,21.03,17.57,23.84\H,20.74,16.37,22.9
 6\O,18.07,24.05,18.45\H,17.94,24.69,17.75\H,18.81,24.39,18.95\O,15.02,
 21.17,21.64\H,15.31,20.97,22.53\H,15.77,21.58,21.23\O,23.26,23.12,21.3
 9\H,23.51,23.78,20.74\H,23.54,23.49,22.22\O,21.14,24.26,16.42\H,21.,23
 .98,15.51\H,20.91,23.49,16.94\O,23.1,16.25,17.72\H,22.8,16.43,16.83\H,
 23.24,17.12,18.1\O,17.75,15.57,22.03\H,17.17,16.17,21.57\H,18.43,16.14
 ,22.4\O,22.22,18.63,24.58\H,22.82,18.92,23.9\H,21.5,19.26,24.54\O,23.8
 6,16.51,21.14\H,23.43,16.59,20.29\H,23.6,15.64,21.45\O,15.51,23.07,18.
 54\H,15.37,22.13,18.41\H,16.47,23.16,18.58\O,20.73,15.05,18.13\H,21.12
 ,14.18,18.24\H,21.48,15.65,18.1\O,23.18,21.19,15.01\H,22.61,21.35,15.7
 6\H,23.01,20.28,14.77\O,17.48,19.95,24.64\H,17.5,20.78,25.11\H,16.56,1
 9.85,24.38\O,14.61,20.09,17.63\H,14.82,19.6,18.42\H,14.97,19.56,16.92\
 O,18.94,17.58,25.82\H,18.62,18.21,26.47\H,19.28,18.12,25.11\O,21.87,16
 .27,15.46\H,21.38,15.61,15.94\H,21.28,17.02,15.38\\Version=ES64L-G09Re
 vE.01\HF=-2443.2116952\RMSD=3.043e-09\RMSF=1.067e-02\Dipole=4.1771458,
 5.2353398,3.6112802\Quadrupole=-23.3673916,83.7030867,-60.3356951,-103
 4.5290106,-1108.2690114,-1034.8601166\PG=C01 [X(Br1H64O32)]\\@


 COMMON SENSE IS NOT SO COMMON.   -- VOLTAIRE
 Job cpu time:       0 days  9 hours 45 minutes  8.6 seconds.
 File lengths (MBytes):  RWF=    482 Int=      0 D2E=      0 Chk=    160 Scr=      1
 Normal termination of Gaussian 09 at Thu May  3 00:30:43 2018.
