 Entering Gaussian System, Link 0=/cm/shared/gaussian/g09.e01/intel64-sandybridge/g09/g09
 Initial command:
 /cm/shared/gaussian/g09.e01/intel64-sandybridge/g09/l1.exe "/local/scratch/m.peluso/32_wat/Gau-63421.inp" -scrdir="/local/scratch/m.peluso/32_wat/"
 Entering Link 1 = /cm/shared/gaussian/g09.e01/intel64-sandybridge/g09/l1.exe PID=     63422.
  
 Copyright (c) 1988,1990,1992,1993,1995,1998,2003,2009,2015,
            Gaussian, Inc.  All Rights Reserved.
  
 This is part of the Gaussian(R) 09 program.  It is based on
 the Gaussian(R) 03 system (copyright 2003, Gaussian, Inc.),
 the Gaussian(R) 98 system (copyright 1998, Gaussian, Inc.),
 the Gaussian(R) 94 system (copyright 1995, Gaussian, Inc.),
 the Gaussian 92(TM) system (copyright 1992, Gaussian, Inc.),
 the Gaussian 90(TM) system (copyright 1990, Gaussian, Inc.),
 the Gaussian 88(TM) system (copyright 1988, Gaussian, Inc.),
 the Gaussian 86(TM) system (copyright 1986, Carnegie Mellon
 University), and the Gaussian 82(TM) system (copyright 1983,
 Carnegie Mellon University). Gaussian is a federally registered
 trademark of Gaussian, Inc.
  
 This software contains proprietary and confidential information,
 including trade secrets, belonging to Gaussian, Inc.
  
 This software is provided under written license and may be
 used, copied, transmitted, or stored only in accord with that
 written license.
  
 The following legend is applicable only to US Government
 contracts under FAR:
  
                    RESTRICTED RIGHTS LEGEND
  
 Use, reproduction and disclosure by the US Government is
 subject to restrictions as set forth in subparagraphs (a)
 and (c) of the Commercial Computer Software - Restricted
 Rights clause in FAR 52.227-19.
  
 Gaussian, Inc.
 340 Quinnipiac St., Bldg. 40, Wallingford CT 06492
  
  
 ---------------------------------------------------------------
 Warning -- This program may not be used in any manner that
 competes with the business of Gaussian, Inc. or will provide
 assistance to any competitor of Gaussian, Inc.  The licensee
 of this program is prohibited from giving any competitor of
 Gaussian, Inc. access to this program.  By using this program,
 the user acknowledges that Gaussian, Inc. is engaged in the
 business of creating and licensing software in the field of
 computational chemistry and represents and warrants to the
 licensee that it is not a competitor of Gaussian, Inc. and that
 it will not use this program in any manner prohibited above.
 ---------------------------------------------------------------
  

 Cite this work as:
 Gaussian 09, Revision E.01,
 M. J. Frisch, G. W. Trucks, H. B. Schlegel, G. E. Scuseria, 
 M. A. Robb, J. R. Cheeseman, G. Scalmani, V. Barone, B. Mennucci, 
 G. A. Petersson, H. Nakatsuji, M. Caricato, X. Li, H. P. Hratchian, 
 A. F. Izmaylov, J. Bloino, G. Zheng, J. L. Sonnenberg, M. Hada, 
 M. Ehara, K. Toyota, R. Fukuda, J. Hasegawa, M. Ishida, T. Nakajima, 
 Y. Honda, O. Kitao, H. Nakai, T. Vreven, J. A. Montgomery, Jr., 
 J. E. Peralta, F. Ogliaro, M. Bearpark, J. J. Heyd, E. Brothers, 
 K. N. Kudin, V. N. Staroverov, T. Keith, R. Kobayashi, J. Normand, 
 K. Raghavachari, A. Rendell, J. C. Burant, S. S. Iyengar, J. Tomasi, 
 M. Cossi, N. Rega, J. M. Millam, M. Klene, J. E. Knox, J. B. Cross, 
 V. Bakken, C. Adamo, J. Jaramillo, R. Gomperts, R. E. Stratmann, 
 O. Yazyev, A. J. Austin, R. Cammi, C. Pomelli, J. W. Ochterski, 
 R. L. Martin, K. Morokuma, V. G. Zakrzewski, G. A. Voth, 
 P. Salvador, J. J. Dannenberg, S. Dapprich, A. D. Daniels, 
 O. Farkas, J. B. Foresman, J. V. Ortiz, J. Cioslowski, 
 and D. J. Fox, Gaussian, Inc., Wallingford CT, 2013.
 
 ******************************************
 Gaussian 09:  ES64L-G09RevE.01 30-Nov-2015
                 3-May-2018 
 ******************************************
 %Mem=110GB
 %NProcShared=64
 Will use up to   64 processors via shared memory.
 %chk=snap57.chk
 ----------------------------------------------
 #p PBE1PBE/cc-pvDZ force Counterpoise=2 noSymm
 ----------------------------------------------
 1/10=7,30=1,38=1,62=2/1,3;
 2/12=2,15=1,17=6,18=5,40=1/2;
 1/10=7,30=1,38=1,53=2,62=2,63=101/22;
 3/5=16,11=2,16=1,25=1,30=1,71=1,74=-13/1,2,3;
 4//1;
 5/5=2,38=5/2;
 6/7=2,8=2,9=2,10=2,28=1/1;
 7/7=1,29=1,30=1,33=-1/1,2,3,16;
 1/10=7,30=1,53=2,62=2,63=101/22;
 3/5=7,6=11,11=2,16=1,25=1,30=1,71=1,74=-13,82=7/1,2,3;
 4//1;
 5/5=2,38=5/2;
 6/7=2,8=2,9=2,10=2,28=1/1;
 7/7=1,29=1,30=1,33=-1/1,2,3,16;
 1/10=7,30=1,53=2,62=2,63=101/22(-5);
 7/9=1,29=1,44=-1/16;
 1/10=7,30=1,62=2/3;
 99//99;
 Leave Link    1 at Thu May  3 11:42:20 2018, MaxMem= 14763950080 cpu:         4.3
 (Enter /cm/shared/gaussian/g09.e01/intel64-sandybridge/g09/l101.exe)
 --------------------------------------
 forces on chloride comput - NWATER: 32
 --------------------------------------
 Symbolic Z-matrix:
 Charge = -1 Multiplicity = 1 in supermolecule
 Charge = -1 Multiplicity = 1 in fragment      1.
 Charge =  0 Multiplicity = 1 in fragment      2.
 Br(Fragment=1)        20.       20.       20. 
 O(Fragment=2)         21.75     21.94     18.26 
 H(Fragment=2)         22.49     21.48     17.85 
 H(Fragment=2)         21.33     21.27     18.79 
 O(Fragment=2)         22.22     18.61     18.18 
 H(Fragment=2)         22.68     19.3      17.71 
 H(Fragment=2)         21.63     19.09     18.77 
 O(Fragment=2)         21.36     20.82     22.74 
 H(Fragment=2)         20.93     20.87     21.88 
 H(Fragment=2)         20.91     21.48     23.27 
 O(Fragment=2)         16.95     21.51     19.91 
 H(Fragment=2)         17.71     21.03     19.59 
 H(Fragment=2)         16.76     22.15     19.23 
 O(Fragment=2)         21.75     17.08     20.67 
 H(Fragment=2)         22.31     17.6      21.24 
 H(Fragment=2)         21.22     17.71     20.19 
 O(Fragment=2)         19.4      23.4      19.64 
 H(Fragment=2)         20.25     23.46     19.21 
 H(Fragment=2)         19.18     22.46     19.62 
 O(Fragment=2)         18.43     16.86     19.78 
 H(Fragment=2)         17.52     16.79     20.06 
 H(Fragment=2)         18.58     17.8      19.68 
 O(Fragment=2)         18.95     23.22     22.79 
 H(Fragment=2)         18.66     22.72     22.03 
 H(Fragment=2)         19.07     24.11     22.46 
 O(Fragment=2)         23.14     18.51     22.51 
 H(Fragment=2)         22.61     19.31     22.55 
 H(Fragment=2)         23.03     18.09     23.35 
 O(Fragment=2)         20.5      16.68     17.08 
 H(Fragment=2)         21.08     17.33     17.49 
 H(Fragment=2)         19.74     16.64     17.66 
 O(Fragment=2)         20.3      15.3      22.08 
 H(Fragment=2)         21.25     15.21     22.09 
 H(Fragment=2)         20.12     15.9      21.35 
 O(Fragment=2)         19.74     24.22     17. 
 H(Fragment=2)         20.15     23.39     17.23 
 H(Fragment=2)         18.8      24.03     17.01 
 O(Fragment=2)         16.11     19.69     17.45 
 H(Fragment=2)         16.87     19.77     16.87 
 H(Fragment=2)         15.87     18.77     17.41 
 O(Fragment=2)         25.46     19.77     20.79 
 H(Fragment=2)         25.7      19.77     19.87 
 H(Fragment=2)         24.56     19.45     20.81 
 O(Fragment=2)         15.61     21.4      22.59 
 H(Fragment=2)         14.96     20.93     22.08 
 H(Fragment=2)         16.17     21.83     21.94 
 O(Fragment=2)         17.99     19.49     15.44 
 H(Fragment=2)         17.58     18.89     14.81 
 H(Fragment=2)         18.92     19.29     15.39 
 O(Fragment=2)         24.83     17.29     18.62 
 H(Fragment=2)         23.96     17.65     18.42 
 H(Fragment=2)         25.44     17.99     18.4 
 O(Fragment=2)         20.28     18.34     14.68 
 H(Fragment=2)         20.76     18.11     13.89 
 H(Fragment=2)         20.9      18.21     15.39 
 O(Fragment=2)         23.84     19.88     16.32 
 H(Fragment=2)         24.76     19.99     16.55 
 H(Fragment=2)         23.85     19.31     15.56 
 O(Fragment=2)         18.64     14.57     18.19 
 H(Fragment=2)         18.19     13.73     18.34 
 H(Fragment=2)         18.11     15.21     18.66 
 O(Fragment=2)         15.14     22.15     17.29 
 H(Fragment=2)         15.37     21.33     17.74 
 H(Fragment=2)         15.33     21.97     16.37 
 O(Fragment=2)         18.95     15.98     24.3 
 H(Fragment=2)         19.36     15.86     23.44 
 H(Fragment=2)         18.02     16.06     24.1 
 O(Fragment=2)         24.42     16.35     21.47 
 H(Fragment=2)         24.18     17.11     22. 
 H(Fragment=2)         24.2      16.61     20.58 
 O(Fragment=2)         24.13     24.09     19.6 
 H(Fragment=2)         24.38     24.05     18.68 
 H(Fragment=2)         23.21     24.36     19.59 
 O(Fragment=2)         15.74     16.09     20.02 
 H(Fragment=2)         15.81     15.38     20.66 
 H(Fragment=2)         15.57     16.87     20.55 
 O(Fragment=2)         18.37     26.11     19.32 
 H(Fragment=2)         17.43     26.29     19.33 
 H(Fragment=2)         18.43     25.16     19.18 
 O(Fragment=2)         16.8      19.78     24.9 
 H(Fragment=2)         16.38     20.27     24.19 
 H(Fragment=2)         17.51     20.35     25.18 
 O(Fragment=2)         19.27     18.8      26.34 
 H(Fragment=2)         19.41     18.75     25.4 
 H(Fragment=2)         19.64     17.99     26.68 
 O(Fragment=2)         22.45     14.2      19.91 
 H(Fragment=2)         23.4      14.32     19.96 
 H(Fragment=2)         22.1      14.85     20.51 
 O(Fragment=2)         22.97     15.3      16.99 
 H(Fragment=2)         22.1      15.69     17.07 
 H(Fragment=2)         23.28     15.24     17.9 
 O(Fragment=2)         23.05     23.43     24.26 
 H(Fragment=2)         23.49     22.95     24.96 
 H(Fragment=2)         22.18     23.04     24.21 
 O(Fragment=2)         20.39     23.6      25.15 
 H(Fragment=2)         19.98     23.66     24.29 
 H(Fragment=2)         20.16     24.41     25.59 
 
 NAtoms=     97 NQM=       97 NQMF=       0 NMMI=      0 NMMIF=      0
                NMic=       0 NMicF=      0.
                    Isotopes and Nuclear Properties:
 (Nuclear quadrupole moments (NQMom) in fm**2, nuclear magnetic moments (NMagM)
  in nuclear magnetons)

  Atom         1           2           3           4           5           6           7           8           9          10
 IAtWgt=          79          16           1           1          16           1           1          16           1           1
 AtmWgt=  78.9183361  15.9949146   1.0078250   1.0078250  15.9949146   1.0078250   1.0078250  15.9949146   1.0078250   1.0078250
 NucSpn=           3           0           1           1           0           1           1           0           1           1
 AtZEff=   0.0000000   0.0000000   0.0000000   0.0000000   0.0000000   0.0000000   0.0000000   0.0000000   0.0000000   0.0000000
 NQMom=   31.3000000   0.0000000   0.0000000   0.0000000   0.0000000   0.0000000   0.0000000   0.0000000   0.0000000   0.0000000
 NMagM=    2.1063990   0.0000000   2.7928460   2.7928460   0.0000000   2.7928460   2.7928460   0.0000000   2.7928460   2.7928460
 AtZNuc=  35.0000000   8.0000000   1.0000000   1.0000000   8.0000000   1.0000000   1.0000000   8.0000000   1.0000000   1.0000000

  Atom        11          12          13          14          15          16          17          18          19          20
 IAtWgt=          16           1           1          16           1           1          16           1           1          16
 AtmWgt=  15.9949146   1.0078250   1.0078250  15.9949146   1.0078250   1.0078250  15.9949146   1.0078250   1.0078250  15.9949146
 NucSpn=           0           1           1           0           1           1           0           1           1           0
 AtZEff=   0.0000000   0.0000000   0.0000000   0.0000000   0.0000000   0.0000000   0.0000000   0.0000000   0.0000000   0.0000000
 NQMom=    0.0000000   0.0000000   0.0000000   0.0000000   0.0000000   0.0000000   0.0000000   0.0000000   0.0000000   0.0000000
 NMagM=    0.0000000   2.7928460   2.7928460   0.0000000   2.7928460   2.7928460   0.0000000   2.7928460   2.7928460   0.0000000
 AtZNuc=   8.0000000   1.0000000   1.0000000   8.0000000   1.0000000   1.0000000   8.0000000   1.0000000   1.0000000   8.0000000

  Atom        21          22          23          24          25          26          27          28          29          30
 IAtWgt=           1           1          16           1           1          16           1           1          16           1
 AtmWgt=   1.0078250   1.0078250  15.9949146   1.0078250   1.0078250  15.9949146   1.0078250   1.0078250  15.9949146   1.0078250
 NucSpn=           1           1           0           1           1           0           1           1           0           1
 AtZEff=   0.0000000   0.0000000   0.0000000   0.0000000   0.0000000   0.0000000   0.0000000   0.0000000   0.0000000   0.0000000
 NQMom=    0.0000000   0.0000000   0.0000000   0.0000000   0.0000000   0.0000000   0.0000000   0.0000000   0.0000000   0.0000000
 NMagM=    2.7928460   2.7928460   0.0000000   2.7928460   2.7928460   0.0000000   2.7928460   2.7928460   0.0000000   2.7928460
 AtZNuc=   1.0000000   1.0000000   8.0000000   1.0000000   1.0000000   8.0000000   1.0000000   1.0000000   8.0000000   1.0000000

  Atom        31          32          33          34          35          36          37          38          39          40
 IAtWgt=           1          16           1           1          16           1           1          16           1           1
 AtmWgt=   1.0078250  15.9949146   1.0078250   1.0078250  15.9949146   1.0078250   1.0078250  15.9949146   1.0078250   1.0078250
 NucSpn=           1           0           1           1           0           1           1           0           1           1
 AtZEff=   0.0000000   0.0000000   0.0000000   0.0000000   0.0000000   0.0000000   0.0000000   0.0000000   0.0000000   0.0000000
 NQMom=    0.0000000   0.0000000   0.0000000   0.0000000   0.0000000   0.0000000   0.0000000   0.0000000   0.0000000   0.0000000
 NMagM=    2.7928460   0.0000000   2.7928460   2.7928460   0.0000000   2.7928460   2.7928460   0.0000000   2.7928460   2.7928460
 AtZNuc=   1.0000000   8.0000000   1.0000000   1.0000000   8.0000000   1.0000000   1.0000000   8.0000000   1.0000000   1.0000000

  Atom        41          42          43          44          45          46          47          48          49          50
 IAtWgt=          16           1           1          16           1           1          16           1           1          16
 AtmWgt=  15.9949146   1.0078250   1.0078250  15.9949146   1.0078250   1.0078250  15.9949146   1.0078250   1.0078250  15.9949146
 NucSpn=           0           1           1           0           1           1           0           1           1           0
 AtZEff=   0.0000000   0.0000000   0.0000000   0.0000000   0.0000000   0.0000000   0.0000000   0.0000000   0.0000000   0.0000000
 NQMom=    0.0000000   0.0000000   0.0000000   0.0000000   0.0000000   0.0000000   0.0000000   0.0000000   0.0000000   0.0000000
 NMagM=    0.0000000   2.7928460   2.7928460   0.0000000   2.7928460   2.7928460   0.0000000   2.7928460   2.7928460   0.0000000
 AtZNuc=   8.0000000   1.0000000   1.0000000   8.0000000   1.0000000   1.0000000   8.0000000   1.0000000   1.0000000   8.0000000

  Atom        51          52          53          54          55          56          57          58          59          60
 IAtWgt=           1           1          16           1           1          16           1           1          16           1
 AtmWgt=   1.0078250   1.0078250  15.9949146   1.0078250   1.0078250  15.9949146   1.0078250   1.0078250  15.9949146   1.0078250
 NucSpn=           1           1           0           1           1           0           1           1           0           1
 AtZEff=   0.0000000   0.0000000   0.0000000   0.0000000   0.0000000   0.0000000   0.0000000   0.0000000   0.0000000   0.0000000
 NQMom=    0.0000000   0.0000000   0.0000000   0.0000000   0.0000000   0.0000000   0.0000000   0.0000000   0.0000000   0.0000000
 NMagM=    2.7928460   2.7928460   0.0000000   2.7928460   2.7928460   0.0000000   2.7928460   2.7928460   0.0000000   2.7928460
 AtZNuc=   1.0000000   1.0000000   8.0000000   1.0000000   1.0000000   8.0000000   1.0000000   1.0000000   8.0000000   1.0000000

  Atom        61          62          63          64          65          66          67          68          69          70
 IAtWgt=           1          16           1           1          16           1           1          16           1           1
 AtmWgt=   1.0078250  15.9949146   1.0078250   1.0078250  15.9949146   1.0078250   1.0078250  15.9949146   1.0078250   1.0078250
 NucSpn=           1           0           1           1           0           1           1           0           1           1
 AtZEff=   0.0000000   0.0000000   0.0000000   0.0000000   0.0000000   0.0000000   0.0000000   0.0000000   0.0000000   0.0000000
 NQMom=    0.0000000   0.0000000   0.0000000   0.0000000   0.0000000   0.0000000   0.0000000   0.0000000   0.0000000   0.0000000
 NMagM=    2.7928460   0.0000000   2.7928460   2.7928460   0.0000000   2.7928460   2.7928460   0.0000000   2.7928460   2.7928460
 AtZNuc=   1.0000000   8.0000000   1.0000000   1.0000000   8.0000000   1.0000000   1.0000000   8.0000000   1.0000000   1.0000000

  Atom        71          72          73          74          75          76          77          78          79          80
 IAtWgt=          16           1           1          16           1           1          16           1           1          16
 AtmWgt=  15.9949146   1.0078250   1.0078250  15.9949146   1.0078250   1.0078250  15.9949146   1.0078250   1.0078250  15.9949146
 NucSpn=           0           1           1           0           1           1           0           1           1           0
 AtZEff=   0.0000000   0.0000000   0.0000000   0.0000000   0.0000000   0.0000000   0.0000000   0.0000000   0.0000000   0.0000000
 NQMom=    0.0000000   0.0000000   0.0000000   0.0000000   0.0000000   0.0000000   0.0000000   0.0000000   0.0000000   0.0000000
 NMagM=    0.0000000   2.7928460   2.7928460   0.0000000   2.7928460   2.7928460   0.0000000   2.7928460   2.7928460   0.0000000
 AtZNuc=   8.0000000   1.0000000   1.0000000   8.0000000   1.0000000   1.0000000   8.0000000   1.0000000   1.0000000   8.0000000

  Atom        81          82          83          84          85          86          87          88          89          90
 IAtWgt=           1           1          16           1           1          16           1           1          16           1
 AtmWgt=   1.0078250   1.0078250  15.9949146   1.0078250   1.0078250  15.9949146   1.0078250   1.0078250  15.9949146   1.0078250
 NucSpn=           1           1           0           1           1           0           1           1           0           1
 AtZEff=   0.0000000   0.0000000   0.0000000   0.0000000   0.0000000   0.0000000   0.0000000   0.0000000   0.0000000   0.0000000
 NQMom=    0.0000000   0.0000000   0.0000000   0.0000000   0.0000000   0.0000000   0.0000000   0.0000000   0.0000000   0.0000000
 NMagM=    2.7928460   2.7928460   0.0000000   2.7928460   2.7928460   0.0000000   2.7928460   2.7928460   0.0000000   2.7928460
 AtZNuc=   1.0000000   1.0000000   8.0000000   1.0000000   1.0000000   8.0000000   1.0000000   1.0000000   8.0000000   1.0000000

  Atom        91          92          93          94          95          96          97
 IAtWgt=           1          16           1           1          16           1           1
 AtmWgt=   1.0078250  15.9949146   1.0078250   1.0078250  15.9949146   1.0078250   1.0078250
 NucSpn=           1           0           1           1           0           1           1
 AtZEff=   0.0000000   0.0000000   0.0000000   0.0000000   0.0000000   0.0000000   0.0000000
 NQMom=    0.0000000   0.0000000   0.0000000   0.0000000   0.0000000   0.0000000   0.0000000
 NMagM=    2.7928460   0.0000000   2.7928460   2.7928460   0.0000000   2.7928460   2.7928460
 AtZNuc=   1.0000000   8.0000000   1.0000000   1.0000000   8.0000000   1.0000000   1.0000000
 Leave Link  101 at Thu May  3 11:42:21 2018, MaxMem= 14763950080 cpu:        15.0
 (Enter /cm/shared/gaussian/g09.e01/intel64-sandybridge/g09/l103.exe)

 GradGradGradGradGradGradGradGradGradGradGradGradGradGradGradGradGradGrad
 Berny optimization.
 Initialization pass.
 Trust Radius=3.00D-01 FncErr=1.00D-07 GrdErr=1.00D-07
 Number of steps in this run=      2 maximum allowed number of steps=      2.
 GradGradGradGradGradGradGradGradGradGradGradGradGradGradGradGradGradGrad

 Leave Link  103 at Thu May  3 11:42:21 2018, MaxMem= 14763950080 cpu:         2.3
 (Enter /cm/shared/gaussian/g09.e01/intel64-sandybridge/g09/l202.exe)
 Symmetry turned off by external request.
 Stoichiometry    BrH64O32(1-)
 Framework group  C1[X(BrH64O32)]
 Deg. of freedom   285
 Full point group                 C1      NOp   1
                          Input orientation:                          
 ---------------------------------------------------------------------
 Center     Atomic      Atomic             Coordinates (Angstroms)
 Number     Number       Type             X           Y           Z
 ---------------------------------------------------------------------
      1         35           0       20.000000   20.000000   20.000000
      2          8           0       21.750000   21.940000   18.260000
      3          1           0       22.490000   21.480000   17.850000
      4          1           0       21.330000   21.270000   18.790000
      5          8           0       22.220000   18.610000   18.180000
      6          1           0       22.680000   19.300000   17.710000
      7          1           0       21.630000   19.090000   18.770000
      8          8           0       21.360000   20.820000   22.740000
      9          1           0       20.930000   20.870000   21.880000
     10          1           0       20.910000   21.480000   23.270000
     11          8           0       16.950000   21.510000   19.910000
     12          1           0       17.710000   21.030000   19.590000
     13          1           0       16.760000   22.150000   19.230000
     14          8           0       21.750000   17.080000   20.670000
     15          1           0       22.310000   17.600000   21.240000
     16          1           0       21.220000   17.710000   20.190000
     17          8           0       19.400000   23.400000   19.640000
     18          1           0       20.250000   23.460000   19.210000
     19          1           0       19.180000   22.460000   19.620000
     20          8           0       18.430000   16.860000   19.780000
     21          1           0       17.520000   16.790000   20.060000
     22          1           0       18.580000   17.800000   19.680000
     23          8           0       18.950000   23.220000   22.790000
     24          1           0       18.660000   22.720000   22.030000
     25          1           0       19.070000   24.110000   22.460000
     26          8           0       23.140000   18.510000   22.510000
     27          1           0       22.610000   19.310000   22.550000
     28          1           0       23.030000   18.090000   23.350000
     29          8           0       20.500000   16.680000   17.080000
     30          1           0       21.080000   17.330000   17.490000
     31          1           0       19.740000   16.640000   17.660000
     32          8           0       20.300000   15.300000   22.080000
     33          1           0       21.250000   15.210000   22.090000
     34          1           0       20.120000   15.900000   21.350000
     35          8           0       19.740000   24.220000   17.000000
     36          1           0       20.150000   23.390000   17.230000
     37          1           0       18.800000   24.030000   17.010000
     38          8           0       16.110000   19.690000   17.450000
     39          1           0       16.870000   19.770000   16.870000
     40          1           0       15.870000   18.770000   17.410000
     41          8           0       25.460000   19.770000   20.790000
     42          1           0       25.700000   19.770000   19.870000
     43          1           0       24.560000   19.450000   20.810000
     44          8           0       15.610000   21.400000   22.590000
     45          1           0       14.960000   20.930000   22.080000
     46          1           0       16.170000   21.830000   21.940000
     47          8           0       17.990000   19.490000   15.440000
     48          1           0       17.580000   18.890000   14.810000
     49          1           0       18.920000   19.290000   15.390000
     50          8           0       24.830000   17.290000   18.620000
     51          1           0       23.960000   17.650000   18.420000
     52          1           0       25.440000   17.990000   18.400000
     53          8           0       20.280000   18.340000   14.680000
     54          1           0       20.760000   18.110000   13.890000
     55          1           0       20.900000   18.210000   15.390000
     56          8           0       23.840000   19.880000   16.320000
     57          1           0       24.760000   19.990000   16.550000
     58          1           0       23.850000   19.310000   15.560000
     59          8           0       18.640000   14.570000   18.190000
     60          1           0       18.190000   13.730000   18.340000
     61          1           0       18.110000   15.210000   18.660000
     62          8           0       15.140000   22.150000   17.290000
     63          1           0       15.370000   21.330000   17.740000
     64          1           0       15.330000   21.970000   16.370000
     65          8           0       18.950000   15.980000   24.300000
     66          1           0       19.360000   15.860000   23.440000
     67          1           0       18.020000   16.060000   24.100000
     68          8           0       24.420000   16.350000   21.470000
     69          1           0       24.180000   17.110000   22.000000
     70          1           0       24.200000   16.610000   20.580000
     71          8           0       24.130000   24.090000   19.600000
     72          1           0       24.380000   24.050000   18.680000
     73          1           0       23.210000   24.360000   19.590000
     74          8           0       15.740000   16.090000   20.020000
     75          1           0       15.810000   15.380000   20.660000
     76          1           0       15.570000   16.870000   20.550000
     77          8           0       18.370000   26.110000   19.320000
     78          1           0       17.430000   26.290000   19.330000
     79          1           0       18.430000   25.160000   19.180000
     80          8           0       16.800000   19.780000   24.900000
     81          1           0       16.380000   20.270000   24.190000
     82          1           0       17.510000   20.350000   25.180000
     83          8           0       19.270000   18.800000   26.340000
     84          1           0       19.410000   18.750000   25.400000
     85          1           0       19.640000   17.990000   26.680000
     86          8           0       22.450000   14.200000   19.910000
     87          1           0       23.400000   14.320000   19.960000
     88          1           0       22.100000   14.850000   20.510000
     89          8           0       22.970000   15.300000   16.990000
     90          1           0       22.100000   15.690000   17.070000
     91          1           0       23.280000   15.240000   17.900000
     92          8           0       23.050000   23.430000   24.260000
     93          1           0       23.490000   22.950000   24.960000
     94          1           0       22.180000   23.040000   24.210000
     95          8           0       20.390000   23.600000   25.150000
     96          1           0       19.980000   23.660000   24.290000
     97          1           0       20.160000   24.410000   25.590000
 ---------------------------------------------------------------------
 Rotational constants (GHZ):      0.0552130      0.0477202      0.0454381
 Leave Link  202 at Thu May  3 11:42:21 2018, MaxMem= 14763950080 cpu:         0.6
 (Enter /cm/shared/gaussian/g09.e01/intel64-sandybridge/g09/l122.exe)
 Counterpoise: doing full dimer calculation.
 Leave Link  122 at Thu May  3 11:42:21 2018, MaxMem= 14763950080 cpu:         0.1
 (Enter /cm/shared/gaussian/g09.e01/intel64-sandybridge/g09/l301.exe)
 Standard basis: CC-pVDZ (5D, 7F)
 Ernie: Thresh=  0.10000D-02 Tol=  0.10000D-05 Strict=F.
 Ernie:  87 primitive shells out of 1114 were deleted.
   795 basis functions,  1651 primitive gaussians,   829 cartesian basis functions
   178 alpha electrons      178 beta electrons
       nuclear repulsion energy      5852.2453493667 Hartrees.
 IExCor= 1009 DFT=T Ex+Corr=PBE1PBE ExCW=0 ScaHFX=  0.250000
 ScaDFX=  0.750000  0.750000  1.000000  1.000000 ScalE2=  1.000000  1.000000
 IRadAn=      0 IRanWt=     -1 IRanGd=            0 ICorTp=0 IEmpDi=  4
 NAtoms=   97 NActive=   97 NUniq=   97 SFac= 1.00D+00 NAtFMM=   60 NAOKFM=T Big=T
 Integral buffers will be    131072 words long.
 Raffenetti 2 integral format.
 Two-electron integral symmetry is turned off.
 Leave Link  301 at Thu May  3 11:42:21 2018, MaxMem= 14763950080 cpu:         6.4
 (Enter /cm/shared/gaussian/g09.e01/intel64-sandybridge/g09/l302.exe)
 NPDir=0 NMtPBC=     1 NCelOv=     1 NCel=       1 NClECP=     1 NCelD=      1
         NCelK=      1 NCelE2=     1 NClLst=     1 CellRange=     0.0.
 One-electron integrals computed using PRISM.
 NBasis=   795 RedAO= T EigKep=  1.51D-02  NBF=   795
 NBsUse=   795 1.00D-06 EigRej= -1.00D+00 NBFU=   795
 Precomputing XC quadrature grid using
 IXCGrd= 4 IRadAn=           0 IRanWt=          -1 IRanGd=           0 AccXCQ= 0.00D+00.
 Generated NRdTot=       0 NPtTot=           0 NUsed=           0 NTot=          32
 NSgBfM=   691   695   697   699   710 MxSgAt=    97 MxSgA2=    97.
 Leave Link  302 at Thu May  3 11:42:27 2018, MaxMem= 14763950080 cpu:       394.4
 (Enter /cm/shared/gaussian/g09.e01/intel64-sandybridge/g09/l303.exe)
 DipDrv:  MaxL=1.
 Leave Link  303 at Thu May  3 11:42:28 2018, MaxMem= 14763950080 cpu:        30.0
 (Enter /cm/shared/gaussian/g09.e01/intel64-sandybridge/g09/l401.exe)
 ExpMin= 1.22D-01 ExpMax= 6.40D+05 ExpMxC= 6.18D+03 IAcc=2 IRadAn=         4 AccDes= 0.00D+00
 Harris functional with IExCor= 1009 and IRadAn=       4 diagonalized for initial guess.
 HarFok:  IExCor= 1009 AccDes= 0.00D+00 IRadAn=         4 IDoV= 1 UseB2=F ITyADJ=14
 ICtDFT=  3500011 ScaDFX=  1.000000  1.000000  1.000000  1.000000
 FoFCou: FMM=F IPFlag=           0 FMFlag=      100000 FMFlg1=        2001
         NFxFlg=           0 DoJE=T BraDBF=F KetDBF=T FulRan=T
         wScrn=  0.000000 ICntrl=     500 IOpCl=  0 I1Cent=   200000004 NGrid=           0
         NMat0=    1 NMatS0=      1 NMatT0=    0 NMatD0=    1 NMtDS0=    0 NMtDT0=    0
 Symmetry not used in FoFCou.
 Harris En= -5018.40909843417    
 JPrj=0 DoOrth=F DoCkMO=F.
 Leave Link  401 at Thu May  3 11:42:33 2018, MaxMem= 14763950080 cpu:       317.3
 (Enter /cm/shared/gaussian/g09.e01/intel64-sandybridge/g09/l502.exe)
 Closed shell SCF:
 Using DIIS extrapolation, IDIIS=  1040.
 Two-electron integral symmetry not used.
 IVT=     2138497 IEndB=     2138497 NGot= 14763950080 MDV= 14762516294
 LenX= 14762516294 LenY= 14761828224
 Requested convergence on RMS density matrix=1.00D-08 within 128 cycles.
 Requested convergence on MAX density matrix=1.00D-06.
 Requested convergence on             energy=1.00D-06.
 No special actions if energy rises.
 Fock matrices will be formed incrementally for  20 cycles.
 Integral accuracy reduced to 1.0D-05 until final iterations.

 Cycle   1  Pass 0  IDiag  1:
 FoFJK:  IHMeth= 1 ICntrl=       0 DoSepK=F KAlg= 0 I1Cent=   0 FoldK=F
 IRaf= 760000000 NMat=   1 IRICut=       1 DoRegI=T DoRafI=F ISym2E= 0.
 FoFCou: FMM=T IPFlag=           0 FMFlag=      100000 FMFlg1=        2001
         NFxFlg=           0 DoJE=F BraDBF=F KetDBF=F FulRan=T
         wScrn=  0.000000 ICntrl=       0 IOpCl=  0 I1Cent=           0 NGrid=           0
         NMat0=    1 NMatS0=      1 NMatT0=    0 NMatD0=    1 NMtDS0=    0 NMtDT0=    0
 Symmetry not used in FoFCou.
 FMM levels:  10  Number of levels for PrismC:   9
 E= -5015.16952293250    
 DIIS: error= 5.09D-02 at cycle   1 NSaved=   1.
 NSaved= 1 IEnMin= 1 EnMin= -5015.16952293250     IErMin= 1 ErrMin= 5.09D-02
 ErrMax= 5.09D-02  0.00D+00 EMaxC= 1.00D-01 BMatC= 2.79D+00 BMatP= 2.79D+00
 IDIUse=3 WtCom= 4.91D-01 WtEn= 5.09D-01
 Coeff-Com:  0.100D+01
 Coeff-En:   0.100D+01
 Coeff:      0.100D+01
 Gap=     0.319 Goal=   None    Shift=    0.000
 GapD=    0.319 DampG=1.000 DampE=0.500 DampFc=0.5000 IDamp=-1.
 Damping current iteration by 5.00D-01
 RMSDP=2.87D-03 MaxDP=1.58D-01              OVMax= 1.84D-01

 Cycle   2  Pass 0  IDiag  1:
 RMSU=  1.42D-03    CP:  9.85D-01
 E= -5015.98520184327     Delta-E=       -0.815678910772 Rises=F Damp=T
 DIIS: error= 8.11D-03 at cycle   2 NSaved=   2.
 NSaved= 2 IEnMin= 2 EnMin= -5015.98520184327     IErMin= 2 ErrMin= 8.11D-03
 ErrMax= 8.11D-03  0.00D+00 EMaxC= 1.00D-01 BMatC= 9.03D-02 BMatP= 2.79D+00
 IDIUse=3 WtCom= 9.19D-01 WtEn= 8.11D-02
 Coeff-Com:  0.121D+00 0.879D+00
 Coeff-En:   0.216D+00 0.784D+00
 Coeff:      0.129D+00 0.871D+00
 Gap=     0.210 Goal=   None    Shift=    0.000
 RMSDP=3.48D-04 MaxDP=1.83D-02 DE=-8.16D-01 OVMax= 9.96D-02

 Cycle   3  Pass 0  IDiag  1:
 RMSU=  2.71D-04    CP:  9.87D-01  8.48D-01
 E= -5017.17370312442     Delta-E=       -1.188501281149 Rises=F Damp=F
 DIIS: error= 8.41D-04 at cycle   3 NSaved=   3.
 NSaved= 3 IEnMin= 3 EnMin= -5017.17370312442     IErMin= 3 ErrMin= 8.41D-04
 ErrMax= 8.41D-04  0.00D+00 EMaxC= 1.00D-01 BMatC= 1.85D-03 BMatP= 9.03D-02
 IDIUse=3 WtCom= 9.92D-01 WtEn= 8.41D-03
 Coeff-Com:  0.110D-01 0.674D-01 0.922D+00
 Coeff-En:   0.000D+00 0.000D+00 0.100D+01
 Coeff:      0.109D-01 0.669D-01 0.922D+00
 Gap=     0.223 Goal=   None    Shift=    0.000
 RMSDP=9.19D-05 MaxDP=1.42D-02 DE=-1.19D+00 OVMax= 1.48D-02

 Cycle   4  Pass 0  IDiag  1:
 RMSU=  8.23D-05    CP:  9.87D-01  8.50D-01  8.49D-01
 E= -5017.17407679925     Delta-E=       -0.000373674837 Rises=F Damp=F
 DIIS: error= 8.58D-04 at cycle   4 NSaved=   4.
 NSaved= 4 IEnMin= 4 EnMin= -5017.17407679925     IErMin= 3 ErrMin= 8.41D-04
 ErrMax= 8.58D-04  0.00D+00 EMaxC= 1.00D-01 BMatC= 1.84D-03 BMatP= 1.85D-03
 IDIUse=3 WtCom= 9.91D-01 WtEn= 8.58D-03
 Coeff-Com:  0.281D-02 0.610D-02 0.498D+00 0.494D+00
 Coeff-En:   0.000D+00 0.000D+00 0.440D+00 0.560D+00
 Coeff:      0.279D-02 0.605D-02 0.497D+00 0.494D+00
 Gap=     0.221 Goal=   None    Shift=    0.000
 RMSDP=4.06D-05 MaxDP=5.23D-03 DE=-3.74D-04 OVMax= 5.25D-03

 Cycle   5  Pass 0  IDiag  1:
 RMSU=  1.65D-05    CP:  9.87D-01  8.47D-01  9.07D-01  5.93D-01
 E= -5017.17549771031     Delta-E=       -0.001420911054 Rises=F Damp=F
 DIIS: error= 1.33D-04 at cycle   5 NSaved=   5.
 NSaved= 5 IEnMin= 5 EnMin= -5017.17549771031     IErMin= 5 ErrMin= 1.33D-04
 ErrMax= 1.33D-04  0.00D+00 EMaxC= 1.00D-01 BMatC= 3.12D-05 BMatP= 1.84D-03
 IDIUse=3 WtCom= 9.99D-01 WtEn= 1.33D-03
 Coeff-Com:  0.892D-03-0.215D-02 0.134D+00 0.169D+00 0.698D+00
 Coeff-En:   0.000D+00 0.000D+00 0.000D+00 0.000D+00 0.100D+01
 Coeff:      0.891D-03-0.215D-02 0.134D+00 0.169D+00 0.699D+00
 Gap=     0.222 Goal=   None    Shift=    0.000
 RMSDP=7.75D-06 MaxDP=1.20D-03 DE=-1.42D-03 OVMax= 1.08D-03

 Cycle   6  Pass 0  IDiag  1:
 RMSU=  5.34D-06    CP:  9.87D-01  8.47D-01  9.16D-01  5.75D-01  7.21D-01
 E= -5017.17552075461     Delta-E=       -0.000023044306 Rises=F Damp=F
 DIIS: error= 8.90D-05 at cycle   6 NSaved=   6.
 NSaved= 6 IEnMin= 6 EnMin= -5017.17552075461     IErMin= 6 ErrMin= 8.90D-05
 ErrMax= 8.90D-05  0.00D+00 EMaxC= 1.00D-01 BMatC= 3.71D-06 BMatP= 3.12D-05
 IDIUse=1 WtCom= 1.00D+00 WtEn= 0.00D+00
 Coeff-Com:  0.219D-03-0.206D-02 0.326D-01 0.433D-01 0.294D+00 0.632D+00
 Coeff:      0.219D-03-0.206D-02 0.326D-01 0.433D-01 0.294D+00 0.632D+00
 Gap=     0.222 Goal=   None    Shift=    0.000
 RMSDP=2.35D-06 MaxDP=4.53D-04 DE=-2.30D-05 OVMax= 3.57D-04

 Initial convergence to 1.0D-05 achieved.  Increase integral accuracy.
 Cycle   7  Pass 1  IDiag  1:
 E= -5017.17617394325     Delta-E=       -0.000653188639 Rises=F Damp=F
 DIIS: error= 4.09D-05 at cycle   1 NSaved=   1.
 NSaved= 1 IEnMin= 1 EnMin= -5017.17617394325     IErMin= 1 ErrMin= 4.09D-05
 ErrMax= 4.09D-05  0.00D+00 EMaxC= 1.00D-01 BMatC= 1.20D-06 BMatP= 1.20D-06
 IDIUse=1 WtCom= 1.00D+00 WtEn= 0.00D+00
 Coeff-Com:  0.100D+01
 Coeff:      0.100D+01
 Gap=     0.222 Goal=   None    Shift=    0.000
 RMSDP=2.35D-06 MaxDP=4.53D-04 DE=-6.53D-04 OVMax= 1.82D-04

 Cycle   8  Pass 1  IDiag  1:
 RMSU=  3.95D-06    CP:  1.00D+00
 E= -5017.17617501233     Delta-E=       -0.000001069073 Rises=F Damp=F
 DIIS: error= 1.43D-05 at cycle   2 NSaved=   2.
 NSaved= 2 IEnMin= 2 EnMin= -5017.17617501233     IErMin= 2 ErrMin= 1.43D-05
 ErrMax= 1.43D-05  0.00D+00 EMaxC= 1.00D-01 BMatC= 2.96D-07 BMatP= 1.20D-06
 IDIUse=1 WtCom= 1.00D+00 WtEn= 0.00D+00
 Coeff-Com:  0.263D+00 0.737D+00
 Coeff:      0.263D+00 0.737D+00
 Gap=     0.222 Goal=   None    Shift=    0.000
 RMSDP=7.88D-07 MaxDP=8.32D-05 DE=-1.07D-06 OVMax= 8.08D-05

 Cycle   9  Pass 1  IDiag  1:
 RMSU=  7.80D-07    CP:  1.00D+00  9.71D-01
 E= -5017.17617511991     Delta-E=       -0.000000107579 Rises=F Damp=F
 DIIS: error= 9.86D-06 at cycle   3 NSaved=   3.
 NSaved= 3 IEnMin= 3 EnMin= -5017.17617511991     IErMin= 3 ErrMin= 9.86D-06
 ErrMax= 9.86D-06  0.00D+00 EMaxC= 1.00D-01 BMatC= 1.59D-07 BMatP= 2.96D-07
 IDIUse=1 WtCom= 1.00D+00 WtEn= 0.00D+00
 Coeff-Com: -0.441D-02 0.422D+00 0.582D+00
 Coeff:     -0.441D-02 0.422D+00 0.582D+00
 Gap=     0.222 Goal=   None    Shift=    0.000
 RMSDP=3.26D-07 MaxDP=3.92D-05 DE=-1.08D-07 OVMax= 3.67D-05

 Cycle  10  Pass 1  IDiag  1:
 RMSU=  1.08D-07    CP:  1.00D+00  9.96D-01  6.26D-01
 E= -5017.17617523348     Delta-E=       -0.000000113578 Rises=F Damp=F
 DIIS: error= 1.61D-06 at cycle   4 NSaved=   4.
 NSaved= 4 IEnMin= 4 EnMin= -5017.17617523348     IErMin= 4 ErrMin= 1.61D-06
 ErrMax= 1.61D-06  0.00D+00 EMaxC= 1.00D-01 BMatC= 1.50D-09 BMatP= 1.59D-07
 IDIUse=1 WtCom= 1.00D+00 WtEn= 0.00D+00
 Coeff-Com: -0.489D-02 0.192D+00 0.275D+00 0.538D+00
 Coeff:     -0.489D-02 0.192D+00 0.275D+00 0.538D+00
 Gap=     0.222 Goal=   None    Shift=    0.000
 RMSDP=4.79D-08 MaxDP=9.61D-06 DE=-1.14D-07 OVMax= 7.86D-06

 Cycle  11  Pass 1  IDiag  1:
 RMSU=  2.55D-08    CP:  1.00D+00  9.98D-01  6.17D-01  6.35D-01
 E= -5017.17617523477     Delta-E=       -0.000000001288 Rises=F Damp=F
 DIIS: error= 2.29D-07 at cycle   5 NSaved=   5.
 NSaved= 5 IEnMin= 5 EnMin= -5017.17617523477     IErMin= 5 ErrMin= 2.29D-07
 ErrMax= 2.29D-07  0.00D+00 EMaxC= 1.00D-01 BMatC= 4.63D-11 BMatP= 1.50D-09
 IDIUse=1 WtCom= 1.00D+00 WtEn= 0.00D+00
 Coeff-Com: -0.176D-02 0.577D-01 0.836D-01 0.211D+00 0.649D+00
 Coeff:     -0.176D-02 0.577D-01 0.836D-01 0.211D+00 0.649D+00
 Gap=     0.222 Goal=   None    Shift=    0.000
 RMSDP=7.58D-09 MaxDP=6.74D-07 DE=-1.29D-09 OVMax= 6.83D-07

 SCF Done:  E(RPBE1PBE) =  -5017.17617523     A.U. after   11 cycles
            NFock= 11  Conv=0.76D-08     -V/T= 2.0028
 KE= 5.003382446190D+03 PE=-2.367112850189D+04 EE= 7.798324531101D+03
 Leave Link  502 at Thu May  3 11:44:37 2018, MaxMem= 14763950080 cpu:      7832.1
 (Enter /cm/shared/gaussian/g09.e01/intel64-sandybridge/g09/l601.exe)
 Copying SCF densities to generalized density rwf, IOpCl= 0 IROHF=0.

 **********************************************************************

            Population analysis using the SCF density.

 **********************************************************************

 Alpha  occ. eigenvalues -- -483.16001 -62.56311 -56.33557 -56.33545 -56.33525
 Alpha  occ. eigenvalues --  -19.20842 -19.19035 -19.16087 -19.15651 -19.15462
 Alpha  occ. eigenvalues --  -19.15038 -19.14429 -19.14266 -19.13903 -19.13840
 Alpha  occ. eigenvalues --  -19.13671 -19.13476 -19.13333 -19.12976 -19.12002
 Alpha  occ. eigenvalues --  -19.11909 -19.11727 -19.11664 -19.11657 -19.11301
 Alpha  occ. eigenvalues --  -19.11171 -19.10887 -19.10401 -19.10250 -19.09964
 Alpha  occ. eigenvalues --  -19.09463 -19.09109 -19.08649 -19.08237 -19.07843
 Alpha  occ. eigenvalues --  -19.07730 -19.06023  -8.66645  -6.47017  -6.46962
 Alpha  occ. eigenvalues --   -6.46881  -2.55300  -2.55290  -2.55224  -2.55183
 Alpha  occ. eigenvalues --   -2.55165  -1.03448  -1.01496  -0.99097  -0.98817
 Alpha  occ. eigenvalues --   -0.98518  -0.97585  -0.97269  -0.97028  -0.96646
 Alpha  occ. eigenvalues --   -0.96176  -0.96119  -0.96029  -0.95745  -0.95424
 Alpha  occ. eigenvalues --   -0.94638  -0.94422  -0.94389  -0.94358  -0.94285
 Alpha  occ. eigenvalues --   -0.94174  -0.93543  -0.93429  -0.93092  -0.92747
 Alpha  occ. eigenvalues --   -0.92426  -0.92238  -0.91653  -0.91349  -0.91032
 Alpha  occ. eigenvalues --   -0.90522  -0.90455  -0.88474  -0.66258  -0.53725
 Alpha  occ. eigenvalues --   -0.51667  -0.49808  -0.49712  -0.49596  -0.48632
 Alpha  occ. eigenvalues --   -0.47785  -0.47659  -0.47379  -0.47152  -0.47105
 Alpha  occ. eigenvalues --   -0.46690  -0.46526  -0.46170  -0.45671  -0.45482
 Alpha  occ. eigenvalues --   -0.45121  -0.45077  -0.44956  -0.44881  -0.44638
 Alpha  occ. eigenvalues --   -0.44586  -0.44214  -0.43357  -0.43090  -0.42988
 Alpha  occ. eigenvalues --   -0.42410  -0.42139  -0.42078  -0.41695  -0.40954
 Alpha  occ. eigenvalues --   -0.39940  -0.39151  -0.37604  -0.37227  -0.35828
 Alpha  occ. eigenvalues --   -0.35711  -0.35018  -0.34604  -0.34229  -0.33801
 Alpha  occ. eigenvalues --   -0.33193  -0.32661  -0.32362  -0.32236  -0.31437
 Alpha  occ. eigenvalues --   -0.31408  -0.31160  -0.31078  -0.30674  -0.30482
 Alpha  occ. eigenvalues --   -0.30052  -0.30008  -0.29953  -0.29818  -0.29197
 Alpha  occ. eigenvalues --   -0.28788  -0.28698  -0.28403  -0.28223  -0.27642
 Alpha  occ. eigenvalues --   -0.27261  -0.27211  -0.26975  -0.26813  -0.26626
 Alpha  occ. eigenvalues --   -0.26358  -0.26057  -0.25819  -0.25754  -0.25473
 Alpha  occ. eigenvalues --   -0.25296  -0.25065  -0.24944  -0.24604  -0.24287
 Alpha  occ. eigenvalues --   -0.23965  -0.23639  -0.23014  -0.22834  -0.22575
 Alpha  occ. eigenvalues --   -0.22401  -0.22247  -0.22122  -0.22034  -0.21407
 Alpha  occ. eigenvalues --   -0.21233  -0.21146  -0.20987  -0.20727  -0.20535
 Alpha  occ. eigenvalues --   -0.20244  -0.20110  -0.19772  -0.19143  -0.18996
 Alpha  occ. eigenvalues --   -0.18944  -0.18814  -0.17084
 Alpha virt. eigenvalues --    0.05094   0.07648   0.09135   0.09845   0.11531
 Alpha virt. eigenvalues --    0.11830   0.12237   0.13456   0.14008   0.14406
 Alpha virt. eigenvalues --    0.14761   0.15663   0.16081   0.16467   0.16659
 Alpha virt. eigenvalues --    0.16913   0.17191   0.17562   0.18048   0.18445
 Alpha virt. eigenvalues --    0.18845   0.18988   0.19470   0.19932   0.19996
 Alpha virt. eigenvalues --    0.20466   0.21034   0.21454   0.21636   0.22037
 Alpha virt. eigenvalues --    0.22364   0.22781   0.22952   0.23161   0.25280
 Alpha virt. eigenvalues --    0.25456   0.26004   0.26226   0.26683   0.27125
 Alpha virt. eigenvalues --    0.27375   0.27875   0.28521   0.28866   0.29447
 Alpha virt. eigenvalues --    0.29888   0.30219   0.30904   0.31179   0.31524
 Alpha virt. eigenvalues --    0.31669   0.32376   0.32578   0.33477   0.33794
 Alpha virt. eigenvalues --    0.33889   0.34469   0.35398   0.36318   0.36768
 Alpha virt. eigenvalues --    0.37099   0.38106   0.38708   0.39705   0.57587
 Alpha virt. eigenvalues --    0.58007   0.59580   0.60586   0.61135   0.61678
 Alpha virt. eigenvalues --    0.62105   0.62641   0.63227   0.63336   0.63497
 Alpha virt. eigenvalues --    0.64047   0.64243   0.64641   0.64965   0.65192
 Alpha virt. eigenvalues --    0.65642   0.66038   0.66277   0.66480   0.66660
 Alpha virt. eigenvalues --    0.66836   0.66932   0.67308   0.67583   0.67684
 Alpha virt. eigenvalues --    0.68045   0.68138   0.68503   0.68946   0.69165
 Alpha virt. eigenvalues --    0.69475   0.69778   0.69926   0.70534   0.70761
 Alpha virt. eigenvalues --    0.70898   0.71168   0.71314   0.71469   0.71871
 Alpha virt. eigenvalues --    0.72026   0.72536   0.72733   0.73008   0.73362
 Alpha virt. eigenvalues --    0.73588   0.74034   0.74470   0.74832   0.75182
 Alpha virt. eigenvalues --    0.75451   0.75553   0.76289   0.76446   0.76740
 Alpha virt. eigenvalues --    0.77132   0.77547   0.78038   0.78703   0.78895
 Alpha virt. eigenvalues --    0.79620   0.79807   0.80834   0.81269   0.81376
 Alpha virt. eigenvalues --    0.83145   0.83771   0.84706   0.85614   0.86305
 Alpha virt. eigenvalues --    0.89270   0.91809   0.92282   0.92700   0.93535
 Alpha virt. eigenvalues --    0.94518   0.94672   0.95362   0.95646   0.96264
 Alpha virt. eigenvalues --    0.96937   0.97328   0.97590   0.98376   0.98852
 Alpha virt. eigenvalues --    0.99012   0.99059   0.99482   0.99862   1.00044
 Alpha virt. eigenvalues --    1.00212   1.00740   1.01085   1.01389   1.01661
 Alpha virt. eigenvalues --    1.01921   1.02058   1.02495   1.02765   1.03297
 Alpha virt. eigenvalues --    1.03538   1.03704   1.03767   1.04391   1.04787
 Alpha virt. eigenvalues --    1.04939   1.05180   1.05837   1.06226   1.06554
 Alpha virt. eigenvalues --    1.06634   1.06889   1.07128   1.07591   1.07773
 Alpha virt. eigenvalues --    1.07876   1.08038   1.08944   1.08992   1.09146
 Alpha virt. eigenvalues --    1.09525   1.09618   1.10063   1.10307   1.10425
 Alpha virt. eigenvalues --    1.10657   1.11043   1.11267   1.11490   1.11898
 Alpha virt. eigenvalues --    1.12428   1.12790   1.13061   1.13266   1.13391
 Alpha virt. eigenvalues --    1.13580   1.13928   1.14053   1.14382   1.14709
 Alpha virt. eigenvalues --    1.14979   1.15206   1.15722   1.16008   1.16343
 Alpha virt. eigenvalues --    1.16547   1.16792   1.16959   1.17633   1.17813
 Alpha virt. eigenvalues --    1.18417   1.18761   1.18962   1.19276   1.20016
 Alpha virt. eigenvalues --    1.20654   1.21322   1.21559   1.21933   1.22158
 Alpha virt. eigenvalues --    1.23022   1.23501   1.23871   1.24113   1.24695
 Alpha virt. eigenvalues --    1.25113   1.26304   1.26499   1.26700   1.27206
 Alpha virt. eigenvalues --    1.27424   1.27604   1.27943   1.28736   1.29232
 Alpha virt. eigenvalues --    1.29752   1.29967   1.30017   1.30490   1.30548
 Alpha virt. eigenvalues --    1.30880   1.30975   1.31444   1.31523   1.31685
 Alpha virt. eigenvalues --    1.32017   1.32362   1.32565   1.32608   1.33136
 Alpha virt. eigenvalues --    1.33205   1.33559   1.33904   1.34272   1.34678
 Alpha virt. eigenvalues --    1.34721   1.35072   1.35382   1.35507   1.35983
 Alpha virt. eigenvalues --    1.36009   1.36406   1.37062   1.37411   1.37895
 Alpha virt. eigenvalues --    1.38014   1.38353   1.38474   1.39120   1.39243
 Alpha virt. eigenvalues --    1.39635   1.40381   1.40697   1.41135   1.41466
 Alpha virt. eigenvalues --    1.42150   1.42643   1.42897   1.43298   1.44076
 Alpha virt. eigenvalues --    1.44182   1.44735   1.45453   1.45819   1.46574
 Alpha virt. eigenvalues --    1.47152   1.47353   1.48148   1.48349   1.48777
 Alpha virt. eigenvalues --    1.49939   1.50465   1.51162   1.51481   1.51853
 Alpha virt. eigenvalues --    1.52118   1.52264   1.52405   1.52576   1.53397
 Alpha virt. eigenvalues --    1.53603   1.53961   1.54147   1.54504   1.54990
 Alpha virt. eigenvalues --    1.55194   1.55797   1.56007   1.56311   1.56700
 Alpha virt. eigenvalues --    1.56910   1.57150   1.58682   1.58962   1.59650
 Alpha virt. eigenvalues --    1.60216   1.60584   1.61407   1.62454   1.62930
 Alpha virt. eigenvalues --    1.63378   1.64537   1.65313   1.66102   1.67161
 Alpha virt. eigenvalues --    1.68374   1.69563   1.70031   1.70408   1.70517
 Alpha virt. eigenvalues --    1.71213   1.71604   1.72232   1.73167   1.73547
 Alpha virt. eigenvalues --    1.74002   1.74386   1.74849   1.75449   1.75514
 Alpha virt. eigenvalues --    1.76123   1.76515   1.76545   1.76612   1.77099
 Alpha virt. eigenvalues --    1.77828   1.78355   1.78997   1.79222   1.79495
 Alpha virt. eigenvalues --    1.79623   1.79952   1.80229   1.80326   1.80838
 Alpha virt. eigenvalues --    1.81545   1.81998   1.82470   1.82559   1.83451
 Alpha virt. eigenvalues --    1.83696   1.84044   1.84622   1.85500   1.85934
 Alpha virt. eigenvalues --    1.86357   1.86430   1.86820   1.87350   1.87699
 Alpha virt. eigenvalues --    1.88014   1.88250   1.88597   1.89412   1.90248
 Alpha virt. eigenvalues --    1.90723   1.91572   1.92110   1.92223   1.93369
 Alpha virt. eigenvalues --    1.94508   1.95786   1.96252   1.97088   1.97829
 Alpha virt. eigenvalues --    2.01090   2.02037   2.06023   2.15918   2.16055
 Alpha virt. eigenvalues --    2.19182   2.19483   2.19888   2.20613   2.21206
 Alpha virt. eigenvalues --    2.21531   2.21912   2.22776   2.22926   2.23083
 Alpha virt. eigenvalues --    2.23355   2.23418   2.23717   2.23864   2.24121
 Alpha virt. eigenvalues --    2.24387   2.24740   2.24986   2.25369   2.25575
 Alpha virt. eigenvalues --    2.25955   2.26037   2.26085   2.26296   2.26424
 Alpha virt. eigenvalues --    2.26492   2.26678   2.26745   2.26906   2.27151
 Alpha virt. eigenvalues --    2.27439   2.28182   2.28472   2.29038   2.29544
 Alpha virt. eigenvalues --    2.29748   2.30165   2.30211   2.31242   2.31279
 Alpha virt. eigenvalues --    2.31708   2.32732   2.34157   2.34535   2.35145
 Alpha virt. eigenvalues --    2.36130   2.36892   2.37386   2.39057   2.39441
 Alpha virt. eigenvalues --    2.40577   2.42081   2.44266   2.44938   2.47042
 Alpha virt. eigenvalues --    2.47296   2.50449   2.50668   2.51802   2.57404
 Alpha virt. eigenvalues --    2.58924   2.70192   2.93539   2.96524   2.97167
 Alpha virt. eigenvalues --    2.97414   2.97970   2.98081   2.98101   2.98395
 Alpha virt. eigenvalues --    2.98415   2.98556   2.99370   2.99515   3.00152
 Alpha virt. eigenvalues --    3.00169   3.00449   3.00665   3.01020   3.01367
 Alpha virt. eigenvalues --    3.01561   3.01704   3.01750   3.02083   3.02207
 Alpha virt. eigenvalues --    3.02250   3.02974   3.03005   3.03168   3.03223
 Alpha virt. eigenvalues --    3.03366   3.03468   3.03669   3.03820   3.04037
 Alpha virt. eigenvalues --    3.04083   3.04268   3.04421   3.04824   3.04929
 Alpha virt. eigenvalues --    3.05238   3.05420   3.05508   3.05776   3.06221
 Alpha virt. eigenvalues --    3.06271   3.06657   3.06725   3.06967   3.07233
 Alpha virt. eigenvalues --    3.07335   3.07641   3.07788   3.07813   3.07940
 Alpha virt. eigenvalues --    3.08672   3.09019   3.09203   3.09454   3.09781
 Alpha virt. eigenvalues --    3.10398   3.11396   3.12158   3.12886   3.12917
 Alpha virt. eigenvalues --    3.14195   3.16384   3.16895   3.19493   3.19970
 Alpha virt. eigenvalues --    3.20886   3.21150   3.21581   3.22754   3.22876
 Alpha virt. eigenvalues --    3.22992   3.23228   3.23819   3.24038   3.24412
 Alpha virt. eigenvalues --    3.24734   3.25068   3.25123   3.25377   3.25528
 Alpha virt. eigenvalues --    3.25562   3.25742   3.26062   3.26345   3.26846
 Alpha virt. eigenvalues --    3.27513   3.27637   3.28070   3.28117   3.28438
 Alpha virt. eigenvalues --    3.29030   3.30013   3.31510   3.51966   3.52042
 Alpha virt. eigenvalues --    3.55489   3.56302   3.56947   3.57817   3.58345
 Alpha virt. eigenvalues --    3.58762   3.58930   3.59279   3.59588   3.60146
 Alpha virt. eigenvalues --    3.60491   3.60736   3.61355   3.61470   3.61550
 Alpha virt. eigenvalues --    3.61878   3.62098   3.62608   3.62872   3.63225
 Alpha virt. eigenvalues --    3.63743   3.64456   3.65125   3.65421   3.65464
 Alpha virt. eigenvalues --    3.67356   3.68144   3.68840   3.69484   3.73714
 Alpha virt. eigenvalues --    3.78504   3.78799   3.83317   3.84262   3.84484
 Alpha virt. eigenvalues --    3.85185   3.85608   3.85920   3.86039   3.86558
 Alpha virt. eigenvalues --    3.87014   3.87617   3.87865   3.88115   3.88718
 Alpha virt. eigenvalues --    3.89448   3.89876   3.90171   3.90833   3.90890
 Alpha virt. eigenvalues --    3.91790   3.92398   3.92579   3.92782   3.93226
 Alpha virt. eigenvalues --    3.93687   3.94831   3.95798   3.97477   3.98233
 Alpha virt. eigenvalues --    3.98795   4.00649
          Condensed to atoms (all electrons):
 Mulliken charges:
               1
     1  Br  -0.696767
     2  O   -0.277861
     3  H    0.123898
     4  H    0.137596
     5  O   -0.264306
     6  H    0.116759
     7  H    0.135438
     8  O   -0.276163
     9  H    0.157445
    10  H    0.135637
    11  O   -0.262713
    12  H    0.144117
    13  H    0.129591
    14  O   -0.290528
    15  H    0.100924
    16  H    0.137836
    17  O   -0.272513
    18  H    0.150202
    19  H    0.112998
    20  O   -0.257776
    21  H    0.099349
    22  H    0.144484
    23  O   -0.251874
    24  H    0.141979
    25  H    0.147996
    26  O   -0.238307
    27  H    0.152223
    28  H    0.153919
    29  O   -0.276434
    30  H    0.131510
    31  H    0.137224
    32  O   -0.271264
    33  H    0.146278
    34  H    0.153203
    35  O   -0.265467
    36  H    0.115368
    37  H    0.127213
    38  O   -0.278140
    39  H    0.137902
    40  H    0.126900
    41  O   -0.252449
    42  H    0.104261
    43  H    0.124025
    44  O   -0.262562
    45  H    0.132203
    46  H    0.143733
    47  O   -0.275275
    48  H    0.138649
    49  H    0.146092
    50  O   -0.248905
    51  H    0.124941
    52  H    0.103871
    53  O   -0.242507
    54  H    0.133904
    55  H    0.131041
    56  O   -0.226203
    57  H    0.147402
    58  H    0.156191
    59  O   -0.261042
    60  H    0.120789
    61  H    0.113268
    62  O   -0.313072
    63  H    0.148769
    64  H    0.125321
    65  O   -0.313965
    66  H    0.133371
    67  H    0.112810
    68  O   -0.311269
    69  H    0.130211
    70  H    0.116155
    71  O   -0.264331
    72  H    0.120586
    73  H    0.140852
    74  O   -0.231787
    75  H    0.156756
    76  H    0.155828
    77  O   -0.295986
    78  H    0.118967
    79  H    0.126457
    80  O   -0.299868
    81  H    0.115060
    82  H    0.129747
    83  O   -0.270849
    84  H    0.128385
    85  H    0.129575
    86  O   -0.264550
    87  H    0.137096
    88  H    0.115059
    89  O   -0.327513
    90  H    0.125440
    91  H    0.116162
    92  O   -0.281303
    93  H    0.121343
    94  H    0.116898
    95  O   -0.269881
    96  H    0.126317
    97  H    0.127905
 Sum of Mulliken charges =  -1.00000
 Mulliken charges with hydrogens summed into heavy atoms:
               1
     1  Br  -0.696767
     2  O   -0.016366
     5  O   -0.012110
     8  O    0.016918
    11  O    0.010995
    14  O   -0.051767
    17  O   -0.009312
    20  O   -0.013943
    23  O    0.038102
    26  O    0.067835
    29  O   -0.007701
    32  O    0.028217
    35  O   -0.022886
    38  O   -0.013338
    41  O   -0.024163
    44  O    0.013374
    47  O    0.009466
    50  O   -0.020093
    53  O    0.022438
    56  O    0.077390
    59  O   -0.026986
    62  O   -0.038982
    65  O   -0.067785
    68  O   -0.064903
    71  O   -0.002894
    74  O    0.080797
    77  O   -0.050562
    80  O   -0.055061
    83  O   -0.012889
    86  O   -0.012395
    89  O   -0.085911
    92  O   -0.043061
    95  O   -0.015658
         Mulliken charges condensed to fragments:
      1     -0.696767
      2     -0.303233
 Electronic spatial extent (au):  <R**2>=        1553152.2920
 Charge=             -1.0000 electrons
 Dipole moment (field-independent basis, Debye):
    X=           -100.9540    Y=            -92.6338    Z=           -106.9914  Tot=            173.8387
 Quadrupole moment (field-independent basis, Debye-Ang):
   XX=          -2372.3006   YY=          -2128.5904   ZZ=          -2624.6400
   XY=          -1914.5946   XZ=          -2252.1038   YZ=          -2072.9807
 Traceless Quadrupole moment (field-independent basis, Debye-Ang):
   XX=              2.8764   YY=            246.5866   ZZ=           -249.4630
   XY=          -1914.5946   XZ=          -2252.1038   YZ=          -2072.9807
 Octapole moment (field-independent basis, Debye-Ang**2):
  XXX=         -59877.8397  YYY=         -54527.4404  ZZZ=         -68031.8107  XYY=         -43489.4781
  XXY=         -44592.3071  XXZ=         -52633.5254  XZZ=         -54887.6081  YZZ=         -51035.4437
  YYZ=         -46879.0824  XYZ=         -43098.1290
 Hexadecapole moment (field-independent basis, Debye-Ang**3):
 XXXX=       -1569898.2551 YYYY=       -1465352.1383 ZZZZ=       -1809777.6208 XXXY=       -1122624.3725
 XXXZ=       -1317583.1877 YYYX=       -1108600.5928 YYYZ=       -1172445.0421 ZZZX=       -1407842.6878
 ZZZY=       -1325859.8317 XXYY=        -992828.4326 XXZZ=       -1260791.0523 YYZZ=       -1128642.7171
 XXYZ=       -1001179.7234 YYXZ=        -966138.3841 ZZXY=       -1058427.6931
 N-N= 5.852245349367D+03 E-N=-2.367112843830D+04  KE= 5.003382446190D+03
 No NMR shielding tensors so no spin-rotation constants.
 Leave Link  601 at Thu May  3 11:44:38 2018, MaxMem= 14763950080 cpu:        67.7
 (Enter /cm/shared/gaussian/g09.e01/intel64-sandybridge/g09/l701.exe)
 Compute integral first derivatives.
 ... and contract with generalized density number  0.
 Leave Link  701 at Thu May  3 11:44:40 2018, MaxMem= 14763950080 cpu:       145.0
 (Enter /cm/shared/gaussian/g09.e01/intel64-sandybridge/g09/l702.exe)
 L702 exits ... SP integral derivatives will be done elsewhere.
 Leave Link  702 at Thu May  3 11:44:40 2018, MaxMem= 14763950080 cpu:         2.6
 (Enter /cm/shared/gaussian/g09.e01/intel64-sandybridge/g09/l703.exe)
 Compute integral first derivatives, UseDBF=F ICtDFT=           0.
 Integral derivatives from FoFJK, PRISM(SPDF).
 Calling FoFJK, ICntrl=      2127 FMM=T ISym2X=0 I1Cent= 0 IOpClX= 0 NMat=1 NMatS=1 NMatT=0.
 FoFJK:  IHMeth= 1 ICntrl=    2127 DoSepK=F KAlg= 0 I1Cent=   0 FoldK=F
 IRaf=         0 NMat=   1 IRICut=       1 DoRegI=T DoRafI=F ISym2E= 0.
 FoFCou: FMM=T IPFlag=           0 FMFlag=      100000 FMFlg1=        2001
         NFxFlg=           0 DoJE=F BraDBF=F KetDBF=F FulRan=T
         wScrn=  0.000000 ICntrl=    2127 IOpCl=  0 I1Cent=           0 NGrid=           0
         NMat0=    1 NMatS0=      1 NMatT0=    0 NMatD0=    1 NMtDS0=    0 NMtDT0=    0
 Symmetry not used in FoFCou.
 FMM levels:  10  Number of levels for PrismC:   9
 Leave Link  703 at Thu May  3 11:44:55 2018, MaxMem= 14763950080 cpu:       941.6
 (Enter /cm/shared/gaussian/g09.e01/intel64-sandybridge/g09/l716.exe)
 Dipole        =-3.97183621D+01-3.64449294D+01-4.20936657D+01
 Cartesian Forces:  Max     0.027021661 RMS     0.009216810
 Leave Link  716 at Thu May  3 11:44:56 2018, MaxMem= 14763950080 cpu:         4.6
 (Enter /cm/shared/gaussian/g09.e01/intel64-sandybridge/g09/l122.exe)
 CPIOFr:  IOpCl= 0 IRwI=-1 IRwCP=  731 ICalc= -1 LCPTot=     1005244 Len1MO=     2550559 IndFrg=     1005244
 CPIOFr:  IOpCl= 0 IRwI=-1 IRwCP=  731 ICalc=  0 LCPTot=     1005244 Len1MO=     2550559 IndFrg=     3555803
 Counterpoise: doing DCBS calculation for fragment   1 NewBq=T
 Leave Link  122 at Thu May  3 11:44:56 2018, MaxMem= 14763950080 cpu:         9.2
 (Enter /cm/shared/gaussian/g09.e01/intel64-sandybridge/g09/l301.exe)
 Basis read from rwf:  (5D, 7F)
 No pseudopotential information found on rwf file.
   795 basis functions,  1651 primitive gaussians,   829 cartesian basis functions
    18 alpha electrons       18 beta electrons
       nuclear repulsion energy         0.0000000000 Hartrees.
 IExCor= 1009 DFT=T Ex+Corr=PBE1PBE ExCW=0 ScaHFX=  0.250000
 ScaDFX=  0.750000  0.750000  1.000000  1.000000 ScalE2=  1.000000  1.000000
 IRadAn=      0 IRanWt=     -1 IRanGd=            0 ICorTp=0 IEmpDi=  4
 NAtoms=   97 NActive=   97 NUniq=   97 SFac= 1.00D+00 NAtFMM=   60 NAOKFM=T Big=T
 Integral buffers will be    131072 words long.
 Raffenetti 2 integral format.
 Two-electron integral symmetry is turned off.
 No density basis found on file   718.
 Leave Link  301 at Thu May  3 11:44:56 2018, MaxMem= 14763950080 cpu:         7.0
 (Enter /cm/shared/gaussian/g09.e01/intel64-sandybridge/g09/l302.exe)
 NPDir=0 NMtPBC=     1 NCelOv=     1 NCel=       1 NClECP=     1 NCelD=      1
         NCelK=      1 NCelE2=     1 NClLst=     1 CellRange=     0.0.
 One-electron integrals computed using PRISM.
 NBasis=   795 RedAO= T EigKep=  1.51D-02  NBF=   795
 NBsUse=   795 1.00D-06 EigRej= -1.00D+00 NBFU=   795
 Precomputing XC quadrature grid using
 IXCGrd= 4 IRadAn=           0 IRanWt=          -1 IRanGd=           0 AccXCQ= 0.00D+00.
 Generated NRdTot=       0 NPtTot=           0 NUsed=           0 NTot=          32
 NSgBfM=   691   695   697   699   710 MxSgAt=    97 MxSgA2=    97.
 Leave Link  302 at Thu May  3 11:45:00 2018, MaxMem= 14763950080 cpu:       265.4
 (Enter /cm/shared/gaussian/g09.e01/intel64-sandybridge/g09/l303.exe)
 DipDrv:  MaxL=1.
 Leave Link  303 at Thu May  3 11:45:02 2018, MaxMem= 14763950080 cpu:       118.5
 (Enter /cm/shared/gaussian/g09.e01/intel64-sandybridge/g09/l401.exe)
 ExpMin= 1.22D-01 ExpMax= 6.40D+05 ExpMxC= 6.18D+03 IAcc=2 IRadAn=         4 AccDes= 0.00D+00
 Harris functional with IExCor= 1009 and IRadAn=       4 diagonalized for initial guess.
 HarFok:  IExCor= 1009 AccDes= 0.00D+00 IRadAn=         4 IDoV= 1 UseB2=F ITyADJ=14
 ICtDFT=  3500011 ScaDFX=  1.000000  1.000000  1.000000  1.000000
 FoFCou: FMM=F IPFlag=           0 FMFlag=      100000 FMFlg1=        2001
         NFxFlg=           0 DoJE=T BraDBF=F KetDBF=T FulRan=T
         wScrn=  0.000000 ICntrl=     500 IOpCl=  0 I1Cent=   200000004 NGrid=           0
         NMat0=    1 NMatS0=      1 NMatT0=    0 NMatD0=    1 NMtDS0=    0 NMtDT0=    0
 Symmetry not used in FoFCou.
 Harris En= -2574.01949517138    
 JPrj=0 DoOrth=F DoCkMO=F.
 Leave Link  401 at Thu May  3 11:45:07 2018, MaxMem= 14763950080 cpu:       292.4
 (Enter /cm/shared/gaussian/g09.e01/intel64-sandybridge/g09/l502.exe)
 Closed shell SCF:
 Using DIIS extrapolation, IDIIS=  1040.
 Two-electron integral symmetry not used.
 IVT=     2138497 IEndB=     2138497 NGot= 14763950080 MDV= 14762516294
 LenX= 14762516294 LenY= 14761828224
 Requested convergence on RMS density matrix=1.00D-08 within 128 cycles.
 Requested convergence on MAX density matrix=1.00D-06.
 Requested convergence on             energy=1.00D-06.
 No special actions if energy rises.
 Fock matrices will be formed incrementally for  20 cycles.
 Integral accuracy reduced to 1.0D-05 until final iterations.

 Cycle   1  Pass 0  IDiag  1:
 FoFJK:  IHMeth= 1 ICntrl=       0 DoSepK=F KAlg= 0 I1Cent=   0 FoldK=F
 IRaf= 760000000 NMat=   1 IRICut=       1 DoRegI=T DoRafI=F ISym2E= 0.
 FoFCou: FMM=T IPFlag=           0 FMFlag=      100000 FMFlg1=        2001
         NFxFlg=           0 DoJE=F BraDBF=F KetDBF=F FulRan=T
         wScrn=  0.000000 ICntrl=       0 IOpCl=  0 I1Cent=           0 NGrid=           0
         NMat0=    1 NMatS0=      1 NMatT0=    0 NMatD0=    1 NMtDS0=    0 NMtDT0=    0
 Symmetry not used in FoFCou.
 FMM levels:  10  Number of levels for PrismC:   9
 E= -2573.87811586009    
 DIIS: error= 1.01D-02 at cycle   1 NSaved=   1.
 NSaved= 1 IEnMin= 1 EnMin= -2573.87811586009     IErMin= 1 ErrMin= 1.01D-02
 ErrMax= 1.01D-02  0.00D+00 EMaxC= 1.00D-01 BMatC= 3.76D-02 BMatP= 3.76D-02
 IDIUse=3 WtCom= 8.99D-01 WtEn= 1.01D-01
 Coeff-Com:  0.100D+01
 Coeff-En:   0.100D+01
 Coeff:      0.100D+01
 Gap=     0.189 Goal=   None    Shift=    0.000
 GapD=    0.189 DampG=1.000 DampE=0.500 DampFc=0.5000 IDamp=-1.
 Damping current iteration by 5.00D-01
 RMSDP=4.35D-04 MaxDP=6.81D-02              OVMax= 1.50D-01

 Cycle   2  Pass 0  IDiag  1:
 RMSU=  2.16D-04    CP:  9.96D-01
 E= -2573.89401056977     Delta-E=       -0.015894709678 Rises=F Damp=T
 DIIS: error= 6.17D-03 at cycle   2 NSaved=   2.
 NSaved= 2 IEnMin= 2 EnMin= -2573.89401056977     IErMin= 2 ErrMin= 6.17D-03
 ErrMax= 6.17D-03  0.00D+00 EMaxC= 1.00D-01 BMatC= 8.76D-03 BMatP= 3.76D-02
 IDIUse=3 WtCom= 9.38D-01 WtEn= 6.17D-02
 Coeff-Com: -0.606D+00 0.161D+01
 Coeff-En:   0.000D+00 0.100D+01
 Coeff:     -0.569D+00 0.157D+01
 Gap=     0.184 Goal=   None    Shift=    0.000
 RMSDP=1.58D-04 MaxDP=3.72D-02 DE=-1.59D-02 OVMax= 5.96D-02

 Cycle   3  Pass 0  IDiag  1:
 RMSU=  1.38D-04    CP:  9.95D-01  1.36D+00
 E= -2573.90688566821     Delta-E=       -0.012875098438 Rises=F Damp=F
 DIIS: error= 2.93D-03 at cycle   3 NSaved=   3.
 NSaved= 3 IEnMin= 3 EnMin= -2573.90688566821     IErMin= 3 ErrMin= 2.93D-03
 ErrMax= 2.93D-03  0.00D+00 EMaxC= 1.00D-01 BMatC= 2.07D-03 BMatP= 8.76D-03
 IDIUse=3 WtCom= 9.71D-01 WtEn= 2.93D-02
 Coeff-Com: -0.304D+00 0.715D+00 0.590D+00
 Coeff-En:   0.000D+00 0.000D+00 0.100D+01
 Coeff:     -0.296D+00 0.694D+00 0.602D+00
 Gap=     0.168 Goal=   None    Shift=    0.000
 RMSDP=6.53D-05 MaxDP=1.61D-02 DE=-1.29D-02 OVMax= 1.99D-02

 Cycle   4  Pass 0  IDiag  1:
 RMSU=  8.20D-06    CP:  9.94D-01  1.55D+00  6.38D-01
 E= -2573.90907478184     Delta-E=       -0.002189113631 Rises=F Damp=F
 DIIS: error= 9.82D-05 at cycle   4 NSaved=   4.
 NSaved= 4 IEnMin= 4 EnMin= -2573.90907478184     IErMin= 4 ErrMin= 9.82D-05
 ErrMax= 9.82D-05  0.00D+00 EMaxC= 1.00D-01 BMatC= 1.59D-06 BMatP= 2.07D-03
 IDIUse=1 WtCom= 1.00D+00 WtEn= 0.00D+00
 Coeff-Com: -0.105D-01 0.191D-01 0.373D-01 0.954D+00
 Coeff:     -0.105D-01 0.191D-01 0.373D-01 0.954D+00
 Gap=     0.170 Goal=   None    Shift=    0.000
 RMSDP=2.27D-06 MaxDP=4.62D-04 DE=-2.19D-03 OVMax= 6.86D-04

 Initial convergence to 1.0D-05 achieved.  Increase integral accuracy.
 Cycle   5  Pass 1  IDiag  1:
 E= -2573.90988018236     Delta-E=       -0.000805400522 Rises=F Damp=F
 DIIS: error= 7.29D-06 at cycle   1 NSaved=   1.
 NSaved= 1 IEnMin= 1 EnMin= -2573.90988018236     IErMin= 1 ErrMin= 7.29D-06
 ErrMax= 7.29D-06  0.00D+00 EMaxC= 1.00D-01 BMatC= 5.61D-08 BMatP= 5.61D-08
 IDIUse=1 WtCom= 1.00D+00 WtEn= 0.00D+00
 Coeff-Com:  0.100D+01
 Coeff:      0.100D+01
 Gap=     0.171 Goal=   None    Shift=    0.000
 RMSDP=2.27D-06 MaxDP=4.62D-04 DE=-8.05D-04 OVMax= 2.10D-04

 Cycle   6  Pass 1  IDiag  1:
 RMSU=  8.81D-07    CP:  1.00D+00
 E= -2573.90988026855     Delta-E=       -0.000000086195 Rises=F Damp=F
 DIIS: error= 6.86D-06 at cycle   2 NSaved=   2.
 NSaved= 2 IEnMin= 2 EnMin= -2573.90988026855     IErMin= 2 ErrMin= 6.86D-06
 ErrMax= 6.86D-06  0.00D+00 EMaxC= 1.00D-01 BMatC= 1.46D-08 BMatP= 5.61D-08
 IDIUse=1 WtCom= 1.00D+00 WtEn= 0.00D+00
 Coeff-Com:  0.289D+00 0.711D+00
 Coeff:      0.289D+00 0.711D+00
 Gap=     0.171 Goal=   None    Shift=    0.000
 RMSDP=2.45D-07 MaxDP=5.80D-05 DE=-8.62D-08 OVMax= 8.70D-05

 Cycle   7  Pass 1  IDiag  1:
 RMSU=  2.30D-07    CP:  1.00D+00  9.07D-01
 E= -2573.90988028515     Delta-E=       -0.000000016596 Rises=F Damp=F
 DIIS: error= 2.67D-06 at cycle   3 NSaved=   3.
 NSaved= 3 IEnMin= 3 EnMin= -2573.90988028515     IErMin= 3 ErrMin= 2.67D-06
 ErrMax= 2.67D-06  0.00D+00 EMaxC= 1.00D-01 BMatC= 2.06D-09 BMatP= 1.46D-08
 IDIUse=1 WtCom= 1.00D+00 WtEn= 0.00D+00
 Coeff-Com: -0.294D-01 0.255D+00 0.775D+00
 Coeff:     -0.294D-01 0.255D+00 0.775D+00
 Gap=     0.171 Goal=   None    Shift=    0.000
 RMSDP=6.89D-08 MaxDP=1.82D-05 DE=-1.66D-08 OVMax= 2.05D-05

 Cycle   8  Pass 1  IDiag  1:
 RMSU=  2.65D-08    CP:  1.00D+00  9.61D-01  8.18D-01
 E= -2573.90988028750     Delta-E=       -0.000000002354 Rises=F Damp=F
 DIIS: error= 1.70D-07 at cycle   4 NSaved=   4.
 NSaved= 4 IEnMin= 4 EnMin= -2573.90988028750     IErMin= 4 ErrMin= 1.70D-07
 ErrMax= 1.70D-07  0.00D+00 EMaxC= 1.00D-01 BMatC= 1.43D-11 BMatP= 2.06D-09
 IDIUse=1 WtCom= 1.00D+00 WtEn= 0.00D+00
 Coeff-Com: -0.109D-01 0.725D-01 0.208D+00 0.730D+00
 Coeff:     -0.109D-01 0.725D-01 0.208D+00 0.730D+00
 Gap=     0.171 Goal=   None    Shift=    0.000
 RMSDP=6.69D-09 MaxDP=7.68D-07 DE=-2.35D-09 OVMax= 2.13D-06

 SCF Done:  E(RPBE1PBE) =  -2573.90988029     A.U. after    8 cycles
            NFock=  8  Conv=0.67D-08     -V/T= 2.0013
 KE= 2.570525355620D+03 PE=-6.163110180417D+03 EE= 1.018674944510D+03
 Leave Link  502 at Thu May  3 11:46:27 2018, MaxMem= 14763950080 cpu:      5086.1
 (Enter /cm/shared/gaussian/g09.e01/intel64-sandybridge/g09/l601.exe)
 Copying SCF densities to generalized density rwf, IOpCl= 0 IROHF=0.

 **********************************************************************

            Population analysis using the SCF density.

 **********************************************************************

 Alpha  occ. eigenvalues -- -482.98404 -62.38557 -56.15818 -56.15809 -56.15800
 Alpha  occ. eigenvalues --   -8.48696  -6.29028  -6.29000  -6.28969  -2.37293
 Alpha  occ. eigenvalues --   -2.37289  -2.37264  -2.37242  -2.37238  -0.46811
 Alpha  occ. eigenvalues --   -0.02735  -0.02711  -0.02654
 Alpha virt. eigenvalues --    0.14405   0.16262   0.17043   0.17110   0.18254
 Alpha virt. eigenvalues --    0.18746   0.18924   0.19368   0.19783   0.21108
 Alpha virt. eigenvalues --    0.21208   0.22046   0.22599   0.23295   0.23538
 Alpha virt. eigenvalues --    0.24138   0.24438   0.24643   0.25041   0.25760
 Alpha virt. eigenvalues --    0.26309   0.27288   0.27387   0.27913   0.28220
 Alpha virt. eigenvalues --    0.28584   0.28748   0.29528   0.30177   0.30415
 Alpha virt. eigenvalues --    0.31853   0.32162   0.32987   0.33219   0.33680
 Alpha virt. eigenvalues --    0.34159   0.34387   0.34815   0.35518   0.36077
 Alpha virt. eigenvalues --    0.36220   0.36802   0.37496   0.38155   0.38610
 Alpha virt. eigenvalues --    0.38727   0.39026   0.39673   0.40420   0.41095
 Alpha virt. eigenvalues --    0.41696   0.42075   0.42642   0.42988   0.44160
 Alpha virt. eigenvalues --    0.44509   0.45282   0.45585   0.46414   0.47367
 Alpha virt. eigenvalues --    0.47944   0.48942   0.51472   0.52700   0.61226
 Alpha virt. eigenvalues --    0.61838   0.62541   0.62781   0.63595   0.64181
 Alpha virt. eigenvalues --    0.64780   0.65082   0.65375   0.65520   0.66136
 Alpha virt. eigenvalues --    0.66633   0.66914   0.67112   0.67735   0.68055
 Alpha virt. eigenvalues --    0.68197   0.68946   0.69025   0.70052   0.70380
 Alpha virt. eigenvalues --    0.70497   0.71237   0.71508   0.71956   0.72699
 Alpha virt. eigenvalues --    0.72825   0.73177   0.73433   0.73697   0.74273
 Alpha virt. eigenvalues --    0.74580   0.74815   0.75228   0.75481   0.75775
 Alpha virt. eigenvalues --    0.76126   0.76469   0.76553   0.76772   0.77122
 Alpha virt. eigenvalues --    0.77346   0.77486   0.78169   0.78347   0.78667
 Alpha virt. eigenvalues --    0.78795   0.79416   0.79670   0.79879   0.80252
 Alpha virt. eigenvalues --    0.80333   0.80898   0.81225   0.81773   0.82162
 Alpha virt. eigenvalues --    0.82248   0.82633   0.82845   0.83284   0.83569
 Alpha virt. eigenvalues --    0.84039   0.84462   0.84859   0.85482   0.85742
 Alpha virt. eigenvalues --    0.86078   0.86700   0.87059   0.87677   0.87916
 Alpha virt. eigenvalues --    0.88144   0.88749   0.89002   0.89629   0.89843
 Alpha virt. eigenvalues --    0.90132   0.90254   0.90916   0.91248   0.91608
 Alpha virt. eigenvalues --    0.91889   0.92175   0.92510   0.92889   0.92982
 Alpha virt. eigenvalues --    0.93060   0.93463   0.93843   0.94446   0.94714
 Alpha virt. eigenvalues --    0.95245   0.95448   0.96468   0.96521   0.96845
 Alpha virt. eigenvalues --    0.97169   0.97724   0.98023   0.98887   0.98958
 Alpha virt. eigenvalues --    0.99429   1.00204   1.00596   1.01157   1.01538
 Alpha virt. eigenvalues --    1.01769   1.02278   1.02505   1.03187   1.04109
 Alpha virt. eigenvalues --    1.04453   1.04898   1.05564   1.05920   1.06828
 Alpha virt. eigenvalues --    1.07727   1.08414   1.08807   1.09469   1.09547
 Alpha virt. eigenvalues --    1.10247   1.10620   1.11731   1.12412   1.13523
 Alpha virt. eigenvalues --    1.14564   1.15053   1.16678   1.17888   1.19373
 Alpha virt. eigenvalues --    1.20613   1.21385   1.22431   1.23823   1.25955
 Alpha virt. eigenvalues --    1.34268   1.66299   1.67174   1.67512   1.68077
 Alpha virt. eigenvalues --    1.68804   1.69372   1.69557   1.70135   1.70364
 Alpha virt. eigenvalues --    1.70906   1.71139   1.71435   1.71741   1.72163
 Alpha virt. eigenvalues --    1.72336   1.72392   1.72546   1.73067   1.73437
 Alpha virt. eigenvalues --    1.73664   1.74001   1.74185   1.74738   1.75101
 Alpha virt. eigenvalues --    1.75261   1.75406   1.75609   1.75794   1.76359
 Alpha virt. eigenvalues --    1.76583   1.77107   1.77424   1.77715   1.77861
 Alpha virt. eigenvalues --    1.78451   1.78705   1.79003   1.79270   1.79528
 Alpha virt. eigenvalues --    1.79631   1.80121   1.80216   1.80625   1.81445
 Alpha virt. eigenvalues --    1.81671   1.82140   1.82259   1.83085   1.83819
 Alpha virt. eigenvalues --    1.84517   1.84687   1.85645   1.86473   1.86617
 Alpha virt. eigenvalues --    1.87112   1.87481   1.88401   1.89682   1.90187
 Alpha virt. eigenvalues --    1.90695   1.92092   1.92976   1.95943   1.96191
 Alpha virt. eigenvalues --    1.96699   1.97629   1.97923   1.98364   1.99051
 Alpha virt. eigenvalues --    1.99398   1.99790   2.00453   2.00572   2.00873
 Alpha virt. eigenvalues --    2.01082   2.01297   2.01389   2.01897   2.01929
 Alpha virt. eigenvalues --    2.02160   2.02330   2.02530   2.02751   2.03060
 Alpha virt. eigenvalues --    2.03393   2.03791   2.04073   2.04349   2.04454
 Alpha virt. eigenvalues --    2.04808   2.05009   2.05394   2.05828   2.06135
 Alpha virt. eigenvalues --    2.06291   2.06822   2.07016   2.07152   2.07428
 Alpha virt. eigenvalues --    2.07461   2.07765   2.08192   2.08457   2.08670
 Alpha virt. eigenvalues --    2.09026   2.09618   2.09822   2.09991   2.10513
 Alpha virt. eigenvalues --    2.10811   2.11156   2.11407   2.11662   2.11973
 Alpha virt. eigenvalues --    2.13055   2.13497   2.13923   2.14098   2.14533
 Alpha virt. eigenvalues --    2.15024   2.15351   2.15724   2.16581   2.17096
 Alpha virt. eigenvalues --    2.17243   2.17484   2.17786   2.18403   2.18703
 Alpha virt. eigenvalues --    2.18958   2.19315   2.19605   2.19894   2.20216
 Alpha virt. eigenvalues --    2.20624   2.20957   2.21697   2.21774   2.22125
 Alpha virt. eigenvalues --    2.22705   2.23025   2.23711   2.23772   2.24577
 Alpha virt. eigenvalues --    2.25287   2.25486   2.26548   2.28178   2.28413
 Alpha virt. eigenvalues --    2.29099   2.29749   2.29999   2.31004   2.31362
 Alpha virt. eigenvalues --    2.31930   2.32467   2.33918   2.37267   2.37955
 Alpha virt. eigenvalues --    2.38603   2.38957   2.39835   2.41099   2.41583
 Alpha virt. eigenvalues --    2.41715   2.41847   2.42383   2.42816   2.43153
 Alpha virt. eigenvalues --    2.43501   2.44540   2.44642   2.44976   2.45343
 Alpha virt. eigenvalues --    2.45618   2.46053   2.46195   2.46791   2.47421
 Alpha virt. eigenvalues --    2.48000   2.48687   2.48895   2.49225   2.49332
 Alpha virt. eigenvalues --    2.49841   2.50436   2.51719   2.52485   2.53874
 Alpha virt. eigenvalues --    2.54669   2.57662   2.59403   2.66797   2.68473
 Alpha virt. eigenvalues --    2.69012   2.69038   2.69243   2.69622   2.69746
 Alpha virt. eigenvalues --    2.70202   2.70450   2.70481   2.70788   2.71277
 Alpha virt. eigenvalues --    2.71746   2.71933   2.72110   2.72881   2.73311
 Alpha virt. eigenvalues --    2.73820   2.75749   2.75959   2.76743   2.77766
 Alpha virt. eigenvalues --    2.78958   2.79243   2.79795   2.79977   2.80961
 Alpha virt. eigenvalues --    2.82158   2.83097   2.83134   2.83779   2.84505
 Alpha virt. eigenvalues --    2.84814   2.85249   2.85479   2.85735   2.86186
 Alpha virt. eigenvalues --    2.86461   2.86808   2.87126   2.88437   2.88624
 Alpha virt. eigenvalues --    2.88890   2.90444   2.90714   2.91062   2.91310
 Alpha virt. eigenvalues --    2.91956   2.93233   2.94125   2.94904   2.95819
 Alpha virt. eigenvalues --    2.96336   2.97524   2.98322   2.98826   2.99548
 Alpha virt. eigenvalues --    3.01477   3.02927   3.03371   3.04857   3.05482
 Alpha virt. eigenvalues --    3.06671   3.09187   3.12427   3.14011   3.14437
 Alpha virt. eigenvalues --    3.15078   3.15536   3.16368   3.16859   3.17092
 Alpha virt. eigenvalues --    3.18367   3.18803   3.20692   3.21220   3.23373
 Alpha virt. eigenvalues --    3.24766   3.25069   3.26508   3.27406   3.30050
 Alpha virt. eigenvalues --    3.30891   3.33367   3.35289   3.38271   3.39071
 Alpha virt. eigenvalues --    3.40120   3.42135   3.42391   3.43038   3.44656
 Alpha virt. eigenvalues --    3.46322   3.52100   3.53962   3.63964   4.51295
 Alpha virt. eigenvalues --    4.51763   4.52033   4.52042   4.52403   4.52415
 Alpha virt. eigenvalues --    4.52574   4.52702   4.52796   4.52796   4.52989
 Alpha virt. eigenvalues --    4.53032   4.53072   4.53154   4.53173   4.53403
 Alpha virt. eigenvalues --    4.53540   4.53722   4.53907   4.54354   4.54561
 Alpha virt. eigenvalues --    4.54605   4.54729   4.55112   4.55290   4.55417
 Alpha virt. eigenvalues --    4.55622   4.55825   4.56080   4.56183   4.56242
 Alpha virt. eigenvalues --    4.57373   4.59439   4.59813   4.59950   4.60063
 Alpha virt. eigenvalues --    4.60164   4.60244   4.60445   4.60476   4.60621
 Alpha virt. eigenvalues --    4.60651   4.60875   4.60963   4.61204   4.61320
 Alpha virt. eigenvalues --    4.61347   4.61544   4.61771   4.61856   4.62059
 Alpha virt. eigenvalues --    4.62512   4.62704   4.63277   4.63319   4.63485
 Alpha virt. eigenvalues --    4.63683   4.63842   4.63904   4.64123   4.64251
 Alpha virt. eigenvalues --    4.64784   4.64964   4.65730   4.74618   4.75059
 Alpha virt. eigenvalues --    4.75104   4.75196   4.75387   4.75492   4.75980
 Alpha virt. eigenvalues --    4.76219   4.76418   4.76852   4.77260   4.77345
 Alpha virt. eigenvalues --    4.77537   4.78085   4.78462   4.78794   4.79336
 Alpha virt. eigenvalues --    4.79480   4.79931   4.80212   4.80689   4.80714
 Alpha virt. eigenvalues --    4.81263   4.82202   4.82384   4.82832   4.83568
 Alpha virt. eigenvalues --    4.83822   4.84239   4.84774   4.85272   4.85837
 Alpha virt. eigenvalues --    4.86356   4.87073   4.87153   4.87499   4.87551
 Alpha virt. eigenvalues --    4.87687   4.87747   4.87914   4.88236   4.88470
 Alpha virt. eigenvalues --    4.88538   4.88675   4.88886   4.89059   4.90043
 Alpha virt. eigenvalues --    4.90285   4.90349   4.91186   4.92780   4.93574
 Alpha virt. eigenvalues --    4.93858   4.94699   4.95273   4.95726   4.96419
 Alpha virt. eigenvalues --    4.97131   4.97939   4.98617   5.01320   5.01468
 Alpha virt. eigenvalues --    5.02617   5.02816   5.03935   5.04403   5.04603
 Alpha virt. eigenvalues --    5.05330   5.05394   5.06069   5.06213   5.06730
 Alpha virt. eigenvalues --    5.07103   5.07594   5.07957   5.08323   5.08389
 Alpha virt. eigenvalues --    5.10083   5.10363   5.10966   5.11704   5.12671
 Alpha virt. eigenvalues --    5.13528   5.14135   5.14787   5.15400   5.16695
 Alpha virt. eigenvalues --    5.17993   5.18477   5.19143   5.21669   5.22833
 Alpha virt. eigenvalues --    5.23856   5.26106   5.29948   5.32576   5.34181
 Alpha virt. eigenvalues --    5.35540   5.36462   5.36895   5.37409   5.37938
 Alpha virt. eigenvalues --    5.38892   5.40565   5.40654   5.41761   5.42301
 Alpha virt. eigenvalues --    5.43746   5.44571   5.45039   5.46345   5.46632
 Alpha virt. eigenvalues --    5.47142   5.48231   5.48660   5.49749   5.52903
 Alpha virt. eigenvalues --    5.53068   5.53213   5.56045   5.56433   5.57855
 Alpha virt. eigenvalues --    5.61160   5.63129   5.64420   5.64801   5.71512
 Alpha virt. eigenvalues --    5.72543   6.58592   6.59323   6.59793   6.60306
 Alpha virt. eigenvalues --    6.60503   6.60770   6.60896   6.61258   6.61306
 Alpha virt. eigenvalues --    6.61516   6.61931   6.62483   6.63438   6.63608
 Alpha virt. eigenvalues --    6.63949   6.64957   6.65172   6.66443   6.67039
[...]
   Y20       31.86078  -0.00842   0.00000  -0.00107   0.00185  31.86263
   Z20       37.37878  -0.00276   0.00000   0.00240   0.00145  37.38023
   X21       33.10800  -0.01421   0.00000  -0.00655  -0.00646  33.10154
   Y21       31.72850  -0.00400   0.00000  -0.01873  -0.01571  31.71280
   Z21       37.90791   0.00184   0.00000  -0.01236  -0.01312  37.89478
   X22       35.11111   0.00427   0.00000   0.01420   0.01449  35.12560
   Y22       33.63713   0.01405   0.00000   0.01982   0.02276  33.65988
   Z22       37.18981   0.00021   0.00000   0.00787   0.00743  37.19724
   X23       35.81031   0.00206   0.00000  -0.00947  -0.00684  35.80347
   Y23       43.87944  -0.00083   0.00000   0.00887   0.00990  43.88934
   Z23       43.06686   0.01632   0.00000   0.00754   0.01015  43.07700
   X24       35.26229  -0.00046   0.00000   0.01275   0.01503  35.27732
   Y24       42.93458  -0.00413   0.00000  -0.00558  -0.00402  42.93056
   Z24       41.63067  -0.01164   0.00000  -0.01408  -0.01169  41.61897
   X25       36.03708  -0.00037   0.00000  -0.00562  -0.00283  36.03425
   Y25       45.56130   0.00680   0.00000   0.00322   0.00442  45.56572
   Z25       42.44325  -0.01201   0.00000  -0.04412  -0.04103  42.40222
   X26       43.72826   0.01044   0.00000  -0.00157  -0.00034  43.72792
   Y26       34.97883   0.00275   0.00000   0.03372   0.03373  35.01256
   Z26       42.53774  -0.01790   0.00000   0.00347   0.00225  42.53998
   X27       42.72671  -0.01105   0.00000  -0.02251  -0.02104  42.70567
   Y27       36.49061   0.01839   0.00000   0.04613   0.04626  36.53687
   Z27       42.61332   0.00699   0.00000   0.03137   0.03076  42.64408
   X28       43.52039  -0.00614   0.00000  -0.02021  -0.01888  43.50151
   Y28       34.18515  -0.00648   0.00000   0.00456   0.00411  34.18926
   Z28       44.12511   0.02013   0.00000   0.02146   0.02002  44.14512
   X29       38.73939   0.00472   0.00000   0.00590   0.00519  38.74457
   Y29       31.52063   0.00237   0.00000   0.03249   0.03640  31.55703
   Z29       32.27652  -0.01370   0.00000  -0.02257  -0.02416  32.25236
   X30       39.83543   0.00700   0.00000   0.01265   0.01222  39.84765
   Y30       32.74895   0.00814   0.00000   0.01505   0.01854  32.76749
   Z30       33.05131   0.00784   0.00000   0.02836   0.02699  33.07830
   X31       37.30319  -0.00736   0.00000   0.00709   0.00650  37.30970
   Y31       31.44504  -0.00801   0.00000  -0.04503  -0.04125  31.40379
   Z31       33.37256   0.00700   0.00000   0.00493   0.00349  33.37606
   X32       38.36144  -0.01777   0.00000  -0.03423  -0.03404  38.32740
   Y32       28.91281  -0.01153   0.00000  -0.03558  -0.03451  28.87830
   Z32       41.72515   0.00637   0.00000  -0.00826  -0.01061  41.71454
   X33       40.15668   0.00825   0.00000  -0.01151  -0.01133  40.14535
   Y33       28.74273   0.00476   0.00000   0.02056   0.02134  28.76408
   Z33       41.74405   0.00091   0.00000   0.02101   0.01837  41.76242
   X34       38.02129   0.00509   0.00000   0.01825   0.01843  38.03972
   Y34       30.04665   0.00507   0.00000   0.00137   0.00290  30.04955
   Z34       40.34565  -0.00757   0.00000  -0.00786  -0.00981  40.33584
   X35       37.30319   0.00242   0.00000   0.01004   0.01143  37.31462
   Y35       45.76917   0.01482   0.00000  -0.00108   0.00309  45.77226
   Z35       32.12534  -0.00983   0.00000  -0.04196  -0.03899  32.08635
   X36       38.07798   0.00615   0.00000   0.00937   0.01058  38.08857
   Y36       44.20069  -0.01421   0.00000  -0.01782  -0.01390  44.18680
   Z36       32.55998   0.00194   0.00000  -0.00851  -0.00613  32.55385
   X37       35.52685  -0.00376   0.00000   0.00261   0.00395  35.53080
   Y37       45.41012  -0.00241   0.00000  -0.00461  -0.00018  45.40993
   Z37       32.14424   0.00259   0.00000   0.01088   0.01399  32.15823
   X38       30.44349  -0.01004   0.00000   0.00736   0.00759  30.45108
   Y38       37.20871   0.00903   0.00000  -0.00754  -0.00261  37.20609
   Z38       32.97572   0.01436   0.00000   0.01519   0.01648  32.99220
   X39       31.87968   0.01561   0.00000   0.01605   0.01614  31.89582
   Y39       37.35989  -0.00358   0.00000  -0.02415  -0.01909  37.34080
   Z39       31.87968  -0.01407   0.00000  -0.02390  -0.02277  31.85691
   X40       29.98995  -0.00116   0.00000   0.00003  -0.00001  29.98994
   Y40       35.47016  -0.01190   0.00000  -0.02115  -0.01612  35.45403
   Z40       32.90013  -0.00044   0.00000   0.00400   0.00482  32.90496
   X41       48.11243   0.00870   0.00000   0.00761   0.00874  48.12117
   Y41       37.35989   0.00510   0.00000   0.00870   0.00905  37.36893
   Z41       39.28741   0.01219   0.00000   0.01084   0.00973  39.29714
   X42       48.56596   0.00004   0.00000  -0.00789  -0.00700  48.55896
   Y42       37.35989  -0.00106   0.00000  -0.00416  -0.00334  37.35654
   Z42       37.54886  -0.01142   0.00000  -0.01034  -0.01151  37.53735
   X43       46.41167  -0.00794   0.00000   0.00018   0.00122  46.41289
   Y43       36.75517  -0.00573   0.00000  -0.01612  -0.01553  36.73964
   Z43       39.32520   0.00071   0.00000   0.01088   0.00982  39.33502
   X44       29.49862   0.00403   0.00000  -0.00376  -0.00169  29.49694
   Y44       40.44014   0.00473   0.00000   0.00883   0.01092  40.45106
   Z44       42.68891   0.02175   0.00000   0.02168   0.02410  42.71301
   X45       28.27030  -0.00608   0.00000   0.00345   0.00524  28.27554
   Y45       39.55197  -0.00560   0.00000  -0.00569  -0.00311  39.54886
   Z45       41.72515  -0.01133   0.00000  -0.01344  -0.01112  41.71403
   X46       30.55687   0.00408   0.00000   0.00448   0.00649  30.56336
   Y46       41.25272  -0.00206   0.00000  -0.02748  -0.02517  41.22755
   Z46       41.46059  -0.01066   0.00000  -0.01718  -0.01467  41.44592
   X47       33.99617  -0.02703   0.00000  -0.03106  -0.03141  33.96476
   Y47       36.83076   0.01380   0.00000   0.01499   0.02056  36.85132
   Z47       29.17737   0.00836   0.00000   0.01397   0.01466  29.19204
   X48       33.22139   0.00375   0.00000   0.00434   0.00365  33.22504
   Y48       35.69693  -0.00252   0.00000  -0.00445   0.00160  35.69853
   Z48       27.98684  -0.00083   0.00000   0.00547   0.00592  27.99276
   X49       35.75362   0.01799   0.00000  -0.00408  -0.00451  35.74911
   Y49       36.45282  -0.00934   0.00000  -0.01676  -0.01142  36.44140
   Z49       29.08289  -0.00761   0.00000  -0.02196  -0.02163  29.06125
   X50       46.92190   0.00091   0.00000  -0.01208  -0.01222  46.90968
   Y50       32.67336  -0.00931   0.00000  -0.00777  -0.00598  32.66738
   Z50       35.18670   0.00503   0.00000   0.01307   0.01069  35.19739
   X51       45.27784  -0.01207   0.00000  -0.02424  -0.02433  45.25351
   Y51       33.35367   0.00241   0.00000  -0.00523  -0.00308  33.35059
   Z51       34.80876  -0.00287   0.00000  -0.00538  -0.00732  34.80143
   X52       48.07463   0.00531   0.00000   0.00139   0.00139  48.07602
   Y52       33.99617   0.00539   0.00000  -0.00160   0.00013  33.99631
   Z52       34.77096   0.00013   0.00000   0.01181   0.00968  34.78064
   X53       38.32365  -0.01009   0.00000   0.01142   0.01055  38.33419
   Y53       34.65758   0.01139   0.00000   0.03595   0.04131  34.69888
   Z53       27.74118  -0.00473   0.00000  -0.00583  -0.00639  27.73479
   X54       39.23071   0.00483   0.00000   0.00774   0.00659  39.23730
   Y54       34.22294  -0.00273   0.00000  -0.00913  -0.00345  34.21949
   Z54       26.24830  -0.00864   0.00000  -0.01122  -0.01206  26.23623
   X55       39.49528   0.00626   0.00000  -0.01220  -0.01294  39.48234
   Y55       34.41191  -0.01158   0.00000  -0.06007  -0.05530  34.35661
   Z55       29.08289   0.01504   0.00000   0.02835   0.02751  29.11040
   X56       45.05107  -0.00956   0.00000  -0.00393  -0.00393  45.04714
   Y56       37.56776   0.01321   0.00000   0.01857   0.02197  37.58972
   Z56       30.84033   0.01300   0.00000   0.01187   0.01125  30.85158
   X57       46.78962   0.01064   0.00000   0.01560   0.01568  46.80530
   Y57       37.77563   0.00051   0.00000  -0.00088   0.00212  37.77775
   Z57       31.27497   0.00125   0.00000   0.00099   0.00019  31.27516
   X58       45.06997  -0.00044   0.00000  -0.00935  -0.00972  45.06025
   Y58       36.49061  -0.01113   0.00000  -0.01337  -0.00953  36.48108
   Z58       29.40414  -0.01189   0.00000   0.00247   0.00152  29.40566
   X59       35.22450   0.00246   0.00000  -0.01040  -0.01143  35.21306
   Y59       27.53331  -0.01193   0.00000  -0.01396  -0.01016  27.52315
   Z59       34.37412  -0.00968   0.00000  -0.02372  -0.02606  34.34806
   X60       34.37412   0.00180   0.00000   0.00058  -0.00065  34.37347
   Y60       25.94594   0.00175   0.00000  -0.00744  -0.00361  25.94233
   Z60       34.65758   0.00035   0.00000   0.00778   0.00507  34.66265
   X61       34.22294  -0.00372   0.00000   0.01456   0.01384  34.23678
   Y61       28.74273   0.01007   0.00000   0.00888   0.01254  28.75527
   Z61       35.26229   0.00806   0.00000   0.01516   0.01333  35.27562
   X62       28.61045  -0.00367   0.00000   0.01090   0.01179  28.62225
   Y62       41.85743   0.02148   0.00000   0.03025   0.03554  41.89297
   Z62       32.67336   0.01037   0.00000   0.01998   0.02296  32.69633
   X63       29.04509   0.00036   0.00000  -0.01728  -0.01651  29.02858
   Y63       40.30786  -0.01274   0.00000  -0.02345  -0.01846  40.28940
   Z63       33.52374  -0.00419   0.00000  -0.02880  -0.02636  33.49738
   X64       28.96950   0.00324   0.00000   0.00195   0.00255  28.97205
   Y64       41.51728  -0.00571   0.00000  -0.00595  -0.00018  41.51711
   Z64       30.93482  -0.00431   0.00000   0.01078   0.01361  30.94842
   X65       35.81031  -0.00141   0.00000  -0.00616  -0.00518  35.80513
   Y65       30.19782   0.00568   0.00000   0.02351   0.02366  30.22148
   Z65       45.92035   0.02049   0.00000   0.02910   0.02750  45.94785
   X66       36.58510   0.01197   0.00000   0.02673   0.02744  36.61254
   Y66       29.97106  -0.00585   0.00000  -0.02223  -0.02170  29.94935
   Z66       44.29518  -0.01179   0.00000   0.01788   0.01609  44.31127
   X67       34.05286  -0.00868   0.00000  -0.01378  -0.01283  34.04003
   Y67       30.34900   0.00290   0.00000   0.01298   0.01351  30.36251
   Z67       45.54240  -0.00047   0.00000   0.00491   0.00361  45.54601
   X68       46.14711   0.00661   0.00000  -0.00373  -0.00340  46.14372
   Y68       30.89702  -0.02156   0.00000  -0.04555  -0.04530  30.85172
   Z68       40.57242   0.01199   0.00000   0.01010   0.00727  40.57969
   X69       45.69358   0.00175   0.00000   0.02495   0.02564  45.71922
   Y69       32.33321   0.00741   0.00000   0.00232   0.00233  32.33555
   Z69       41.57397  -0.00322   0.00000  -0.02354  -0.02585  41.54812
   X70       45.73137   0.00097   0.00000   0.03013   0.03031  45.76168
   Y70       31.38835   0.00730   0.00000   0.00238   0.00320  31.39155
   Z70       38.89056  -0.01429   0.00000  -0.01090  -0.01351  38.87705
   X71       45.59909   0.00680   0.00000   0.00865   0.01069  45.60978
   Y71       45.52350  -0.00116   0.00000   0.00030   0.00171  45.52521
   Z71       37.03863   0.01158   0.00000   0.00678   0.00852  37.04716
   X72       46.07152  -0.00189   0.00000  -0.01397  -0.01218  46.05935
   Y72       45.44791   0.00059   0.00000   0.00096   0.00284  45.45075
   Z72       35.30008  -0.01004   0.00000  -0.01345  -0.01179  35.28830
   X73       43.86054  -0.00529   0.00000  -0.00457  -0.00246  43.85809
   Y73       46.03373  -0.00061   0.00000  -0.01314  -0.01146  46.02227
   Z73       37.01973  -0.00269   0.00000  -0.00584  -0.00370  37.01604
   X74       29.74429   0.00206   0.00000   0.00694   0.00682  29.75111
   Y74       30.40569   0.00139   0.00000   0.00306   0.00660  30.41230
   Z74       37.83232  -0.00984   0.00000  -0.00161  -0.00230  37.83002
   X75       29.87657   0.00028   0.00000  -0.00079  -0.00094  29.87563
   Y75       29.06399  -0.00509   0.00000  -0.00479  -0.00163  29.06236
   Z75       39.04174   0.00661   0.00000   0.00904   0.00791  39.04965
   X76       29.42304  -0.00571   0.00000  -0.02687  -0.02662  29.39641
   Y76       31.87968   0.00546   0.00000   0.00101   0.00430  31.88398
   Z76       38.83387   0.00625   0.00000   0.01173   0.01154  38.84541
   X77       34.71427   0.00395   0.00000  -0.00423  -0.00169  34.71258
   Y77       49.34075   0.00822   0.00000   0.00656   0.00977  49.35052
   Z77       36.50951   0.00116   0.00000  -0.00686  -0.00243  36.50708
   X78       32.93793  -0.00698   0.00000  -0.01634  -0.01375  32.92418
   Y78       49.68090  -0.00066   0.00000  -0.01286  -0.00939  49.67151
   Z78       36.52841  -0.00024   0.00000  -0.00499  -0.00021  36.52820
   X79       34.82765   0.00514   0.00000   0.02352   0.02575  34.85341
   Y79       47.54551  -0.00819   0.00000  -0.00780  -0.00453  47.54098
   Z79       36.24495   0.00126   0.00000   0.01092   0.01478  36.25973
   X80       31.74740  -0.00700   0.00000  -0.01529  -0.01308  31.73432
   Y80       37.37878  -0.01378   0.00000  -0.00971  -0.00929  37.36949
   Z80       47.05418   0.00161   0.00000  -0.01209  -0.01093  47.04325
   X81       30.95371  -0.00309   0.00000   0.00059   0.00275  30.95647
   Y81       38.30475   0.00837   0.00000   0.01950   0.02046  38.32521
   Z81       45.71248  -0.01014   0.00000  -0.02259  -0.02102  45.69145
   X82       33.08910   0.00905   0.00000   0.00049   0.00293  33.09204
   Y82       38.45593   0.00623   0.00000  -0.00709  -0.00704  38.44889
   Z82       47.58330   0.00548   0.00000   0.01287   0.01418  47.59748
   X83       36.41502  -0.00337   0.00000   0.01791   0.02023  36.43525
   Y83       35.52685   0.01654   0.00000   0.02937   0.02824  35.55510
   Z83       49.77539   0.01322   0.00000   0.01189   0.01185  49.78724
   X84       36.67958  -0.00057   0.00000  -0.02219  -0.02015  36.65944
   Y84       35.43236  -0.00721   0.00000  -0.02385  -0.02445  35.40791
   Z84       47.99904  -0.01432   0.00000  -0.01328  -0.01340  47.98564
   X85       37.11422   0.00250   0.00000  -0.01210  -0.00994  37.10428
   Y85       33.99617  -0.01125   0.00000  -0.01397  -0.01539  33.98079
   Z85       50.41789  -0.00135   0.00000  -0.01252  -0.01314  50.40475
   X86       42.42435   0.00189   0.00000   0.01295   0.01227  42.43662
   Y86       26.83411  -0.01642   0.00000  -0.03014  -0.02843  26.80568
   Z86       37.62445  -0.01167   0.00000  -0.00098  -0.00454  37.61991
   X87       44.21959   0.00529   0.00000   0.01290   0.01228  44.23187
   Y87       27.06088   0.00321   0.00000   0.00574   0.00715  27.06802
   Z87       37.71893   0.00654   0.00000   0.03049   0.02676  37.74570
   X88       41.76295  -0.00288   0.00000  -0.00056  -0.00090  41.76204
   Y88       28.06243   0.01570   0.00000   0.03355   0.03502  28.09746
   Z88       38.75828   0.00135   0.00000  -0.04131  -0.04437  38.71391
   X89       43.40701   0.01994   0.00000   0.03365   0.03252  43.43953
   Y89       28.91281  -0.00052   0.00000   0.02977   0.03302  28.94583
   Z89       32.10645  -0.00769   0.00000  -0.01221  -0.01525  32.09120
   X90       41.76295  -0.01724   0.00000  -0.02524  -0.02625  41.73670
   Y90       29.64980  -0.00100   0.00000  -0.04217  -0.03871  29.61109
   Z90       32.25763   0.00357   0.00000   0.00325   0.00065  32.25827
   X91       43.99282  -0.00549   0.00000  -0.02269  -0.02360  43.96922
   Y91       28.79943  -0.00131   0.00000  -0.01379  -0.01115  28.78828
   Z91       33.82610   0.00209   0.00000   0.00569   0.00252  33.82862
   X92       43.55819   0.01367   0.00000   0.02904   0.03211  43.59030
   Y92       44.27628   0.01061   0.00000   0.00421   0.00323  44.27952
   Z92       45.84476  -0.01043   0.00000  -0.02702  -0.02537  45.81938
   X93       44.38967  -0.00032   0.00000  -0.00708  -0.00395  44.38571
   Y93       43.36921  -0.00587   0.00000  -0.00691  -0.00842  43.36079
   Z93       47.16756   0.00536   0.00000   0.00259   0.00384  47.17140
   X94       41.91413  -0.00825   0.00000  -0.00328  -0.00032  41.91380
   Y94       43.53929  -0.00076   0.00000   0.02836   0.02765  43.56694
   Z94       45.75027   0.00606   0.00000   0.02504   0.02670  45.77697
   X95       38.53152   0.00887   0.00000  -0.00477  -0.00141  38.53010
   Y95       44.59754  -0.01540   0.00000  -0.02121  -0.02196  44.57558
   Z95       47.52661   0.00724   0.00000   0.00488   0.00732  47.53393
   X96       37.75673  -0.01139   0.00000  -0.03718  -0.03404  37.72269
   Y96       44.71092  -0.00329   0.00000  -0.02642  -0.02654  44.68438
   Z96       45.90145  -0.01091   0.00000  -0.00342  -0.00084  45.90061
   X97       38.09688  -0.00127   0.00000   0.00832   0.01202  38.10890
   Y97       46.12821   0.01184   0.00000   0.00956   0.00862  46.13684
   Z97       48.35809   0.00523   0.00000  -0.00060   0.00237  48.36046
         Item               Value     Threshold  Converged?
 Maximum Force            0.027029     0.000450     NO 
 RMS     Force            0.009230     0.000300     NO 
 Maximum Displacement     0.055303     0.001800     NO 
 RMS     Displacement     0.017448     0.001200     NO 
 Predicted change in Energy=-2.372219D-02
 GradGradGradGradGradGradGradGradGradGradGradGradGradGradGradGradGradGrad

 Leave Link  103 at Thu May  3 11:51:47 2018, MaxMem= 14763950080 cpu:        66.1
 (Enter /cm/shared/gaussian/g09.e01/intel64-sandybridge/g09/l9999.exe)
 1\1\GINC-POPLE03\Force\RPBE1PBE\CC-pVDZ\Br1H64O32(1-)\M.PELUSO\03-May-
 2018\0\\#p PBE1PBE/cc-pvDZ force Counterpoise=2 noSymm\\forces on chlo
 ride comput - NWATER: 32\\-1,1\Br,20.,20.,20.\O,21.75,21.94,18.26\H,22
 .49,21.48,17.85\H,21.33,21.27,18.79\O,22.22,18.61,18.18\H,22.68,19.3,1
 7.71\H,21.63,19.09,18.77\O,21.36,20.82,22.74\H,20.93,20.87,21.88\H,20.
 91,21.48,23.27\O,16.95,21.51,19.91\H,17.71,21.03,19.59\H,16.76,22.15,1
 9.23\O,21.75,17.08,20.67\H,22.31,17.6,21.24\H,21.22,17.71,20.19\O,19.4
 ,23.4,19.64\H,20.25,23.46,19.21\H,19.18,22.46,19.62\O,18.43,16.86,19.7
 8\H,17.52,16.79,20.06\H,18.58,17.8,19.68\O,18.95,23.22,22.79\H,18.66,2
 2.72,22.03\H,19.07,24.11,22.46\O,23.14,18.51,22.51\H,22.61,19.31,22.55
 \H,23.03,18.09,23.35\O,20.5,16.68,17.08\H,21.08,17.33,17.49\H,19.74,16
 .64,17.66\O,20.3,15.3,22.08\H,21.25,15.21,22.09\H,20.12,15.9,21.35\O,1
 9.74,24.22,17.\H,20.15,23.39,17.23\H,18.8,24.03,17.01\O,16.11,19.69,17
 .45\H,16.87,19.77,16.87\H,15.87,18.77,17.41\O,25.46,19.77,20.79\H,25.7
 ,19.77,19.87\H,24.56,19.45,20.81\O,15.61,21.4,22.59\H,14.96,20.93,22.0
 8\H,16.17,21.83,21.94\O,17.99,19.49,15.44\H,17.58,18.89,14.81\H,18.92,
 19.29,15.39\O,24.83,17.29,18.62\H,23.96,17.65,18.42\H,25.44,17.99,18.4
 \O,20.28,18.34,14.68\H,20.76,18.11,13.89\H,20.9,18.21,15.39\O,23.84,19
 .88,16.32\H,24.76,19.99,16.55\H,23.85,19.31,15.56\O,18.64,14.57,18.19\
 H,18.19,13.73,18.34\H,18.11,15.21,18.66\O,15.14,22.15,17.29\H,15.37,21
 .33,17.74\H,15.33,21.97,16.37\O,18.95,15.98,24.3\H,19.36,15.86,23.44\H
 ,18.02,16.06,24.1\O,24.42,16.35,21.47\H,24.18,17.11,22.\H,24.2,16.61,2
 0.58\O,24.13,24.09,19.6\H,24.38,24.05,18.68\H,23.21,24.36,19.59\O,15.7
 4,16.09,20.02\H,15.81,15.38,20.66\H,15.57,16.87,20.55\O,18.37,26.11,19
 .32\H,17.43,26.29,19.33\H,18.43,25.16,19.18\O,16.8,19.78,24.9\H,16.38,
 20.27,24.19\H,17.51,20.35,25.18\O,19.27,18.8,26.34\H,19.41,18.75,25.4\
 H,19.64,17.99,26.68\O,22.45,14.2,19.91\H,23.4,14.32,19.96\H,22.1,14.85
 ,20.51\O,22.97,15.3,16.99\H,22.1,15.69,17.07\H,23.28,15.24,17.9\O,23.0
 5,23.43,24.26\H,23.49,22.95,24.96\H,22.18,23.04,24.21\O,20.39,23.6,25.
 15\H,19.98,23.66,24.29\H,20.16,24.41,25.59\\Version=ES64L-G09RevE.01\H
 F=-2443.1174809\RMSD=3.143e-09\RMSF=9.230e-03\Dipole=-1.4019973,0.5557
 202,-4.1493334\Quadrupole=5.7090917,184.5927613,-190.301853,-1420.5044
 15,-1673.9059683,-1541.9587962\PG=C01 [X(Br1H64O32)]\\@


 EDUCATION WITHOUT COMMON SENSE IS A LOAD OF BOOKS ON THE BACK OF AN ASS.
 Job cpu time:       0 days  9 hours 53 minutes  0.5 seconds.
 File lengths (MBytes):  RWF=    482 Int=      0 D2E=      0 Chk=    160 Scr=      1
 Normal termination of Gaussian 09 at Thu May  3 11:51:48 2018.
