 Entering Gaussian System, Link 0=/cm/shared/gaussian/g09.e01/intel64-sandybridge/g09/g09
 Initial command:
 /cm/shared/gaussian/g09.e01/intel64-sandybridge/g09/l1.exe "/local/scratch/m.peluso/32_wat/Gau-10392.inp" -scrdir="/local/scratch/m.peluso/32_wat/"
 Entering Link 1 = /cm/shared/gaussian/g09.e01/intel64-sandybridge/g09/l1.exe PID=     10393.
  
 Copyright (c) 1988,1990,1992,1993,1995,1998,2003,2009,2015,
            Gaussian, Inc.  All Rights Reserved.
  
 This is part of the Gaussian(R) 09 program.  It is based on
 the Gaussian(R) 03 system (copyright 2003, Gaussian, Inc.),
 the Gaussian(R) 98 system (copyright 1998, Gaussian, Inc.),
 the Gaussian(R) 94 system (copyright 1995, Gaussian, Inc.),
 the Gaussian 92(TM) system (copyright 1992, Gaussian, Inc.),
 the Gaussian 90(TM) system (copyright 1990, Gaussian, Inc.),
 the Gaussian 88(TM) system (copyright 1988, Gaussian, Inc.),
 the Gaussian 86(TM) system (copyright 1986, Carnegie Mellon
 University), and the Gaussian 82(TM) system (copyright 1983,
 Carnegie Mellon University). Gaussian is a federally registered
 trademark of Gaussian, Inc.
  
 This software contains proprietary and confidential information,
 including trade secrets, belonging to Gaussian, Inc.
  
 This software is provided under written license and may be
 used, copied, transmitted, or stored only in accord with that
 written license.
  
 The following legend is applicable only to US Government
 contracts under FAR:
  
                    RESTRICTED RIGHTS LEGEND
  
 Use, reproduction and disclosure by the US Government is
 subject to restrictions as set forth in subparagraphs (a)
 and (c) of the Commercial Computer Software - Restricted
 Rights clause in FAR 52.227-19.
  
 Gaussian, Inc.
 340 Quinnipiac St., Bldg. 40, Wallingford CT 06492
  
  
 ---------------------------------------------------------------
 Warning -- This program may not be used in any manner that
 competes with the business of Gaussian, Inc. or will provide
 assistance to any competitor of Gaussian, Inc.  The licensee
 of this program is prohibited from giving any competitor of
 Gaussian, Inc. access to this program.  By using this program,
 the user acknowledges that Gaussian, Inc. is engaged in the
 business of creating and licensing software in the field of
 computational chemistry and represents and warrants to the
 licensee that it is not a competitor of Gaussian, Inc. and that
 it will not use this program in any manner prohibited above.
 ---------------------------------------------------------------
  

 Cite this work as:
 Gaussian 09, Revision E.01,
 M. J. Frisch, G. W. Trucks, H. B. Schlegel, G. E. Scuseria, 
 M. A. Robb, J. R. Cheeseman, G. Scalmani, V. Barone, B. Mennucci, 
 G. A. Petersson, H. Nakatsuji, M. Caricato, X. Li, H. P. Hratchian, 
 A. F. Izmaylov, J. Bloino, G. Zheng, J. L. Sonnenberg, M. Hada, 
 M. Ehara, K. Toyota, R. Fukuda, J. Hasegawa, M. Ishida, T. Nakajima, 
 Y. Honda, O. Kitao, H. Nakai, T. Vreven, J. A. Montgomery, Jr., 
 J. E. Peralta, F. Ogliaro, M. Bearpark, J. J. Heyd, E. Brothers, 
 K. N. Kudin, V. N. Staroverov, T. Keith, R. Kobayashi, J. Normand, 
 K. Raghavachari, A. Rendell, J. C. Burant, S. S. Iyengar, J. Tomasi, 
 M. Cossi, N. Rega, J. M. Millam, M. Klene, J. E. Knox, J. B. Cross, 
 V. Bakken, C. Adamo, J. Jaramillo, R. Gomperts, R. E. Stratmann, 
 O. Yazyev, A. J. Austin, R. Cammi, C. Pomelli, J. W. Ochterski, 
 R. L. Martin, K. Morokuma, V. G. Zakrzewski, G. A. Voth, 
 P. Salvador, J. J. Dannenberg, S. Dapprich, A. D. Daniels, 
 O. Farkas, J. B. Foresman, J. V. Ortiz, J. Cioslowski, 
 and D. J. Fox, Gaussian, Inc., Wallingford CT, 2013.
 
 ******************************************
 Gaussian 09:  ES64L-G09RevE.01 30-Nov-2015
                 2-May-2018 
 ******************************************
 %Mem=110GB
 %NProcShared=64
 Will use up to   64 processors via shared memory.
 %chk=snap84.chk
 ----------------------------------------------
 #p PBE1PBE/cc-pvDZ force Counterpoise=2 noSymm
 ----------------------------------------------
 1/10=7,30=1,38=1,62=2/1,3;
 2/12=2,15=1,17=6,18=5,40=1/2;
 1/10=7,30=1,38=1,53=2,62=2,63=101/22;
 3/5=16,11=2,16=1,25=1,30=1,71=1,74=-13/1,2,3;
 4//1;
 5/5=2,38=5/2;
 6/7=2,8=2,9=2,10=2,28=1/1;
 7/7=1,29=1,30=1,33=-1/1,2,3,16;
 1/10=7,30=1,53=2,62=2,63=101/22;
 3/5=7,6=11,11=2,16=1,25=1,30=1,71=1,74=-13,82=7/1,2,3;
 4//1;
 5/5=2,38=5/2;
 6/7=2,8=2,9=2,10=2,28=1/1;
 7/7=1,29=1,30=1,33=-1/1,2,3,16;
 1/10=7,30=1,53=2,62=2,63=101/22(-5);
 7/9=1,29=1,44=-1/16;
 1/10=7,30=1,62=2/3;
 99//99;
 Leave Link    1 at Wed May  2 19:36:09 2018, MaxMem= 14763950080 cpu:         5.8
 (Enter /cm/shared/gaussian/g09.e01/intel64-sandybridge/g09/l101.exe)
 --------------------------------------
 forces on chloride comput - NWATER: 32
 --------------------------------------
 Symbolic Z-matrix:
 Charge = -1 Multiplicity = 1 in supermolecule
 Charge = -1 Multiplicity = 1 in fragment      1.
 Charge =  0 Multiplicity = 1 in fragment      2.
 Br(Fragment=1)        20.       20.       20. 
 O(Fragment=2)         17.85     17.89     19.65 
 H(Fragment=2)         17.82     17.54     20.54 
 H(Fragment=2)         18.65     18.41     19.63 
 O(Fragment=2)         17.43     21.89     19.71 
 H(Fragment=2)         17.92     22.62     19.32 
 H(Fragment=2)         18.07     21.18     19.78 
 O(Fragment=2)         22.31     17.89     20.08 
 H(Fragment=2)         21.66     17.42     19.56 
 H(Fragment=2)         21.88     18.71     20.31 
 O(Fragment=2)         19.89     21.49     23.14 
 H(Fragment=2)         19.9      21.43     22.19 
 H(Fragment=2)         19.72     20.59     23.43 
 O(Fragment=2)         22.78     21.91     18.84 
 H(Fragment=2)         21.92     21.57     19.07 
 H(Fragment=2)         23.26     21.16     18.49 
 O(Fragment=2)         20.3      21.96     16.53 
 H(Fragment=2)         20.23     21.32     17.25 
 H(Fragment=2)         19.77     22.7      16.82 
 O(Fragment=2)         20.67     16.82     22.36 
 H(Fragment=2)         20.9      17.35     21.59 
 H(Fragment=2)         19.84     16.41     22.13 
 O(Fragment=2)         19.52     17.49     16.86 
 H(Fragment=2)         19.53     17.61     17.81 
 H(Fragment=2)         18.73     17.95     16.57 
 O(Fragment=2)         20.4      16.22     19.16 
 H(Fragment=2)         20.12     15.89     20.01 
 H(Fragment=2)         19.86     15.75     18.53 
 O(Fragment=2)         19.23     18.98     23.84 
 H(Fragment=2)         19.88     18.33     23.57 
 H(Fragment=2)         18.46     18.47     24.08 
 O(Fragment=2)         20.84     24.52     19.83 
 H(Fragment=2)         21.16     23.83     20.4 
 H(Fragment=2)         21.19     25.33     20.2 
 O(Fragment=2)         16.25     19.43     22.52 
 H(Fragment=2)         16.93     20.1      22.61 
 H(Fragment=2)         15.63     19.62     23.22 
 O(Fragment=2)         23.86     21.83     22.05 
 H(Fragment=2)         23.1      22.15     21.57 
 H(Fragment=2)         23.5      21.55     22.9 
 O(Fragment=2)         21.43     19.06     15.59 
 H(Fragment=2)         21.39     20.02     15.64 
 H(Fragment=2)         20.72     18.76     16.16 
 O(Fragment=2)         21.47     23.55     22.47 
 H(Fragment=2)         20.77     24.18     22.29 
 H(Fragment=2)         21.04     22.84     22.95 
 O(Fragment=2)         15.18     20.38     18.57 
 H(Fragment=2)         15.84     20.51     19.25 
 H(Fragment=2)         14.91     21.27     18.33 
 O(Fragment=2)         23.99     19.44     18.23 
 H(Fragment=2)         23.69     18.55     18.43 
 H(Fragment=2)         24.53     19.34     17.44 
 O(Fragment=2)         19.08     24.25     17.67 
 H(Fragment=2)         19.6      24.2      18.47 
 H(Fragment=2)         19.2      25.15     17.37 
 O(Fragment=2)         24.37     17.22     21.74 
 H(Fragment=2)         23.53     17.38     21.3 
 H(Fragment=2)         24.9      18.       21.54 
 O(Fragment=2)         17.5      15.39     18.41 
 H(Fragment=2)         17.59     16.27     18.79 
 H(Fragment=2)         17.29     15.56     17.49 
 O(Fragment=2)         16.38     18.59     16.68 
 H(Fragment=2)         16.25     17.64     16.58 
 H(Fragment=2)         16.24     18.76     17.61 
 O(Fragment=2)         18.23     15.8      21.48 
 H(Fragment=2)         17.28     15.92     21.5 
 H(Fragment=2)         18.37     14.88     21.72 
 O(Fragment=2)         15.07     23.02     20.54 
 H(Fragment=2)         15.95     22.64     20.51 
 H(Fragment=2)         15.11     23.76     19.93 
 O(Fragment=2)         23.12     24.55     17.91 
 H(Fragment=2)         22.29     24.95     17.66 
 H(Fragment=2)         22.87     23.7      18.29 
 O(Fragment=2)         15.73     16.73     21.83 
 H(Fragment=2)         16.07     17.62     21.94 
 H(Fragment=2)         14.86     16.75     22.22 
 O(Fragment=2)         18.81     21.52     14.17 
 H(Fragment=2)         19.2      22.12     13.53 
 H(Fragment=2)         19.21     21.77     15. 
 O(Fragment=2)         19.67     22.35     25.83 
 H(Fragment=2)         19.12     23.11     26.03 
 H(Fragment=2)         19.31     22.01     25.01 
 O(Fragment=2)         22.76     20.73     24.64 
 H(Fragment=2)         23.22     19.95     24.94 
 H(Fragment=2)         21.9      20.68     25.06 
 O(Fragment=2)         25.44     22.93     19.21 
 H(Fragment=2)         24.55     22.8      18.89 
 H(Fragment=2)         25.85     23.51     18.56 
 O(Fragment=2)         21.51     15.49     15.97 
 H(Fragment=2)         22.35     15.85     16.28 
 H(Fragment=2)         20.87     16.17     16.19 
 O(Fragment=2)         19.       25.23     22.38 
 H(Fragment=2)         18.4      25.28     23.13 
 H(Fragment=2)         18.42     25.13     21.62 
 O(Fragment=2)         17.68     16.62     24.32 
 H(Fragment=2)         16.76     16.4      24.47 
 H(Fragment=2)         17.93     16.12     23.54 
 
 NAtoms=     97 NQM=       97 NQMF=       0 NMMI=      0 NMMIF=      0
                NMic=       0 NMicF=      0.
                    Isotopes and Nuclear Properties:
 (Nuclear quadrupole moments (NQMom) in fm**2, nuclear magnetic moments (NMagM)
  in nuclear magnetons)

  Atom         1           2           3           4           5           6           7           8           9          10
 IAtWgt=          79          16           1           1          16           1           1          16           1           1
 AtmWgt=  78.9183361  15.9949146   1.0078250   1.0078250  15.9949146   1.0078250   1.0078250  15.9949146   1.0078250   1.0078250
 NucSpn=           3           0           1           1           0           1           1           0           1           1
 AtZEff=   0.0000000   0.0000000   0.0000000   0.0000000   0.0000000   0.0000000   0.0000000   0.0000000   0.0000000   0.0000000
 NQMom=   31.3000000   0.0000000   0.0000000   0.0000000   0.0000000   0.0000000   0.0000000   0.0000000   0.0000000   0.0000000
 NMagM=    2.1063990   0.0000000   2.7928460   2.7928460   0.0000000   2.7928460   2.7928460   0.0000000   2.7928460   2.7928460
 AtZNuc=  35.0000000   8.0000000   1.0000000   1.0000000   8.0000000   1.0000000   1.0000000   8.0000000   1.0000000   1.0000000

  Atom        11          12          13          14          15          16          17          18          19          20
 IAtWgt=          16           1           1          16           1           1          16           1           1          16
 AtmWgt=  15.9949146   1.0078250   1.0078250  15.9949146   1.0078250   1.0078250  15.9949146   1.0078250   1.0078250  15.9949146
 NucSpn=           0           1           1           0           1           1           0           1           1           0
 AtZEff=   0.0000000   0.0000000   0.0000000   0.0000000   0.0000000   0.0000000   0.0000000   0.0000000   0.0000000   0.0000000
 NQMom=    0.0000000   0.0000000   0.0000000   0.0000000   0.0000000   0.0000000   0.0000000   0.0000000   0.0000000   0.0000000
 NMagM=    0.0000000   2.7928460   2.7928460   0.0000000   2.7928460   2.7928460   0.0000000   2.7928460   2.7928460   0.0000000
 AtZNuc=   8.0000000   1.0000000   1.0000000   8.0000000   1.0000000   1.0000000   8.0000000   1.0000000   1.0000000   8.0000000

  Atom        21          22          23          24          25          26          27          28          29          30
 IAtWgt=           1           1          16           1           1          16           1           1          16           1
 AtmWgt=   1.0078250   1.0078250  15.9949146   1.0078250   1.0078250  15.9949146   1.0078250   1.0078250  15.9949146   1.0078250
 NucSpn=           1           1           0           1           1           0           1           1           0           1
 AtZEff=   0.0000000   0.0000000   0.0000000   0.0000000   0.0000000   0.0000000   0.0000000   0.0000000   0.0000000   0.0000000
 NQMom=    0.0000000   0.0000000   0.0000000   0.0000000   0.0000000   0.0000000   0.0000000   0.0000000   0.0000000   0.0000000
 NMagM=    2.7928460   2.7928460   0.0000000   2.7928460   2.7928460   0.0000000   2.7928460   2.7928460   0.0000000   2.7928460
 AtZNuc=   1.0000000   1.0000000   8.0000000   1.0000000   1.0000000   8.0000000   1.0000000   1.0000000   8.0000000   1.0000000

  Atom        31          32          33          34          35          36          37          38          39          40
 IAtWgt=           1          16           1           1          16           1           1          16           1           1
 AtmWgt=   1.0078250  15.9949146   1.0078250   1.0078250  15.9949146   1.0078250   1.0078250  15.9949146   1.0078250   1.0078250
 NucSpn=           1           0           1           1           0           1           1           0           1           1
 AtZEff=   0.0000000   0.0000000   0.0000000   0.0000000   0.0000000   0.0000000   0.0000000   0.0000000   0.0000000   0.0000000
 NQMom=    0.0000000   0.0000000   0.0000000   0.0000000   0.0000000   0.0000000   0.0000000   0.0000000   0.0000000   0.0000000
 NMagM=    2.7928460   0.0000000   2.7928460   2.7928460   0.0000000   2.7928460   2.7928460   0.0000000   2.7928460   2.7928460
 AtZNuc=   1.0000000   8.0000000   1.0000000   1.0000000   8.0000000   1.0000000   1.0000000   8.0000000   1.0000000   1.0000000

  Atom        41          42          43          44          45          46          47          48          49          50
 IAtWgt=          16           1           1          16           1           1          16           1           1          16
 AtmWgt=  15.9949146   1.0078250   1.0078250  15.9949146   1.0078250   1.0078250  15.9949146   1.0078250   1.0078250  15.9949146
 NucSpn=           0           1           1           0           1           1           0           1           1           0
 AtZEff=   0.0000000   0.0000000   0.0000000   0.0000000   0.0000000   0.0000000   0.0000000   0.0000000   0.0000000   0.0000000
 NQMom=    0.0000000   0.0000000   0.0000000   0.0000000   0.0000000   0.0000000   0.0000000   0.0000000   0.0000000   0.0000000
 NMagM=    0.0000000   2.7928460   2.7928460   0.0000000   2.7928460   2.7928460   0.0000000   2.7928460   2.7928460   0.0000000
 AtZNuc=   8.0000000   1.0000000   1.0000000   8.0000000   1.0000000   1.0000000   8.0000000   1.0000000   1.0000000   8.0000000

  Atom        51          52          53          54          55          56          57          58          59          60
 IAtWgt=           1           1          16           1           1          16           1           1          16           1
 AtmWgt=   1.0078250   1.0078250  15.9949146   1.0078250   1.0078250  15.9949146   1.0078250   1.0078250  15.9949146   1.0078250
 NucSpn=           1           1           0           1           1           0           1           1           0           1
 AtZEff=   0.0000000   0.0000000   0.0000000   0.0000000   0.0000000   0.0000000   0.0000000   0.0000000   0.0000000   0.0000000
 NQMom=    0.0000000   0.0000000   0.0000000   0.0000000   0.0000000   0.0000000   0.0000000   0.0000000   0.0000000   0.0000000
 NMagM=    2.7928460   2.7928460   0.0000000   2.7928460   2.7928460   0.0000000   2.7928460   2.7928460   0.0000000   2.7928460
 AtZNuc=   1.0000000   1.0000000   8.0000000   1.0000000   1.0000000   8.0000000   1.0000000   1.0000000   8.0000000   1.0000000

  Atom        61          62          63          64          65          66          67          68          69          70
 IAtWgt=           1          16           1           1          16           1           1          16           1           1
 AtmWgt=   1.0078250  15.9949146   1.0078250   1.0078250  15.9949146   1.0078250   1.0078250  15.9949146   1.0078250   1.0078250
 NucSpn=           1           0           1           1           0           1           1           0           1           1
 AtZEff=   0.0000000   0.0000000   0.0000000   0.0000000   0.0000000   0.0000000   0.0000000   0.0000000   0.0000000   0.0000000
 NQMom=    0.0000000   0.0000000   0.0000000   0.0000000   0.0000000   0.0000000   0.0000000   0.0000000   0.0000000   0.0000000
 NMagM=    2.7928460   0.0000000   2.7928460   2.7928460   0.0000000   2.7928460   2.7928460   0.0000000   2.7928460   2.7928460
 AtZNuc=   1.0000000   8.0000000   1.0000000   1.0000000   8.0000000   1.0000000   1.0000000   8.0000000   1.0000000   1.0000000

  Atom        71          72          73          74          75          76          77          78          79          80
 IAtWgt=          16           1           1          16           1           1          16           1           1          16
 AtmWgt=  15.9949146   1.0078250   1.0078250  15.9949146   1.0078250   1.0078250  15.9949146   1.0078250   1.0078250  15.9949146
 NucSpn=           0           1           1           0           1           1           0           1           1           0
 AtZEff=   0.0000000   0.0000000   0.0000000   0.0000000   0.0000000   0.0000000   0.0000000   0.0000000   0.0000000   0.0000000
 NQMom=    0.0000000   0.0000000   0.0000000   0.0000000   0.0000000   0.0000000   0.0000000   0.0000000   0.0000000   0.0000000
 NMagM=    0.0000000   2.7928460   2.7928460   0.0000000   2.7928460   2.7928460   0.0000000   2.7928460   2.7928460   0.0000000
 AtZNuc=   8.0000000   1.0000000   1.0000000   8.0000000   1.0000000   1.0000000   8.0000000   1.0000000   1.0000000   8.0000000

  Atom        81          82          83          84          85          86          87          88          89          90
 IAtWgt=           1           1          16           1           1          16           1           1          16           1
 AtmWgt=   1.0078250   1.0078250  15.9949146   1.0078250   1.0078250  15.9949146   1.0078250   1.0078250  15.9949146   1.0078250
 NucSpn=           1           1           0           1           1           0           1           1           0           1
 AtZEff=   0.0000000   0.0000000   0.0000000   0.0000000   0.0000000   0.0000000   0.0000000   0.0000000   0.0000000   0.0000000
 NQMom=    0.0000000   0.0000000   0.0000000   0.0000000   0.0000000   0.0000000   0.0000000   0.0000000   0.0000000   0.0000000
 NMagM=    2.7928460   2.7928460   0.0000000   2.7928460   2.7928460   0.0000000   2.7928460   2.7928460   0.0000000   2.7928460
 AtZNuc=   1.0000000   1.0000000   8.0000000   1.0000000   1.0000000   8.0000000   1.0000000   1.0000000   8.0000000   1.0000000

  Atom        91          92          93          94          95          96          97
 IAtWgt=           1          16           1           1          16           1           1
 AtmWgt=   1.0078250  15.9949146   1.0078250   1.0078250  15.9949146   1.0078250   1.0078250
 NucSpn=           1           0           1           1           0           1           1
 AtZEff=   0.0000000   0.0000000   0.0000000   0.0000000   0.0000000   0.0000000   0.0000000
 NQMom=    0.0000000   0.0000000   0.0000000   0.0000000   0.0000000   0.0000000   0.0000000
 NMagM=    2.7928460   0.0000000   2.7928460   2.7928460   0.0000000   2.7928460   2.7928460
 AtZNuc=   1.0000000   8.0000000   1.0000000   1.0000000   8.0000000   1.0000000   1.0000000
 Leave Link  101 at Wed May  2 19:36:10 2018, MaxMem= 14763950080 cpu:        12.1
 (Enter /cm/shared/gaussian/g09.e01/intel64-sandybridge/g09/l103.exe)

 GradGradGradGradGradGradGradGradGradGradGradGradGradGradGradGradGradGrad
 Berny optimization.
 Initialization pass.
 Trust Radius=3.00D-01 FncErr=1.00D-07 GrdErr=1.00D-07
 Number of steps in this run=      2 maximum allowed number of steps=      2.
 GradGradGradGradGradGradGradGradGradGradGradGradGradGradGradGradGradGrad

 Leave Link  103 at Wed May  2 19:36:10 2018, MaxMem= 14763950080 cpu:         1.7
 (Enter /cm/shared/gaussian/g09.e01/intel64-sandybridge/g09/l202.exe)
 Symmetry turned off by external request.
 Stoichiometry    BrH64O32(1-)
 Framework group  C1[X(BrH64O32)]
 Deg. of freedom   285
 Full point group                 C1      NOp   1
                          Input orientation:                          
 ---------------------------------------------------------------------
 Center     Atomic      Atomic             Coordinates (Angstroms)
 Number     Number       Type             X           Y           Z
 ---------------------------------------------------------------------
      1         35           0       20.000000   20.000000   20.000000
      2          8           0       17.850000   17.890000   19.650000
      3          1           0       17.820000   17.540000   20.540000
      4          1           0       18.650000   18.410000   19.630000
      5          8           0       17.430000   21.890000   19.710000
      6          1           0       17.920000   22.620000   19.320000
      7          1           0       18.070000   21.180000   19.780000
      8          8           0       22.310000   17.890000   20.080000
      9          1           0       21.660000   17.420000   19.560000
     10          1           0       21.880000   18.710000   20.310000
     11          8           0       19.890000   21.490000   23.140000
     12          1           0       19.900000   21.430000   22.190000
     13          1           0       19.720000   20.590000   23.430000
     14          8           0       22.780000   21.910000   18.840000
     15          1           0       21.920000   21.570000   19.070000
     16          1           0       23.260000   21.160000   18.490000
     17          8           0       20.300000   21.960000   16.530000
     18          1           0       20.230000   21.320000   17.250000
     19          1           0       19.770000   22.700000   16.820000
     20          8           0       20.670000   16.820000   22.360000
     21          1           0       20.900000   17.350000   21.590000
     22          1           0       19.840000   16.410000   22.130000
     23          8           0       19.520000   17.490000   16.860000
     24          1           0       19.530000   17.610000   17.810000
     25          1           0       18.730000   17.950000   16.570000
     26          8           0       20.400000   16.220000   19.160000
     27          1           0       20.120000   15.890000   20.010000
     28          1           0       19.860000   15.750000   18.530000
     29          8           0       19.230000   18.980000   23.840000
     30          1           0       19.880000   18.330000   23.570000
     31          1           0       18.460000   18.470000   24.080000
     32          8           0       20.840000   24.520000   19.830000
     33          1           0       21.160000   23.830000   20.400000
     34          1           0       21.190000   25.330000   20.200000
     35          8           0       16.250000   19.430000   22.520000
     36          1           0       16.930000   20.100000   22.610000
     37          1           0       15.630000   19.620000   23.220000
     38          8           0       23.860000   21.830000   22.050000
     39          1           0       23.100000   22.150000   21.570000
     40          1           0       23.500000   21.550000   22.900000
     41          8           0       21.430000   19.060000   15.590000
     42          1           0       21.390000   20.020000   15.640000
     43          1           0       20.720000   18.760000   16.160000
     44          8           0       21.470000   23.550000   22.470000
     45          1           0       20.770000   24.180000   22.290000
     46          1           0       21.040000   22.840000   22.950000
     47          8           0       15.180000   20.380000   18.570000
     48          1           0       15.840000   20.510000   19.250000
     49          1           0       14.910000   21.270000   18.330000
     50          8           0       23.990000   19.440000   18.230000
     51          1           0       23.690000   18.550000   18.430000
     52          1           0       24.530000   19.340000   17.440000
     53          8           0       19.080000   24.250000   17.670000
     54          1           0       19.600000   24.200000   18.470000
     55          1           0       19.200000   25.150000   17.370000
     56          8           0       24.370000   17.220000   21.740000
     57          1           0       23.530000   17.380000   21.300000
     58          1           0       24.900000   18.000000   21.540000
     59          8           0       17.500000   15.390000   18.410000
     60          1           0       17.590000   16.270000   18.790000
     61          1           0       17.290000   15.560000   17.490000
     62          8           0       16.380000   18.590000   16.680000
     63          1           0       16.250000   17.640000   16.580000
     64          1           0       16.240000   18.760000   17.610000
     65          8           0       18.230000   15.800000   21.480000
     66          1           0       17.280000   15.920000   21.500000
     67          1           0       18.370000   14.880000   21.720000
     68          8           0       15.070000   23.020000   20.540000
     69          1           0       15.950000   22.640000   20.510000
     70          1           0       15.110000   23.760000   19.930000
     71          8           0       23.120000   24.550000   17.910000
     72          1           0       22.290000   24.950000   17.660000
     73          1           0       22.870000   23.700000   18.290000
     74          8           0       15.730000   16.730000   21.830000
     75          1           0       16.070000   17.620000   21.940000
     76          1           0       14.860000   16.750000   22.220000
     77          8           0       18.810000   21.520000   14.170000
     78          1           0       19.200000   22.120000   13.530000
     79          1           0       19.210000   21.770000   15.000000
     80          8           0       19.670000   22.350000   25.830000
     81          1           0       19.120000   23.110000   26.030000
     82          1           0       19.310000   22.010000   25.010000
     83          8           0       22.760000   20.730000   24.640000
     84          1           0       23.220000   19.950000   24.940000
     85          1           0       21.900000   20.680000   25.060000
     86          8           0       25.440000   22.930000   19.210000
     87          1           0       24.550000   22.800000   18.890000
     88          1           0       25.850000   23.510000   18.560000
     89          8           0       21.510000   15.490000   15.970000
     90          1           0       22.350000   15.850000   16.280000
     91          1           0       20.870000   16.170000   16.190000
     92          8           0       19.000000   25.230000   22.380000
     93          1           0       18.400000   25.280000   23.130000
     94          1           0       18.420000   25.130000   21.620000
     95          8           0       17.680000   16.620000   24.320000
     96          1           0       16.760000   16.400000   24.470000
     97          1           0       17.930000   16.120000   23.540000
 ---------------------------------------------------------------------
 Rotational constants (GHZ):      0.0600464      0.0547201      0.0496665
 Leave Link  202 at Wed May  2 19:36:10 2018, MaxMem= 14763950080 cpu:         0.6
 (Enter /cm/shared/gaussian/g09.e01/intel64-sandybridge/g09/l122.exe)
 Counterpoise: doing full dimer calculation.
 Leave Link  122 at Wed May  2 19:36:10 2018, MaxMem= 14763950080 cpu:         0.0
 (Enter /cm/shared/gaussian/g09.e01/intel64-sandybridge/g09/l301.exe)
 Standard basis: CC-pVDZ (5D, 7F)
 Ernie: Thresh=  0.10000D-02 Tol=  0.10000D-05 Strict=F.
 Ernie:  87 primitive shells out of 1114 were deleted.
   795 basis functions,  1651 primitive gaussians,   829 cartesian basis functions
   178 alpha electrons      178 beta electrons
       nuclear repulsion energy      6109.0626093258 Hartrees.
 IExCor= 1009 DFT=T Ex+Corr=PBE1PBE ExCW=0 ScaHFX=  0.250000
 ScaDFX=  0.750000  0.750000  1.000000  1.000000 ScalE2=  1.000000  1.000000
 IRadAn=      0 IRanWt=     -1 IRanGd=            0 ICorTp=0 IEmpDi=  4
 NAtoms=   97 NActive=   97 NUniq=   97 SFac= 1.00D+00 NAtFMM=   60 NAOKFM=T Big=T
 Integral buffers will be    131072 words long.
 Raffenetti 2 integral format.
 Two-electron integral symmetry is turned off.
 Leave Link  301 at Wed May  2 19:36:10 2018, MaxMem= 14763950080 cpu:         4.3
 (Enter /cm/shared/gaussian/g09.e01/intel64-sandybridge/g09/l302.exe)
 NPDir=0 NMtPBC=     1 NCelOv=     1 NCel=       1 NClECP=     1 NCelD=      1
         NCelK=      1 NCelE2=     1 NClLst=     1 CellRange=     0.0.
 One-electron integrals computed using PRISM.
 NBasis=   795 RedAO= T EigKep=  1.26D-02  NBF=   795
 NBsUse=   795 1.00D-06 EigRej= -1.00D+00 NBFU=   795
 Precomputing XC quadrature grid using
 IXCGrd= 4 IRadAn=           0 IRanWt=          -1 IRanGd=           0 AccXCQ= 0.00D+00.
 Generated NRdTot=       0 NPtTot=           0 NUsed=           0 NTot=          32
 NSgBfM=   709   710   726   736   743 MxSgAt=    97 MxSgA2=    97.
 Leave Link  302 at Wed May  2 19:36:15 2018, MaxMem= 14763950080 cpu:       334.8
 (Enter /cm/shared/gaussian/g09.e01/intel64-sandybridge/g09/l303.exe)
 DipDrv:  MaxL=1.
 Leave Link  303 at Wed May  2 19:36:17 2018, MaxMem= 14763950080 cpu:        29.2
 (Enter /cm/shared/gaussian/g09.e01/intel64-sandybridge/g09/l401.exe)
 ExpMin= 1.22D-01 ExpMax= 6.40D+05 ExpMxC= 6.18D+03 IAcc=2 IRadAn=         4 AccDes= 0.00D+00
 Harris functional with IExCor= 1009 and IRadAn=       4 diagonalized for initial guess.
 HarFok:  IExCor= 1009 AccDes= 0.00D+00 IRadAn=         4 IDoV= 1 UseB2=F ITyADJ=14
 ICtDFT=  3500011 ScaDFX=  1.000000  1.000000  1.000000  1.000000
 FoFCou: FMM=F IPFlag=           0 FMFlag=      100000 FMFlg1=        2001
         NFxFlg=           0 DoJE=T BraDBF=F KetDBF=T FulRan=T
         wScrn=  0.000000 ICntrl=     500 IOpCl=  0 I1Cent=   200000004 NGrid=           0
         NMat0=    1 NMatS0=      1 NMatT0=    0 NMatD0=    1 NMtDS0=    0 NMtDT0=    0
 Symmetry not used in FoFCou.
 Harris En= -5018.42864205703    
 JPrj=0 DoOrth=F DoCkMO=F.
 Leave Link  401 at Wed May  2 19:36:22 2018, MaxMem= 14763950080 cpu:       321.5
 (Enter /cm/shared/gaussian/g09.e01/intel64-sandybridge/g09/l502.exe)
 Closed shell SCF:
 Using DIIS extrapolation, IDIIS=  1040.
 Two-electron integral symmetry not used.
 IVT=     2138497 IEndB=     2138497 NGot= 14763950080 MDV= 14762516294
 LenX= 14762516294 LenY= 14761828224
 Requested convergence on RMS density matrix=1.00D-08 within 128 cycles.
 Requested convergence on MAX density matrix=1.00D-06.
 Requested convergence on             energy=1.00D-06.
 No special actions if energy rises.
 Fock matrices will be formed incrementally for  20 cycles.
 Integral accuracy reduced to 1.0D-05 until final iterations.

 Cycle   1  Pass 0  IDiag  1:
 FoFJK:  IHMeth= 1 ICntrl=       0 DoSepK=F KAlg= 0 I1Cent=   0 FoldK=F
 IRaf= 830000000 NMat=   1 IRICut=       1 DoRegI=T DoRafI=F ISym2E= 0.
 FoFCou: FMM=T IPFlag=           0 FMFlag=      100000 FMFlg1=        2001
         NFxFlg=           0 DoJE=F BraDBF=F KetDBF=F FulRan=T
         wScrn=  0.000000 ICntrl=       0 IOpCl=  0 I1Cent=           0 NGrid=           0
         NMat0=    1 NMatS0=      1 NMatT0=    0 NMatD0=    1 NMtDS0=    0 NMtDT0=    0
 Symmetry not used in FoFCou.
 FMM levels:  10  Number of levels for PrismC:   9
 E= -5015.31260547042    
 DIIS: error= 3.30D-02 at cycle   1 NSaved=   1.
 NSaved= 1 IEnMin= 1 EnMin= -5015.31260547042     IErMin= 1 ErrMin= 3.30D-02
 ErrMax= 3.30D-02  0.00D+00 EMaxC= 1.00D-01 BMatC= 2.70D+00 BMatP= 2.70D+00
 IDIUse=3 WtCom= 6.70D-01 WtEn= 3.30D-01
 Coeff-Com:  0.100D+01
 Coeff-En:   0.100D+01
 Coeff:      0.100D+01
 Gap=     0.310 Goal=   None    Shift=    0.000
 GapD=    0.310 DampG=1.000 DampE=0.500 DampFc=0.5000 IDamp=-1.
 Damping current iteration by 5.00D-01
 RMSDP=2.83D-03 MaxDP=1.57D-01              OVMax= 1.78D-01

 Cycle   2  Pass 0  IDiag  1:
 RMSU=  1.40D-03    CP:  9.85D-01
 E= -5016.10453299212     Delta-E=       -0.791927521694 Rises=F Damp=T
 DIIS: error= 7.24D-03 at cycle   2 NSaved=   2.
 NSaved= 2 IEnMin= 2 EnMin= -5016.10453299212     IErMin= 2 ErrMin= 7.24D-03
 ErrMax= 7.24D-03  0.00D+00 EMaxC= 1.00D-01 BMatC= 8.59D-02 BMatP= 2.70D+00
 IDIUse=3 WtCom= 9.28D-01 WtEn= 7.24D-02
 Coeff-Com:  0.119D+00 0.881D+00
 Coeff-En:   0.212D+00 0.788D+00
 Coeff:      0.126D+00 0.874D+00
 Gap=     0.189 Goal=   None    Shift=    0.000
 RMSDP=3.45D-04 MaxDP=1.73D-02 DE=-7.92D-01 OVMax= 9.64D-02

 Cycle   3  Pass 0  IDiag  1:
 RMSU=  2.74D-04    CP:  9.87D-01  8.51D-01
 E= -5017.24833044759     Delta-E=       -1.143797455474 Rises=F Damp=F
 DIIS: error= 1.03D-03 at cycle   3 NSaved=   3.
 NSaved= 3 IEnMin= 3 EnMin= -5017.24833044759     IErMin= 3 ErrMin= 1.03D-03
 ErrMax= 1.03D-03  0.00D+00 EMaxC= 1.00D-01 BMatC= 1.67D-03 BMatP= 8.59D-02
 IDIUse=3 WtCom= 9.90D-01 WtEn= 1.03D-02
 Coeff-Com:  0.882D-02 0.656D-01 0.926D+00
 Coeff-En:   0.000D+00 0.000D+00 0.100D+01
 Coeff:      0.873D-02 0.650D-01 0.926D+00
 Gap=     0.202 Goal=   None    Shift=    0.000
 RMSDP=9.20D-05 MaxDP=1.37D-02 DE=-1.14D+00 OVMax= 1.68D-02

 Cycle   4  Pass 0  IDiag  1:
 RMSU=  8.13D-05    CP:  9.87D-01  8.54D-01  8.43D-01
 E= -5017.24871156329     Delta-E=       -0.000381115702 Rises=F Damp=F
 DIIS: error= 1.11D-03 at cycle   4 NSaved=   4.
 NSaved= 4 IEnMin= 4 EnMin= -5017.24871156329     IErMin= 3 ErrMin= 1.03D-03
 ErrMax= 1.11D-03  0.00D+00 EMaxC= 1.00D-01 BMatC= 1.65D-03 BMatP= 1.67D-03
 IDIUse=3 WtCom= 9.89D-01 WtEn= 1.11D-02
 Coeff-Com:  0.196D-02 0.775D-02 0.497D+00 0.494D+00
 Coeff-En:   0.000D+00 0.000D+00 0.433D+00 0.567D+00
 Coeff:      0.194D-02 0.766D-02 0.496D+00 0.495D+00
 Gap=     0.201 Goal=   None    Shift=    0.000
 RMSDP=3.97D-05 MaxDP=5.25D-03 DE=-3.81D-04 OVMax= 5.58D-03

 Cycle   5  Pass 0  IDiag  1:
 RMSU=  1.66D-05    CP:  9.87D-01  8.52D-01  8.99D-01  5.99D-01
 E= -5017.24999654792     Delta-E=       -0.001284984624 Rises=F Damp=F
 DIIS: error= 1.08D-04 at cycle   5 NSaved=   5.
 NSaved= 5 IEnMin= 5 EnMin= -5017.24999654792     IErMin= 5 ErrMin= 1.08D-04
 ErrMax= 1.08D-04  0.00D+00 EMaxC= 1.00D-01 BMatC= 3.60D-05 BMatP= 1.65D-03
 IDIUse=3 WtCom= 9.99D-01 WtEn= 1.08D-03
 Coeff-Com:  0.664D-03-0.135D-02 0.143D+00 0.183D+00 0.675D+00
 Coeff-En:   0.000D+00 0.000D+00 0.000D+00 0.000D+00 0.100D+01
 Coeff:      0.664D-03-0.135D-02 0.143D+00 0.182D+00 0.675D+00
 Gap=     0.201 Goal=   None    Shift=    0.000
 RMSDP=8.22D-06 MaxDP=1.23D-03 DE=-1.28D-03 OVMax= 1.35D-03

 Cycle   6  Pass 0  IDiag  1:
 RMSU=  5.42D-06    CP:  9.87D-01  8.51D-01  9.09D-01  5.80D-01  6.90D-01
 E= -5017.25002333687     Delta-E=       -0.000026788950 Rises=F Damp=F
 DIIS: error= 1.15D-04 at cycle   6 NSaved=   6.
 NSaved= 6 IEnMin= 6 EnMin= -5017.25002333687     IErMin= 5 ErrMin= 1.08D-04
 ErrMax= 1.15D-04  0.00D+00 EMaxC= 1.00D-01 BMatC= 3.95D-06 BMatP= 3.60D-05
 IDIUse=3 WtCom= 9.99D-01 WtEn= 1.08D-03
 Coeff-Com:  0.138D-03-0.190D-02 0.330D-01 0.447D-01 0.285D+00 0.639D+00
 Coeff-En:   0.000D+00 0.000D+00 0.000D+00 0.000D+00 0.000D+00 0.100D+01
 Coeff:      0.138D-03-0.190D-02 0.330D-01 0.447D-01 0.285D+00 0.639D+00
 Gap=     0.201 Goal=   None    Shift=    0.000
 RMSDP=2.39D-06 MaxDP=4.60D-04 DE=-2.68D-05 OVMax= 4.05D-04

 Initial convergence to 1.0D-05 achieved.  Increase integral accuracy.
 Cycle   7  Pass 1  IDiag  1:
 E= -5017.25073539884     Delta-E=       -0.000712061968 Rises=F Damp=F
 DIIS: error= 2.44D-05 at cycle   1 NSaved=   1.
 NSaved= 1 IEnMin= 1 EnMin= -5017.25073539884     IErMin= 1 ErrMin= 2.44D-05
 ErrMax= 2.44D-05  0.00D+00 EMaxC= 1.00D-01 BMatC= 1.45D-06 BMatP= 1.45D-06
 IDIUse=1 WtCom= 1.00D+00 WtEn= 0.00D+00
 Coeff-Com:  0.100D+01
 Coeff:      0.100D+01
 Gap=     0.201 Goal=   None    Shift=    0.000
 RMSDP=2.39D-06 MaxDP=4.60D-04 DE=-7.12D-04 OVMax= 2.97D-04

 Cycle   8  Pass 1  IDiag  1:
 RMSU=  4.47D-06    CP:  1.00D+00
 E= -5017.25073681047     Delta-E=       -0.000001411630 Rises=F Damp=F
 DIIS: error= 1.47D-05 at cycle   2 NSaved=   2.
 NSaved= 2 IEnMin= 2 EnMin= -5017.25073681047     IErMin= 2 ErrMin= 1.47D-05
 ErrMax= 1.47D-05  0.00D+00 EMaxC= 1.00D-01 BMatC= 2.60D-07 BMatP= 1.45D-06
 IDIUse=1 WtCom= 1.00D+00 WtEn= 0.00D+00
 Coeff-Com:  0.213D+00 0.787D+00
 Coeff:      0.213D+00 0.787D+00
 Gap=     0.201 Goal=   None    Shift=    0.000
 RMSDP=8.05D-07 MaxDP=1.09D-04 DE=-1.41D-06 OVMax= 1.05D-04

 Cycle   9  Pass 1  IDiag  1:
 RMSU=  8.04D-07    CP:  1.00D+00  9.90D-01
 E= -5017.25073688835     Delta-E=       -0.000000077882 Rises=F Damp=F
 DIIS: error= 9.75D-06 at cycle   3 NSaved=   3.
 NSaved= 3 IEnMin= 3 EnMin= -5017.25073688835     IErMin= 3 ErrMin= 9.75D-06
 ErrMax= 9.75D-06  0.00D+00 EMaxC= 1.00D-01 BMatC= 1.69D-07 BMatP= 2.60D-07
 IDIUse=1 WtCom= 1.00D+00 WtEn= 0.00D+00
 Coeff-Com: -0.481D-02 0.446D+00 0.559D+00
 Coeff:     -0.481D-02 0.446D+00 0.559D+00
 Gap=     0.201 Goal=   None    Shift=    0.000
 RMSDP=3.36D-07 MaxDP=3.99D-05 DE=-7.79D-08 OVMax= 3.16D-05

 Cycle  10  Pass 1  IDiag  1:
 RMSU=  1.34D-07    CP:  1.00D+00  1.01D+00  6.34D-01
 E= -5017.25073700920     Delta-E=       -0.000000120857 Rises=F Damp=F
 DIIS: error= 2.59D-06 at cycle   4 NSaved=   4.
 NSaved= 4 IEnMin= 4 EnMin= -5017.25073700920     IErMin= 4 ErrMin= 2.59D-06
 ErrMax= 2.59D-06  0.00D+00 EMaxC= 1.00D-01 BMatC= 2.08D-09 BMatP= 1.69D-07
 IDIUse=1 WtCom= 1.00D+00 WtEn= 0.00D+00
 Coeff-Com: -0.552D-02 0.199D+00 0.265D+00 0.541D+00
 Coeff:     -0.552D-02 0.199D+00 0.265D+00 0.541D+00
 Gap=     0.201 Goal=   None    Shift=    0.000
 RMSDP=6.05D-08 MaxDP=1.28D-05 DE=-1.21D-07 OVMax= 1.22D-05

 Cycle  11  Pass 1  IDiag  1:
 RMSU=  3.36D-08    CP:  1.00D+00  1.01D+00  6.16D-01  6.46D-01
 E= -5017.25073701118     Delta-E=       -0.000000001979 Rises=F Damp=F
 DIIS: error= 1.49D-07 at cycle   5 NSaved=   5.
 NSaved= 5 IEnMin= 5 EnMin= -5017.25073701118     IErMin= 5 ErrMin= 1.49D-07
 ErrMax= 1.49D-07  0.00D+00 EMaxC= 1.00D-01 BMatC= 5.11D-11 BMatP= 2.08D-09
 IDIUse=1 WtCom= 1.00D+00 WtEn= 0.00D+00
 Coeff-Com: -0.185D-02 0.550D-01 0.737D-01 0.193D+00 0.680D+00
 Coeff:     -0.185D-02 0.550D-01 0.737D-01 0.193D+00 0.680D+00
 Gap=     0.201 Goal=   None    Shift=    0.000
 RMSDP=8.59D-09 MaxDP=1.06D-06 DE=-1.98D-09 OVMax= 9.38D-07

 Cycle  12  Pass 1  IDiag  1:
 RMSU=  8.06D-09    CP:  1.00D+00  1.01D+00  6.16D-01  6.65D-01  9.72D-01
 E= -5017.25073701131     Delta-E=       -0.000000000124 Rises=F Damp=F
 DIIS: error= 9.80D-08 at cycle   6 NSaved=   6.
 NSaved= 6 IEnMin= 6 EnMin= -5017.25073701131     IErMin= 6 ErrMin= 9.80D-08
 ErrMax= 9.80D-08  0.00D+00 EMaxC= 1.00D-01 BMatC= 1.14D-11 BMatP= 5.11D-11
 IDIUse=1 WtCom= 1.00D+00 WtEn= 0.00D+00
 Coeff-Com: -0.446D-04-0.386D-02-0.491D-02 0.980D-02 0.331D+00 0.668D+00
 Coeff:     -0.446D-04-0.386D-02-0.491D-02 0.980D-02 0.331D+00 0.668D+00
 Gap=     0.201 Goal=   None    Shift=    0.000
 RMSDP=3.58D-09 MaxDP=4.94D-07 DE=-1.24D-10 OVMax= 5.33D-07

 SCF Done:  E(RPBE1PBE) =  -5017.25073701     A.U. after   12 cycles
            NFock= 12  Conv=0.36D-08     -V/T= 2.0028
 KE= 5.003101327990D+03 PE=-2.418642567093D+04 EE= 8.057010996600D+03
 Leave Link  502 at Wed May  2 19:38:30 2018, MaxMem= 14763950080 cpu:      8114.1
 (Enter /cm/shared/gaussian/g09.e01/intel64-sandybridge/g09/l601.exe)
 Copying SCF densities to generalized density rwf, IOpCl= 0 IROHF=0.

 **********************************************************************

            Population analysis using the SCF density.

 **********************************************************************

 Alpha  occ. eigenvalues -- -483.14243 -62.54546 -56.31785 -56.31780 -56.31768
 Alpha  occ. eigenvalues --  -19.19638 -19.18176 -19.17811 -19.16964 -19.16759
 Alpha  occ. eigenvalues --  -19.15635 -19.15151 -19.14634 -19.14480 -19.14143
 Alpha  occ. eigenvalues --  -19.13181 -19.12614 -19.12403 -19.12017 -19.11959
 Alpha  occ. eigenvalues --  -19.11886 -19.11716 -19.11662 -19.11635 -19.11401
 Alpha  occ. eigenvalues --  -19.11362 -19.11361 -19.10683 -19.09985 -19.09222
 Alpha  occ. eigenvalues --  -19.08392 -19.07710 -19.07610 -19.06714 -19.05837
 Alpha  occ. eigenvalues --  -19.05427 -19.03135  -8.64865  -6.45214  -6.45198
 Alpha  occ. eigenvalues --   -6.45110  -2.53513  -2.53500  -2.53431  -2.53417
 Alpha  occ. eigenvalues --   -2.53401  -1.02683  -1.00777  -0.99876  -0.99119
 Alpha  occ. eigenvalues --   -0.99107  -0.98601  -0.97816  -0.97411  -0.97087
 Alpha  occ. eigenvalues --   -0.96433  -0.96128  -0.95864  -0.95124  -0.94618
 Alpha  occ. eigenvalues --   -0.94498  -0.94416  -0.94363  -0.94131  -0.93903
 Alpha  occ. eigenvalues --   -0.93774  -0.93665  -0.93652  -0.92891  -0.92578
 Alpha  occ. eigenvalues --   -0.91637  -0.90658  -0.90445  -0.90163  -0.89180
 Alpha  occ. eigenvalues --   -0.88313  -0.87898  -0.85635  -0.64373  -0.54330
 Alpha  occ. eigenvalues --   -0.51003  -0.50380  -0.49914  -0.49476  -0.49181
 Alpha  occ. eigenvalues --   -0.49071  -0.48148  -0.47564  -0.47239  -0.47044
 Alpha  occ. eigenvalues --   -0.46289  -0.45893  -0.45801  -0.45712  -0.45284
 Alpha  occ. eigenvalues --   -0.44849  -0.44670  -0.44646  -0.44332  -0.44302
 Alpha  occ. eigenvalues --   -0.44117  -0.43605  -0.43308  -0.42468  -0.41937
 Alpha  occ. eigenvalues --   -0.41820  -0.41444  -0.40361  -0.40318  -0.39670
 Alpha  occ. eigenvalues --   -0.38675  -0.38087  -0.37024  -0.36742  -0.36539
 Alpha  occ. eigenvalues --   -0.35717  -0.35358  -0.35155  -0.34839  -0.34076
 Alpha  occ. eigenvalues --   -0.33965  -0.33036  -0.32906  -0.31971  -0.31406
 Alpha  occ. eigenvalues --   -0.31108  -0.30972  -0.30903  -0.30467  -0.30317
 Alpha  occ. eigenvalues --   -0.30303  -0.29934  -0.29655  -0.29608  -0.29228
 Alpha  occ. eigenvalues --   -0.28959  -0.28947  -0.28271  -0.27836  -0.27215
 Alpha  occ. eigenvalues --   -0.27030  -0.27010  -0.26765  -0.26613  -0.26433
 Alpha  occ. eigenvalues --   -0.26323  -0.26154  -0.25512  -0.25393  -0.24425
 Alpha  occ. eigenvalues --   -0.24217  -0.24034  -0.23954  -0.23881  -0.23498
 Alpha  occ. eigenvalues --   -0.23253  -0.23122  -0.22771  -0.22723  -0.22661
 Alpha  occ. eigenvalues --   -0.22321  -0.22159  -0.22013  -0.21858  -0.21324
 Alpha  occ. eigenvalues --   -0.21096  -0.20898  -0.20459  -0.19191  -0.19061
 Alpha  occ. eigenvalues --   -0.18911  -0.18783  -0.18597  -0.18517  -0.17682
 Alpha  occ. eigenvalues --   -0.16623  -0.16606  -0.14045
 Alpha virt. eigenvalues --    0.06068   0.07646   0.09776   0.10738   0.11155
 Alpha virt. eigenvalues --    0.12349   0.12564   0.13805   0.14193   0.14794
 Alpha virt. eigenvalues --    0.15394   0.15890   0.16466   0.17019   0.17442
 Alpha virt. eigenvalues --    0.17944   0.18366   0.18680   0.19047   0.19763
 Alpha virt. eigenvalues --    0.20227   0.20410   0.20912   0.20960   0.21302
 Alpha virt. eigenvalues --    0.22288   0.22846   0.23286   0.23602   0.23899
 Alpha virt. eigenvalues --    0.24695   0.25098   0.25496   0.26092   0.26407
 Alpha virt. eigenvalues --    0.26638   0.27194   0.27436   0.27860   0.28331
 Alpha virt. eigenvalues --    0.28745   0.29286   0.29871   0.29928   0.30377
 Alpha virt. eigenvalues --    0.30892   0.31364   0.31931   0.32387   0.33054
 Alpha virt. eigenvalues --    0.33426   0.34124   0.34428   0.34941   0.35654
 Alpha virt. eigenvalues --    0.35870   0.36043   0.37329   0.37734   0.38418
 Alpha virt. eigenvalues --    0.38841   0.39060   0.39298   0.40037   0.55787
 Alpha virt. eigenvalues --    0.58140   0.59236   0.59368   0.59914   0.60231
 Alpha virt. eigenvalues --    0.61057   0.61904   0.62096   0.62453   0.63216
 Alpha virt. eigenvalues --    0.63603   0.64036   0.64475   0.64995   0.65536
 Alpha virt. eigenvalues --    0.66011   0.66256   0.66387   0.66794   0.67095
 Alpha virt. eigenvalues --    0.67452   0.67641   0.67950   0.68289   0.68527
 Alpha virt. eigenvalues --    0.68860   0.68933   0.69190   0.69565   0.69992
 Alpha virt. eigenvalues --    0.70039   0.70478   0.70741   0.70980   0.71336
 Alpha virt. eigenvalues --    0.71626   0.71843   0.71980   0.72204   0.72555
 Alpha virt. eigenvalues --    0.73100   0.73315   0.73834   0.74059   0.74385
 Alpha virt. eigenvalues --    0.74587   0.75039   0.75294   0.75827   0.76363
 Alpha virt. eigenvalues --    0.76542   0.76880   0.77460   0.77806   0.78063
 Alpha virt. eigenvalues --    0.78626   0.79222   0.79640   0.79885   0.80355
 Alpha virt. eigenvalues --    0.80683   0.81909   0.82523   0.83440   0.84008
 Alpha virt. eigenvalues --    0.85055   0.85686   0.86075   0.86433   0.88299
 Alpha virt. eigenvalues --    0.88826   0.91302   0.91976   0.93480   0.94199
 Alpha virt. eigenvalues --    0.94782   0.95888   0.96396   0.96923   0.97285
 Alpha virt. eigenvalues --    0.98032   0.98222   0.98540   0.99209   0.99739
 Alpha virt. eigenvalues --    1.00052   1.00268   1.00770   1.01010   1.01348
 Alpha virt. eigenvalues --    1.01965   1.02275   1.02425   1.02688   1.03119
 Alpha virt. eigenvalues --    1.03381   1.03619   1.04065   1.04185   1.04388
 Alpha virt. eigenvalues --    1.04622   1.04940   1.05432   1.05616   1.06001
 Alpha virt. eigenvalues --    1.06300   1.06695   1.07067   1.07324   1.07582
 Alpha virt. eigenvalues --    1.07596   1.07914   1.08321   1.08463   1.08481
 Alpha virt. eigenvalues --    1.09085   1.09392   1.09768   1.09976   1.10225
 Alpha virt. eigenvalues --    1.10476   1.10746   1.10910   1.11226   1.11544
 Alpha virt. eigenvalues --    1.11806   1.12385   1.12719   1.13283   1.13382
 Alpha virt. eigenvalues --    1.13467   1.13745   1.14036   1.14604   1.14871
 Alpha virt. eigenvalues --    1.15119   1.15481   1.15706   1.15879   1.16439
 Alpha virt. eigenvalues --    1.16936   1.17105   1.17606   1.17841   1.18174
 Alpha virt. eigenvalues --    1.18594   1.18775   1.19012   1.19541   1.19797
 Alpha virt. eigenvalues --    1.20235   1.20645   1.21244   1.21507   1.21688
 Alpha virt. eigenvalues --    1.22414   1.22877   1.23840   1.24159   1.24217
 Alpha virt. eigenvalues --    1.24243   1.25168   1.25452   1.25951   1.26476
 Alpha virt. eigenvalues --    1.27245   1.27848   1.27971   1.28049   1.28224
 Alpha virt. eigenvalues --    1.28636   1.28943   1.29308   1.29609   1.29778
 Alpha virt. eigenvalues --    1.30286   1.30666   1.31227   1.31429   1.31854
 Alpha virt. eigenvalues --    1.32000   1.32207   1.32869   1.33105   1.33282
 Alpha virt. eigenvalues --    1.33636   1.34005   1.34465   1.34862   1.35033
 Alpha virt. eigenvalues --    1.35236   1.35579   1.35615   1.35991   1.36253
 Alpha virt. eigenvalues --    1.36452   1.36568   1.36874   1.37242   1.37483
 Alpha virt. eigenvalues --    1.37881   1.38049   1.38409   1.38652   1.38967
 Alpha virt. eigenvalues --    1.39177   1.39523   1.40070   1.40270   1.40652
 Alpha virt. eigenvalues --    1.41188   1.41449   1.42047   1.42480   1.42787
 Alpha virt. eigenvalues --    1.42932   1.43542   1.44341   1.44450   1.45397
 Alpha virt. eigenvalues --    1.45517   1.45851   1.46241   1.46782   1.47053
 Alpha virt. eigenvalues --    1.47412   1.47799   1.48219   1.48455   1.48768
 Alpha virt. eigenvalues --    1.49263   1.50077   1.50892   1.51462   1.52047
 Alpha virt. eigenvalues --    1.52538   1.53365   1.53779   1.54227   1.54355
 Alpha virt. eigenvalues --    1.54567   1.55209   1.55858   1.56286   1.56841
 Alpha virt. eigenvalues --    1.57141   1.57347   1.58096   1.58656   1.58933
 Alpha virt. eigenvalues --    1.59220   1.59448   1.59919   1.60144   1.61289
 Alpha virt. eigenvalues --    1.61648   1.62248   1.62987   1.63117   1.63423
 Alpha virt. eigenvalues --    1.63583   1.63851   1.65137   1.65870   1.66115
 Alpha virt. eigenvalues --    1.67019   1.69251   1.70430   1.71296   1.71478
 Alpha virt. eigenvalues --    1.72370   1.72874   1.73167   1.73826   1.74115
 Alpha virt. eigenvalues --    1.74573   1.74889   1.75903   1.76188   1.76541
 Alpha virt. eigenvalues --    1.77178   1.77237   1.77877   1.78095   1.78707
 Alpha virt. eigenvalues --    1.78952   1.79024   1.79459   1.79791   1.80547
 Alpha virt. eigenvalues --    1.80819   1.81626   1.82112   1.83056   1.83466
 Alpha virt. eigenvalues --    1.83853   1.83950   1.84059   1.84925   1.85699
 Alpha virt. eigenvalues --    1.86020   1.86718   1.87447   1.87876   1.88510
 Alpha virt. eigenvalues --    1.88727   1.88870   1.89186   1.89502   1.89892
 Alpha virt. eigenvalues --    1.90372   1.90723   1.91332   1.92431   1.93427
 Alpha virt. eigenvalues --    1.93875   1.94000   1.95194   1.95978   1.96104
 Alpha virt. eigenvalues --    1.97076   1.98445   1.98987   1.99700   2.02694
 Alpha virt. eigenvalues --    2.02817   2.03989   2.04789   2.17135   2.17721
 Alpha virt. eigenvalues --    2.18370   2.18874   2.19888   2.20300   2.20704
 Alpha virt. eigenvalues --    2.21292   2.21798   2.22302   2.22424   2.22826
 Alpha virt. eigenvalues --    2.23478   2.23659   2.24132   2.24612   2.24863
 Alpha virt. eigenvalues --    2.24966   2.25068   2.25175   2.25808   2.26275
 Alpha virt. eigenvalues --    2.26787   2.27307   2.27560   2.27702   2.27994
 Alpha virt. eigenvalues --    2.28204   2.28394   2.28433   2.29319   2.29948
 Alpha virt. eigenvalues --    2.30134   2.30459   2.30915   2.31062   2.31456
 Alpha virt. eigenvalues --    2.31672   2.31956   2.32593   2.33690   2.34284
 Alpha virt. eigenvalues --    2.36072   2.37546   2.37799   2.38251   2.40249
 Alpha virt. eigenvalues --    2.42907   2.45365   2.46134   2.46275   2.47334
 Alpha virt. eigenvalues --    2.47699   2.48363   2.49778   2.50989   2.53227
 Alpha virt. eigenvalues --    2.54024   2.55225   2.56542   2.57928   2.59322
 Alpha virt. eigenvalues --    2.59496   2.63395   2.93878   2.95423   2.95798
 Alpha virt. eigenvalues --    2.96188   2.97206   2.97845   2.98290   2.98564
 Alpha virt. eigenvalues --    2.98769   2.98976   2.99651   3.00483   3.00492
 Alpha virt. eigenvalues --    3.00649   3.00734   3.01350   3.01498   3.01552
 Alpha virt. eigenvalues --    3.01609   3.01894   3.02066   3.02235   3.02335
 Alpha virt. eigenvalues --    3.02427   3.02564   3.02837   3.03089   3.03597
 Alpha virt. eigenvalues --    3.03709   3.03866   3.04079   3.04267   3.04277
 Alpha virt. eigenvalues --    3.04474   3.04838   3.05604   3.05666   3.06042
 Alpha virt. eigenvalues --    3.06345   3.06487   3.06602   3.06693   3.06870
 Alpha virt. eigenvalues --    3.06942   3.06993   3.07064   3.07452   3.07670
 Alpha virt. eigenvalues --    3.08348   3.08459   3.08681   3.08905   3.09242
 Alpha virt. eigenvalues --    3.09269   3.09827   3.10218   3.10267   3.10793
 Alpha virt. eigenvalues --    3.11203   3.11618   3.12178   3.13190   3.14383
 Alpha virt. eigenvalues --    3.15794   3.17830   3.17952   3.18832   3.19879
 Alpha virt. eigenvalues --    3.20586   3.21272   3.21887   3.21975   3.22935
 Alpha virt. eigenvalues --    3.23101   3.23464   3.23616   3.23811   3.23898
 Alpha virt. eigenvalues --    3.23959   3.24852   3.24931   3.25457   3.25579
 Alpha virt. eigenvalues --    3.26003   3.26511   3.26892   3.27315   3.27369
 Alpha virt. eigenvalues --    3.27661   3.27712   3.28339   3.29679   3.29969
 Alpha virt. eigenvalues --    3.31546   3.31941   3.32559   3.52888   3.54133
 Alpha virt. eigenvalues --    3.54720   3.57263   3.57469   3.57636   3.58441
 Alpha virt. eigenvalues --    3.59183   3.59298   3.60014   3.60370   3.60828
 Alpha virt. eigenvalues --    3.61251   3.61527   3.61987   3.62149   3.62571
 Alpha virt. eigenvalues --    3.62749   3.63196   3.63494   3.63833   3.64125
 Alpha virt. eigenvalues --    3.64263   3.65836   3.66415   3.66694   3.67384
 Alpha virt. eigenvalues --    3.68675   3.69613   3.70917   3.72052   3.73306
 Alpha virt. eigenvalues --    3.80828   3.82515   3.83881   3.84321   3.84423
 Alpha virt. eigenvalues --    3.84994   3.85232   3.86088   3.86714   3.86911
 Alpha virt. eigenvalues --    3.87990   3.88496   3.88976   3.89330   3.90214
 Alpha virt. eigenvalues --    3.90666   3.90997   3.91764   3.91888   3.92473
 Alpha virt. eigenvalues --    3.92715   3.93028   3.94047   3.94558   3.95481
 Alpha virt. eigenvalues --    3.95792   3.95968   3.96882   3.97983   3.98790
 Alpha virt. eigenvalues --    4.02284   4.05409
          Condensed to atoms (all electrons):
 Mulliken charges:
               1
     1  Br  -0.719233
     2  O   -0.278777
     3  H    0.127248
     4  H    0.161017
     5  O   -0.280055
     6  H    0.129010
     7  H    0.155591
     8  O   -0.261836
     9  H    0.141978
    10  H    0.172089
    11  O   -0.289740
    12  H    0.128103
    13  H    0.153097
    14  O   -0.266659
    15  H    0.138701
    16  H    0.141772
    17  O   -0.274569
    18  H    0.134269
    19  H    0.128093
    20  O   -0.280864
    21  H    0.117200
    22  H    0.129081
    23  O   -0.257309
    24  H    0.149834
    25  H    0.131965
    26  O   -0.244463
    27  H    0.123739
    28  H    0.129287
    29  O   -0.286570
    30  H    0.138677
    31  H    0.117431
    32  O   -0.261355
    33  H    0.142116
    34  H    0.150255
    35  O   -0.236331
    36  H    0.155061
    37  H    0.139322
    38  O   -0.308920
    39  H    0.116485
    40  H    0.120717
    41  O   -0.316440
    42  H    0.131482
    43  H    0.114180
    44  O   -0.291901
    45  H    0.107297
    46  H    0.144240
    47  O   -0.274101
    48  H    0.139751
    49  H    0.126739
    50  O   -0.242639
    51  H    0.134174
    52  H    0.138701
    53  O   -0.266077
    54  H    0.141511
    55  H    0.142804
    56  O   -0.333001
    57  H    0.142363
    58  H    0.130202
    59  O   -0.303661
    60  H    0.125002
    61  H    0.127964
    62  O   -0.261353
    63  H    0.120543
    64  H    0.138203
    65  O   -0.243653
    66  H    0.152141
    67  H    0.159002
    68  O   -0.303200
    69  H    0.133707
    70  H    0.121180
    71  O   -0.313035
    72  H    0.104724
    73  H    0.135681
    74  O   -0.268738
    75  H    0.149710
    76  H    0.139721
    77  O   -0.297199
    78  H    0.113364
    79  H    0.118013
    80  O   -0.278419
    81  H    0.121421
    82  H    0.123901
    83  O   -0.237980
    84  H    0.134582
    85  H    0.134792
    86  O   -0.281938
    87  H    0.138622
    88  H    0.113293
    89  O   -0.308280
    90  H    0.130842
    91  H    0.142845
    92  O   -0.241230
    93  H    0.141783
    94  H    0.136914
    95  O   -0.252017
    96  H    0.127348
    97  H    0.110661
 Sum of Mulliken charges =  -1.00000
 Mulliken charges with hydrogens summed into heavy atoms:
               1
     1  Br  -0.719233
     2  O    0.009488
     5  O    0.004546
     8  O    0.052231
    11  O   -0.008539
    14  O    0.013814
    17  O   -0.012207
    20  O   -0.034583
    23  O    0.024490
    26  O    0.008563
    29  O   -0.030462
    32  O    0.031016
    35  O    0.058053
    38  O   -0.071719
    41  O   -0.070778
    44  O   -0.040363
    47  O   -0.007611
    50  O    0.030236
    53  O    0.018238
    56  O   -0.060435
    59  O   -0.050695
    62  O   -0.002606
    65  O    0.067490
    68  O   -0.048314
    71  O   -0.072630
    74  O    0.020694
    77  O   -0.065822
    80  O   -0.033098
    83  O    0.031394
    86  O   -0.030023
    89  O   -0.034593
    92  O    0.037466
    95  O   -0.014008
         Mulliken charges condensed to fragments:
      1     -0.719233
      2     -0.280767
 Electronic spatial extent (au):  <R**2>=        1555041.2951
 Charge=             -1.0000 electrons
 Dipole moment (field-independent basis, Debye):
    X=           -112.4718    Y=            -94.2635    Z=            -88.6180  Tot=            171.4312
 Quadrupole moment (field-independent basis, Debye-Ang):
   XX=          -2868.3742   YY=          -2076.6221   ZZ=          -1911.3085
   XY=          -2223.1967   XZ=          -2154.9358   YZ=          -1771.6077
 Traceless Quadrupole moment (field-independent basis, Debye-Ang):
   XX=           -582.9392   YY=            208.8128   ZZ=            374.1264
   XY=          -2223.1967   XZ=          -2154.9358   YZ=          -1771.6077
 Octapole moment (field-independent basis, Debye-Ang**2):
  XXX=         -75712.6746  YYY=         -49690.5960  ZZZ=         -46595.0254  XYY=         -48778.9637
  XXY=         -57201.2297  XXZ=         -56527.4965  XZZ=         -47066.3949  YZZ=         -38838.5013
  YYZ=         -39898.6036  XYZ=         -43269.2544
 Hexadecapole moment (field-independent basis, Debye-Ang**3):
 XXXX=       -2014110.2093 YYYY=       -1249457.7923 ZZZZ=       -1219553.8285 XXXY=       -1522111.7669
 XXXZ=       -1518659.1237 YYYX=       -1155349.2305 YYYZ=        -973635.0766 ZZZX=       -1134892.2067
 ZZZY=        -955956.4280 XXYY=       -1247056.6162 XXZZ=       -1235860.7962 YYZZ=        -880898.3080
 XXYZ=       -1141202.8211 YYXZ=        -964541.7315 ZZXY=        -957246.7823
 N-N= 6.109062609326D+03 E-N=-2.418642574098D+04  KE= 5.003101327990D+03
 No NMR shielding tensors so no spin-rotation constants.
 Leave Link  601 at Wed May  2 19:38:33 2018, MaxMem= 14763950080 cpu:        69.5
 (Enter /cm/shared/gaussian/g09.e01/intel64-sandybridge/g09/l701.exe)
 Compute integral first derivatives.
 ... and contract with generalized density number  0.
 Leave Link  701 at Wed May  2 19:38:35 2018, MaxMem= 14763950080 cpu:       125.1
 (Enter /cm/shared/gaussian/g09.e01/intel64-sandybridge/g09/l702.exe)
 L702 exits ... SP integral derivatives will be done elsewhere.
 Leave Link  702 at Wed May  2 19:38:35 2018, MaxMem= 14763950080 cpu:         1.7
 (Enter /cm/shared/gaussian/g09.e01/intel64-sandybridge/g09/l703.exe)
 Compute integral first derivatives, UseDBF=F ICtDFT=           0.
 Integral derivatives from FoFJK, PRISM(SPDF).
 Calling FoFJK, ICntrl=      2127 FMM=T ISym2X=0 I1Cent= 0 IOpClX= 0 NMat=1 NMatS=1 NMatT=0.
 FoFJK:  IHMeth= 1 ICntrl=    2127 DoSepK=F KAlg= 0 I1Cent=   0 FoldK=F
 IRaf=         0 NMat=   1 IRICut=       1 DoRegI=T DoRafI=F ISym2E= 0.
 FoFCou: FMM=T IPFlag=           0 FMFlag=      100000 FMFlg1=        2001
         NFxFlg=           0 DoJE=F BraDBF=F KetDBF=F FulRan=T
         wScrn=  0.000000 ICntrl=    2127 IOpCl=  0 I1Cent=           0 NGrid=           0
         NMat0=    1 NMatS0=      1 NMatT0=    0 NMatD0=    1 NMtDS0=    0 NMtDT0=    0
 Symmetry not used in FoFCou.
 FMM levels:  10  Number of levels for PrismC:   9
 Leave Link  703 at Wed May  2 19:38:52 2018, MaxMem= 14763950080 cpu:      1063.6
 (Enter /cm/shared/gaussian/g09.e01/intel64-sandybridge/g09/l716.exe)
 Dipole        =-4.42498125D+01-3.70861112D+01-3.48649960D+01
 Cartesian Forces:  Max     0.033148033 RMS     0.009350784
 Leave Link  716 at Wed May  2 19:38:52 2018, MaxMem= 14763950080 cpu:         3.5
 (Enter /cm/shared/gaussian/g09.e01/intel64-sandybridge/g09/l122.exe)
 CPIOFr:  IOpCl= 0 IRwI=-1 IRwCP=  731 ICalc= -1 LCPTot=     1005244 Len1MO=     2550559 IndFrg=     1005244
 CPIOFr:  IOpCl= 0 IRwI=-1 IRwCP=  731 ICalc=  0 LCPTot=     1005244 Len1MO=     2550559 IndFrg=     3555803
 Counterpoise: doing DCBS calculation for fragment   1 NewBq=T
 Leave Link  122 at Wed May  2 19:38:52 2018, MaxMem= 14763950080 cpu:         7.0
 (Enter /cm/shared/gaussian/g09.e01/intel64-sandybridge/g09/l301.exe)
 Basis read from rwf:  (5D, 7F)
 No pseudopotential information found on rwf file.
   795 basis functions,  1651 primitive gaussians,   829 cartesian basis functions
    18 alpha electrons       18 beta electrons
       nuclear repulsion energy         0.0000000000 Hartrees.
 IExCor= 1009 DFT=T Ex+Corr=PBE1PBE ExCW=0 ScaHFX=  0.250000
 ScaDFX=  0.750000  0.750000  1.000000  1.000000 ScalE2=  1.000000  1.000000
 IRadAn=      0 IRanWt=     -1 IRanGd=            0 ICorTp=0 IEmpDi=  4
 NAtoms=   97 NActive=   97 NUniq=   97 SFac= 1.00D+00 NAtFMM=   60 NAOKFM=T Big=T
 Integral buffers will be    131072 words long.
 Raffenetti 2 integral format.
 Two-electron integral symmetry is turned off.
 No density basis found on file   718.
 Leave Link  301 at Wed May  2 19:38:52 2018, MaxMem= 14763950080 cpu:         4.6
 (Enter /cm/shared/gaussian/g09.e01/intel64-sandybridge/g09/l302.exe)
 NPDir=0 NMtPBC=     1 NCelOv=     1 NCel=       1 NClECP=     1 NCelD=      1
         NCelK=      1 NCelE2=     1 NClLst=     1 CellRange=     0.0.
 One-electron integrals computed using PRISM.
 NBasis=   795 RedAO= T EigKep=  1.26D-02  NBF=   795
 NBsUse=   795 1.00D-06 EigRej= -1.00D+00 NBFU=   795
 Precomputing XC quadrature grid using
 IXCGrd= 4 IRadAn=           0 IRanWt=          -1 IRanGd=           0 AccXCQ= 0.00D+00.
 Generated NRdTot=       0 NPtTot=           0 NUsed=           0 NTot=          32
 NSgBfM=   709   710   726   736   743 MxSgAt=    97 MxSgA2=    97.
 Leave Link  302 at Wed May  2 19:38:56 2018, MaxMem= 14763950080 cpu:       245.7
 (Enter /cm/shared/gaussian/g09.e01/intel64-sandybridge/g09/l303.exe)
 DipDrv:  MaxL=1.
 Leave Link  303 at Wed May  2 19:38:57 2018, MaxMem= 14763950080 cpu:        28.6
 (Enter /cm/shared/gaussian/g09.e01/intel64-sandybridge/g09/l401.exe)
 ExpMin= 1.22D-01 ExpMax= 6.40D+05 ExpMxC= 6.18D+03 IAcc=2 IRadAn=         4 AccDes= 0.00D+00
 Harris functional with IExCor= 1009 and IRadAn=       4 diagonalized for initial guess.
 HarFok:  IExCor= 1009 AccDes= 0.00D+00 IRadAn=         4 IDoV= 1 UseB2=F ITyADJ=14
 ICtDFT=  3500011 ScaDFX=  1.000000  1.000000  1.000000  1.000000
 FoFCou: FMM=F IPFlag=           0 FMFlag=      100000 FMFlg1=        2001
         NFxFlg=           0 DoJE=T BraDBF=F KetDBF=T FulRan=T
         wScrn=  0.000000 ICntrl=     500 IOpCl=  0 I1Cent=   200000004 NGrid=           0
         NMat0=    1 NMatS0=      1 NMatT0=    0 NMatD0=    1 NMtDS0=    0 NMtDT0=    0
 Symmetry not used in FoFCou.
 Harris En= -2574.01964698601    
 JPrj=0 DoOrth=F DoCkMO=F.
 Leave Link  401 at Wed May  2 19:39:01 2018, MaxMem= 14763950080 cpu:       306.5
 (Enter /cm/shared/gaussian/g09.e01/intel64-sandybridge/g09/l502.exe)
 Closed shell SCF:
 Using DIIS extrapolation, IDIIS=  1040.
 Two-electron integral symmetry not used.
 IVT=     2138497 IEndB=     2138497 NGot= 14763950080 MDV= 14762516294
 LenX= 14762516294 LenY= 14761828224
 Requested convergence on RMS density matrix=1.00D-08 within 128 cycles.
 Requested convergence on MAX density matrix=1.00D-06.
 Requested convergence on             energy=1.00D-06.
 No special actions if energy rises.
 Fock matrices will be formed incrementally for  20 cycles.
 Integral accuracy reduced to 1.0D-05 until final iterations.

 Cycle   1  Pass 0  IDiag  1:
 FoFJK:  IHMeth= 1 ICntrl=       0 DoSepK=F KAlg= 0 I1Cent=   0 FoldK=F
 IRaf= 830000000 NMat=   1 IRICut=       1 DoRegI=T DoRafI=F ISym2E= 0.
 FoFCou: FMM=T IPFlag=           0 FMFlag=      100000 FMFlg1=        2001
         NFxFlg=           0 DoJE=F BraDBF=F KetDBF=F FulRan=T
         wScrn=  0.000000 ICntrl=       0 IOpCl=  0 I1Cent=           0 NGrid=           0
         NMat0=    1 NMatS0=      1 NMatT0=    0 NMatD0=    1 NMtDS0=    0 NMtDT0=    0
 Symmetry not used in FoFCou.
 FMM levels:  10  Number of levels for PrismC:   9
 E= -2573.87925941724    
 DIIS: error= 1.29D-02 at cycle   1 NSaved=   1.
 NSaved= 1 IEnMin= 1 EnMin= -2573.87925941724     IErMin= 1 ErrMin= 1.29D-02
 ErrMax= 1.29D-02  0.00D+00 EMaxC= 1.00D-01 BMatC= 3.76D-02 BMatP= 3.76D-02
 IDIUse=3 WtCom= 8.71D-01 WtEn= 1.29D-01
 Coeff-Com:  0.100D+01
 Coeff-En:   0.100D+01
 Coeff:      0.100D+01
 Gap=     0.179 Goal=   None    Shift=    0.000
 GapD=    0.179 DampG=1.000 DampE=0.500 DampFc=0.5000 IDamp=-1.
 Damping current iteration by 5.00D-01
 RMSDP=4.69D-04 MaxDP=7.02D-02              OVMax= 1.49D-01

 Cycle   2  Pass 0  IDiag  1:
 RMSU=  2.33D-04    CP:  9.95D-01
 E= -2573.89564302016     Delta-E=       -0.016383602912 Rises=F Damp=T
 DIIS: error= 7.93D-03 at cycle   2 NSaved=   2.
 NSaved= 2 IEnMin= 2 EnMin= -2573.89564302016     IErMin= 2 ErrMin= 7.93D-03
 ErrMax= 7.93D-03  0.00D+00 EMaxC= 1.00D-01 BMatC= 8.87D-03 BMatP= 3.76D-02
 IDIUse=3 WtCom= 9.21D-01 WtEn= 7.93D-02
 Coeff-Com: -0.575D+00 0.158D+01
 Coeff-En:   0.000D+00 0.100D+01
 Coeff:     -0.530D+00 0.153D+01
 Gap=     0.190 Goal=   None    Shift=    0.000
 RMSDP=1.61D-04 MaxDP=3.79D-02 DE=-1.64D-02 OVMax= 6.57D-02

 Cycle   3  Pass 0  IDiag  1:
 RMSU=  1.43D-04    CP:  9.95D-01  1.32D+00
 E= -2573.90890924422     Delta-E=       -0.013266224062 Rises=F Damp=F
 DIIS: error= 3.87D-03 at cycle   3 NSaved=   3.
 NSaved= 3 IEnMin= 3 EnMin= -2573.90890924422     IErMin= 3 ErrMin= 3.87D-03
 ErrMax= 3.87D-03  0.00D+00 EMaxC= 1.00D-01 BMatC= 2.33D-03 BMatP= 8.87D-03
 IDIUse=3 WtCom= 9.61D-01 WtEn= 3.87D-02
 Coeff-Com: -0.300D+00 0.710D+00 0.590D+00
 Coeff-En:   0.000D+00 0.000D+00 0.100D+01
 Coeff:     -0.289D+00 0.683D+00 0.606D+00
 Gap=     0.173 Goal=   None    Shift=    0.000
 RMSDP=7.08D-05 MaxDP=1.71D-02 DE=-1.33D-02 OVMax= 2.09D-02

 Cycle   4  Pass 0  IDiag  1:
 RMSU=  8.15D-06    CP:  9.94D-01  1.52D+00  6.33D-01
 E= -2573.91142334255     Delta-E=       -0.002514098333 Rises=F Damp=F
 DIIS: error= 1.49D-04 at cycle   4 NSaved=   4.
 NSaved= 4 IEnMin= 4 EnMin= -2573.91142334255     IErMin= 4 ErrMin= 1.49D-04
 ErrMax= 1.49D-04  0.00D+00 EMaxC= 1.00D-01 BMatC= 2.18D-06 BMatP= 2.33D-03
 IDIUse=3 WtCom= 9.99D-01 WtEn= 1.49D-03
 Coeff-Com: -0.141D-01 0.268D-01 0.459D-01 0.941D+00
 Coeff-En:   0.000D+00 0.000D+00 0.000D+00 0.100D+01
 Coeff:     -0.140D-01 0.268D-01 0.459D-01 0.941D+00
 Gap=     0.175 Goal=   None    Shift=    0.000
 RMSDP=2.54D-06 MaxDP=5.28D-04 DE=-2.51D-03 OVMax= 8.40D-04

 Initial convergence to 1.0D-05 achieved.  Increase integral accuracy.
 Cycle   5  Pass 1  IDiag  1:
 E= -2573.91232219341     Delta-E=       -0.000898850860 Rises=F Damp=F
 DIIS: error= 1.54D-05 at cycle   1 NSaved=   1.
 NSaved= 1 IEnMin= 1 EnMin= -2573.91232219341     IErMin= 1 ErrMin= 1.54D-05
 ErrMax= 1.54D-05  0.00D+00 EMaxC= 1.00D-01 BMatC= 1.72D-07 BMatP= 1.72D-07
 IDIUse=1 WtCom= 1.00D+00 WtEn= 0.00D+00
 Coeff-Com:  0.100D+01
 Coeff:      0.100D+01
 Gap=     0.175 Goal=   None    Shift=    0.000
 RMSDP=2.54D-06 MaxDP=5.28D-04 DE=-8.99D-04 OVMax= 3.59D-04

 Cycle   6  Pass 1  IDiag  1:
 RMSU=  1.81D-06    CP:  1.00D+00
 E= -2573.91232245183     Delta-E=       -0.000000258424 Rises=F Damp=F
 DIIS: error= 1.67D-05 at cycle   2 NSaved=   2.
 NSaved= 2 IEnMin= 2 EnMin= -2573.91232245183     IErMin= 1 ErrMin= 1.54D-05
 ErrMax= 1.67D-05  0.00D+00 EMaxC= 1.00D-01 BMatC= 5.67D-08 BMatP= 1.72D-07
 IDIUse=1 WtCom= 1.00D+00 WtEn= 0.00D+00
 Coeff-Com:  0.326D+00 0.674D+00
 Coeff:      0.326D+00 0.674D+00
 Gap=     0.175 Goal=   None    Shift=    0.000
 RMSDP=4.91D-07 MaxDP=1.22D-04 DE=-2.58D-07 OVMax= 1.54D-04

 Cycle   7  Pass 1  IDiag  1:
 RMSU=  4.80D-07    CP:  1.00D+00  9.47D-01
 E= -2573.91232251706     Delta-E=       -0.000000065230 Rises=F Damp=F
 DIIS: error= 5.84D-06 at cycle   3 NSaved=   3.
 NSaved= 3 IEnMin= 3 EnMin= -2573.91232251706     IErMin= 3 ErrMin= 5.84D-06
 ErrMax= 5.84D-06  0.00D+00 EMaxC= 1.00D-01 BMatC= 6.35D-09 BMatP= 5.67D-08
 IDIUse=1 WtCom= 1.00D+00 WtEn= 0.00D+00
 Coeff-Com: -0.307D-01 0.232D+00 0.798D+00
 Coeff:     -0.307D-01 0.232D+00 0.798D+00
 Gap=     0.175 Goal=   None    Shift=    0.000
 RMSDP=1.25D-07 MaxDP=3.27D-05 DE=-6.52D-08 OVMax= 3.49D-05

 Cycle   8  Pass 1  IDiag  1:
 RMSU=  4.21D-08    CP:  1.00D+00  9.96D-01  8.40D-01
 E= -2573.91232252442     Delta-E=       -0.000000007357 Rises=F Damp=F
 DIIS: error= 5.29D-07 at cycle   4 NSaved=   4.
 NSaved= 4 IEnMin= 4 EnMin= -2573.91232252442     IErMin= 4 ErrMin= 5.29D-07
 ErrMax= 5.29D-07  0.00D+00 EMaxC= 1.00D-01 BMatC= 2.75D-11 BMatP= 6.35D-09
 IDIUse=1 WtCom= 1.00D+00 WtEn= 0.00D+00
 Coeff-Com: -0.887D-02 0.480D-01 0.146D+00 0.815D+00
 Coeff:     -0.887D-02 0.480D-01 0.146D+00 0.815D+00
 Gap=     0.175 Goal=   None    Shift=    0.000
 RMSDP=9.89D-09 MaxDP=1.23D-06 DE=-7.36D-09 OVMax= 3.34D-06

 Cycle   9  Pass 1  IDiag  1:
 RMSU=  8.44D-09    CP:  1.00D+00  9.99D-01  8.36D-01  1.02D+00
 E= -2573.91232252447     Delta-E=       -0.000000000044 Rises=F Damp=F
 DIIS: error= 1.79D-07 at cycle   5 NSaved=   5.
 NSaved= 5 IEnMin= 5 EnMin= -2573.91232252447     IErMin= 5 ErrMin= 1.79D-07
 ErrMax= 1.79D-07  0.00D+00 EMaxC= 1.00D-01 BMatC= 2.53D-12 BMatP= 2.75D-11
 IDIUse=1 WtCom= 1.00D+00 WtEn= 0.00D+00
 Coeff-Com: -0.147D-03-0.385D-02-0.223D-01 0.230D+00 0.796D+00
 Coeff:     -0.147D-03-0.385D-02-0.223D-01 0.230D+00 0.796D+00
 Gap=     0.175 Goal=   None    Shift=    0.000
 RMSDP=3.27D-09 MaxDP=4.42D-07 DE=-4.37D-11 OVMax= 1.22D-06

 SCF Done:  E(RPBE1PBE) =  -2573.91232252     A.U. after    9 cycles
            NFock=  9  Conv=0.33D-08     -V/T= 2.0013
 KE= 2.570511401994D+03 PE=-6.162917743341D+03 EE= 1.018494018823D+03
 Leave Link  502 at Wed May  2 19:40:30 2018, MaxMem= 14763950080 cpu:      5598.4
 (Enter /cm/shared/gaussian/g09.e01/intel64-sandybridge/g09/l601.exe)
 Copying SCF densities to generalized density rwf, IOpCl= 0 IROHF=0.

 **********************************************************************

            Population analysis using the SCF density.

 **********************************************************************

 Alpha  occ. eigenvalues -- -482.98958 -62.39107 -56.16362 -56.16360 -56.16356
 Alpha  occ. eigenvalues --   -8.49239  -6.29552  -6.29543  -6.29532  -2.37818
 Alpha  occ. eigenvalues --   -2.37816  -2.37807  -2.37799  -2.37799  -0.47264
 Alpha  occ. eigenvalues --   -0.03132  -0.03119  -0.03106
 Alpha virt. eigenvalues --    0.14388   0.15673   0.16507   0.17449   0.17787
 Alpha virt. eigenvalues --    0.18947   0.19258   0.19632   0.20151   0.21509
 Alpha virt. eigenvalues --    0.21536   0.22084   0.22745   0.23297   0.23632
 Alpha virt. eigenvalues --    0.24264   0.25035   0.25182   0.25752   0.26680
 Alpha virt. eigenvalues --    0.26902   0.27408   0.27784   0.28121   0.28347
 Alpha virt. eigenvalues --    0.28686   0.29736   0.29943   0.31080   0.31589
 Alpha virt. eigenvalues --    0.31870   0.32777   0.33271   0.34126   0.34409
 Alpha virt. eigenvalues --    0.34920   0.35372   0.35668   0.36019   0.37076
 Alpha virt. eigenvalues --    0.37204   0.37782   0.38214   0.38766   0.39398
 Alpha virt. eigenvalues --    0.39813   0.40305   0.40498   0.41070   0.41404
 Alpha virt. eigenvalues --    0.42734   0.43051   0.43349   0.43367   0.44213
 Alpha virt. eigenvalues --    0.44569   0.45530   0.46603   0.48285   0.48312
 Alpha virt. eigenvalues --    0.49227   0.49381   0.50456   0.54310   0.61468
 Alpha virt. eigenvalues --    0.61716   0.62859   0.63146   0.64287   0.64419
 Alpha virt. eigenvalues --    0.64583   0.65100   0.65602   0.65920   0.66437
 Alpha virt. eigenvalues --    0.67191   0.67711   0.68358   0.68798   0.69381
 Alpha virt. eigenvalues --    0.69680   0.69941   0.70870   0.71126   0.71544
 Alpha virt. eigenvalues --    0.72028   0.72182   0.72414   0.72991   0.73125
 Alpha virt. eigenvalues --    0.73883   0.74102   0.74530   0.74666   0.75000
 Alpha virt. eigenvalues --    0.75347   0.75550   0.75650   0.75918   0.76370
 Alpha virt. eigenvalues --    0.76524   0.77019   0.77458   0.77566   0.77801
 Alpha virt. eigenvalues --    0.78222   0.78943   0.79088   0.79586   0.80022
 Alpha virt. eigenvalues --    0.80051   0.80464   0.80543   0.80950   0.81688
 Alpha virt. eigenvalues --    0.81881   0.82163   0.82510   0.82820   0.83135
 Alpha virt. eigenvalues --    0.83629   0.83788   0.83970   0.84132   0.84621
 Alpha virt. eigenvalues --    0.84904   0.85381   0.85400   0.85620   0.85989
 Alpha virt. eigenvalues --    0.86594   0.87346   0.87795   0.88034   0.88778
 Alpha virt. eigenvalues --    0.88900   0.89299   0.89862   0.90054   0.90599
 Alpha virt. eigenvalues --    0.90849   0.91344   0.92158   0.92851   0.93131
 Alpha virt. eigenvalues --    0.93325   0.93746   0.93960   0.94698   0.95116
 Alpha virt. eigenvalues --    0.95635   0.95736   0.95993   0.96440   0.97166
 Alpha virt. eigenvalues --    0.97647   0.97946   0.98142   0.98524   0.99107
 Alpha virt. eigenvalues --    0.99317   0.99981   1.00069   1.00505   1.01093
 Alpha virt. eigenvalues --    1.01744   1.02323   1.02500   1.02753   1.04125
 Alpha virt. eigenvalues --    1.04389   1.04714   1.05761   1.06105   1.06678
 Alpha virt. eigenvalues --    1.06930   1.07882   1.08057   1.08358   1.09366
 Alpha virt. eigenvalues --    1.09503   1.10089   1.10898   1.11376   1.11537
 Alpha virt. eigenvalues --    1.12706   1.13158   1.13472   1.14518   1.14820
 Alpha virt. eigenvalues --    1.15414   1.16617   1.17928   1.18053   1.18471
 Alpha virt. eigenvalues --    1.19801   1.21455   1.22221   1.23830   1.24655
 Alpha virt. eigenvalues --    1.30114   1.65260   1.66806   1.67007   1.68031
 Alpha virt. eigenvalues --    1.68279   1.68805   1.69039   1.69611   1.69797
 Alpha virt. eigenvalues --    1.70459   1.70654   1.71276   1.71357   1.71613
 Alpha virt. eigenvalues --    1.72351   1.72803   1.73504   1.73651   1.74177
 Alpha virt. eigenvalues --    1.74257   1.74465   1.74859   1.75139   1.75474
 Alpha virt. eigenvalues --    1.75744   1.75850   1.76172   1.76369   1.76964
 Alpha virt. eigenvalues --    1.77124   1.77578   1.77742   1.78082   1.78324
 Alpha virt. eigenvalues --    1.78696   1.79093   1.79361   1.79888   1.80273
 Alpha virt. eigenvalues --    1.80405   1.80718   1.81417   1.81652   1.82113
 Alpha virt. eigenvalues --    1.82410   1.83425   1.83791   1.84218   1.84707
 Alpha virt. eigenvalues --    1.84997   1.85464   1.85951   1.86143   1.87019
 Alpha virt. eigenvalues --    1.87298   1.88323   1.88411   1.89671   1.90957
 Alpha virt. eigenvalues --    1.91428   1.92063   1.93591   1.94155   1.95364
 Alpha virt. eigenvalues --    1.97088   1.98714   1.99314   1.99470   1.99659
 Alpha virt. eigenvalues --    1.99835   2.00185   2.00506   2.00781   2.00973
 Alpha virt. eigenvalues --    2.01251   2.01440   2.01585   2.02091   2.02592
 Alpha virt. eigenvalues --    2.02760   2.02846   2.03067   2.03200   2.03288
 Alpha virt. eigenvalues --    2.03713   2.04111   2.04410   2.04636   2.04712
 Alpha virt. eigenvalues --    2.04898   2.05018   2.05577   2.05797   2.05888
 Alpha virt. eigenvalues --    2.06051   2.06501   2.06810   2.07423   2.07534
 Alpha virt. eigenvalues --    2.07808   2.08143   2.08541   2.09092   2.09392
 Alpha virt. eigenvalues --    2.09757   2.10061   2.10900   2.11443   2.11952
 Alpha virt. eigenvalues --    2.12491   2.12622   2.13199   2.13368   2.13777
 Alpha virt. eigenvalues --    2.14024   2.14248   2.15084   2.15301   2.15591
 Alpha virt. eigenvalues --    2.15769   2.16133   2.16410   2.16802   2.17478
 Alpha virt. eigenvalues --    2.17808   2.18169   2.18658   2.19361   2.19698
 Alpha virt. eigenvalues --    2.20169   2.20587   2.20984   2.21138   2.22511
 Alpha virt. eigenvalues --    2.22877   2.23152   2.23349   2.24210   2.24683
 Alpha virt. eigenvalues --    2.25435   2.25838   2.26232   2.27101   2.27572
 Alpha virt. eigenvalues --    2.28096   2.28321   2.28859   2.29982   2.30454
 Alpha virt. eigenvalues --    2.30832   2.31446   2.31955   2.32902   2.33199
 Alpha virt. eigenvalues --    2.34307   2.35000   2.36548   2.37493   2.37670
 Alpha virt. eigenvalues --    2.38760   2.39666   2.40191   2.40336   2.40844
 Alpha virt. eigenvalues --    2.41225   2.41732   2.41876   2.42222   2.42671
 Alpha virt. eigenvalues --    2.42784   2.43236   2.43666   2.44378   2.45131
 Alpha virt. eigenvalues --    2.46565   2.46863   2.47744   2.48141   2.48828
 Alpha virt. eigenvalues --    2.49401   2.50451   2.50515   2.50813   2.51812
 Alpha virt. eigenvalues --    2.52485   2.53119   2.53684   2.54383   2.55721
 Alpha virt. eigenvalues --    2.56127   2.57702   2.58323   2.67185   2.67699
 Alpha virt. eigenvalues --    2.67915   2.68150   2.69354   2.69366   2.70029
 Alpha virt. eigenvalues --    2.71399   2.72065   2.72288   2.72824   2.72952
 Alpha virt. eigenvalues --    2.73323   2.73883   2.74088   2.75291   2.75349
 Alpha virt. eigenvalues --    2.76042   2.76426   2.76749   2.77479   2.78205
 Alpha virt. eigenvalues --    2.79322   2.80605   2.80836   2.82495   2.83081
 Alpha virt. eigenvalues --    2.83861   2.84320   2.84764   2.85315   2.85543
 Alpha virt. eigenvalues --    2.85866   2.86207   2.87327   2.87778   2.87908
 Alpha virt. eigenvalues --    2.88672   2.89044   2.89739   2.90025   2.90269
 Alpha virt. eigenvalues --    2.90771   2.90819   2.91772   2.92599   2.93438
 Alpha virt. eigenvalues --    2.94020   2.95319   2.96473   2.96586   2.98626
 Alpha virt. eigenvalues --    2.98971   2.99463   3.00300   3.01536   3.01762
 Alpha virt. eigenvalues --    3.03608   3.04200   3.06322   3.07356   3.08377
 Alpha virt. eigenvalues --    3.09118   3.10099   3.13120   3.15017   3.15260
 Alpha virt. eigenvalues --    3.16803   3.17462   3.18542   3.19928   3.20665
 Alpha virt. eigenvalues --    3.21547   3.23555   3.25178   3.26630   3.27086
 Alpha virt. eigenvalues --    3.29888   3.30154   3.33258   3.35413   3.36261
 Alpha virt. eigenvalues --    3.36663   3.37646   3.38453   3.39233   3.43472
 Alpha virt. eigenvalues --    3.44774   3.46066   3.47020   3.51819   3.52902
 Alpha virt. eigenvalues --    3.55767   3.59990   3.62507   3.64367   4.51881
 Alpha virt. eigenvalues --    4.51989   4.52232   4.52301   4.52317   4.52473
 Alpha virt. eigenvalues --    4.52673   4.52778   4.52804   4.53027   4.53078
 Alpha virt. eigenvalues --    4.53125   4.53213   4.53393   4.53465   4.53639
 Alpha virt. eigenvalues --    4.53896   4.53976   4.54042   4.54232   4.54501
 Alpha virt. eigenvalues --    4.54591   4.54817   4.55120   4.55459   4.55677
 Alpha virt. eigenvalues --    4.55870   4.55966   4.56262   4.56867   4.57743
 Alpha virt. eigenvalues --    4.58463   4.59635   4.59861   4.60097   4.60109
 Alpha virt. eigenvalues --    4.60340   4.60405   4.60468   4.60620   4.60686
 Alpha virt. eigenvalues --    4.60797   4.60967   4.61161   4.61357   4.61387
 Alpha virt. eigenvalues --    4.61444   4.61452   4.61618   4.61658   4.61828
 Alpha virt. eigenvalues --    4.62193   4.62710   4.63127   4.63312   4.63653
 Alpha virt. eigenvalues --    4.63698   4.63816   4.64024   4.64289   4.64525
 Alpha virt. eigenvalues --    4.65861   4.66813   4.68092   4.73450   4.75413
 Alpha virt. eigenvalues --    4.76035   4.76289   4.76355   4.76405   4.76532
 Alpha virt. eigenvalues --    4.76708   4.77090   4.77591   4.78113   4.78789
 Alpha virt. eigenvalues --    4.78926   4.79513   4.79842   4.80491   4.81018
 Alpha virt. eigenvalues --    4.81101   4.81471   4.81658   4.82405   4.82499
 Alpha virt. eigenvalues --    4.82695   4.83487   4.83634   4.84346   4.84411
 Alpha virt. eigenvalues --    4.84747   4.84931   4.85723   4.86154   4.86364
 Alpha virt. eigenvalues --    4.86466   4.86863   4.87490   4.87579   4.87804
 Alpha virt. eigenvalues --    4.88148   4.88379   4.88807   4.88843   4.89518
 Alpha virt. eigenvalues --    4.89763   4.89887   4.90127   4.90657   4.90725
 Alpha virt. eigenvalues --    4.91344   4.91789   4.92199   4.92802   4.93884
 Alpha virt. eigenvalues --    4.94033   4.95209   4.95866   4.97642   4.97935
[...]
   Y20       31.78519   0.00248   0.00000   0.01032   0.01157  31.79676
   Z20       42.25428   0.01425   0.00000   0.02281   0.02501  42.27929
   X21       39.49528   0.00591   0.00000   0.02942   0.03154  39.52681
   Y21       32.78675   0.00357   0.00000  -0.00103   0.00006  32.78681
   Z21       40.79919  -0.00487   0.00000   0.00726   0.00922  40.80841
   X22       37.49217  -0.01325   0.00000  -0.02308  -0.02034  37.47183
   Y22       31.01041   0.00016   0.00000   0.02772   0.02839  31.03880
   Z22       41.81964  -0.00453   0.00000  -0.00739  -0.00489  41.81475
   X23       36.88745   0.00498   0.00000  -0.01625  -0.01501  36.87244
   Y23       33.05131  -0.00528   0.00000   0.00589   0.00436  33.05567
   Z23       31.86078  -0.00789   0.00000  -0.00854  -0.00639  31.85439
   X24       36.90635   0.00087   0.00000   0.00244   0.00376  36.91011
   Y24       33.27808   0.00080   0.00000  -0.00089  -0.00204  33.27603
   Z24       33.65602   0.01227   0.00000   0.01076   0.01285  33.66887
   X25       35.39457  -0.01346   0.00000  -0.03558  -0.03466  35.35991
   Y25       33.92058   0.00641   0.00000   0.01373   0.01162  33.93221
   Z25       31.31276  -0.00283   0.00000   0.00048   0.00258  31.31534
   X26       38.55041   0.01270   0.00000   0.00641   0.00877  38.55918
   Y26       30.65136   0.00919   0.00000  -0.00675  -0.00689  30.64447
   Z26       36.20715  -0.00054   0.00000  -0.00886  -0.00638  36.20077
   X27       38.02129  -0.00574   0.00000  -0.01689  -0.01420  38.00709
   Y27       30.02775  -0.00401   0.00000  -0.00155  -0.00153  30.02622
   Z27       37.81342   0.00902   0.00000   0.00408   0.00673  37.82015
   X28       37.52996  -0.01066   0.00000  -0.01872  -0.01620  37.51377
   Y28       29.76319  -0.00918   0.00000  -0.01322  -0.01392  29.74927
   Z28       35.01663  -0.01085   0.00000  -0.01779  -0.01504  35.00159
   X29       36.33943   0.00275   0.00000   0.00734   0.00889  36.34832
   Y29       35.86700   0.02201   0.00000   0.01012   0.01111  35.87811
   Z29       45.05107   0.00338   0.00000   0.01240   0.01402  45.06509
   X30       37.56776   0.00938   0.00000   0.00382   0.00571  37.57347
   Y30       34.63868  -0.01402   0.00000  -0.01615  -0.01490  34.62378
   Z30       44.54084  -0.00776   0.00000  -0.02572  -0.02396  44.51688
   X31       34.88434  -0.00997   0.00000  -0.00243  -0.00053  34.88381
   Y31       34.90324  -0.01293   0.00000  -0.02486  -0.02423  34.87902
   Z31       45.50461   0.00313   0.00000   0.00017   0.00212  45.50672
   X32       39.38189  -0.02128   0.00000  -0.04553  -0.04785  39.33405
   Y32       46.33608   0.00855   0.00000  -0.00331  -0.00296  46.33313
   Z32       37.47327  -0.02055   0.00000  -0.00044  -0.00121  37.47206
   X33       39.98660   0.01280   0.00000   0.02472   0.02290  40.00951
   Y33       45.03217  -0.01470   0.00000  -0.00538  -0.00460  45.02758
   Z33       38.55041   0.01855   0.00000   0.02160   0.02103  38.57144
   X34       40.04330   0.00658   0.00000   0.01651   0.01379  40.05709
   Y34       47.86676   0.00318   0.00000  -0.00879  -0.00807  47.85869
   Z34       38.17247   0.00302   0.00000  -0.01279  -0.01394  38.15853
   X35       30.70805  -0.00084   0.00000  -0.00482  -0.00374  30.70431
   Y35       36.71738  -0.01077   0.00000  -0.01256  -0.01380  36.70358
   Z35       42.55663  -0.00834   0.00000  -0.00748  -0.00552  42.55111
   X36       31.99306   0.00899   0.00000   0.02038   0.02109  32.01415
   Y36       37.98350   0.00320   0.00000  -0.01620  -0.01701  37.96649
   Z36       42.72671  -0.00063   0.00000  -0.01231  -0.01073  42.71598
   X37       29.53642  -0.00585   0.00000  -0.00381  -0.00273  29.53369
   Y37       37.07643   0.00500   0.00000   0.01872   0.01739  37.09381
   Z37       43.87944   0.00766   0.00000   0.00573   0.00771  43.88715
   X38       45.08887   0.01323   0.00000   0.01445   0.01407  45.10294
   Y38       41.25272  -0.00736   0.00000  -0.03233  -0.02936  41.22336
   Z38       41.66846   0.00271   0.00000   0.00399   0.00374  41.67220
   X39       43.65267  -0.00718   0.00000   0.01032   0.00966  43.66234
   Y39       41.85743   0.00506   0.00000   0.01152   0.01387  41.87130
   Z39       40.76139  -0.00306   0.00000   0.00493   0.00468  40.76607
   X40       44.40856  -0.00496   0.00000  -0.01637  -0.01645  44.39211
   Y40       40.72360   0.00024   0.00000   0.00202   0.00510  40.72870
   Z40       43.27473   0.00296   0.00000   0.00740   0.00732  43.28204
   X41       40.49683   0.01365   0.00000   0.03251   0.03262  40.52945
   Y41       36.01818   0.00418   0.00000   0.01541   0.01451  36.03269
   Z41       29.46083  -0.00590   0.00000   0.00284   0.00406  29.46489
   X42       40.42124  -0.00225   0.00000  -0.01217  -0.01260  40.40864
   Y42       37.83232   0.00355   0.00000   0.01594   0.01502  37.84733
   Z42       29.55532  -0.00027   0.00000  -0.00336  -0.00251  29.55281
   X43       39.15513  -0.00727   0.00000   0.00543   0.00581  39.16094
   Y43       35.45126  -0.00602   0.00000  -0.01574  -0.01685  35.43442
   Z43       30.53797   0.00441   0.00000  -0.01417  -0.01271  30.52526
   X44       40.57242   0.01641   0.00000   0.00447   0.00315  40.57557
   Y44       44.50305   0.00964   0.00000   0.00632   0.00806  44.51111
   Z44       42.46215  -0.01727   0.00000  -0.05514  -0.05566  42.40649
   X45       39.24961  -0.01202   0.00000  -0.03268  -0.03438  39.21523
   Y45       45.69358   0.00524   0.00000   0.01279   0.01406  45.70764
   Z45       42.12200   0.00742   0.00000   0.04688   0.04624  42.16824
   X46       39.75984  -0.00653   0.00000   0.01953   0.01871  39.77855
   Y46       43.16134  -0.01147   0.00000  -0.00090   0.00079  43.16214
   Z46       43.36921   0.00971   0.00000   0.00842   0.00825  43.37747
   X47       28.68604  -0.00911   0.00000  -0.01688  -0.01701  28.66903
   Y47       38.51262  -0.01371   0.00000  -0.02128  -0.02466  38.48796
   Z47       35.09221  -0.00432   0.00000   0.01159   0.01336  35.10557
   X48       29.93326   0.00588   0.00000   0.00485   0.00474  29.93800
   Y48       38.75828   0.00853   0.00000   0.02719   0.02447  38.78275
   Z48       36.37723   0.00579   0.00000   0.00120   0.00280  36.38003
   X49       28.17582   0.00354   0.00000   0.01528   0.01459  28.19040
   Y49       40.19447   0.00323   0.00000  -0.00588  -0.00949  40.18498
   Z49       34.63868   0.00253   0.00000   0.00624   0.00771  34.64639
   X50       45.33453   0.00534   0.00000   0.01314   0.01348  45.34801
   Y50       36.73628   0.00867   0.00000   0.01520   0.01678  36.75306
   Z50       34.44971  -0.00449   0.00000  -0.01068  -0.01004  34.43967
   X51       44.76761  -0.00700   0.00000  -0.02430  -0.02341  44.74420
   Y51       35.05442  -0.00367   0.00000   0.02070   0.02218  35.07660
   Z51       34.82765   0.00726   0.00000   0.02787   0.02890  34.85655
   X52       46.35498  -0.00031   0.00000  -0.00160  -0.00133  46.35365
   Y52       36.54730  -0.00048   0.00000  -0.01052  -0.00894  36.53836
   Z52       32.95682  -0.00225   0.00000  -0.01648  -0.01589  32.94093
   X53       36.05597  -0.01727   0.00000  -0.02003  -0.02255  36.03343
   Y53       45.82586  -0.01235   0.00000  -0.01432  -0.01579  45.81007
   Z53       33.39146  -0.01169   0.00000   0.01874   0.01837  33.40983
   X54       37.03863   0.01842   0.00000   0.04763   0.04527  37.08390
   Y54       45.73137   0.00501   0.00000   0.02501   0.02417  45.75554
   Z54       34.90324   0.01841   0.00000   0.01728   0.01683  34.92007
   X55       36.28274   0.00146   0.00000  -0.00334  -0.00643  36.27631
   Y55       47.52661   0.00640   0.00000  -0.01017  -0.01169  47.51492
   Z55       32.82454  -0.00257   0.00000  -0.00963  -0.01037  32.81417
   X56       46.05263   0.01334   0.00000   0.01692   0.01914  46.07176
   Y56       32.54108  -0.00647   0.00000  -0.01114  -0.00799  32.53309
   Z56       41.08265   0.01101   0.00000   0.02125   0.02268  41.10533
   X57       44.46526  -0.00536   0.00000   0.01442   0.01647  44.48173
   Y57       32.84344   0.00328   0.00000  -0.00653  -0.00404  32.83940
   Z57       40.25117  -0.00748   0.00000  -0.01257  -0.01106  40.24010
   X58       47.05418  -0.00445   0.00000  -0.01530  -0.01357  47.04061
   Y58       34.01507   0.00210   0.00000   0.00423   0.00759  34.02266
   Z58       40.70470  -0.00219   0.00000  -0.00492  -0.00389  40.70082
   X59       33.07021   0.00186   0.00000   0.00842   0.01113  33.08134
   Y59       29.08289  -0.01509   0.00000  -0.00371  -0.00580  29.07708
   Z59       34.78986   0.00002   0.00000  -0.00139   0.00190  34.79176
   X60       33.24028   0.00159   0.00000   0.00161   0.00387  33.24416
   Y60       30.74584   0.01561   0.00000   0.02165   0.01975  30.76559
   Z60       35.50795   0.00545   0.00000   0.00265   0.00558  35.51353
   X61       32.67336   0.00151   0.00000   0.01340   0.01586  32.68922
   Y61       29.40414   0.00124   0.00000   0.00151  -0.00106  29.40308
   Z61       33.05131  -0.00519   0.00000  -0.00951  -0.00625  33.04506
   X62       30.95371   0.01253   0.00000   0.06330   0.06388  31.01759
   Y62       35.13001  -0.00861   0.00000  -0.01971  -0.02310  35.10691
   Z62       31.52063  -0.01769   0.00000  -0.01867  -0.01643  31.50421
   X63       30.70805  -0.00257   0.00000  -0.01742  -0.01632  30.69173
   Y63       33.33477   0.00045   0.00000  -0.00779  -0.01131  33.32346
   Z63       31.33166   0.00311   0.00000   0.01236   0.01499  31.34665
   X64       30.68915  -0.00583   0.00000  -0.02196  -0.02134  30.66781
   Y64       35.45126   0.00651   0.00000   0.02966   0.02652  35.47779
   Z64       33.27808   0.01254   0.00000  -0.01353  -0.01132  33.26675
   X65       34.44971   0.02280   0.00000   0.00626   0.00926  34.45896
   Y65       29.85767  -0.00708   0.00000  -0.02234  -0.02282  29.83485
   Z65       40.59132   0.00830   0.00000   0.04729   0.05030  40.64161
   X66       32.65447  -0.02602   0.00000  -0.03199  -0.02906  32.62541
   Y66       30.08444   0.00042   0.00000  -0.01332  -0.01437  30.07007
   Z66       40.62911  -0.00001   0.00000  -0.00459  -0.00146  40.62765
   X67       34.71427  -0.00174   0.00000  -0.01316  -0.00958  34.70468
   Y67       28.11912  -0.00693   0.00000  -0.04349  -0.04382  28.07530
   Z67       41.04485  -0.00375   0.00000  -0.02456  -0.02121  41.02364
   X68       28.47817  -0.01673   0.00000  -0.00930  -0.01063  28.46754
   Y68       43.50150   0.00496   0.00000   0.02016   0.01748  43.51898
   Z68       38.81497   0.00741   0.00000   0.02224   0.02301  38.83799
   X69       30.14113   0.01309   0.00000   0.00025  -0.00086  30.14027
   Y69       42.78340  -0.00753   0.00000  -0.01717  -0.01936  42.76404
   Z69       38.75828  -0.00507   0.00000  -0.02264  -0.02187  38.73642
   X70       28.55376   0.00246   0.00000   0.00655   0.00469  28.55846
   Y70       44.89989   0.00150   0.00000   0.00041  -0.00248  44.89741
   Z70       37.66224  -0.00338   0.00000  -0.00849  -0.00801  37.65423
   X71       43.69047   0.01387   0.00000   0.01786   0.01520  43.70567
   Y71       46.39278   0.01032   0.00000   0.01443   0.01539  46.40816
   Z71       33.84500  -0.00315   0.00000  -0.00008  -0.00126  33.84374
   X72       42.12200  -0.00843   0.00000  -0.00849  -0.01141  42.11058
   Y72       47.14867  -0.00128   0.00000  -0.01165  -0.01127  47.13739
   Z72       33.37256  -0.00044   0.00000   0.00295   0.00177  33.37433
   X73       43.21804  -0.00542   0.00000  -0.00088  -0.00298  43.21506
   Y73       44.78651  -0.00979   0.00000  -0.00748  -0.00653  44.77998
   Z73       34.56309   0.00137   0.00000  -0.01352  -0.01433  34.54876
   X74       29.72539   0.00828   0.00000   0.02459   0.02710  29.75249
   Y74       31.61512  -0.01715   0.00000  -0.00193  -0.00372  31.61140
   Z74       41.25272  -0.00392   0.00000   0.00893   0.01200  41.26472
   X75       30.36790   0.00166   0.00000  -0.01641  -0.01440  30.35350
   Y75       33.29697   0.02135   0.00000   0.04322   0.04165  33.33862
   Z75       41.46059   0.00414   0.00000   0.00886   0.01152  41.47212
   X76       28.08133  -0.00829   0.00000  -0.00461  -0.00204  28.07929
   Y76       31.65291  -0.00021   0.00000  -0.00928  -0.01144  31.64147
   Z76       41.98971   0.00124   0.00000  -0.01835  -0.01514  41.97458
   X77       35.54575  -0.01429   0.00000  -0.03172  -0.03327  35.51248
   Y77       40.66691  -0.00485   0.00000   0.01589   0.01291  40.67982
   Z77       26.77742  -0.01610   0.00000  -0.01575  -0.01504  26.76238
   X78       36.28274   0.00358   0.00000   0.01650   0.01451  36.29725
   Y78       41.80074   0.00207   0.00000   0.00665   0.00367  41.80441
   Z78       25.56799  -0.00022   0.00000   0.00074   0.00116  25.56915
   X79       36.30164   0.01172   0.00000   0.02696   0.02542  36.32706
   Y79       41.13934  -0.00109   0.00000  -0.03542  -0.03783  41.10151
   Z79       28.34589   0.01514   0.00000   0.00549   0.00605  28.35194
   X80       37.17091   0.00404   0.00000  -0.01385  -0.01389  37.15702
   Y80       42.23538  -0.00269   0.00000  -0.02295  -0.02095  42.21443
   Z80       48.81163   0.01292   0.00000   0.02652   0.02678  48.83841
   X81       36.13156  -0.00144   0.00000   0.00469   0.00423  36.13580
   Y81       43.67157   0.00340   0.00000   0.00583   0.00759  43.67916
   Z81       49.18957  -0.00074   0.00000  -0.00512  -0.00507  49.18450
   X82       36.49061  -0.00010   0.00000   0.02531   0.02531  36.51592
   Y82       41.59287  -0.00015   0.00000   0.01725   0.01873  41.61160
   Z82       47.26205  -0.01311   0.00000  -0.02821  -0.02777  47.23428
   X83       43.01017   0.00249   0.00000   0.00566   0.00634  43.01650
   Y83       39.17402   0.00945   0.00000   0.00737   0.01070  39.18472
   Z83       46.56285  -0.00569   0.00000  -0.00176  -0.00141  46.56144
   X84       43.87944   0.00396   0.00000  -0.00230  -0.00111  43.87833
   Y84       37.70004  -0.00973   0.00000  -0.01736  -0.01365  37.68638
   Z84       47.12977   0.00208   0.00000  -0.00465  -0.00407  47.12570
   X85       41.38500  -0.00720   0.00000  -0.00981  -0.00903  41.37597
   Y85       39.07954   0.00205   0.00000   0.01321   0.01619  39.09573
   Z85       47.35654   0.00169   0.00000  -0.00697  -0.00645  47.35009
   X86       48.07463   0.01741   0.00000   0.03954   0.03804  48.11267
   Y86       43.33142  -0.00033   0.00000  -0.01422  -0.01142  43.32000
   Z86       36.30164   0.00353   0.00000  -0.00431  -0.00525  36.29639
   X87       46.39278  -0.00954   0.00000   0.00238   0.00090  46.39367
   Y87       43.08576   0.00011   0.00000   0.00403   0.00619  43.09195
   Z87       35.69693   0.00100   0.00000   0.03498   0.03424  35.73116
   X88       48.84942  -0.00496   0.00000  -0.01881  -0.02077  48.82865
   Y88       44.42746   0.00155   0.00000   0.01284   0.01561  44.44307
   Z88       35.07332  -0.00215   0.00000  -0.01350  -0.01474  35.05858
   X89       40.64801   0.00646   0.00000  -0.00501  -0.00276  40.64525
   Y89       29.27186  -0.01155   0.00000  -0.01557  -0.01629  29.25556
   Z89       30.17893  -0.00053   0.00000   0.01038   0.01296  30.19188
   X90       42.23538  -0.00358   0.00000  -0.01405  -0.01197  42.22341
   Y90       29.95216   0.00288   0.00000   0.01242   0.01230  29.96446
   Z90       30.76474   0.00003   0.00000  -0.00257  -0.00028  30.76447
   X91       39.43858  -0.00586   0.00000  -0.00477  -0.00289  39.43569
   Y91       30.55687   0.01028   0.00000   0.01726   0.01625  30.57312
   Z91       30.59467   0.00051   0.00000  -0.01549  -0.01307  30.58160
   X92       35.90480   0.00546   0.00000   0.01158   0.00929  35.91408
   Y92       47.67779   0.00246   0.00000   0.01465   0.01494  47.69273
   Z92       42.29207  -0.00110   0.00000  -0.00663  -0.00737  42.28470
   X93       34.77096  -0.00107   0.00000   0.00782   0.00563  34.77659
   Y93       47.77228  -0.00139   0.00000  -0.00886  -0.00862  47.76365
   Z93       43.70937   0.00163   0.00000  -0.00150  -0.00215  43.70722
   X94       34.80876  -0.00182   0.00000   0.00360   0.00123  34.80999
   Y94       47.48882  -0.00230   0.00000  -0.01160  -0.01194  47.47688
   Z94       40.85588  -0.00277   0.00000  -0.00391  -0.00451  40.85137
   X95       33.41036   0.00471   0.00000   0.00266   0.00566  33.41602
   Y95       31.40725   0.00757   0.00000   0.00430   0.00457  31.41182
   Z95       45.95814   0.01165   0.00000   0.01978   0.02256  45.98070
   X96       31.67181  -0.00563   0.00000  -0.01076  -0.00761  31.66420
   Y96       30.99151  -0.00192   0.00000   0.00098   0.00077  30.99228
   Z96       46.24160  -0.00319   0.00000  -0.01760  -0.01458  46.22702
   X97       33.88279   0.00005   0.00000  -0.00567  -0.00252  33.88027
   Y97       30.46239  -0.00106   0.00000   0.02457   0.02469  30.48707
   Z97       44.48415  -0.00902   0.00000  -0.01458  -0.01165  44.47250
         Item               Value     Threshold  Converged?
 Maximum Force            0.033397     0.000450     NO 
 RMS     Force            0.009389     0.000300     NO 
 Maximum Displacement     0.063875     0.001800     NO 
 RMS     Displacement     0.017549     0.001200     NO 
 Predicted change in Energy=-2.321059D-02
 GradGradGradGradGradGradGradGradGradGradGradGradGradGradGradGradGradGrad

 Leave Link  103 at Wed May  2 19:45:24 2018, MaxMem= 14763950080 cpu:        52.6
 (Enter /cm/shared/gaussian/g09.e01/intel64-sandybridge/g09/l9999.exe)
 1\1\GINC-POPLE03\Force\RPBE1PBE\CC-pVDZ\Br1H64O32(1-)\M.PELUSO\02-May-
 2018\0\\#p PBE1PBE/cc-pvDZ force Counterpoise=2 noSymm\\forces on chlo
 ride comput - NWATER: 32\\-1,1\Br,20.,20.,20.\O,17.85,17.89,19.65\H,17
 .82,17.54,20.54\H,18.65,18.41,19.63\O,17.43,21.89,19.71\H,17.92,22.62,
 19.32\H,18.07,21.18,19.78\O,22.31,17.89,20.08\H,21.66,17.42,19.56\H,21
 .88,18.71,20.31\O,19.89,21.49,23.14\H,19.9,21.43,22.19\H,19.72,20.59,2
 3.43\O,22.78,21.91,18.84\H,21.92,21.57,19.07\H,23.26,21.16,18.49\O,20.
 3,21.96,16.53\H,20.23,21.32,17.25\H,19.77,22.7,16.82\O,20.67,16.82,22.
 36\H,20.9,17.35,21.59\H,19.84,16.41,22.13\O,19.52,17.49,16.86\H,19.53,
 17.61,17.81\H,18.73,17.95,16.57\O,20.4,16.22,19.16\H,20.12,15.89,20.01
 \H,19.86,15.75,18.53\O,19.23,18.98,23.84\H,19.88,18.33,23.57\H,18.46,1
 8.47,24.08\O,20.84,24.52,19.83\H,21.16,23.83,20.4\H,21.19,25.33,20.2\O
 ,16.25,19.43,22.52\H,16.93,20.1,22.61\H,15.63,19.62,23.22\O,23.86,21.8
 3,22.05\H,23.1,22.15,21.57\H,23.5,21.55,22.9\O,21.43,19.06,15.59\H,21.
 39,20.02,15.64\H,20.72,18.76,16.16\O,21.47,23.55,22.47\H,20.77,24.18,2
 2.29\H,21.04,22.84,22.95\O,15.18,20.38,18.57\H,15.84,20.51,19.25\H,14.
 91,21.27,18.33\O,23.99,19.44,18.23\H,23.69,18.55,18.43\H,24.53,19.34,1
 7.44\O,19.08,24.25,17.67\H,19.6,24.2,18.47\H,19.2,25.15,17.37\O,24.37,
 17.22,21.74\H,23.53,17.38,21.3\H,24.9,18.,21.54\O,17.5,15.39,18.41\H,1
 7.59,16.27,18.79\H,17.29,15.56,17.49\O,16.38,18.59,16.68\H,16.25,17.64
 ,16.58\H,16.24,18.76,17.61\O,18.23,15.8,21.48\H,17.28,15.92,21.5\H,18.
 37,14.88,21.72\O,15.07,23.02,20.54\H,15.95,22.64,20.51\H,15.11,23.76,1
 9.93\O,23.12,24.55,17.91\H,22.29,24.95,17.66\H,22.87,23.7,18.29\O,15.7
 3,16.73,21.83\H,16.07,17.62,21.94\H,14.86,16.75,22.22\O,18.81,21.52,14
 .17\H,19.2,22.12,13.53\H,19.21,21.77,15.\O,19.67,22.35,25.83\H,19.12,2
 3.11,26.03\H,19.31,22.01,25.01\O,22.76,20.73,24.64\H,23.22,19.95,24.94
 \H,21.9,20.68,25.06\O,25.44,22.93,19.21\H,24.55,22.8,18.89\H,25.85,23.
 51,18.56\O,21.51,15.49,15.97\H,22.35,15.85,16.28\H,20.87,16.17,16.19\O
 ,19.,25.23,22.38\H,18.4,25.28,23.13\H,18.42,25.13,21.62\O,17.68,16.62,
 24.32\H,16.76,16.4,24.47\H,17.93,16.12,23.54\\Version=ES64L-G09RevE.01
 \HF=-2443.2105427\RMSD=2.637e-09\RMSF=9.389e-03\Dipole=-6.6306586,0.77
 30273,3.0473742\Quadrupole=-433.3849689,155.5884569,277.796512,-1653.5
 845001,-1603.1948335,-1318.0705234\PG=C01 [X(Br1H64O32)]\\@


 IF THE FACTS DO NOT CONFORM TO THE THEORY, THEY MUST BE DISPOSED OF.
 Job cpu time:       0 days  9 hours 36 minutes  4.9 seconds.
 File lengths (MBytes):  RWF=    482 Int=      0 D2E=      0 Chk=    160 Scr=      1
 Normal termination of Gaussian 09 at Wed May  2 19:45:25 2018.
