 Entering Gaussian System, Link 0=/cm/shared/gaussian/g09.e01/intel64-sandybridge/g09/g09
 Initial command:
 /cm/shared/gaussian/g09.e01/intel64-sandybridge/g09/l1.exe "/local/scratch/m.peluso/32_wat/Gau-32099.inp" -scrdir="/local/scratch/m.peluso/32_wat/"
 Entering Link 1 = /cm/shared/gaussian/g09.e01/intel64-sandybridge/g09/l1.exe PID=     32100.
  
 Copyright (c) 1988,1990,1992,1993,1995,1998,2003,2009,2015,
            Gaussian, Inc.  All Rights Reserved.
  
 This is part of the Gaussian(R) 09 program.  It is based on
 the Gaussian(R) 03 system (copyright 2003, Gaussian, Inc.),
 the Gaussian(R) 98 system (copyright 1998, Gaussian, Inc.),
 the Gaussian(R) 94 system (copyright 1995, Gaussian, Inc.),
 the Gaussian 92(TM) system (copyright 1992, Gaussian, Inc.),
 the Gaussian 90(TM) system (copyright 1990, Gaussian, Inc.),
 the Gaussian 88(TM) system (copyright 1988, Gaussian, Inc.),
 the Gaussian 86(TM) system (copyright 1986, Carnegie Mellon
 University), and the Gaussian 82(TM) system (copyright 1983,
 Carnegie Mellon University). Gaussian is a federally registered
 trademark of Gaussian, Inc.
  
 This software contains proprietary and confidential information,
 including trade secrets, belonging to Gaussian, Inc.
  
 This software is provided under written license and may be
 used, copied, transmitted, or stored only in accord with that
 written license.
  
 The following legend is applicable only to US Government
 contracts under FAR:
  
                    RESTRICTED RIGHTS LEGEND
  
 Use, reproduction and disclosure by the US Government is
 subject to restrictions as set forth in subparagraphs (a)
 and (c) of the Commercial Computer Software - Restricted
 Rights clause in FAR 52.227-19.
  
 Gaussian, Inc.
 340 Quinnipiac St., Bldg. 40, Wallingford CT 06492
  
  
 ---------------------------------------------------------------
 Warning -- This program may not be used in any manner that
 competes with the business of Gaussian, Inc. or will provide
 assistance to any competitor of Gaussian, Inc.  The licensee
 of this program is prohibited from giving any competitor of
 Gaussian, Inc. access to this program.  By using this program,
 the user acknowledges that Gaussian, Inc. is engaged in the
 business of creating and licensing software in the field of
 computational chemistry and represents and warrants to the
 licensee that it is not a competitor of Gaussian, Inc. and that
 it will not use this program in any manner prohibited above.
 ---------------------------------------------------------------
  

 Cite this work as:
 Gaussian 09, Revision E.01,
 M. J. Frisch, G. W. Trucks, H. B. Schlegel, G. E. Scuseria, 
 M. A. Robb, J. R. Cheeseman, G. Scalmani, V. Barone, B. Mennucci, 
 G. A. Petersson, H. Nakatsuji, M. Caricato, X. Li, H. P. Hratchian, 
 A. F. Izmaylov, J. Bloino, G. Zheng, J. L. Sonnenberg, M. Hada, 
 M. Ehara, K. Toyota, R. Fukuda, J. Hasegawa, M. Ishida, T. Nakajima, 
 Y. Honda, O. Kitao, H. Nakai, T. Vreven, J. A. Montgomery, Jr., 
 J. E. Peralta, F. Ogliaro, M. Bearpark, J. J. Heyd, E. Brothers, 
 K. N. Kudin, V. N. Staroverov, T. Keith, R. Kobayashi, J. Normand, 
 K. Raghavachari, A. Rendell, J. C. Burant, S. S. Iyengar, J. Tomasi, 
 M. Cossi, N. Rega, J. M. Millam, M. Klene, J. E. Knox, J. B. Cross, 
 V. Bakken, C. Adamo, J. Jaramillo, R. Gomperts, R. E. Stratmann, 
 O. Yazyev, A. J. Austin, R. Cammi, C. Pomelli, J. W. Ochterski, 
 R. L. Martin, K. Morokuma, V. G. Zakrzewski, G. A. Voth, 
 P. Salvador, J. J. Dannenberg, S. Dapprich, A. D. Daniels, 
 O. Farkas, J. B. Foresman, J. V. Ortiz, J. Cioslowski, 
 and D. J. Fox, Gaussian, Inc., Wallingford CT, 2013.
 
 ******************************************
 Gaussian 09:  ES64L-G09RevE.01 30-Nov-2015
                 3-May-2018 
 ******************************************
 %Mem=110GB
 %NProcShared=64
 Will use up to   64 processors via shared memory.
 %chk=snap26.chk
 ----------------------------------------------
 #p PBE1PBE/cc-pvDZ force Counterpoise=2 noSymm
 ----------------------------------------------
 1/10=7,30=1,38=1,62=2/1,3;
 2/12=2,15=1,17=6,18=5,40=1/2;
 1/10=7,30=1,38=1,53=2,62=2,63=101/22;
 3/5=16,11=2,16=1,25=1,30=1,71=1,74=-13/1,2,3;
 4//1;
 5/5=2,38=5/2;
 6/7=2,8=2,9=2,10=2,28=1/1;
 7/7=1,29=1,30=1,33=-1/1,2,3,16;
 1/10=7,30=1,53=2,62=2,63=101/22;
 3/5=7,6=11,11=2,16=1,25=1,30=1,71=1,74=-13,82=7/1,2,3;
 4//1;
 5/5=2,38=5/2;
 6/7=2,8=2,9=2,10=2,28=1/1;
 7/7=1,29=1,30=1,33=-1/1,2,3,16;
 1/10=7,30=1,53=2,62=2,63=101/22(-5);
 7/9=1,29=1,44=-1/16;
 1/10=7,30=1,62=2/3;
 99//99;
 Leave Link    1 at Thu May  3 07:57:39 2018, MaxMem= 14763950080 cpu:         8.6
 (Enter /cm/shared/gaussian/g09.e01/intel64-sandybridge/g09/l101.exe)
 --------------------------------------
 forces on chloride comput - NWATER: 32
 --------------------------------------
 Symbolic Z-matrix:
 Charge = -1 Multiplicity = 1 in supermolecule
 Charge = -1 Multiplicity = 1 in fragment      1.
 Charge =  0 Multiplicity = 1 in fragment      2.
 Br(Fragment=1)        20.       20.       20. 
 O(Fragment=2)         16.99     20.39     20.89 
 H(Fragment=2)         16.99     20.77     21.76 
 H(Fragment=2)         17.92     20.26     20.69 
 O(Fragment=2)         21.59     22.4      21.1 
 H(Fragment=2)         21.1      21.57     21.12 
 H(Fragment=2)         20.93     23.07     21.23 
 O(Fragment=2)         19.1      18.76     22.84 
 H(Fragment=2)         19.36     19.2      22.03 
 H(Fragment=2)         19.       17.85     22.6 
 O(Fragment=2)         17.81     17.65     19.37 
 H(Fragment=2)         18.21     18.46     19.7 
 H(Fragment=2)         17.97     17.66     18.43 
 O(Fragment=2)         21.84     18.47     17.55 
 H(Fragment=2)         21.38     18.18     16.76 
 H(Fragment=2)         21.15     18.86     18.1 
 O(Fragment=2)         21.77     22.41     18.28 
 H(Fragment=2)         21.47     21.73     18.89 
 H(Fragment=2)         21.21     23.17     18.47 
 O(Fragment=2)         19.81     21.36     16.32 
 H(Fragment=2)         18.92     21.58     16.58 
 H(Fragment=2)         20.29     21.27     17.14 
 O(Fragment=2)         23.23     18.57     21.74 
 H(Fragment=2)         23.39     19.23     21.07 
 H(Fragment=2)         23.59     18.94     22.55 
 O(Fragment=2)         16.85     23.34     20.02 
 H(Fragment=2)         17.3      22.52     19.81 
 H(Fragment=2)         15.92     23.11     20.02 
 O(Fragment=2)         24.03     20.81     20.15 
 H(Fragment=2)         23.65     21.67     20.35 
 H(Fragment=2)         23.68     20.58     19.29 
 O(Fragment=2)         23.42     17.04     19.45 
 H(Fragment=2)         22.68     17.34     18.92 
 H(Fragment=2)         23.45     17.65     20.19 
 O(Fragment=2)         19.7      15.33     19.21 
 H(Fragment=2)         19.17     16.13     19.19 
 H(Fragment=2)         20.58     15.64     19.44 
 O(Fragment=2)         16.98     21.87     22.89 
 H(Fragment=2)         17.9      22.1      22.78 
 H(Fragment=2)         16.52     22.71     22.89 
 O(Fragment=2)         16.64     21.06     17.63 
 H(Fragment=2)         16.28     20.88     18.5 
 H(Fragment=2)         16.67     22.01     17.58 
 O(Fragment=2)         17.88     18.35     16.76 
 H(Fragment=2)         18.72     18.49     16.33 
 H(Fragment=2)         17.48     19.22     16.8 
 O(Fragment=2)         20.26     17.29     24.81 
 H(Fragment=2)         19.97     18.05     24.31 
 H(Fragment=2)         19.61     16.62     24.64 
 O(Fragment=2)         15.11     17.13     20.16 
 H(Fragment=2)         15.26     16.22     20.4 
 H(Fragment=2)         15.99     17.49     20.02 
 O(Fragment=2)         16.75     19.55     24.46 
 H(Fragment=2)         17.48     19.23     23.93 
 H(Fragment=2)         17.08     20.36     24.86 
 O(Fragment=2)         20.39     24.81     19.71 
 H(Fragment=2)         21.21     25.29     19.75 
 H(Fragment=2)         19.71     25.47     19.86 
 O(Fragment=2)         19.62     23.46     23.36 
 H(Fragment=2)         19.62     24.4      23.18 
 H(Fragment=2)         20.52     23.26     23.61 
 O(Fragment=2)         23.92     23.62     22.35 
 H(Fragment=2)         23.52     23.02     21.71 
 H(Fragment=2)         23.22     24.23     22.57 
 O(Fragment=2)         14.22     20.25     21.02 
 H(Fragment=2)         14.12     19.41     21.47 
 H(Fragment=2)         15.14     20.49     21.15 
 O(Fragment=2)         18.91     21.       25.84 
 H(Fragment=2)         18.86     21.03     24.88 
 H(Fragment=2)         19.77     21.36     26.05 
 O(Fragment=2)         24.26     19.96     16.05 
 H(Fragment=2)         24.01     19.28     16.67 
 H(Fragment=2)         23.43     20.36     15.78 
 O(Fragment=2)         20.31     16.2      16.04 
 H(Fragment=2)         20.61     15.76     16.84 
 H(Fragment=2)         20.19     15.49     15.4 
 O(Fragment=2)         18.51     20.26     13.88 
 H(Fragment=2)         18.68     20.95     13.24 
 H(Fragment=2)         18.72     20.66     14.72 
 O(Fragment=2)         22.       20.58     14.35 
 H(Fragment=2)         21.4      21.15     14.83 
 H(Fragment=2)         21.78     20.72     13.43 
 O(Fragment=2)         24.27     20.48     24.02 
 H(Fragment=2)         25.03     21.01     23.81 
 H(Fragment=2)         23.54     21.1      24.05 
 O(Fragment=2)         22.99     24.2      16.19 
 H(Fragment=2)         23.81     24.45     16.62 
 H(Fragment=2)         22.85     23.29     16.44 
 O(Fragment=2)         17.51     25.86     20.99 
 H(Fragment=2)         17.45     26.38     20.19 
 H(Fragment=2)         17.38     24.96     20.69 
 O(Fragment=2)         23.15     14.5      20.51 
 H(Fragment=2)         23.35     15.29     20. 
 H(Fragment=2)         23.94     14.34     21.02 
 O(Fragment=2)         16.77     16.6      15.17 
 H(Fragment=2)         16.81     17.18     14.41 
 H(Fragment=2)         17.12     17.12     15.89 
 
 NAtoms=     97 NQM=       97 NQMF=       0 NMMI=      0 NMMIF=      0
                NMic=       0 NMicF=      0.
                    Isotopes and Nuclear Properties:
 (Nuclear quadrupole moments (NQMom) in fm**2, nuclear magnetic moments (NMagM)
  in nuclear magnetons)

  Atom         1           2           3           4           5           6           7           8           9          10
 IAtWgt=          79          16           1           1          16           1           1          16           1           1
 AtmWgt=  78.9183361  15.9949146   1.0078250   1.0078250  15.9949146   1.0078250   1.0078250  15.9949146   1.0078250   1.0078250
 NucSpn=           3           0           1           1           0           1           1           0           1           1
 AtZEff=   0.0000000   0.0000000   0.0000000   0.0000000   0.0000000   0.0000000   0.0000000   0.0000000   0.0000000   0.0000000
 NQMom=   31.3000000   0.0000000   0.0000000   0.0000000   0.0000000   0.0000000   0.0000000   0.0000000   0.0000000   0.0000000
 NMagM=    2.1063990   0.0000000   2.7928460   2.7928460   0.0000000   2.7928460   2.7928460   0.0000000   2.7928460   2.7928460
 AtZNuc=  35.0000000   8.0000000   1.0000000   1.0000000   8.0000000   1.0000000   1.0000000   8.0000000   1.0000000   1.0000000

  Atom        11          12          13          14          15          16          17          18          19          20
 IAtWgt=          16           1           1          16           1           1          16           1           1          16
 AtmWgt=  15.9949146   1.0078250   1.0078250  15.9949146   1.0078250   1.0078250  15.9949146   1.0078250   1.0078250  15.9949146
 NucSpn=           0           1           1           0           1           1           0           1           1           0
 AtZEff=   0.0000000   0.0000000   0.0000000   0.0000000   0.0000000   0.0000000   0.0000000   0.0000000   0.0000000   0.0000000
 NQMom=    0.0000000   0.0000000   0.0000000   0.0000000   0.0000000   0.0000000   0.0000000   0.0000000   0.0000000   0.0000000
 NMagM=    0.0000000   2.7928460   2.7928460   0.0000000   2.7928460   2.7928460   0.0000000   2.7928460   2.7928460   0.0000000
 AtZNuc=   8.0000000   1.0000000   1.0000000   8.0000000   1.0000000   1.0000000   8.0000000   1.0000000   1.0000000   8.0000000

  Atom        21          22          23          24          25          26          27          28          29          30
 IAtWgt=           1           1          16           1           1          16           1           1          16           1
 AtmWgt=   1.0078250   1.0078250  15.9949146   1.0078250   1.0078250  15.9949146   1.0078250   1.0078250  15.9949146   1.0078250
 NucSpn=           1           1           0           1           1           0           1           1           0           1
 AtZEff=   0.0000000   0.0000000   0.0000000   0.0000000   0.0000000   0.0000000   0.0000000   0.0000000   0.0000000   0.0000000
 NQMom=    0.0000000   0.0000000   0.0000000   0.0000000   0.0000000   0.0000000   0.0000000   0.0000000   0.0000000   0.0000000
 NMagM=    2.7928460   2.7928460   0.0000000   2.7928460   2.7928460   0.0000000   2.7928460   2.7928460   0.0000000   2.7928460
 AtZNuc=   1.0000000   1.0000000   8.0000000   1.0000000   1.0000000   8.0000000   1.0000000   1.0000000   8.0000000   1.0000000

  Atom        31          32          33          34          35          36          37          38          39          40
 IAtWgt=           1          16           1           1          16           1           1          16           1           1
 AtmWgt=   1.0078250  15.9949146   1.0078250   1.0078250  15.9949146   1.0078250   1.0078250  15.9949146   1.0078250   1.0078250
 NucSpn=           1           0           1           1           0           1           1           0           1           1
 AtZEff=   0.0000000   0.0000000   0.0000000   0.0000000   0.0000000   0.0000000   0.0000000   0.0000000   0.0000000   0.0000000
 NQMom=    0.0000000   0.0000000   0.0000000   0.0000000   0.0000000   0.0000000   0.0000000   0.0000000   0.0000000   0.0000000
 NMagM=    2.7928460   0.0000000   2.7928460   2.7928460   0.0000000   2.7928460   2.7928460   0.0000000   2.7928460   2.7928460
 AtZNuc=   1.0000000   8.0000000   1.0000000   1.0000000   8.0000000   1.0000000   1.0000000   8.0000000   1.0000000   1.0000000

  Atom        41          42          43          44          45          46          47          48          49          50
 IAtWgt=          16           1           1          16           1           1          16           1           1          16
 AtmWgt=  15.9949146   1.0078250   1.0078250  15.9949146   1.0078250   1.0078250  15.9949146   1.0078250   1.0078250  15.9949146
 NucSpn=           0           1           1           0           1           1           0           1           1           0
 AtZEff=   0.0000000   0.0000000   0.0000000   0.0000000   0.0000000   0.0000000   0.0000000   0.0000000   0.0000000   0.0000000
 NQMom=    0.0000000   0.0000000   0.0000000   0.0000000   0.0000000   0.0000000   0.0000000   0.0000000   0.0000000   0.0000000
 NMagM=    0.0000000   2.7928460   2.7928460   0.0000000   2.7928460   2.7928460   0.0000000   2.7928460   2.7928460   0.0000000
 AtZNuc=   8.0000000   1.0000000   1.0000000   8.0000000   1.0000000   1.0000000   8.0000000   1.0000000   1.0000000   8.0000000

  Atom        51          52          53          54          55          56          57          58          59          60
 IAtWgt=           1           1          16           1           1          16           1           1          16           1
 AtmWgt=   1.0078250   1.0078250  15.9949146   1.0078250   1.0078250  15.9949146   1.0078250   1.0078250  15.9949146   1.0078250
 NucSpn=           1           1           0           1           1           0           1           1           0           1
 AtZEff=   0.0000000   0.0000000   0.0000000   0.0000000   0.0000000   0.0000000   0.0000000   0.0000000   0.0000000   0.0000000
 NQMom=    0.0000000   0.0000000   0.0000000   0.0000000   0.0000000   0.0000000   0.0000000   0.0000000   0.0000000   0.0000000
 NMagM=    2.7928460   2.7928460   0.0000000   2.7928460   2.7928460   0.0000000   2.7928460   2.7928460   0.0000000   2.7928460
 AtZNuc=   1.0000000   1.0000000   8.0000000   1.0000000   1.0000000   8.0000000   1.0000000   1.0000000   8.0000000   1.0000000

  Atom        61          62          63          64          65          66          67          68          69          70
 IAtWgt=           1          16           1           1          16           1           1          16           1           1
 AtmWgt=   1.0078250  15.9949146   1.0078250   1.0078250  15.9949146   1.0078250   1.0078250  15.9949146   1.0078250   1.0078250
 NucSpn=           1           0           1           1           0           1           1           0           1           1
 AtZEff=   0.0000000   0.0000000   0.0000000   0.0000000   0.0000000   0.0000000   0.0000000   0.0000000   0.0000000   0.0000000
 NQMom=    0.0000000   0.0000000   0.0000000   0.0000000   0.0000000   0.0000000   0.0000000   0.0000000   0.0000000   0.0000000
 NMagM=    2.7928460   0.0000000   2.7928460   2.7928460   0.0000000   2.7928460   2.7928460   0.0000000   2.7928460   2.7928460
 AtZNuc=   1.0000000   8.0000000   1.0000000   1.0000000   8.0000000   1.0000000   1.0000000   8.0000000   1.0000000   1.0000000

  Atom        71          72          73          74          75          76          77          78          79          80
 IAtWgt=          16           1           1          16           1           1          16           1           1          16
 AtmWgt=  15.9949146   1.0078250   1.0078250  15.9949146   1.0078250   1.0078250  15.9949146   1.0078250   1.0078250  15.9949146
 NucSpn=           0           1           1           0           1           1           0           1           1           0
 AtZEff=   0.0000000   0.0000000   0.0000000   0.0000000   0.0000000   0.0000000   0.0000000   0.0000000   0.0000000   0.0000000
 NQMom=    0.0000000   0.0000000   0.0000000   0.0000000   0.0000000   0.0000000   0.0000000   0.0000000   0.0000000   0.0000000
 NMagM=    0.0000000   2.7928460   2.7928460   0.0000000   2.7928460   2.7928460   0.0000000   2.7928460   2.7928460   0.0000000
 AtZNuc=   8.0000000   1.0000000   1.0000000   8.0000000   1.0000000   1.0000000   8.0000000   1.0000000   1.0000000   8.0000000

  Atom        81          82          83          84          85          86          87          88          89          90
 IAtWgt=           1           1          16           1           1          16           1           1          16           1
 AtmWgt=   1.0078250   1.0078250  15.9949146   1.0078250   1.0078250  15.9949146   1.0078250   1.0078250  15.9949146   1.0078250
 NucSpn=           1           1           0           1           1           0           1           1           0           1
 AtZEff=   0.0000000   0.0000000   0.0000000   0.0000000   0.0000000   0.0000000   0.0000000   0.0000000   0.0000000   0.0000000
 NQMom=    0.0000000   0.0000000   0.0000000   0.0000000   0.0000000   0.0000000   0.0000000   0.0000000   0.0000000   0.0000000
 NMagM=    2.7928460   2.7928460   0.0000000   2.7928460   2.7928460   0.0000000   2.7928460   2.7928460   0.0000000   2.7928460
 AtZNuc=   1.0000000   1.0000000   8.0000000   1.0000000   1.0000000   8.0000000   1.0000000   1.0000000   8.0000000   1.0000000

  Atom        91          92          93          94          95          96          97
 IAtWgt=           1          16           1           1          16           1           1
 AtmWgt=   1.0078250  15.9949146   1.0078250   1.0078250  15.9949146   1.0078250   1.0078250
 NucSpn=           1           0           1           1           0           1           1
 AtZEff=   0.0000000   0.0000000   0.0000000   0.0000000   0.0000000   0.0000000   0.0000000
 NQMom=    0.0000000   0.0000000   0.0000000   0.0000000   0.0000000   0.0000000   0.0000000
 NMagM=    2.7928460   0.0000000   2.7928460   2.7928460   0.0000000   2.7928460   2.7928460
 AtZNuc=   1.0000000   8.0000000   1.0000000   1.0000000   8.0000000   1.0000000   1.0000000
 Leave Link  101 at Thu May  3 07:57:39 2018, MaxMem= 14763950080 cpu:        15.0
 (Enter /cm/shared/gaussian/g09.e01/intel64-sandybridge/g09/l103.exe)

 GradGradGradGradGradGradGradGradGradGradGradGradGradGradGradGradGradGrad
 Berny optimization.
 Initialization pass.
 Trust Radius=3.00D-01 FncErr=1.00D-07 GrdErr=1.00D-07
 Number of steps in this run=      2 maximum allowed number of steps=      2.
 GradGradGradGradGradGradGradGradGradGradGradGradGradGradGradGradGradGrad

 Leave Link  103 at Thu May  3 07:57:39 2018, MaxMem= 14763950080 cpu:         2.3
 (Enter /cm/shared/gaussian/g09.e01/intel64-sandybridge/g09/l202.exe)
 Symmetry turned off by external request.
 Stoichiometry    BrH64O32(1-)
 Framework group  C1[X(BrH64O32)]
 Deg. of freedom   285
 Full point group                 C1      NOp   1
                          Input orientation:                          
 ---------------------------------------------------------------------
 Center     Atomic      Atomic             Coordinates (Angstroms)
 Number     Number       Type             X           Y           Z
 ---------------------------------------------------------------------
      1         35           0       20.000000   20.000000   20.000000
      2          8           0       16.990000   20.390000   20.890000
      3          1           0       16.990000   20.770000   21.760000
      4          1           0       17.920000   20.260000   20.690000
      5          8           0       21.590000   22.400000   21.100000
      6          1           0       21.100000   21.570000   21.120000
      7          1           0       20.930000   23.070000   21.230000
      8          8           0       19.100000   18.760000   22.840000
      9          1           0       19.360000   19.200000   22.030000
     10          1           0       19.000000   17.850000   22.600000
     11          8           0       17.810000   17.650000   19.370000
     12          1           0       18.210000   18.460000   19.700000
     13          1           0       17.970000   17.660000   18.430000
     14          8           0       21.840000   18.470000   17.550000
     15          1           0       21.380000   18.180000   16.760000
     16          1           0       21.150000   18.860000   18.100000
     17          8           0       21.770000   22.410000   18.280000
     18          1           0       21.470000   21.730000   18.890000
     19          1           0       21.210000   23.170000   18.470000
     20          8           0       19.810000   21.360000   16.320000
     21          1           0       18.920000   21.580000   16.580000
     22          1           0       20.290000   21.270000   17.140000
     23          8           0       23.230000   18.570000   21.740000
     24          1           0       23.390000   19.230000   21.070000
     25          1           0       23.590000   18.940000   22.550000
     26          8           0       16.850000   23.340000   20.020000
     27          1           0       17.300000   22.520000   19.810000
     28          1           0       15.920000   23.110000   20.020000
     29          8           0       24.030000   20.810000   20.150000
     30          1           0       23.650000   21.670000   20.350000
     31          1           0       23.680000   20.580000   19.290000
     32          8           0       23.420000   17.040000   19.450000
     33          1           0       22.680000   17.340000   18.920000
     34          1           0       23.450000   17.650000   20.190000
     35          8           0       19.700000   15.330000   19.210000
     36          1           0       19.170000   16.130000   19.190000
     37          1           0       20.580000   15.640000   19.440000
     38          8           0       16.980000   21.870000   22.890000
     39          1           0       17.900000   22.100000   22.780000
     40          1           0       16.520000   22.710000   22.890000
     41          8           0       16.640000   21.060000   17.630000
     42          1           0       16.280000   20.880000   18.500000
     43          1           0       16.670000   22.010000   17.580000
     44          8           0       17.880000   18.350000   16.760000
     45          1           0       18.720000   18.490000   16.330000
     46          1           0       17.480000   19.220000   16.800000
     47          8           0       20.260000   17.290000   24.810000
     48          1           0       19.970000   18.050000   24.310000
     49          1           0       19.610000   16.620000   24.640000
     50          8           0       15.110000   17.130000   20.160000
     51          1           0       15.260000   16.220000   20.400000
     52          1           0       15.990000   17.490000   20.020000
     53          8           0       16.750000   19.550000   24.460000
     54          1           0       17.480000   19.230000   23.930000
     55          1           0       17.080000   20.360000   24.860000
     56          8           0       20.390000   24.810000   19.710000
     57          1           0       21.210000   25.290000   19.750000
     58          1           0       19.710000   25.470000   19.860000
     59          8           0       19.620000   23.460000   23.360000
     60          1           0       19.620000   24.400000   23.180000
     61          1           0       20.520000   23.260000   23.610000
     62          8           0       23.920000   23.620000   22.350000
     63          1           0       23.520000   23.020000   21.710000
     64          1           0       23.220000   24.230000   22.570000
     65          8           0       14.220000   20.250000   21.020000
     66          1           0       14.120000   19.410000   21.470000
     67          1           0       15.140000   20.490000   21.150000
     68          8           0       18.910000   21.000000   25.840000
     69          1           0       18.860000   21.030000   24.880000
     70          1           0       19.770000   21.360000   26.050000
     71          8           0       24.260000   19.960000   16.050000
     72          1           0       24.010000   19.280000   16.670000
     73          1           0       23.430000   20.360000   15.780000
     74          8           0       20.310000   16.200000   16.040000
     75          1           0       20.610000   15.760000   16.840000
     76          1           0       20.190000   15.490000   15.400000
     77          8           0       18.510000   20.260000   13.880000
     78          1           0       18.680000   20.950000   13.240000
     79          1           0       18.720000   20.660000   14.720000
     80          8           0       22.000000   20.580000   14.350000
     81          1           0       21.400000   21.150000   14.830000
     82          1           0       21.780000   20.720000   13.430000
     83          8           0       24.270000   20.480000   24.020000
     84          1           0       25.030000   21.010000   23.810000
     85          1           0       23.540000   21.100000   24.050000
     86          8           0       22.990000   24.200000   16.190000
     87          1           0       23.810000   24.450000   16.620000
     88          1           0       22.850000   23.290000   16.440000
     89          8           0       17.510000   25.860000   20.990000
     90          1           0       17.450000   26.380000   20.190000
     91          1           0       17.380000   24.960000   20.690000
     92          8           0       23.150000   14.500000   20.510000
     93          1           0       23.350000   15.290000   20.000000
     94          1           0       23.940000   14.340000   21.020000
     95          8           0       16.770000   16.600000   15.170000
     96          1           0       16.810000   17.180000   14.410000
     97          1           0       17.120000   17.120000   15.890000
 ---------------------------------------------------------------------
 Rotational constants (GHZ):      0.0574346      0.0504108      0.0479802
 Leave Link  202 at Thu May  3 07:57:39 2018, MaxMem= 14763950080 cpu:         0.6
 (Enter /cm/shared/gaussian/g09.e01/intel64-sandybridge/g09/l122.exe)
 Counterpoise: doing full dimer calculation.
 Leave Link  122 at Thu May  3 07:57:39 2018, MaxMem= 14763950080 cpu:         0.1
 (Enter /cm/shared/gaussian/g09.e01/intel64-sandybridge/g09/l301.exe)
 Standard basis: CC-pVDZ (5D, 7F)
 Ernie: Thresh=  0.10000D-02 Tol=  0.10000D-05 Strict=F.
 Ernie:  87 primitive shells out of 1114 were deleted.
   795 basis functions,  1651 primitive gaussians,   829 cartesian basis functions
   178 alpha electrons      178 beta electrons
       nuclear repulsion energy      5987.0767217489 Hartrees.
 IExCor= 1009 DFT=T Ex+Corr=PBE1PBE ExCW=0 ScaHFX=  0.250000
 ScaDFX=  0.750000  0.750000  1.000000  1.000000 ScalE2=  1.000000  1.000000
 IRadAn=      0 IRanWt=     -1 IRanGd=            0 ICorTp=0 IEmpDi=  4
 NAtoms=   97 NActive=   97 NUniq=   97 SFac= 1.00D+00 NAtFMM=   60 NAOKFM=T Big=T
 Integral buffers will be    131072 words long.
 Raffenetti 2 integral format.
 Two-electron integral symmetry is turned off.
 Leave Link  301 at Thu May  3 07:57:40 2018, MaxMem= 14763950080 cpu:         6.4
 (Enter /cm/shared/gaussian/g09.e01/intel64-sandybridge/g09/l302.exe)
 NPDir=0 NMtPBC=     1 NCelOv=     1 NCel=       1 NClECP=     1 NCelD=      1
         NCelK=      1 NCelE2=     1 NClLst=     1 CellRange=     0.0.
 One-electron integrals computed using PRISM.
 NBasis=   795 RedAO= T EigKep=  1.37D-02  NBF=   795
 NBsUse=   795 1.00D-06 EigRej= -1.00D+00 NBFU=   795
 Precomputing XC quadrature grid using
 IXCGrd= 4 IRadAn=           0 IRanWt=          -1 IRanGd=           0 AccXCQ= 0.00D+00.
 Generated NRdTot=       0 NPtTot=           0 NUsed=           0 NTot=          32
 NSgBfM=   731   735   744   744   744 MxSgAt=    97 MxSgA2=    97.
 Leave Link  302 at Thu May  3 07:57:47 2018, MaxMem= 14763950080 cpu:       441.4
 (Enter /cm/shared/gaussian/g09.e01/intel64-sandybridge/g09/l303.exe)
 DipDrv:  MaxL=1.
 Leave Link  303 at Thu May  3 07:57:47 2018, MaxMem= 14763950080 cpu:        30.4
 (Enter /cm/shared/gaussian/g09.e01/intel64-sandybridge/g09/l401.exe)
 ExpMin= 1.22D-01 ExpMax= 6.40D+05 ExpMxC= 6.18D+03 IAcc=2 IRadAn=         4 AccDes= 0.00D+00
 Harris functional with IExCor= 1009 and IRadAn=       4 diagonalized for initial guess.
 HarFok:  IExCor= 1009 AccDes= 0.00D+00 IRadAn=         4 IDoV= 1 UseB2=F ITyADJ=14
 ICtDFT=  3500011 ScaDFX=  1.000000  1.000000  1.000000  1.000000
 FoFCou: FMM=F IPFlag=           0 FMFlag=      100000 FMFlg1=        2001
         NFxFlg=           0 DoJE=T BraDBF=F KetDBF=T FulRan=T
         wScrn=  0.000000 ICntrl=     500 IOpCl=  0 I1Cent=   200000004 NGrid=           0
         NMat0=    1 NMatS0=      1 NMatT0=    0 NMatD0=    1 NMtDS0=    0 NMtDT0=    0
 Symmetry not used in FoFCou.
 Harris En= -5018.41661836355    
 JPrj=0 DoOrth=F DoCkMO=F.
 Leave Link  401 at Thu May  3 07:57:52 2018, MaxMem= 14763950080 cpu:       321.9
 (Enter /cm/shared/gaussian/g09.e01/intel64-sandybridge/g09/l502.exe)
 Closed shell SCF:
 Using DIIS extrapolation, IDIIS=  1040.
 Two-electron integral symmetry not used.
 IVT=     2138497 IEndB=     2138497 NGot= 14763950080 MDV= 14762516294
 LenX= 14762516294 LenY= 14761828224
 Requested convergence on RMS density matrix=1.00D-08 within 128 cycles.
 Requested convergence on MAX density matrix=1.00D-06.
 Requested convergence on             energy=1.00D-06.
 No special actions if energy rises.
 Fock matrices will be formed incrementally for  20 cycles.
 Integral accuracy reduced to 1.0D-05 until final iterations.

 Cycle   1  Pass 0  IDiag  1:
 FoFJK:  IHMeth= 1 ICntrl=       0 DoSepK=F KAlg= 0 I1Cent=   0 FoldK=F
 IRaf= 800000000 NMat=   1 IRICut=       1 DoRegI=T DoRafI=F ISym2E= 0.
 FoFCou: FMM=T IPFlag=           0 FMFlag=      100000 FMFlg1=        2001
         NFxFlg=           0 DoJE=F BraDBF=F KetDBF=F FulRan=T
         wScrn=  0.000000 ICntrl=       0 IOpCl=  0 I1Cent=           0 NGrid=           0
         NMat0=    1 NMatS0=      1 NMatT0=    0 NMatD0=    1 NMtDS0=    0 NMtDT0=    0
 Symmetry not used in FoFCou.
 FMM levels:  10  Number of levels for PrismC:   9
 E= -5015.21966151221    
 DIIS: error= 4.24D-02 at cycle   1 NSaved=   1.
 NSaved= 1 IEnMin= 1 EnMin= -5015.21966151221     IErMin= 1 ErrMin= 4.24D-02
 ErrMax= 4.24D-02  0.00D+00 EMaxC= 1.00D-01 BMatC= 2.78D+00 BMatP= 2.78D+00
 IDIUse=3 WtCom= 5.76D-01 WtEn= 4.24D-01
 Coeff-Com:  0.100D+01
 Coeff-En:   0.100D+01
 Coeff:      0.100D+01
 Gap=     0.311 Goal=   None    Shift=    0.000
 GapD=    0.311 DampG=1.000 DampE=0.500 DampFc=0.5000 IDamp=-1.
 Damping current iteration by 5.00D-01
 RMSDP=2.89D-03 MaxDP=1.63D-01              OVMax= 1.73D-01

 Cycle   2  Pass 0  IDiag  1:
 RMSU=  1.43D-03    CP:  9.85D-01
 E= -5016.02287437879     Delta-E=       -0.803212866584 Rises=F Damp=T
 DIIS: error= 8.17D-03 at cycle   2 NSaved=   2.
 NSaved= 2 IEnMin= 2 EnMin= -5016.02287437879     IErMin= 2 ErrMin= 8.17D-03
 ErrMax= 8.17D-03  0.00D+00 EMaxC= 1.00D-01 BMatC= 9.17D-02 BMatP= 2.78D+00
 IDIUse=3 WtCom= 9.18D-01 WtEn= 8.17D-02
 Coeff-Com:  0.123D+00 0.877D+00
 Coeff-En:   0.220D+00 0.780D+00
 Coeff:      0.131D+00 0.869D+00
 Gap=     0.208 Goal=   None    Shift=    0.000
 RMSDP=3.64D-04 MaxDP=1.94D-02 DE=-8.03D-01 OVMax= 1.04D-01

 Cycle   3  Pass 0  IDiag  1:
 RMSU=  2.82D-04    CP:  9.87D-01  8.41D-01
 E= -5017.20733248371     Delta-E=       -1.184458104917 Rises=F Damp=F
 DIIS: error= 1.48D-03 at cycle   3 NSaved=   3.
 NSaved= 3 IEnMin= 3 EnMin= -5017.20733248371     IErMin= 3 ErrMin= 1.48D-03
 ErrMax= 1.48D-03  0.00D+00 EMaxC= 1.00D-01 BMatC= 1.96D-03 BMatP= 9.17D-02
 IDIUse=3 WtCom= 9.85D-01 WtEn= 1.48D-02
 Coeff-Com:  0.107D-01 0.703D-01 0.919D+00
 Coeff-En:   0.000D+00 0.000D+00 0.100D+01
 Coeff:      0.105D-01 0.693D-01 0.920D+00
 Gap=     0.217 Goal=   None    Shift=    0.000
 RMSDP=1.00D-04 MaxDP=1.48D-02 DE=-1.18D+00 OVMax= 1.67D-02

 Cycle   4  Pass 0  IDiag  1:
 RMSU=  8.76D-05    CP:  9.87D-01  8.45D-01  8.28D-01
 E= -5017.20773488872     Delta-E=       -0.000402405014 Rises=F Damp=F
 DIIS: error= 1.10D-03 at cycle   4 NSaved=   4.
 NSaved= 4 IEnMin= 4 EnMin= -5017.20773488872     IErMin= 4 ErrMin= 1.10D-03
 ErrMax= 1.10D-03  0.00D+00 EMaxC= 1.00D-01 BMatC= 1.96D-03 BMatP= 1.96D-03
 IDIUse=3 WtCom= 9.89D-01 WtEn= 1.10D-02
 Coeff-Com:  0.256D-02 0.763D-02 0.498D+00 0.492D+00
 Coeff-En:   0.000D+00 0.000D+00 0.441D+00 0.559D+00
 Coeff:      0.253D-02 0.755D-02 0.497D+00 0.493D+00
 Gap=     0.212 Goal=   None    Shift=    0.000
 RMSDP=4.40D-05 MaxDP=5.77D-03 DE=-4.02D-04 OVMax= 6.77D-03

 Cycle   5  Pass 0  IDiag  1:
 RMSU=  1.77D-05    CP:  9.87D-01  8.42D-01  8.92D-01  5.92D-01
 E= -5017.20927746689     Delta-E=       -0.001542578171 Rises=F Damp=F
 DIIS: error= 2.14D-04 at cycle   5 NSaved=   5.
 NSaved= 5 IEnMin= 5 EnMin= -5017.20927746689     IErMin= 5 ErrMin= 2.14D-04
 ErrMax= 2.14D-04  0.00D+00 EMaxC= 1.00D-01 BMatC= 4.18D-05 BMatP= 1.96D-03
 IDIUse=3 WtCom= 9.98D-01 WtEn= 2.14D-03
 Coeff-Com:  0.831D-03-0.178D-02 0.149D+00 0.185D+00 0.668D+00
 Coeff-En:   0.000D+00 0.000D+00 0.000D+00 0.000D+00 0.100D+01
 Coeff:      0.830D-03-0.178D-02 0.148D+00 0.184D+00 0.669D+00
 Gap=     0.212 Goal=   None    Shift=    0.000
 RMSDP=8.51D-06 MaxDP=1.21D-03 DE=-1.54D-03 OVMax= 1.29D-03

 Cycle   6  Pass 0  IDiag  1:
 RMSU=  5.86D-06    CP:  9.87D-01  8.41D-01  9.02D-01  5.77D-01  7.06D-01
 E= -5017.20930911974     Delta-E=       -0.000031652849 Rises=F Damp=F
 DIIS: error= 9.34D-05 at cycle   6 NSaved=   6.
 NSaved= 6 IEnMin= 6 EnMin= -5017.20930911974     IErMin= 6 ErrMin= 9.34D-05
 ErrMax= 9.34D-05  0.00D+00 EMaxC= 1.00D-01 BMatC= 4.58D-06 BMatP= 4.18D-05
 IDIUse=1 WtCom= 1.00D+00 WtEn= 0.00D+00
 Coeff-Com:  0.193D-03-0.206D-02 0.350D-01 0.466D-01 0.286D+00 0.634D+00
 Coeff:      0.193D-03-0.206D-02 0.350D-01 0.466D-01 0.286D+00 0.634D+00
 Gap=     0.212 Goal=   None    Shift=    0.000
 RMSDP=2.41D-06 MaxDP=4.22D-04 DE=-3.17D-05 OVMax= 3.56D-04

 Initial convergence to 1.0D-05 achieved.  Increase integral accuracy.
 Cycle   7  Pass 1  IDiag  1:
 E= -5017.20986749178     Delta-E=       -0.000558372041 Rises=F Damp=F
 DIIS: error= 2.60D-05 at cycle   1 NSaved=   1.
 NSaved= 1 IEnMin= 1 EnMin= -5017.20986749178     IErMin= 1 ErrMin= 2.60D-05
 ErrMax= 2.60D-05  0.00D+00 EMaxC= 1.00D-01 BMatC= 1.36D-06 BMatP= 1.36D-06
 IDIUse=1 WtCom= 1.00D+00 WtEn= 0.00D+00
 Coeff-Com:  0.100D+01
 Coeff:      0.100D+01
 Gap=     0.212 Goal=   None    Shift=    0.000
 RMSDP=2.41D-06 MaxDP=4.22D-04 DE=-5.58D-04 OVMax= 1.90D-04

 Cycle   8  Pass 1  IDiag  1:
 RMSU=  4.31D-06    CP:  1.00D+00
 E= -5017.20986865706     Delta-E=       -0.000001165281 Rises=F Damp=F
 DIIS: error= 2.34D-05 at cycle   2 NSaved=   2.
 NSaved= 2 IEnMin= 2 EnMin= -5017.20986865706     IErMin= 2 ErrMin= 2.34D-05
 ErrMax= 2.34D-05  0.00D+00 EMaxC= 1.00D-01 BMatC= 3.99D-07 BMatP= 1.36D-06
 IDIUse=1 WtCom= 1.00D+00 WtEn= 0.00D+00
 Coeff-Com:  0.292D+00 0.708D+00
 Coeff:      0.292D+00 0.708D+00
 Gap=     0.212 Goal=   None    Shift=    0.000
 RMSDP=8.30D-07 MaxDP=1.25D-04 DE=-1.17D-06 OVMax= 1.31D-04

 Cycle   9  Pass 1  IDiag  1:
 RMSU=  8.25D-07    CP:  1.00D+00  9.79D-01
 E= -5017.20986881308     Delta-E=       -0.000000156017 Rises=F Damp=F
 DIIS: error= 1.75D-05 at cycle   3 NSaved=   3.
 NSaved= 3 IEnMin= 3 EnMin= -5017.20986881308     IErMin= 3 ErrMin= 1.75D-05
 ErrMax= 1.75D-05  0.00D+00 EMaxC= 1.00D-01 BMatC= 1.83D-07 BMatP= 3.99D-07
 IDIUse=1 WtCom= 1.00D+00 WtEn= 0.00D+00
 Coeff-Com: -0.586D-02 0.403D+00 0.603D+00
 Coeff:     -0.586D-02 0.403D+00 0.603D+00
 Gap=     0.212 Goal=   None    Shift=    0.000
 RMSDP=3.48D-07 MaxDP=5.87D-05 DE=-1.56D-07 OVMax= 6.24D-05

 Cycle  10  Pass 1  IDiag  1:
 RMSU=  9.54D-08    CP:  1.00D+00  1.00D+00  6.16D-01
 E= -5017.20986894227     Delta-E=       -0.000000129190 Rises=F Damp=F
 DIIS: error= 1.40D-06 at cycle   4 NSaved=   4.
 NSaved= 4 IEnMin= 4 EnMin= -5017.20986894227     IErMin= 4 ErrMin= 1.40D-06
 ErrMax= 1.40D-06  0.00D+00 EMaxC= 1.00D-01 BMatC= 1.44D-09 BMatP= 1.83D-07
 IDIUse=1 WtCom= 1.00D+00 WtEn= 0.00D+00
 Coeff-Com: -0.517D-02 0.186D+00 0.288D+00 0.531D+00
 Coeff:     -0.517D-02 0.186D+00 0.288D+00 0.531D+00
 Gap=     0.212 Goal=   None    Shift=    0.000
 RMSDP=4.00D-08 MaxDP=6.15D-06 DE=-1.29D-07 OVMax= 6.17D-06

 Cycle  11  Pass 1  IDiag  1:
 RMSU=  2.86D-08    CP:  1.00D+00  1.00D+00  6.23D-01  7.15D-01
 E= -5017.20986894340     Delta-E=       -0.000000001128 Rises=F Damp=F
 DIIS: error= 2.61D-07 at cycle   5 NSaved=   5.
 NSaved= 5 IEnMin= 5 EnMin= -5017.20986894340     IErMin= 5 ErrMin= 2.61D-07
 ErrMax= 2.61D-07  0.00D+00 EMaxC= 1.00D-01 BMatC= 7.69D-11 BMatP= 1.44D-09
 IDIUse=1 WtCom= 1.00D+00 WtEn= 0.00D+00
 Coeff-Com: -0.178D-02 0.502D-01 0.791D-01 0.231D+00 0.641D+00
 Coeff:     -0.178D-02 0.502D-01 0.791D-01 0.231D+00 0.641D+00
 Gap=     0.212 Goal=   None    Shift=    0.000
 RMSDP=9.13D-09 MaxDP=1.23D-06 DE=-1.13D-09 OVMax= 1.28D-06

 Cycle  12  Pass 1  IDiag  1:
 RMSU=  8.01D-09    CP:  1.00D+00  1.00D+00  6.22D-01  7.44D-01  8.93D-01
 E= -5017.20986894342     Delta-E=       -0.000000000018 Rises=F Damp=F
 DIIS: error= 5.43D-08 at cycle   6 NSaved=   6.
 NSaved= 6 IEnMin= 6 EnMin= -5017.20986894342     IErMin= 6 ErrMin= 5.43D-08
 ErrMax= 5.43D-08  0.00D+00 EMaxC= 1.00D-01 BMatC= 3.33D-12 BMatP= 7.69D-11
 IDIUse=1 WtCom= 1.00D+00 WtEn= 0.00D+00
 Coeff-Com:  0.570D-04-0.547D-02-0.812D-02 0.930D-02 0.185D+00 0.820D+00
 Coeff:      0.570D-04-0.547D-02-0.812D-02 0.930D-02 0.185D+00 0.820D+00
 Gap=     0.212 Goal=   None    Shift=    0.000
 RMSDP=2.77D-09 MaxDP=3.85D-07 DE=-1.82D-11 OVMax= 3.95D-07

 SCF Done:  E(RPBE1PBE) =  -5017.20986894     A.U. after   12 cycles
            NFock= 12  Conv=0.28D-08     -V/T= 2.0028
 KE= 5.003179330777D+03 PE=-2.393861592246D+04 EE= 7.931150000989D+03
 Leave Link  502 at Thu May  3 08:00:17 2018, MaxMem= 14763950080 cpu:      9117.0
 (Enter /cm/shared/gaussian/g09.e01/intel64-sandybridge/g09/l601.exe)
 Copying SCF densities to generalized density rwf, IOpCl= 0 IROHF=0.

 **********************************************************************

            Population analysis using the SCF density.

 **********************************************************************

 Alpha  occ. eigenvalues -- -483.16430 -62.56746 -56.33998 -56.33978 -56.33953
 Alpha  occ. eigenvalues --  -19.19948 -19.19050 -19.19048 -19.17521 -19.17085
 Alpha  occ. eigenvalues --  -19.16380 -19.16361 -19.16002 -19.15336 -19.15121
 Alpha  occ. eigenvalues --  -19.14761 -19.14631 -19.14194 -19.14130 -19.14103
 Alpha  occ. eigenvalues --  -19.13802 -19.13635 -19.13328 -19.12571 -19.12217
 Alpha  occ. eigenvalues --  -19.11561 -19.11539 -19.09126 -19.09042 -19.08775
 Alpha  occ. eigenvalues --  -19.08356 -19.08216 -19.08105 -19.08054 -19.07198
 Alpha  occ. eigenvalues --  -19.06736 -19.06251  -8.67088  -6.47494  -6.47415
 Alpha  occ. eigenvalues --   -6.47285  -2.55780  -2.55769  -2.55667  -2.55596
 Alpha  occ. eigenvalues --   -2.55579  -1.02235  -1.01471  -1.01373  -1.00354
 Alpha  occ. eigenvalues --   -0.99886  -0.99117  -0.99010  -0.98489  -0.98304
 Alpha  occ. eigenvalues --   -0.97626  -0.97378  -0.97214  -0.96553  -0.96497
 Alpha  occ. eigenvalues --   -0.96298  -0.96115  -0.95929  -0.95831  -0.94913
 Alpha  occ. eigenvalues --   -0.94706  -0.94497  -0.94239  -0.92450  -0.91409
 Alpha  occ. eigenvalues --   -0.91267  -0.91025  -0.90731  -0.90583  -0.90538
 Alpha  occ. eigenvalues --   -0.89826  -0.89778  -0.88944  -0.66791  -0.52618
 Alpha  occ. eigenvalues --   -0.51981  -0.51534  -0.50769  -0.50473  -0.49862
 Alpha  occ. eigenvalues --   -0.49504  -0.48990  -0.48845  -0.48747  -0.48330
 Alpha  occ. eigenvalues --   -0.47794  -0.47592  -0.47344  -0.47028  -0.46952
 Alpha  occ. eigenvalues --   -0.46553  -0.46340  -0.46175  -0.45402  -0.45345
 Alpha  occ. eigenvalues --   -0.44958  -0.44426  -0.42570  -0.42155  -0.41694
 Alpha  occ. eigenvalues --   -0.41655  -0.41614  -0.41562  -0.41133  -0.40867
 Alpha  occ. eigenvalues --   -0.40204  -0.39264  -0.38923  -0.37977  -0.36867
 Alpha  occ. eigenvalues --   -0.36480  -0.36011  -0.35984  -0.34945  -0.34516
 Alpha  occ. eigenvalues --   -0.33675  -0.33642  -0.33443  -0.33240  -0.32868
 Alpha  occ. eigenvalues --   -0.32594  -0.32532  -0.32303  -0.32119  -0.31924
 Alpha  occ. eigenvalues --   -0.31855  -0.31145  -0.30562  -0.30358  -0.29981
 Alpha  occ. eigenvalues --   -0.29789  -0.29451  -0.28524  -0.28514  -0.28165
 Alpha  occ. eigenvalues --   -0.27985  -0.27921  -0.27616  -0.27412  -0.27155
 Alpha  occ. eigenvalues --   -0.26991  -0.26805  -0.26707  -0.26391  -0.25811
 Alpha  occ. eigenvalues --   -0.25727  -0.25246  -0.24955  -0.24741  -0.24624
 Alpha  occ. eigenvalues --   -0.24511  -0.24395  -0.24142  -0.23949  -0.23728
 Alpha  occ. eigenvalues --   -0.23613  -0.23236  -0.23040  -0.23013  -0.22693
 Alpha  occ. eigenvalues --   -0.21631  -0.21108  -0.20530  -0.19989  -0.19940
 Alpha  occ. eigenvalues --   -0.19884  -0.19449  -0.19103  -0.19061  -0.18851
 Alpha  occ. eigenvalues --   -0.18206  -0.18195  -0.17338
 Alpha virt. eigenvalues --    0.03896   0.06452   0.08144   0.08603   0.10569
 Alpha virt. eigenvalues --    0.10941   0.12191   0.12477   0.12654   0.13697
 Alpha virt. eigenvalues --    0.14209   0.14983   0.15485   0.15815   0.16300
 Alpha virt. eigenvalues --    0.16443   0.17039   0.17258   0.17469   0.18237
 Alpha virt. eigenvalues --    0.18678   0.18900   0.19694   0.19890   0.20182
 Alpha virt. eigenvalues --    0.20622   0.21236   0.21515   0.21777   0.21992
 Alpha virt. eigenvalues --    0.22329   0.22504   0.23067   0.23598   0.23715
 Alpha virt. eigenvalues --    0.24353   0.24921   0.25517   0.25598   0.26270
 Alpha virt. eigenvalues --    0.26766   0.27349   0.27514   0.27815   0.28258
 Alpha virt. eigenvalues --    0.28839   0.29260   0.29536   0.30447   0.31144
 Alpha virt. eigenvalues --    0.31582   0.32582   0.32831   0.33664   0.33916
 Alpha virt. eigenvalues --    0.34244   0.35025   0.35324   0.36824   0.37197
 Alpha virt. eigenvalues --    0.38252   0.40533   0.40993   0.41329   0.54912
 Alpha virt. eigenvalues --    0.56553   0.58565   0.59699   0.59755   0.60787
 Alpha virt. eigenvalues --    0.61415   0.61540   0.61822   0.62217   0.62418
 Alpha virt. eigenvalues --    0.62961   0.63572   0.63902   0.64239   0.64569
 Alpha virt. eigenvalues --    0.64854   0.65147   0.65277   0.65585   0.65913
 Alpha virt. eigenvalues --    0.65970   0.66396   0.66716   0.67075   0.67217
 Alpha virt. eigenvalues --    0.67464   0.67691   0.67870   0.68239   0.68502
 Alpha virt. eigenvalues --    0.68609   0.69214   0.69407   0.69806   0.70454
 Alpha virt. eigenvalues --    0.71004   0.71077   0.71314   0.71320   0.72091
 Alpha virt. eigenvalues --    0.72189   0.72489   0.72669   0.73375   0.73496
 Alpha virt. eigenvalues --    0.73889   0.74138   0.74855   0.75138   0.75727
 Alpha virt. eigenvalues --    0.75846   0.76034   0.76143   0.76574   0.76687
 Alpha virt. eigenvalues --    0.77423   0.78252   0.78434   0.78770   0.78807
 Alpha virt. eigenvalues --    0.79698   0.80619   0.81065   0.81178   0.81622
 Alpha virt. eigenvalues --    0.82957   0.83761   0.83958   0.84591   0.87660
 Alpha virt. eigenvalues --    0.89232   0.89486   0.91317   0.93522   0.94473
 Alpha virt. eigenvalues --    0.94950   0.95176   0.95611   0.95896   0.96594
 Alpha virt. eigenvalues --    0.97264   0.97834   0.98016   0.98186   0.98696
 Alpha virt. eigenvalues --    0.98848   0.98875   0.99128   0.99263   0.99639
 Alpha virt. eigenvalues --    0.99714   1.00114   1.00558   1.00636   1.01190
 Alpha virt. eigenvalues --    1.01569   1.01947   1.02234   1.02356   1.02861
 Alpha virt. eigenvalues --    1.03046   1.03233   1.03546   1.03930   1.04206
 Alpha virt. eigenvalues --    1.04589   1.04934   1.05268   1.05297   1.05567
 Alpha virt. eigenvalues --    1.05754   1.05784   1.06260   1.06397   1.06715
 Alpha virt. eigenvalues --    1.07042   1.07147   1.07517   1.07819   1.08142
 Alpha virt. eigenvalues --    1.08423   1.08621   1.08891   1.09434   1.09519
 Alpha virt. eigenvalues --    1.09995   1.10157   1.10317   1.10412   1.10547
 Alpha virt. eigenvalues --    1.11102   1.11255   1.11794   1.12018   1.12171
 Alpha virt. eigenvalues --    1.12761   1.13233   1.13830   1.14043   1.14630
 Alpha virt. eigenvalues --    1.15079   1.15404   1.15564   1.15987   1.16239
 Alpha virt. eigenvalues --    1.16752   1.17116   1.17467   1.17880   1.18126
 Alpha virt. eigenvalues --    1.18639   1.19038   1.19266   1.19524   1.20597
 Alpha virt. eigenvalues --    1.20992   1.21489   1.21819   1.22679   1.22823
 Alpha virt. eigenvalues --    1.23031   1.23630   1.23826   1.24223   1.24747
 Alpha virt. eigenvalues --    1.24930   1.25264   1.25816   1.26215   1.26490
 Alpha virt. eigenvalues --    1.26791   1.26900   1.27196   1.28000   1.28160
 Alpha virt. eigenvalues --    1.28503   1.29002   1.29224   1.29521   1.29702
 Alpha virt. eigenvalues --    1.29860   1.30230   1.30528   1.30938   1.31135
 Alpha virt. eigenvalues --    1.31270   1.31732   1.32063   1.32288   1.32633
 Alpha virt. eigenvalues --    1.32797   1.33000   1.33241   1.33502   1.33886
 Alpha virt. eigenvalues --    1.34057   1.34206   1.34738   1.35279   1.35669
 Alpha virt. eigenvalues --    1.35796   1.36229   1.36525   1.37421   1.37644
 Alpha virt. eigenvalues --    1.37902   1.38109   1.38556   1.38845   1.39023
 Alpha virt. eigenvalues --    1.39347   1.39537   1.39929   1.40271   1.40457
 Alpha virt. eigenvalues --    1.41025   1.41231   1.41609   1.41899   1.42212
 Alpha virt. eigenvalues --    1.42689   1.43136   1.43630   1.44220   1.44434
 Alpha virt. eigenvalues --    1.45079   1.45542   1.46103   1.46541   1.47478
 Alpha virt. eigenvalues --    1.48008   1.48781   1.49163   1.49428   1.49922
 Alpha virt. eigenvalues --    1.50004   1.50418   1.51314   1.51766   1.53013
 Alpha virt. eigenvalues --    1.53247   1.53825   1.54330   1.54781   1.55546
 Alpha virt. eigenvalues --    1.55863   1.56146   1.56607   1.56772   1.57216
 Alpha virt. eigenvalues --    1.57333   1.58167   1.58522   1.59380   1.60184
 Alpha virt. eigenvalues --    1.60247   1.61098   1.61538   1.61634   1.63570
 Alpha virt. eigenvalues --    1.63692   1.64675   1.65086   1.66283   1.67682
 Alpha virt. eigenvalues --    1.68824   1.69543   1.70128   1.70499   1.71429
 Alpha virt. eigenvalues --    1.71682   1.72088   1.72615   1.72765   1.73057
 Alpha virt. eigenvalues --    1.73140   1.73434   1.73916   1.74681   1.74972
 Alpha virt. eigenvalues --    1.75351   1.75627   1.75809   1.76273   1.76427
 Alpha virt. eigenvalues --    1.77192   1.77539   1.77815   1.78252   1.78927
 Alpha virt. eigenvalues --    1.79098   1.79618   1.80311   1.80545   1.81022
 Alpha virt. eigenvalues --    1.81475   1.81663   1.81846   1.82352   1.82607
 Alpha virt. eigenvalues --    1.82725   1.83126   1.83391   1.84348   1.85129
 Alpha virt. eigenvalues --    1.85339   1.85907   1.86924   1.87613   1.88072
 Alpha virt. eigenvalues --    1.88559   1.88883   1.89649   1.90759   1.91416
 Alpha virt. eigenvalues --    1.91630   1.92282   1.92322   1.93104   1.94426
 Alpha virt. eigenvalues --    1.94994   1.95420   1.96799   1.97477   1.99156
 Alpha virt. eigenvalues --    2.00695   2.01573   2.07000   2.16410   2.17109
 Alpha virt. eigenvalues --    2.17304   2.17763   2.19477   2.19583   2.20127
 Alpha virt. eigenvalues --    2.20533   2.20802   2.20917   2.21164   2.21636
 Alpha virt. eigenvalues --    2.21761   2.21854   2.21938   2.22257   2.22516
 Alpha virt. eigenvalues --    2.22772   2.23290   2.23704   2.24115   2.24393
 Alpha virt. eigenvalues --    2.24414   2.24603   2.24837   2.25144   2.25588
 Alpha virt. eigenvalues --    2.25960   2.26645   2.27148   2.27475   2.27676
 Alpha virt. eigenvalues --    2.27900   2.28070   2.28256   2.28517   2.28586
 Alpha virt. eigenvalues --    2.28682   2.29160   2.29407   2.29506   2.30016
 Alpha virt. eigenvalues --    2.30784   2.30899   2.31172   2.31561   2.32460
 Alpha virt. eigenvalues --    2.32873   2.37213   2.38939   2.39117   2.40341
 Alpha virt. eigenvalues --    2.40573   2.44014   2.44796   2.45426   2.46061
 Alpha virt. eigenvalues --    2.49166   2.51279   2.53289   2.53947   2.54743
 Alpha virt. eigenvalues --    2.57181   2.64558   2.93431   2.94130   2.94623
 Alpha virt. eigenvalues --    2.96066   2.96874   2.97754   2.98106   2.98200
 Alpha virt. eigenvalues --    2.98286   2.98705   2.98772   2.98858   2.99071
 Alpha virt. eigenvalues --    2.99133   2.99155   2.99301   2.99633   2.99943
 Alpha virt. eigenvalues --    2.99970   3.00114   3.00327   3.00349   3.00685
 Alpha virt. eigenvalues --    3.01045   3.02297   3.02712   3.03018   3.03222
 Alpha virt. eigenvalues --    3.03472   3.03709   3.03799   3.04016   3.04063
 Alpha virt. eigenvalues --    3.04176   3.04323   3.04601   3.04696   3.04912
 Alpha virt. eigenvalues --    3.05171   3.05234   3.05280   3.05621   3.05796
 Alpha virt. eigenvalues --    3.06020   3.06118   3.06253   3.06464   3.06696
 Alpha virt. eigenvalues --    3.06749   3.07093   3.07141   3.07270   3.08864
 Alpha virt. eigenvalues --    3.09849   3.10352   3.10711   3.11456   3.11591
 Alpha virt. eigenvalues --    3.12238   3.12352   3.12913   3.13386   3.14477
 Alpha virt. eigenvalues --    3.16414   3.16487   3.17431   3.19466   3.19787
 Alpha virt. eigenvalues --    3.19901   3.19997   3.20371   3.20972   3.21233
 Alpha virt. eigenvalues --    3.21293   3.21790   3.21840   3.22279   3.22816
 Alpha virt. eigenvalues --    3.22961   3.23390   3.23635   3.23869   3.24336
 Alpha virt. eigenvalues --    3.24846   3.25480   3.26420   3.26905   3.27396
 Alpha virt. eigenvalues --    3.27907   3.28074   3.28479   3.28674   3.29397
 Alpha virt. eigenvalues --    3.29652   3.29828   3.30590   3.52237   3.53426
 Alpha virt. eigenvalues --    3.54167   3.54916   3.55539   3.56050   3.56905
 Alpha virt. eigenvalues --    3.56996   3.57195   3.58150   3.58241   3.58548
 Alpha virt. eigenvalues --    3.59657   3.60002   3.60793   3.61153   3.61404
 Alpha virt. eigenvalues --    3.61751   3.62720   3.63082   3.63208   3.63366
 Alpha virt. eigenvalues --    3.63646   3.64109   3.64651   3.65284   3.65692
 Alpha virt. eigenvalues --    3.65806   3.67480   3.69386   3.69616   3.72332
 Alpha virt. eigenvalues --    3.78114   3.80786   3.82123   3.82314   3.83304
 Alpha virt. eigenvalues --    3.84069   3.84444   3.84940   3.85153   3.85481
 Alpha virt. eigenvalues --    3.85720   3.86164   3.87036   3.88544   3.88906
 Alpha virt. eigenvalues --    3.88940   3.89302   3.89680   3.90430   3.90795
 Alpha virt. eigenvalues --    3.91211   3.92472   3.92832   3.93163   3.93764
 Alpha virt. eigenvalues --    3.94323   3.95620   3.96281   3.96860   3.97132
 Alpha virt. eigenvalues --    3.98002   4.04050
          Condensed to atoms (all electrons):
 Mulliken charges:
               1
     1  Br  -0.706091
     2  O   -0.304913
     3  H    0.142073
     4  H    0.126144
     5  O   -0.289222
     6  H    0.158951
     7  H    0.096510
     8  O   -0.246477
     9  H    0.151713
    10  H    0.141353
    11  O   -0.277901
    12  H    0.139060
    13  H    0.151771
    14  O   -0.271071
    15  H    0.147068
    16  H    0.149435
    17  O   -0.284803
    18  H    0.143724
    19  H    0.126809
    20  O   -0.254602
    21  H    0.117707
    22  H    0.127892
    23  O   -0.282382
    24  H    0.108805
    25  H    0.131412
    26  O   -0.262771
    27  H    0.127562
    28  H    0.155944
    29  O   -0.257347
    30  H    0.143711
    31  H    0.152229
    32  O   -0.302789
    33  H    0.123777
    34  H    0.132416
    35  O   -0.288715
    36  H    0.114659
    37  H    0.135425
    38  O   -0.222113
    39  H    0.130985
    40  H    0.145770
    41  O   -0.248824
    42  H    0.157878
    43  H    0.127452
    44  O   -0.237750
    45  H    0.149609
    46  H    0.148625
    47  O   -0.289268
    48  H    0.129977
    49  H    0.117338
    50  O   -0.301545
    51  H    0.118933
    52  H    0.131074
    53  O   -0.297125
    54  H    0.117025
    55  H    0.132269
    56  O   -0.234386
    57  H    0.144612
    58  H    0.111432
    59  O   -0.237141
    60  H    0.148509
    61  H    0.134735
    62  O   -0.287947
    63  H    0.144758
    64  H    0.117232
    65  O   -0.319199
    66  H    0.139945
    67  H    0.129500
    68  O   -0.253315
    69  H    0.114097
    70  H    0.129229
    71  O   -0.310073
    72  H    0.135944
    73  H    0.123336
    74  O   -0.275065
    75  H    0.127125
    76  H    0.147781
    77  O   -0.274513
    78  H    0.126037
    79  H    0.116873
    80  O   -0.252158
    81  H    0.132031
    82  H    0.128814
    83  O   -0.245245
    84  H    0.141640
    85  H    0.131838
    86  O   -0.295246
    87  H    0.130610
    88  H    0.142049
    89  O   -0.291306
    90  H    0.131413
    91  H    0.144328
    92  O   -0.313224
    93  H    0.135810
    94  H    0.113427
    95  O   -0.318393
    96  H    0.109587
    97  H    0.147146
 Sum of Mulliken charges =  -1.00000
 Mulliken charges with hydrogens summed into heavy atoms:
               1
     1  Br  -0.706091
     2  O   -0.036697
     5  O   -0.033761
     8  O    0.046589
    11  O    0.012931
    14  O    0.025432
    17  O   -0.014271
    20  O   -0.009003
    23  O   -0.042165
    26  O    0.020734
    29  O    0.038592
    32  O   -0.046596
    35  O   -0.038631
    38  O    0.054642
    41  O    0.036506
    44  O    0.060484
    47  O   -0.041953
    50  O   -0.051538
    53  O   -0.047831
    56  O    0.021658
    59  O    0.046103
    62  O   -0.025958
    65  O   -0.049754
    68  O   -0.009989
    71  O   -0.050793
    74  O   -0.000159
    77  O   -0.031604
    80  O    0.008687
    83  O    0.028233
    86  O   -0.022586
    89  O   -0.015566
    92  O   -0.063987
    95  O   -0.061660
         Mulliken charges condensed to fragments:
      1     -0.706091
      2     -0.293909
 Electronic spatial extent (au):  <R**2>=        1546509.3569
 Charge=             -1.0000 electrons
 Dipole moment (field-independent basis, Debye):
    X=            -94.6343    Y=            -76.0872    Z=            -96.2972  Tot=            154.9777
 Quadrupole moment (field-independent basis, Debye-Ang):
   XX=          -2199.1737   YY=          -1370.9728   ZZ=          -2220.6083
   XY=          -1506.6578   XZ=          -1869.7058   YZ=          -1521.8520
 Traceless Quadrupole moment (field-independent basis, Debye-Ang):
   XX=           -268.9221   YY=            559.2788   ZZ=           -290.3567
   XY=          -1506.6578   XZ=          -1869.7058   YZ=          -1521.8520
 Octapole moment (field-independent basis, Debye-Ang**2):
  XXX=         -56573.5666  YYY=         -29069.7692  ZZZ=         -56195.2549  XYY=         -27380.4269
  XXY=         -36430.4815  XXZ=         -42845.3175  XZZ=         -42677.0991  YZZ=         -36098.7338
  YYZ=         -27210.8804  XYZ=         -29428.2504
 Hexadecapole moment (field-independent basis, Debye-Ang**3):
 XXXX=       -1520454.9549 YYYY=        -711645.5432 ZZZZ=       -1492252.7468 XXXY=        -982308.4761
 XXXZ=       -1091810.0063 YYYX=        -585656.4053 YYYZ=        -571298.4938 ZZZX=       -1074887.0925
 ZZZY=        -950551.0504 XXYY=        -680271.6366 XXZZ=        -952729.6835 YYZZ=        -654247.5994
 XXYZ=        -698486.0104 YYXZ=        -526219.9211 ZZXY=        -686856.5944
 N-N= 5.987076721749D+03 E-N=-2.393861597469D+04  KE= 5.003179330777D+03
 No NMR shielding tensors so no spin-rotation constants.
 Leave Link  601 at Thu May  3 08:00:18 2018, MaxMem= 14763950080 cpu:        69.0
 (Enter /cm/shared/gaussian/g09.e01/intel64-sandybridge/g09/l701.exe)
 Compute integral first derivatives.
 ... and contract with generalized density number  0.
 Leave Link  701 at Thu May  3 08:00:20 2018, MaxMem= 14763950080 cpu:       148.6
 (Enter /cm/shared/gaussian/g09.e01/intel64-sandybridge/g09/l702.exe)
 L702 exits ... SP integral derivatives will be done elsewhere.
 Leave Link  702 at Thu May  3 08:00:22 2018, MaxMem= 14763950080 cpu:         2.6
 (Enter /cm/shared/gaussian/g09.e01/intel64-sandybridge/g09/l703.exe)
 Compute integral first derivatives, UseDBF=F ICtDFT=           0.
 Integral derivatives from FoFJK, PRISM(SPDF).
 Calling FoFJK, ICntrl=      2127 FMM=T ISym2X=0 I1Cent= 0 IOpClX= 0 NMat=1 NMatS=1 NMatT=0.
 FoFJK:  IHMeth= 1 ICntrl=    2127 DoSepK=F KAlg= 0 I1Cent=   0 FoldK=F
 IRaf=         0 NMat=   1 IRICut=       1 DoRegI=T DoRafI=F ISym2E= 0.
 FoFCou: FMM=T IPFlag=           0 FMFlag=      100000 FMFlg1=        2001
         NFxFlg=           0 DoJE=F BraDBF=F KetDBF=F FulRan=T
         wScrn=  0.000000 ICntrl=    2127 IOpCl=  0 I1Cent=           0 NGrid=           0
         NMat0=    1 NMatS0=      1 NMatT0=    0 NMatD0=    1 NMtDS0=    0 NMtDT0=    0
 Symmetry not used in FoFCou.
 FMM levels:  10  Number of levels for PrismC:   9
 Leave Link  703 at Thu May  3 08:00:38 2018, MaxMem= 14763950080 cpu:      1039.5
 (Enter /cm/shared/gaussian/g09.e01/intel64-sandybridge/g09/l716.exe)
 Dipole        =-3.72320185D+01-2.99350188D+01-3.78862520D+01
 Cartesian Forces:  Max     0.038115696 RMS     0.009299834
 Leave Link  716 at Thu May  3 08:00:38 2018, MaxMem= 14763950080 cpu:         4.7
 (Enter /cm/shared/gaussian/g09.e01/intel64-sandybridge/g09/l122.exe)
 CPIOFr:  IOpCl= 0 IRwI=-1 IRwCP=  731 ICalc= -1 LCPTot=     1005244 Len1MO=     2550559 IndFrg=     1005244
 CPIOFr:  IOpCl= 0 IRwI=-1 IRwCP=  731 ICalc=  0 LCPTot=     1005244 Len1MO=     2550559 IndFrg=     3555803
 Counterpoise: doing DCBS calculation for fragment   1 NewBq=T
 Leave Link  122 at Thu May  3 08:00:38 2018, MaxMem= 14763950080 cpu:         8.8
 (Enter /cm/shared/gaussian/g09.e01/intel64-sandybridge/g09/l301.exe)
 Basis read from rwf:  (5D, 7F)
 No pseudopotential information found on rwf file.
   795 basis functions,  1651 primitive gaussians,   829 cartesian basis functions
    18 alpha electrons       18 beta electrons
       nuclear repulsion energy         0.0000000000 Hartrees.
 IExCor= 1009 DFT=T Ex+Corr=PBE1PBE ExCW=0 ScaHFX=  0.250000
 ScaDFX=  0.750000  0.750000  1.000000  1.000000 ScalE2=  1.000000  1.000000
 IRadAn=      0 IRanWt=     -1 IRanGd=            0 ICorTp=0 IEmpDi=  4
 NAtoms=   97 NActive=   97 NUniq=   97 SFac= 1.00D+00 NAtFMM=   60 NAOKFM=T Big=T
 Integral buffers will be    131072 words long.
 Raffenetti 2 integral format.
 Two-electron integral symmetry is turned off.
 No density basis found on file   718.
 Leave Link  301 at Thu May  3 08:00:39 2018, MaxMem= 14763950080 cpu:         7.0
 (Enter /cm/shared/gaussian/g09.e01/intel64-sandybridge/g09/l302.exe)
 NPDir=0 NMtPBC=     1 NCelOv=     1 NCel=       1 NClECP=     1 NCelD=      1
         NCelK=      1 NCelE2=     1 NClLst=     1 CellRange=     0.0.
 One-electron integrals computed using PRISM.
 NBasis=   795 RedAO= T EigKep=  1.37D-02  NBF=   795
 NBsUse=   795 1.00D-06 EigRej= -1.00D+00 NBFU=   795
 Precomputing XC quadrature grid using
 IXCGrd= 4 IRadAn=           0 IRanWt=          -1 IRanGd=           0 AccXCQ= 0.00D+00.
 Generated NRdTot=       0 NPtTot=           0 NUsed=           0 NTot=          32
 NSgBfM=   731   735   744   744   744 MxSgAt=    97 MxSgA2=    97.
 Leave Link  302 at Thu May  3 08:00:43 2018, MaxMem= 14763950080 cpu:       267.9
 (Enter /cm/shared/gaussian/g09.e01/intel64-sandybridge/g09/l303.exe)
 DipDrv:  MaxL=1.
 Leave Link  303 at Thu May  3 08:00:44 2018, MaxMem= 14763950080 cpu:        92.6
 (Enter /cm/shared/gaussian/g09.e01/intel64-sandybridge/g09/l401.exe)
 ExpMin= 1.22D-01 ExpMax= 6.40D+05 ExpMxC= 6.18D+03 IAcc=2 IRadAn=         4 AccDes= 0.00D+00
 Harris functional with IExCor= 1009 and IRadAn=       4 diagonalized for initial guess.
 HarFok:  IExCor= 1009 AccDes= 0.00D+00 IRadAn=         4 IDoV= 1 UseB2=F ITyADJ=14
 ICtDFT=  3500011 ScaDFX=  1.000000  1.000000  1.000000  1.000000
 FoFCou: FMM=F IPFlag=           0 FMFlag=      100000 FMFlg1=        2001
         NFxFlg=           0 DoJE=T BraDBF=F KetDBF=T FulRan=T
         wScrn=  0.000000 ICntrl=     500 IOpCl=  0 I1Cent=   200000004 NGrid=           0
         NMat0=    1 NMatS0=      1 NMatT0=    0 NMatD0=    1 NMtDS0=    0 NMtDT0=    0
 Symmetry not used in FoFCou.
 Harris En= -2574.01977327578    
 JPrj=0 DoOrth=F DoCkMO=F.
 Leave Link  401 at Thu May  3 08:00:49 2018, MaxMem= 14763950080 cpu:       279.4
 (Enter /cm/shared/gaussian/g09.e01/intel64-sandybridge/g09/l502.exe)
 Closed shell SCF:
 Using DIIS extrapolation, IDIIS=  1040.
 Two-electron integral symmetry not used.
 IVT=     2138497 IEndB=     2138497 NGot= 14763950080 MDV= 14762516294
 LenX= 14762516294 LenY= 14761828224
 Requested convergence on RMS density matrix=1.00D-08 within 128 cycles.
 Requested convergence on MAX density matrix=1.00D-06.
 Requested convergence on             energy=1.00D-06.
 No special actions if energy rises.
 Fock matrices will be formed incrementally for  20 cycles.
 Integral accuracy reduced to 1.0D-05 until final iterations.

 Cycle   1  Pass 0  IDiag  1:
 FoFJK:  IHMeth= 1 ICntrl=       0 DoSepK=F KAlg= 0 I1Cent=   0 FoldK=F
 IRaf= 800000000 NMat=   1 IRICut=       1 DoRegI=T DoRafI=F ISym2E= 0.
 FoFCou: FMM=T IPFlag=           0 FMFlag=      100000 FMFlg1=        2001
         NFxFlg=           0 DoJE=F BraDBF=F KetDBF=F FulRan=T
         wScrn=  0.000000 ICntrl=       0 IOpCl=  0 I1Cent=           0 NGrid=           0
         NMat0=    1 NMatS0=      1 NMatT0=    0 NMatD0=    1 NMtDS0=    0 NMtDT0=    0
 Symmetry not used in FoFCou.
 FMM levels:  10  Number of levels for PrismC:   9
 E= -2573.87904846256    
 DIIS: error= 1.26D-02 at cycle   1 NSaved=   1.
 NSaved= 1 IEnMin= 1 EnMin= -2573.87904846256     IErMin= 1 ErrMin= 1.26D-02
 ErrMax= 1.26D-02  0.00D+00 EMaxC= 1.00D-01 BMatC= 3.80D-02 BMatP= 3.80D-02
 IDIUse=3 WtCom= 8.74D-01 WtEn= 1.26D-01
 Coeff-Com:  0.100D+01
 Coeff-En:   0.100D+01
 Coeff:      0.100D+01
 Gap=     0.181 Goal=   None    Shift=    0.000
 GapD=    0.181 DampG=1.000 DampE=0.500 DampFc=0.5000 IDamp=-1.
 Damping current iteration by 5.00D-01
 RMSDP=4.70D-04 MaxDP=6.74D-02              OVMax= 1.53D-01

 Cycle   2  Pass 0  IDiag  1:
 RMSU=  2.33D-04    CP:  9.95D-01
 E= -2573.89547507304     Delta-E=       -0.016426610478 Rises=F Damp=T
 DIIS: error= 7.40D-03 at cycle   2 NSaved=   2.
 NSaved= 2 IEnMin= 2 EnMin= -2573.89547507304     IErMin= 2 ErrMin= 7.40D-03
 ErrMax= 7.40D-03  0.00D+00 EMaxC= 1.00D-01 BMatC= 8.95D-03 BMatP= 3.80D-02
 IDIUse=3 WtCom= 9.26D-01 WtEn= 7.40D-02
 Coeff-Com: -0.580D+00 0.158D+01
 Coeff-En:   0.000D+00 0.100D+01
 Coeff:     -0.537D+00 0.154D+01
 Gap=     0.189 Goal=   None    Shift=    0.000
 RMSDP=1.64D-04 MaxDP=3.79D-02 DE=-1.64D-02 OVMax= 6.56D-02

 Cycle   3  Pass 0  IDiag  1:
 RMSU=  1.44D-04    CP:  9.95D-01  1.34D+00
 E= -2573.90873509439     Delta-E=       -0.013260021356 Rises=F Damp=F
 DIIS: error= 3.17D-03 at cycle   3 NSaved=   3.
 NSaved= 3 IEnMin= 3 EnMin= -2573.90873509439     IErMin= 3 ErrMin= 3.17D-03
 ErrMax= 3.17D-03  0.00D+00 EMaxC= 1.00D-01 BMatC= 2.35D-03 BMatP= 8.95D-03
 IDIUse=3 WtCom= 9.68D-01 WtEn= 3.17D-02
 Coeff-Com: -0.302D+00 0.715D+00 0.588D+00
 Coeff-En:   0.000D+00 0.000D+00 0.100D+01
 Coeff:     -0.293D+00 0.692D+00 0.601D+00
 Gap=     0.172 Goal=   None    Shift=    0.000
 RMSDP=7.02D-05 MaxDP=1.70D-02 DE=-1.33D-02 OVMax= 2.09D-02

 Cycle   4  Pass 0  IDiag  1:
 RMSU=  8.34D-06    CP:  9.93D-01  1.53D+00  6.32D-01
 E= -2573.91126897524     Delta-E=       -0.002533880849 Rises=F Damp=F
 DIIS: error= 1.03D-04 at cycle   4 NSaved=   4.
 NSaved= 4 IEnMin= 4 EnMin= -2573.91126897524     IErMin= 4 ErrMin= 1.03D-04
 ErrMax= 1.03D-04  0.00D+00 EMaxC= 1.00D-01 BMatC= 1.53D-06 BMatP= 2.35D-03
 IDIUse=3 WtCom= 9.99D-01 WtEn= 1.03D-03
 Coeff-Com: -0.145D-01 0.276D-01 0.403D-01 0.947D+00
 Coeff-En:   0.000D+00 0.000D+00 0.000D+00 0.100D+01
 Coeff:     -0.145D-01 0.276D-01 0.403D-01 0.947D+00
 Gap=     0.174 Goal=   None    Shift=    0.000
 RMSDP=2.35D-06 MaxDP=4.36D-04 DE=-2.53D-03 OVMax= 7.18D-04

 Initial convergence to 1.0D-05 achieved.  Increase integral accuracy.
 Cycle   5  Pass 1  IDiag  1:
 E= -2573.91202279640     Delta-E=       -0.000753821160 Rises=F Damp=F
 DIIS: error= 1.33D-05 at cycle   1 NSaved=   1.
 NSaved= 1 IEnMin= 1 EnMin= -2573.91202279640     IErMin= 1 ErrMin= 1.33D-05
 ErrMax= 1.33D-05  0.00D+00 EMaxC= 1.00D-01 BMatC= 7.85D-08 BMatP= 7.85D-08
 IDIUse=1 WtCom= 1.00D+00 WtEn= 0.00D+00
 Coeff-Com:  0.100D+01
 Coeff:      0.100D+01
 Gap=     0.174 Goal=   None    Shift=    0.000
 RMSDP=2.35D-06 MaxDP=4.36D-04 DE=-7.54D-04 OVMax= 2.29D-04

 Cycle   6  Pass 1  IDiag  1:
 RMSU=  1.26D-06    CP:  1.00D+00
 E= -2573.91202294820     Delta-E=       -0.000000151797 Rises=F Damp=F
 DIIS: error= 6.94D-06 at cycle   2 NSaved=   2.
 NSaved= 2 IEnMin= 2 EnMin= -2573.91202294820     IErMin= 2 ErrMin= 6.94D-06
 ErrMax= 6.94D-06  0.00D+00 EMaxC= 1.00D-01 BMatC= 1.29D-08 BMatP= 7.85D-08
 IDIUse=1 WtCom= 1.00D+00 WtEn= 0.00D+00
 Coeff-Com:  0.217D+00 0.783D+00
 Coeff:      0.217D+00 0.783D+00
 Gap=     0.174 Goal=   None    Shift=    0.000
 RMSDP=2.71D-07 MaxDP=5.97D-05 DE=-1.52D-07 OVMax= 8.67D-05

 Cycle   7  Pass 1  IDiag  1:
 RMSU=  2.70D-07    CP:  1.00D+00  1.01D+00
 E= -2573.91202296116     Delta-E=       -0.000000012963 Rises=F Damp=F
 DIIS: error= 3.40D-06 at cycle   3 NSaved=   3.
 NSaved= 3 IEnMin= 3 EnMin= -2573.91202296116     IErMin= 3 ErrMin= 3.40D-06
 ErrMax= 3.40D-06  0.00D+00 EMaxC= 1.00D-01 BMatC= 3.45D-09 BMatP= 1.29D-08
 IDIUse=1 WtCom= 1.00D+00 WtEn= 0.00D+00
 Coeff-Com: -0.342D-01 0.323D+00 0.711D+00
 Coeff:     -0.342D-01 0.323D+00 0.711D+00
 Gap=     0.174 Goal=   None    Shift=    0.000
 RMSDP=9.25D-08 MaxDP=2.15D-05 DE=-1.30D-08 OVMax= 2.95D-05

 Cycle   8  Pass 1  IDiag  1:
 RMSU=  3.80D-08    CP:  1.00D+00  1.05D+00  7.42D-01
 E= -2573.91202296528     Delta-E=       -0.000000004121 Rises=F Damp=F
 DIIS: error= 2.65D-07 at cycle   4 NSaved=   4.
 NSaved= 4 IEnMin= 4 EnMin= -2573.91202296528     IErMin= 4 ErrMin= 2.65D-07
 ErrMax= 2.65D-07  0.00D+00 EMaxC= 1.00D-01 BMatC= 1.41D-11 BMatP= 3.45D-09
 IDIUse=1 WtCom= 1.00D+00 WtEn= 0.00D+00
 Coeff-Com: -0.851D-02 0.563D-01 0.140D+00 0.812D+00
 Coeff:     -0.851D-02 0.563D-01 0.140D+00 0.812D+00
 Gap=     0.174 Goal=   None    Shift=    0.000
 RMSDP=8.65D-09 MaxDP=9.68D-07 DE=-4.12D-09 OVMax= 3.06D-06

 SCF Done:  E(RPBE1PBE) =  -2573.91202297     A.U. after    8 cycles
            NFock=  8  Conv=0.86D-08     -V/T= 2.0013
 KE= 2.570511033772D+03 PE=-6.162937824011D+03 EE= 1.018514767274D+03
 Leave Link  502 at Thu May  3 08:02:18 2018, MaxMem= 14763950080 cpu:      5632.0
 (Enter /cm/shared/gaussian/g09.e01/intel64-sandybridge/g09/l601.exe)
 Copying SCF densities to generalized density rwf, IOpCl= 0 IROHF=0.

 **********************************************************************

            Population analysis using the SCF density.

 **********************************************************************

 Alpha  occ. eigenvalues -- -482.98900 -62.39044 -56.16301 -56.16297 -56.16291
 Alpha  occ. eigenvalues --   -8.49175  -6.29493  -6.29482  -6.29460  -2.37761
 Alpha  occ. eigenvalues --   -2.37759  -2.37742  -2.37732  -2.37728  -0.47212
 Alpha  occ. eigenvalues --   -0.03088  -0.03073  -0.03054
 Alpha virt. eigenvalues --    0.14334   0.15631   0.16556   0.17223   0.17986
 Alpha virt. eigenvalues --    0.18292   0.18766   0.19600   0.20661   0.20954
 Alpha virt. eigenvalues --    0.21432   0.21961   0.22293   0.22840   0.23556
 Alpha virt. eigenvalues --    0.23935   0.24701   0.25006   0.25487   0.25659
 Alpha virt. eigenvalues --    0.26371   0.26545   0.27307   0.27495   0.27960
 Alpha virt. eigenvalues --    0.29302   0.29800   0.30709   0.30843   0.31527
 Alpha virt. eigenvalues --    0.32188   0.32329   0.32594   0.32807   0.33917
 Alpha virt. eigenvalues --    0.34256   0.34708   0.35024   0.35919   0.36176
 Alpha virt. eigenvalues --    0.36690   0.37291   0.37917   0.38127   0.38814
 Alpha virt. eigenvalues --    0.39050   0.39493   0.39877   0.40568   0.41069
 Alpha virt. eigenvalues --    0.41335   0.41912   0.42525   0.43556   0.43786
 Alpha virt. eigenvalues --    0.44994   0.45398   0.45764   0.46586   0.47549
 Alpha virt. eigenvalues --    0.48628   0.49656   0.49843   0.51959   0.61591
 Alpha virt. eigenvalues --    0.61963   0.62677   0.63031   0.63317   0.63460
 Alpha virt. eigenvalues --    0.64045   0.64904   0.65105   0.65552   0.66016
 Alpha virt. eigenvalues --    0.66481   0.67098   0.67307   0.67802   0.67924
 Alpha virt. eigenvalues --    0.68771   0.69870   0.70269   0.70786   0.71140
 Alpha virt. eigenvalues --    0.71459   0.71859   0.72212   0.72617   0.72882
 Alpha virt. eigenvalues --    0.73336   0.73476   0.74047   0.74374   0.74805
 Alpha virt. eigenvalues --    0.75117   0.75262   0.75639   0.75766   0.75883
 Alpha virt. eigenvalues --    0.76016   0.76315   0.76386   0.76529   0.76813
 Alpha virt. eigenvalues --    0.77511   0.77927   0.78373   0.78596   0.78875
 Alpha virt. eigenvalues --    0.79422   0.79808   0.79889   0.80292   0.80686
 Alpha virt. eigenvalues --    0.81048   0.81355   0.81658   0.82155   0.82311
 Alpha virt. eigenvalues --    0.82623   0.83035   0.83120   0.83471   0.83789
 Alpha virt. eigenvalues --    0.84288   0.84729   0.85089   0.85436   0.85874
 Alpha virt. eigenvalues --    0.86447   0.86665   0.87128   0.87831   0.87876
 Alpha virt. eigenvalues --    0.88415   0.88758   0.89269   0.89457   0.90099
 Alpha virt. eigenvalues --    0.90332   0.90746   0.90972   0.91116   0.91345
 Alpha virt. eigenvalues --    0.92040   0.92731   0.92928   0.93126   0.94035
 Alpha virt. eigenvalues --    0.94271   0.94609   0.94679   0.94901   0.95682
 Alpha virt. eigenvalues --    0.96174   0.96860   0.96984   0.97296   0.97758
 Alpha virt. eigenvalues --    0.98151   0.98742   0.99397   0.99682   0.99908
 Alpha virt. eigenvalues --    1.00215   1.01200   1.01362   1.02405   1.02849
 Alpha virt. eigenvalues --    1.03571   1.03840   1.04531   1.04735   1.05563
 Alpha virt. eigenvalues --    1.05752   1.06432   1.07393   1.07694   1.08282
 Alpha virt. eigenvalues --    1.08429   1.08637   1.09272   1.09538   1.10617
 Alpha virt. eigenvalues --    1.10883   1.11327   1.12545   1.12935   1.13552
 Alpha virt. eigenvalues --    1.15064   1.16233   1.16950   1.17683   1.19326
 Alpha virt. eigenvalues --    1.20278   1.20978   1.23792   1.25696   1.27006
 Alpha virt. eigenvalues --    1.31300   1.64608   1.66590   1.67257   1.67598
 Alpha virt. eigenvalues --    1.67969   1.68785   1.69521   1.70120   1.70454
 Alpha virt. eigenvalues --    1.70552   1.71154   1.71785   1.71830   1.71962
 Alpha virt. eigenvalues --    1.72331   1.72538   1.72875   1.73204   1.73660
 Alpha virt. eigenvalues --    1.73750   1.74154   1.74462   1.74722   1.74807
 Alpha virt. eigenvalues --    1.75155   1.75225   1.75570   1.75856   1.76171
 Alpha virt. eigenvalues --    1.76457   1.76808   1.77128   1.77449   1.77690
 Alpha virt. eigenvalues --    1.78192   1.78436   1.78645   1.78878   1.79906
 Alpha virt. eigenvalues --    1.79938   1.80242   1.80532   1.80817   1.81059
 Alpha virt. eigenvalues --    1.81509   1.81895   1.82119   1.83128   1.83241
 Alpha virt. eigenvalues --    1.83911   1.85050   1.85342   1.85858   1.86657
 Alpha virt. eigenvalues --    1.87587   1.87901   1.88944   1.89503   1.90205
 Alpha virt. eigenvalues --    1.90755   1.91392   1.92782   1.93306   1.96043
 Alpha virt. eigenvalues --    1.96926   1.98357   1.99067   1.99159   1.99549
 Alpha virt. eigenvalues --    2.00100   2.00197   2.00729   2.01021   2.01124
 Alpha virt. eigenvalues --    2.01269   2.01421   2.01544   2.01573   2.01819
 Alpha virt. eigenvalues --    2.02020   2.02141   2.02274   2.02779   2.03083
 Alpha virt. eigenvalues --    2.03235   2.03422   2.03698   2.03983   2.04353
 Alpha virt. eigenvalues --    2.04608   2.04735   2.04998   2.05161   2.05580
 Alpha virt. eigenvalues --    2.05656   2.06428   2.06753   2.07135   2.07704
 Alpha virt. eigenvalues --    2.08041   2.08441   2.08552   2.08892   2.09162
 Alpha virt. eigenvalues --    2.09662   2.09789   2.10293   2.10730   2.10910
 Alpha virt. eigenvalues --    2.11274   2.11803   2.12327   2.12560   2.12880
 Alpha virt. eigenvalues --    2.13097   2.13796   2.14106   2.14340   2.15212
 Alpha virt. eigenvalues --    2.15955   2.16483   2.16759   2.16939   2.17048
 Alpha virt. eigenvalues --    2.17322   2.17746   2.17795   2.18335   2.18426
 Alpha virt. eigenvalues --    2.18719   2.19007   2.19488   2.19857   2.20375
 Alpha virt. eigenvalues --    2.20580   2.21109   2.21668   2.22100   2.22637
 Alpha virt. eigenvalues --    2.23185   2.23534   2.23871   2.24575   2.25081
 Alpha virt. eigenvalues --    2.25500   2.25962   2.27040   2.27577   2.28125
 Alpha virt. eigenvalues --    2.29462   2.29995   2.30324   2.32020   2.32409
 Alpha virt. eigenvalues --    2.33408   2.34124   2.34466   2.38158   2.38582
 Alpha virt. eigenvalues --    2.40216   2.40403   2.41059   2.41423   2.41592
 Alpha virt. eigenvalues --    2.42070   2.42592   2.42648   2.42691   2.43411
 Alpha virt. eigenvalues --    2.43642   2.43915   2.44007   2.44374   2.44606
 Alpha virt. eigenvalues --    2.44825   2.45311   2.45680   2.46744   2.47589
 Alpha virt. eigenvalues --    2.47798   2.48322   2.48664   2.49332   2.50834
 Alpha virt. eigenvalues --    2.51151   2.52048   2.52782   2.53126   2.53534
 Alpha virt. eigenvalues --    2.54350   2.56416   2.59600   2.67095   2.68269
 Alpha virt. eigenvalues --    2.68507   2.68806   2.69260   2.69903   2.70130
 Alpha virt. eigenvalues --    2.70396   2.71161   2.71249   2.71463   2.71886
 Alpha virt. eigenvalues --    2.72144   2.72557   2.73200   2.73589   2.74835
 Alpha virt. eigenvalues --    2.75208   2.75351   2.75866   2.76366   2.76509
 Alpha virt. eigenvalues --    2.78242   2.79063   2.79869   2.80309   2.80857
 Alpha virt. eigenvalues --    2.81587   2.81958   2.82552   2.83082   2.83717
 Alpha virt. eigenvalues --    2.84581   2.84763   2.85157   2.85486   2.85614
 Alpha virt. eigenvalues --    2.85674   2.86533   2.87259   2.88123   2.88790
 Alpha virt. eigenvalues --    2.88969   2.89188   2.89624   2.90171   2.90373
 Alpha virt. eigenvalues --    2.92233   2.92344   2.93900   2.94518   2.95915
 Alpha virt. eigenvalues --    2.96531   2.98654   2.99411   3.00351   3.01622
 Alpha virt. eigenvalues --    3.01805   3.02974   3.03696   3.04479   3.05277
 Alpha virt. eigenvalues --    3.06426   3.09925   3.13637   3.14892   3.15043
 Alpha virt. eigenvalues --    3.16401   3.17279   3.17552   3.18933   3.19001
 Alpha virt. eigenvalues --    3.20396   3.21667   3.22074   3.22366   3.22909
 Alpha virt. eigenvalues --    3.23755   3.27389   3.28972   3.30555   3.30594
 Alpha virt. eigenvalues --    3.31000   3.32805   3.36046   3.37236   3.39763
 Alpha virt. eigenvalues --    3.40770   3.42304   3.43352   3.43989   3.47427
 Alpha virt. eigenvalues --    3.50056   3.53363   3.54210   3.57199   4.51562
 Alpha virt. eigenvalues --    4.52063   4.52109   4.52163   4.52240   4.52286
 Alpha virt. eigenvalues --    4.52637   4.52672   4.52692   4.52745   4.52949
 Alpha virt. eigenvalues --    4.53076   4.53218   4.53261   4.53364   4.53478
 Alpha virt. eigenvalues --    4.53704   4.53936   4.53999   4.54142   4.54194
 Alpha virt. eigenvalues --    4.54375   4.54798   4.54930   4.55411   4.55577
 Alpha virt. eigenvalues --    4.56412   4.56720   4.56806   4.57089   4.58134
 Alpha virt. eigenvalues --    4.58428   4.59002   4.60199   4.60267   4.60309
 Alpha virt. eigenvalues --    4.60328   4.60352   4.60371   4.60538   4.60637
 Alpha virt. eigenvalues --    4.60888   4.61039   4.61089   4.61199   4.61374
 Alpha virt. eigenvalues --    4.61664   4.61739   4.61931   4.62004   4.62131
 Alpha virt. eigenvalues --    4.62233   4.62603   4.62725   4.63064   4.63401
 Alpha virt. eigenvalues --    4.63780   4.64450   4.64724   4.64984   4.65803
 Alpha virt. eigenvalues --    4.65883   4.67591   4.72833   4.74445   4.74962
 Alpha virt. eigenvalues --    4.75293   4.75704   4.75800   4.76155   4.76517
 Alpha virt. eigenvalues --    4.76694   4.76759   4.76894   4.77099   4.77234
 Alpha virt. eigenvalues --    4.77300   4.78071   4.78777   4.79036   4.79554
 Alpha virt. eigenvalues --    4.80106   4.80774   4.81318   4.81412   4.82449
 Alpha virt. eigenvalues --    4.82646   4.82715   4.83181   4.83327   4.83553
 Alpha virt. eigenvalues --    4.83957   4.84070   4.84422   4.85426   4.86205
 Alpha virt. eigenvalues --    4.86814   4.87047   4.87253   4.87367   4.87862
 Alpha virt. eigenvalues --    4.88039   4.88187   4.88298   4.88419   4.88536
 Alpha virt. eigenvalues --    4.88601   4.89487   4.89651   4.89773   4.90259
 Alpha virt. eigenvalues --    4.91095   4.91621   4.92256   4.92498   4.92885
 Alpha virt. eigenvalues --    4.93015   4.93172   4.94006   4.94844   4.95958
 Alpha virt. eigenvalues --    4.96488   4.96827   4.97301   4.98834   5.00297
 Alpha virt. eigenvalues --    5.01881   5.03259   5.03935   5.04494   5.04978
 Alpha virt. eigenvalues --    5.06457   5.06993   5.07039   5.07339   5.07425
 Alpha virt. eigenvalues --    5.07517   5.08701   5.08862   5.09109   5.09480
 Alpha virt. eigenvalues --    5.10192   5.11234   5.11600   5.12054   5.12362
 Alpha virt. eigenvalues --    5.14132   5.14630   5.14995   5.16435   5.16902
 Alpha virt. eigenvalues --    5.17363   5.19260   5.19618   5.21107   5.22668
 Alpha virt. eigenvalues --    5.23381   5.23983   5.31654   5.32847   5.35926
 Alpha virt. eigenvalues --    5.36002   5.37266   5.37319   5.37623   5.38711
[...]
   Y20       40.36455  -0.00343   0.00000  -0.01321  -0.01265  40.35190
   Z20       30.84033  -0.02375   0.00000  -0.02330  -0.02294  30.81739
   X21       35.75362  -0.01108   0.00000  -0.01463  -0.01319  35.74043
   Y21       40.78029   0.00271   0.00000   0.00254   0.00335  40.78364
   Z21       31.33166   0.00998   0.00000   0.02779   0.02814  31.35980
   X22       38.34254   0.01084   0.00000   0.01857   0.01987  38.36242
   Y22       40.19447   0.00172   0.00000   0.01396   0.01419  40.20866
   Z22       32.38991   0.01368   0.00000  -0.00678  -0.00641  32.38350
   X23       43.89834  -0.01005   0.00000  -0.01166  -0.01155  43.88679
   Y23       35.09221  -0.01878   0.00000  -0.00195  -0.00361  35.08861
   Z23       41.08265   0.00280   0.00000  -0.00370  -0.00368  41.07897
   X24       44.20069   0.00525   0.00000   0.00598   0.00637  44.20707
   Y24       36.33943   0.02424   0.00000   0.05985   0.05826  36.39770
   Z24       39.81653  -0.00242   0.00000   0.02522   0.02538  39.84191
   X25       44.57864   0.00641   0.00000   0.01335   0.01355  44.59219
   Y25       35.79141   0.00594   0.00000   0.00248   0.00054  35.79196
   Z25       42.61332   0.00393   0.00000  -0.00161  -0.00150  42.61182
   X26       31.84189   0.00319   0.00000  -0.00049   0.00137  31.84326
   Y26       44.10621   0.01477   0.00000   0.01485   0.01573  44.12194
   Z26       37.83232  -0.00462   0.00000  -0.03556  -0.03499  37.79733
   X27       32.69226   0.00268   0.00000  -0.00313  -0.00154  32.69072
   Y27       42.55663  -0.01341   0.00000  -0.02393  -0.02317  42.53346
   Z27       37.43547   0.00506   0.00000   0.03435   0.03479  37.47026
   X28       30.08444  -0.00679   0.00000  -0.00584  -0.00406  30.08038
   Y28       43.67157  -0.00483   0.00000  -0.01049  -0.00929  43.66228
   Z28       37.83232   0.00250   0.00000   0.01321   0.01369  37.84601
   X29       45.41012   0.00845   0.00000   0.00509   0.00606  45.41618
   Y29       39.32520  -0.00541   0.00000  -0.00827  -0.00990  39.31530
   Z29       38.07798   0.00990   0.00000   0.00063   0.00111  38.07910
   X30       44.69202  -0.00805   0.00000  -0.02725  -0.02598  44.66604
   Y30       40.95037   0.00065   0.00000  -0.01025  -0.01179  40.93858
   Z30       38.45593  -0.00625   0.00000  -0.02321  -0.02258  38.43334
   X31       44.74871  -0.00293   0.00000   0.00719   0.00814  44.75686
   Y31       38.89056   0.00245   0.00000   0.01202   0.01067  38.90123
   Z31       36.45282  -0.01256   0.00000  -0.02295  -0.02252  36.43030
   X32       44.25739   0.00962   0.00000   0.01573   0.01544  44.27283
   Y32       32.20093  -0.01180   0.00000  -0.00592  -0.00721  32.19372
   Z32       36.75517  -0.00889   0.00000  -0.02400  -0.02425  36.73092
   X33       42.85899  -0.00634   0.00000   0.00452   0.00436  42.86335
   Y33       32.76785   0.00596   0.00000   0.01665   0.01572  32.78357
   Z33       35.75362  -0.01092   0.00000  -0.02623  -0.02647  35.72715
   X34       44.31408  -0.00020   0.00000  -0.00424  -0.00437  44.30971
   Y34       33.35367  -0.00195   0.00000  -0.04474  -0.04619  33.30748
   Z34       38.15357   0.01709   0.00000   0.03694   0.03679  38.19036
   X35       37.22760   0.00615   0.00000   0.01942   0.01855  37.24615
   Y35       28.96950  -0.00971   0.00000   0.00008   0.00012  28.96962
   Z35       36.30164  -0.00942   0.00000  -0.04174  -0.04253  36.25911
   X36       36.22605  -0.00831   0.00000  -0.01133  -0.01192  36.21413
   Y36       30.48128   0.00954   0.00000   0.00405   0.00428  30.48556
   Z36       36.26384   0.00496   0.00000   0.02551   0.02485  36.28869
   X37       38.89056   0.00533   0.00000   0.01005   0.00927  38.89984
   Y37       29.55532   0.00068   0.00000  -0.00167  -0.00198  29.55334
   Z37       36.73628   0.00575   0.00000   0.02395   0.02327  36.75955
   X38       32.08755  -0.00456   0.00000   0.01784   0.01904  32.10659
   Y38       41.32831   0.00019   0.00000   0.02630   0.02658  41.35489
   Z38       43.25583   0.01631   0.00000   0.07225   0.07255  43.32838
   X39       33.82610   0.01489   0.00000   0.02383   0.02512  33.85122
   Y39       41.76295   0.01243   0.00000   0.04729   0.04727  41.81022
   Z39       43.04796   0.00075   0.00000   0.00903   0.00943  43.05739
   X40       31.21828  -0.00260   0.00000  -0.00758  -0.00609  31.21219
   Y40       42.91568   0.00649   0.00000   0.01831   0.01876  42.93444
   Z40       43.25583  -0.00168   0.00000  -0.00844  -0.00800  43.24783
   X41       31.44504   0.00802   0.00000   0.01706   0.01826  31.46331
   Y41       39.79763  -0.00976   0.00000  -0.00682  -0.00542  39.79221
   Z41       33.31587  -0.01120   0.00000  -0.00548  -0.00535  33.31052
   X42       30.76474  -0.00313   0.00000   0.00532   0.00641  30.77115
   Y42       39.45748  -0.00700   0.00000  -0.02560  -0.02424  39.43324
   Z42       34.95993   0.01232   0.00000   0.00856   0.00863  34.96856
   X43       31.50173  -0.00257   0.00000  -0.01446  -0.01293  31.48881
   Y43       41.59287   0.01371   0.00000   0.01343   0.01483  41.60771
   Z43       33.22139   0.00031   0.00000   0.00266   0.00297  33.22436
   X44       33.78830   0.00152   0.00000   0.02212   0.02243  33.81073
   Y44       34.67647  -0.00265   0.00000   0.02041   0.02154  34.69801
   Z44       31.67181   0.00803   0.00000   0.02558   0.02527  31.69708
   X45       35.37567   0.01297   0.00000   0.02108   0.02146  35.39713
   Y45       34.94104  -0.00114   0.00000  -0.00352  -0.00259  34.93844
   Z45       30.85923  -0.00830   0.00000  -0.02062  -0.02086  30.83836
   X46       33.03241  -0.00800   0.00000  -0.01253  -0.01191  33.02050
   Y46       36.32054   0.01285   0.00000   0.02373   0.02499  36.34553
   Z46       31.74740   0.00358   0.00000   0.01116   0.01099  31.75839
   X47       38.28585   0.01915   0.00000   0.01913   0.01863  38.30449
   Y47       32.67336  -0.00273   0.00000  -0.00378  -0.00499  32.66837
   Z47       46.88411   0.01589   0.00000   0.02386   0.02348  46.90758
   X48       37.73783  -0.00469   0.00000   0.00465   0.00444  37.74227
   Y48       34.10956   0.00955   0.00000   0.00235   0.00133  34.11089
   Z48       45.93924  -0.00788   0.00000  -0.00204  -0.00230  45.93695
   X49       37.05753  -0.01164   0.00000  -0.00824  -0.00896  37.04856
   Y49       31.40725  -0.00846   0.00000  -0.00322  -0.00417  31.40308
   Z49       46.56285  -0.00295   0.00000   0.00311   0.00256  46.56542
   X50       28.55376  -0.01826   0.00000  -0.01773  -0.01802  28.53574
   Y50       32.37101   0.00999   0.00000   0.01384   0.01530  32.38631
   Z50       38.09688   0.00255   0.00000   0.01850   0.01781  38.11469
   X51       28.83722   0.00558   0.00000   0.00935   0.00872  28.84595
   Y51       30.65136  -0.00922   0.00000  -0.00399  -0.00263  30.64873
   Z51       38.55041   0.00184   0.00000  -0.00110  -0.00196  38.54846
   X52       30.21672   0.01203   0.00000   0.00665   0.00649  30.22321
   Y52       33.05131   0.00048   0.00000  -0.00793  -0.00676  33.04455
   Z52       37.83232  -0.00459   0.00000  -0.01698  -0.01756  37.81476
   X53       31.65291  -0.01356   0.00000  -0.01451  -0.01421  31.63870
   Y53       36.94415  -0.00224   0.00000  -0.01845  -0.01837  36.92577
   Z53       46.22270   0.00727   0.00000   0.00787   0.00771  46.23042
   X54       33.03241   0.01103   0.00000   0.01006   0.01028  33.04269
   Y54       36.33943  -0.00196   0.00000   0.00266   0.00258  36.34201
   Z54       45.22115  -0.00668   0.00000  -0.00557  -0.00574  45.21541
   X55       32.27652  -0.00119   0.00000  -0.01417  -0.01361  32.26292
   Y55       38.47482  -0.00170   0.00000  -0.01287  -0.01299  38.46184
   Z55       46.97859   0.00041   0.00000   0.00222   0.00224  46.98083
   X56       38.53152  -0.00599   0.00000  -0.00506  -0.00268  38.52884
   Y56       46.88411  -0.01574   0.00000  -0.01544  -0.01573  46.86837
   Z56       37.24650  -0.00039   0.00000   0.00482   0.00586  37.25236
   X57       40.08109   0.01268   0.00000   0.00767   0.01023  40.09132
   Y57       47.79117   0.00843   0.00000   0.00784   0.00726  47.79843
   Z57       37.32209  -0.00035   0.00000  -0.00564  -0.00446  37.31764
   X58       37.24650  -0.00787   0.00000  -0.01534  -0.01273  37.23377
   Y58       48.13132   0.00389   0.00000  -0.00810  -0.00818  48.12314
   Z58       37.52996   0.00411   0.00000   0.01314   0.01427  37.54423
   X59       37.07643  -0.01071   0.00000  -0.01044  -0.00872  37.06770
   Y59       44.33298  -0.00928   0.00000  -0.01182  -0.01253  44.32045
   Z59       44.14400  -0.00313   0.00000  -0.01262  -0.01187  44.13213
   X60       37.07643  -0.00127   0.00000  -0.01038  -0.00832  37.06810
   Y60       46.10932   0.00861   0.00000   0.00424   0.00356  46.11287
   Z60       43.80385  -0.00204   0.00000  -0.00407  -0.00314  43.80071
   X61       38.77718   0.01003   0.00000   0.00643   0.00807  38.78525
   Y61       43.95503  -0.00233   0.00000  -0.00463  -0.00570  43.94933
   Z61       44.61643   0.00078   0.00000  -0.00768  -0.00692  44.60952
   X62       45.20225   0.01563   0.00000   0.01539   0.01722  45.21947
   Y62       44.63533  -0.00525   0.00000  -0.00434  -0.00635  44.62898
   Z62       42.23538   0.00376   0.00000   0.00785   0.00886  42.24424
   X63       44.44636  -0.00997   0.00000  -0.03071  -0.02905  44.41731
   Y63       43.50150   0.00060   0.00000   0.00478   0.00303  43.50453
   Z63       41.02595   0.00274   0.00000   0.02047   0.02135  41.04731
   X64       43.87944  -0.00885   0.00000  -0.00525  -0.00322  43.87622
   Y64       45.78806   0.00348   0.00000  -0.00035  -0.00216  45.78591
   Z64       42.65112  -0.00104   0.00000  -0.00558  -0.00449  42.64663
   X65       26.87191  -0.01350   0.00000  -0.02864  -0.02790  26.84400
   Y65       38.26695   0.01446   0.00000   0.02875   0.03036  38.29731
   Z65       39.72204  -0.00405   0.00000   0.01318   0.01303  39.73507
   X66       26.68293   0.00576   0.00000   0.01503   0.01545  26.69838
   Y66       36.67958  -0.00814   0.00000  -0.01021  -0.00866  36.67092
   Z66       40.57242  -0.00031   0.00000  -0.02236  -0.02268  40.54974
   X67       28.61045   0.00544   0.00000   0.00084   0.00164  28.61210
   Y67       38.72049  -0.00832   0.00000  -0.03277  -0.03151  38.68898
   Z67       39.96771  -0.00101   0.00000  -0.01707  -0.01713  39.95057
   X68       35.73472  -0.00935   0.00000  -0.01216  -0.01143  35.72329
   Y68       39.68425  -0.00152   0.00000   0.00956   0.00863  39.69287
   Z68       48.83052   0.00205   0.00000  -0.00038  -0.00013  48.83039
   X69       35.64023   0.00452   0.00000   0.01646   0.01725  35.65749
   Y69       39.74094   0.00025   0.00000  -0.00109  -0.00183  39.73911
   Z69       47.01639  -0.00330   0.00000  -0.00599  -0.00575  47.01064
   X70       37.35989   0.00713   0.00000   0.00498   0.00582  37.36571
   Y70       40.36455   0.00242   0.00000  -0.00002  -0.00130  40.36325
   Z70       49.22737  -0.00022   0.00000  -0.00231  -0.00195  49.22542
   X71       45.84476   0.01476   0.00000   0.01795   0.01886  45.86362
   Y71       37.71893   0.00983   0.00000   0.02377   0.02283  37.74176
   Z71       30.33010   0.00023   0.00000   0.02754   0.02788  30.35799
   X72       45.37232  -0.00887   0.00000  -0.02182  -0.02118  45.35114
   Y72       36.43392  -0.00878   0.00000  -0.00942  -0.01039  36.42353
   Z72       31.50173   0.00685   0.00000   0.00230   0.00250  31.50423
   X73       44.27628  -0.00613   0.00000   0.00043   0.00149  44.27777
   Y73       38.47482  -0.00337   0.00000  -0.02295  -0.02355  38.45127
   Z73       29.81988  -0.00633   0.00000  -0.02796  -0.02760  29.79228
   X74       38.38034   0.00220   0.00000   0.02124   0.02085  38.40119
   Y74       30.61356   0.01180   0.00000   0.02403   0.02445  30.63801
   Z74       30.31121  -0.00364   0.00000   0.00201   0.00143  30.31263
   X75       38.94726  -0.00391   0.00000  -0.02781  -0.02840  38.91885
   Y75       29.78208  -0.00550   0.00000  -0.00716  -0.00698  29.77510
   Z75       31.82299   0.00812   0.00000   0.01702   0.01636  31.83935
   X76       38.15357  -0.00199   0.00000  -0.00956  -0.01016  38.14341
   Y76       29.27186   0.00042   0.00000   0.01455   0.01514  29.28700
   Z76       29.10178   0.00161   0.00000   0.01163   0.01090  29.11269
   X77       34.97883  -0.00794   0.00000  -0.01961  -0.01848  34.96035
   Y77       38.28585  -0.01289   0.00000  -0.01076  -0.00930  38.27656
   Z77       26.22940  -0.00681   0.00000  -0.00451  -0.00443  26.22497
   X78       35.30008   0.00188   0.00000   0.00113   0.00253  35.30262
   Y78       39.58976   0.00619   0.00000   0.00319   0.00471  39.59447
   Z78       25.01997  -0.00314   0.00000  -0.00044  -0.00021  25.01976
   X79       35.37567   0.00946   0.00000   0.03170   0.03293  35.40860
   Y79       39.04174   0.00444   0.00000  -0.00759  -0.00637  39.03537
   Z79       27.81677   0.00985   0.00000   0.00331   0.00348  27.82025
   X80       41.57397   0.00881   0.00000   0.00400   0.00522  41.57919
   Y80       38.89056  -0.00518   0.00000   0.00697   0.00713  38.89769
   Z80       27.11757   0.00569   0.00000   0.01478   0.01512  27.13269
   X81       40.44014  -0.01244   0.00000  -0.03393  -0.03255  40.40759
   Y81       39.96771   0.00535   0.00000   0.00017   0.00046  39.96817
   Z81       28.02464   0.00496   0.00000   0.00568   0.00608  28.03072
   X82       41.15824  -0.00170   0.00000   0.00057   0.00189  41.16012
   Y82       39.15513   0.00082   0.00000  -0.00303  -0.00262  39.15250
   Z82       25.37902  -0.00565   0.00000   0.00197   0.00231  25.38134
   X83       45.86365  -0.00911   0.00000  -0.00861  -0.00796  45.85569
   Y83       38.70159  -0.01839   0.00000  -0.01526  -0.01771  38.68388
   Z83       45.39122   0.00437   0.00000   0.00319   0.00362  45.39484
   X84       47.29985   0.00981   0.00000  -0.00062   0.00023  47.30007
   Y84       39.70315   0.01116   0.00000   0.00937   0.00670  39.70985
   Z84       44.99438  -0.00609   0.00000  -0.01485  -0.01427  44.98011
   X85       44.48415  -0.00199   0.00000   0.00115   0.00202  44.48617
   Y85       39.87322   0.00667   0.00000   0.01048   0.00827  39.88150
   Z85       45.44791  -0.00302   0.00000  -0.01349  -0.01297  45.43494
   X86       43.44480  -0.00541   0.00000  -0.01140  -0.00903  43.43578
   Y86       45.73137   0.01523   0.00000   0.01206   0.01153  45.74291
   Z86       30.59467  -0.00881   0.00000  -0.00964  -0.00857  30.58610
   X87       44.99438   0.00388   0.00000  -0.00068   0.00175  44.99613
   Y87       46.20380  -0.00381   0.00000  -0.01277  -0.01366  46.19014
   Z87       31.40725   0.00315   0.00000   0.00097   0.00213  31.40938
   X88       43.18024  -0.00048   0.00000  -0.00424  -0.00220  43.17804
   Y88       44.01172  -0.01291   0.00000  -0.00472  -0.00525  44.00647
   Z88       31.06710   0.00822   0.00000   0.01724   0.01813  31.08523
   X89       33.08910   0.01280   0.00000   0.04402   0.04671  33.13581
   Y89       48.86832   0.01280   0.00000   0.00354   0.00399  48.87231
   Z89       39.66535   0.01238   0.00000   0.00058   0.00167  39.66702
   X90       32.97572  -0.00385   0.00000  -0.01774  -0.01483  32.96089
   Y90       49.85098   0.00367   0.00000   0.00404   0.00468  49.85565
   Z90       38.15357  -0.00744   0.00000  -0.00823  -0.00705  38.14652
   X91       32.84344  -0.00525   0.00000  -0.01595  -0.01356  32.82988
   Y91       47.16756  -0.01790   0.00000  -0.01608  -0.01551  47.15206
   Z91       39.09843  -0.00681   0.00000  -0.00534  -0.00444  39.09399
   X92       43.74716  -0.01248   0.00000  -0.00368  -0.00492  43.74224
   Y92       27.40103  -0.01635   0.00000  -0.02336  -0.02476  27.37627
   Z92       38.75828  -0.00047   0.00000  -0.01592  -0.01667  38.74161
   X93       44.12511   0.00305   0.00000  -0.00487  -0.00579  44.11931
   Y93       28.89391   0.01603   0.00000   0.02491   0.02353  28.91745
   Z93       37.79452  -0.00391   0.00000   0.01261   0.01202  37.80654
   X94       45.24004   0.00766   0.00000   0.00389   0.00257  45.24262
   Y94       27.09867   0.00142   0.00000   0.00818   0.00641  27.10508
   Z94       39.72204   0.00499   0.00000   0.00760   0.00686  39.72890
   X95       31.69071  -0.01170   0.00000  -0.01697  -0.01719  31.67352
   Y95       31.36945  -0.02515   0.00000  -0.04112  -0.03929  31.33016
   Z95       28.66715  -0.01366   0.00000  -0.02662  -0.02733  28.63982
   X96       31.76630   0.00242   0.00000   0.00381   0.00385  31.77015
   Y96       32.46549   0.00712   0.00000   0.00572   0.00767  32.47317
   Z96       27.23095  -0.00211   0.00000  -0.00099  -0.00158  27.22937
   X97       32.35211   0.00467   0.00000  -0.00842  -0.00849  32.34362
   Y97       32.35211   0.00987   0.00000  -0.00955  -0.00799  32.34412
   Z97       30.02775   0.00658   0.00000  -0.01577  -0.01636  30.01138
         Item               Value     Threshold  Converged?
 Maximum Force            0.038052     0.000450     NO 
 RMS     Force            0.009322     0.000300     NO 
 Maximum Displacement     0.072552     0.001800     NO 
 RMS     Displacement     0.017580     0.001200     NO 
 Predicted change in Energy=-2.617280D-02
 GradGradGradGradGradGradGradGradGradGradGradGradGradGradGradGradGradGrad

 Leave Link  103 at Thu May  3 08:08:05 2018, MaxMem= 14763950080 cpu:        65.6
 (Enter /cm/shared/gaussian/g09.e01/intel64-sandybridge/g09/l9999.exe)
 1\1\GINC-POPLE03\Force\RPBE1PBE\CC-pVDZ\Br1H64O32(1-)\M.PELUSO\03-May-
 2018\0\\#p PBE1PBE/cc-pvDZ force Counterpoise=2 noSymm\\forces on chlo
 ride comput - NWATER: 32\\-1,1\Br,20.,20.,20.\O,16.99,20.39,20.89\H,16
 .99,20.77,21.76\H,17.92,20.26,20.69\O,21.59,22.4,21.1\H,21.1,21.57,21.
 12\H,20.93,23.07,21.23\O,19.1,18.76,22.84\H,19.36,19.2,22.03\H,19.,17.
 85,22.6\O,17.81,17.65,19.37\H,18.21,18.46,19.7\H,17.97,17.66,18.43\O,2
 1.84,18.47,17.55\H,21.38,18.18,16.76\H,21.15,18.86,18.1\O,21.77,22.41,
 18.28\H,21.47,21.73,18.89\H,21.21,23.17,18.47\O,19.81,21.36,16.32\H,18
 .92,21.58,16.58\H,20.29,21.27,17.14\O,23.23,18.57,21.74\H,23.39,19.23,
 21.07\H,23.59,18.94,22.55\O,16.85,23.34,20.02\H,17.3,22.52,19.81\H,15.
 92,23.11,20.02\O,24.03,20.81,20.15\H,23.65,21.67,20.35\H,23.68,20.58,1
 9.29\O,23.42,17.04,19.45\H,22.68,17.34,18.92\H,23.45,17.65,20.19\O,19.
 7,15.33,19.21\H,19.17,16.13,19.19\H,20.58,15.64,19.44\O,16.98,21.87,22
 .89\H,17.9,22.1,22.78\H,16.52,22.71,22.89\O,16.64,21.06,17.63\H,16.28,
 20.88,18.5\H,16.67,22.01,17.58\O,17.88,18.35,16.76\H,18.72,18.49,16.33
 \H,17.48,19.22,16.8\O,20.26,17.29,24.81\H,19.97,18.05,24.31\H,19.61,16
 .62,24.64\O,15.11,17.13,20.16\H,15.26,16.22,20.4\H,15.99,17.49,20.02\O
 ,16.75,19.55,24.46\H,17.48,19.23,23.93\H,17.08,20.36,24.86\O,20.39,24.
 81,19.71\H,21.21,25.29,19.75\H,19.71,25.47,19.86\O,19.62,23.46,23.36\H
 ,19.62,24.4,23.18\H,20.52,23.26,23.61\O,23.92,23.62,22.35\H,23.52,23.0
 2,21.71\H,23.22,24.23,22.57\O,14.22,20.25,21.02\H,14.12,19.41,21.47\H,
 15.14,20.49,21.15\O,18.91,21.,25.84\H,18.86,21.03,24.88\H,19.77,21.36,
 26.05\O,24.26,19.96,16.05\H,24.01,19.28,16.67\H,23.43,20.36,15.78\O,20
 .31,16.2,16.04\H,20.61,15.76,16.84\H,20.19,15.49,15.4\O,18.51,20.26,13
 .88\H,18.68,20.95,13.24\H,18.72,20.66,14.72\O,22.,20.58,14.35\H,21.4,2
 1.15,14.83\H,21.78,20.72,13.43\O,24.27,20.48,24.02\H,25.03,21.01,23.81
 \H,23.54,21.1,24.05\O,22.99,24.2,16.19\H,23.81,24.45,16.62\H,22.85,23.
 29,16.44\O,17.51,25.86,20.99\H,17.45,26.38,20.19\H,17.38,24.96,20.69\O
 ,23.15,14.5,20.51\H,23.35,15.29,20.\H,23.94,14.34,21.02\O,16.77,16.6,1
 5.17\H,16.81,17.18,14.41\H,17.12,17.12,15.89\\Version=ES64L-G09RevE.01
 \HF=-2443.1508909\RMSD=2.815e-09\RMSF=9.322e-03\Dipole=0.3650949,8.131
 2952,-0.4975748\Quadrupole=-200.6413667,418.5238187,-217.882452,-1119.
 7235673,-1392.4453693,-1131.6707731\PG=C01 [X(Br1H64O32)]\\@


 SUCCESS IS NEVER CERTAIN,
 FAILURE IS NEVER FINAL.
 Job cpu time:       0 days 10 hours 55 minutes 14.8 seconds.
 File lengths (MBytes):  RWF=    482 Int=      0 D2E=      0 Chk=    160 Scr=      1
 Normal termination of Gaussian 09 at Thu May  3 08:08:06 2018.
