 Entering Gaussian System, Link 0=/cm/shared/gaussian/g09.e01/intel64-sandybridge/g09/g09
 Initial command:
 /cm/shared/gaussian/g09.e01/intel64-sandybridge/g09/l1.exe "/local/scratch/m.peluso/32_wat/Gau-41880.inp" -scrdir="/local/scratch/m.peluso/32_wat/"
 Entering Link 1 = /cm/shared/gaussian/g09.e01/intel64-sandybridge/g09/l1.exe PID=     41881.
  
 Copyright (c) 1988,1990,1992,1993,1995,1998,2003,2009,2015,
            Gaussian, Inc.  All Rights Reserved.
  
 This is part of the Gaussian(R) 09 program.  It is based on
 the Gaussian(R) 03 system (copyright 2003, Gaussian, Inc.),
 the Gaussian(R) 98 system (copyright 1998, Gaussian, Inc.),
 the Gaussian(R) 94 system (copyright 1995, Gaussian, Inc.),
 the Gaussian 92(TM) system (copyright 1992, Gaussian, Inc.),
 the Gaussian 90(TM) system (copyright 1990, Gaussian, Inc.),
 the Gaussian 88(TM) system (copyright 1988, Gaussian, Inc.),
 the Gaussian 86(TM) system (copyright 1986, Carnegie Mellon
 University), and the Gaussian 82(TM) system (copyright 1983,
 Carnegie Mellon University). Gaussian is a federally registered
 trademark of Gaussian, Inc.
  
 This software contains proprietary and confidential information,
 including trade secrets, belonging to Gaussian, Inc.
  
 This software is provided under written license and may be
 used, copied, transmitted, or stored only in accord with that
 written license.
  
 The following legend is applicable only to US Government
 contracts under FAR:
  
                    RESTRICTED RIGHTS LEGEND
  
 Use, reproduction and disclosure by the US Government is
 subject to restrictions as set forth in subparagraphs (a)
 and (c) of the Commercial Computer Software - Restricted
 Rights clause in FAR 52.227-19.
  
 Gaussian, Inc.
 340 Quinnipiac St., Bldg. 40, Wallingford CT 06492
  
  
 ---------------------------------------------------------------
 Warning -- This program may not be used in any manner that
 competes with the business of Gaussian, Inc. or will provide
 assistance to any competitor of Gaussian, Inc.  The licensee
 of this program is prohibited from giving any competitor of
 Gaussian, Inc. access to this program.  By using this program,
 the user acknowledges that Gaussian, Inc. is engaged in the
 business of creating and licensing software in the field of
 computational chemistry and represents and warrants to the
 licensee that it is not a competitor of Gaussian, Inc. and that
 it will not use this program in any manner prohibited above.
 ---------------------------------------------------------------
  

 Cite this work as:
 Gaussian 09, Revision E.01,
 M. J. Frisch, G. W. Trucks, H. B. Schlegel, G. E. Scuseria, 
 M. A. Robb, J. R. Cheeseman, G. Scalmani, V. Barone, B. Mennucci, 
 G. A. Petersson, H. Nakatsuji, M. Caricato, X. Li, H. P. Hratchian, 
 A. F. Izmaylov, J. Bloino, G. Zheng, J. L. Sonnenberg, M. Hada, 
 M. Ehara, K. Toyota, R. Fukuda, J. Hasegawa, M. Ishida, T. Nakajima, 
 Y. Honda, O. Kitao, H. Nakai, T. Vreven, J. A. Montgomery, Jr., 
 J. E. Peralta, F. Ogliaro, M. Bearpark, J. J. Heyd, E. Brothers, 
 K. N. Kudin, V. N. Staroverov, T. Keith, R. Kobayashi, J. Normand, 
 K. Raghavachari, A. Rendell, J. C. Burant, S. S. Iyengar, J. Tomasi, 
 M. Cossi, N. Rega, J. M. Millam, M. Klene, J. E. Knox, J. B. Cross, 
 V. Bakken, C. Adamo, J. Jaramillo, R. Gomperts, R. E. Stratmann, 
 O. Yazyev, A. J. Austin, R. Cammi, C. Pomelli, J. W. Ochterski, 
 R. L. Martin, K. Morokuma, V. G. Zakrzewski, G. A. Voth, 
 P. Salvador, J. J. Dannenberg, S. Dapprich, A. D. Daniels, 
 O. Farkas, J. B. Foresman, J. V. Ortiz, J. Cioslowski, 
 and D. J. Fox, Gaussian, Inc., Wallingford CT, 2013.
 
 ******************************************
 Gaussian 09:  ES64L-G09RevE.01 30-Nov-2015
                 3-May-2018 
 ******************************************
 %Mem=110GB
 %NProcShared=64
 Will use up to   64 processors via shared memory.
 %chk=snap33.chk
 ----------------------------------------------
 #p PBE1PBE/cc-pvDZ force Counterpoise=2 noSymm
 ----------------------------------------------
 1/10=7,30=1,38=1,62=2/1,3;
 2/12=2,15=1,17=6,18=5,40=1/2;
 1/10=7,30=1,38=1,53=2,62=2,63=101/22;
 3/5=16,11=2,16=1,25=1,30=1,71=1,74=-13/1,2,3;
 4//1;
 5/5=2,38=5/2;
 6/7=2,8=2,9=2,10=2,28=1/1;
 7/7=1,29=1,30=1,33=-1/1,2,3,16;
 1/10=7,30=1,53=2,62=2,63=101/22;
 3/5=7,6=11,11=2,16=1,25=1,30=1,71=1,74=-13,82=7/1,2,3;
 4//1;
 5/5=2,38=5/2;
 6/7=2,8=2,9=2,10=2,28=1/1;
 7/7=1,29=1,30=1,33=-1/1,2,3,16;
 1/10=7,30=1,53=2,62=2,63=101/22(-5);
 7/9=1,29=1,44=-1/16;
 1/10=7,30=1,62=2/3;
 99//99;
 Leave Link    1 at Thu May  3 03:21:31 2018, MaxMem= 14763950080 cpu:         7.4
 (Enter /cm/shared/gaussian/g09.e01/intel64-sandybridge/g09/l101.exe)
 --------------------------------------
 forces on chloride comput - NWATER: 32
 --------------------------------------
 Symbolic Z-matrix:
 Charge = -1 Multiplicity = 1 in supermolecule
 Charge = -1 Multiplicity = 1 in fragment      1.
 Charge =  0 Multiplicity = 1 in fragment      2.
 Br(Fragment=1)        20.       20.       20. 
 O(Fragment=2)         21.78     22.25     18.91 
 H(Fragment=2)         21.27     21.67     19.47 
 H(Fragment=2)         21.15     22.87     18.57 
 O(Fragment=2)         18.11     19.05     22.35 
 H(Fragment=2)         18.39     19.45     21.53 
 H(Fragment=2)         17.15     19.04     22.31 
 O(Fragment=2)         21.35     18.76     22.64 
 H(Fragment=2)         20.76     19.16     21.99 
 H(Fragment=2)         22.13     18.51     22.13 
 O(Fragment=2)         21.59     17.87     17.89 
 H(Fragment=2)         21.13     18.47     18.47 
 H(Fragment=2)         22.49     18.19     17.87 
 O(Fragment=2)         17.67     22.42     18.73 
 H(Fragment=2)         16.94     22.18     19.3 
 H(Fragment=2)         18.43     22.02     19.16 
 O(Fragment=2)         20.14     16.57     21.22 
 H(Fragment=2)         20.16     17.14     21.98 
 H(Fragment=2)         20.45     17.11     20.5 
 O(Fragment=2)         23.       21.29     22.13 
 H(Fragment=2)         23.51     20.51     21.91 
 H(Fragment=2)         22.25     21.26     21.54 
 O(Fragment=2)         17.74     17.97     17.35 
 H(Fragment=2)         18.46     18.26     17.91 
 H(Fragment=2)         18.09     17.22     16.87 
 O(Fragment=2)         23.21     20.7      17.05 
 H(Fragment=2)         22.89     21.25     16.34 
 H(Fragment=2)         22.88     21.12     17.85 
 O(Fragment=2)         17.66     21.81     24.15 
 H(Fragment=2)         17.88     21.33     23.35 
 H(Fragment=2)         17.26     21.14     24.71 
 O(Fragment=2)         23.49     17.9      21.21 
 H(Fragment=2)         24.02     17.54     21.91 
 H(Fragment=2)         23.97     17.68     20.41 
 O(Fragment=2)         18.64     18.07     24.88 
 H(Fragment=2)         18.88     18.45     24.03 
 H(Fragment=2)         17.9      18.59     25.18 
 O(Fragment=2)         22.03     22.16     24.44 
 H(Fragment=2)         22.1      21.74     23.58 
 H(Fragment=2)         22.2      23.09     24.26 
 O(Fragment=2)         19.47     24.36     17.72 
 H(Fragment=2)         18.72     23.79     17.9 
 H(Fragment=2)         19.68     24.75     18.57 
 O(Fragment=2)         15.02     18.03     19.73 
 H(Fragment=2)         15.63     18.63     19.3 
 H(Fragment=2)         15.54     17.59     20.4 
 O(Fragment=2)         24.05     23.92     18.58 
 H(Fragment=2)         23.38     23.25     18.7 
 H(Fragment=2)         24.82     23.57     19.01 
 O(Fragment=2)         15.37     19.39     17.05 
 H(Fragment=2)         16.17     18.89     17.2 
 H(Fragment=2)         15.68     20.26     16.78 
 O(Fragment=2)         21.99     15.46     16.74 
 H(Fragment=2)         21.65     16.28     17.1 
 H(Fragment=2)         21.59     14.78     17.28 
 O(Fragment=2)         21.46     17.49     24.98 
 H(Fragment=2)         21.7      18.16     24.34 
 H(Fragment=2)         20.5      17.49     24.98 
 O(Fragment=2)         15.7      22.86     20.87 
 H(Fragment=2)         15.59     22.05     21.36 
 H(Fragment=2)         15.1      23.48     21.28 
 O(Fragment=2)         17.27     15.12     18.56 
 H(Fragment=2)         17.11     16.07     18.54 
 H(Fragment=2)         16.7      14.77     17.88 
 O(Fragment=2)         16.14     21.93     16.29 
 H(Fragment=2)         16.6      22.34     15.56 
 H(Fragment=2)         16.46     22.39     17.06 
 O(Fragment=2)         19.3      16.07     16.43 
 H(Fragment=2)         19.29     15.17     16.76 
 H(Fragment=2)         20.23     16.29     16.38 
 O(Fragment=2)         20.63     21.16     14.6 
 H(Fragment=2)         20.4      20.5      13.93 
 H(Fragment=2)         19.79     21.5      14.89 
 O(Fragment=2)         18.21     19.52     14.5 
 H(Fragment=2)         17.88     18.96     15.2 
 H(Fragment=2)         18.01     20.41     14.8 
 O(Fragment=2)         18.36     14.26     21.11 
 H(Fragment=2)         18.26     14.57     20.21 
 H(Fragment=2)         18.63     15.04     21.6 
 O(Fragment=2)         15.35     20.05     22.77 
 H(Fragment=2)         15.4      20.92     23.18 
 H(Fragment=2)         15.19     19.45     23.5 
 O(Fragment=2)         15.94     16.86     21.77 
 H(Fragment=2)         16.29     15.97     21.87 
 H(Fragment=2)         15.78     17.15     22.67 
 O(Fragment=2)         25.51     21.74     20.75 
 H(Fragment=2)         24.83     22.22     21.23 
 H(Fragment=2)         25.72     21.       21.32 
 O(Fragment=2)         21.35     13.93     21.23 
 H(Fragment=2)         21.17     14.84     21.48 
 H(Fragment=2)         20.63     13.43     21.6 
 O(Fragment=2)         24.27     18.61     15.62 
 H(Fragment=2)         23.81     19.32     16.06 
 H(Fragment=2)         24.98     19.04     15.14 
 O(Fragment=2)         19.75     25.82     20.01 
 H(Fragment=2)         19.39     25.5      20.84 
 H(Fragment=2)         19.97     26.74     20.19 
 
 NAtoms=     97 NQM=       97 NQMF=       0 NMMI=      0 NMMIF=      0
                NMic=       0 NMicF=      0.
                    Isotopes and Nuclear Properties:
 (Nuclear quadrupole moments (NQMom) in fm**2, nuclear magnetic moments (NMagM)
  in nuclear magnetons)

  Atom         1           2           3           4           5           6           7           8           9          10
 IAtWgt=          79          16           1           1          16           1           1          16           1           1
 AtmWgt=  78.9183361  15.9949146   1.0078250   1.0078250  15.9949146   1.0078250   1.0078250  15.9949146   1.0078250   1.0078250
 NucSpn=           3           0           1           1           0           1           1           0           1           1
 AtZEff=   0.0000000   0.0000000   0.0000000   0.0000000   0.0000000   0.0000000   0.0000000   0.0000000   0.0000000   0.0000000
 NQMom=   31.3000000   0.0000000   0.0000000   0.0000000   0.0000000   0.0000000   0.0000000   0.0000000   0.0000000   0.0000000
 NMagM=    2.1063990   0.0000000   2.7928460   2.7928460   0.0000000   2.7928460   2.7928460   0.0000000   2.7928460   2.7928460
 AtZNuc=  35.0000000   8.0000000   1.0000000   1.0000000   8.0000000   1.0000000   1.0000000   8.0000000   1.0000000   1.0000000

  Atom        11          12          13          14          15          16          17          18          19          20
 IAtWgt=          16           1           1          16           1           1          16           1           1          16
 AtmWgt=  15.9949146   1.0078250   1.0078250  15.9949146   1.0078250   1.0078250  15.9949146   1.0078250   1.0078250  15.9949146
 NucSpn=           0           1           1           0           1           1           0           1           1           0
 AtZEff=   0.0000000   0.0000000   0.0000000   0.0000000   0.0000000   0.0000000   0.0000000   0.0000000   0.0000000   0.0000000
 NQMom=    0.0000000   0.0000000   0.0000000   0.0000000   0.0000000   0.0000000   0.0000000   0.0000000   0.0000000   0.0000000
 NMagM=    0.0000000   2.7928460   2.7928460   0.0000000   2.7928460   2.7928460   0.0000000   2.7928460   2.7928460   0.0000000
 AtZNuc=   8.0000000   1.0000000   1.0000000   8.0000000   1.0000000   1.0000000   8.0000000   1.0000000   1.0000000   8.0000000

  Atom        21          22          23          24          25          26          27          28          29          30
 IAtWgt=           1           1          16           1           1          16           1           1          16           1
 AtmWgt=   1.0078250   1.0078250  15.9949146   1.0078250   1.0078250  15.9949146   1.0078250   1.0078250  15.9949146   1.0078250
 NucSpn=           1           1           0           1           1           0           1           1           0           1
 AtZEff=   0.0000000   0.0000000   0.0000000   0.0000000   0.0000000   0.0000000   0.0000000   0.0000000   0.0000000   0.0000000
 NQMom=    0.0000000   0.0000000   0.0000000   0.0000000   0.0000000   0.0000000   0.0000000   0.0000000   0.0000000   0.0000000
 NMagM=    2.7928460   2.7928460   0.0000000   2.7928460   2.7928460   0.0000000   2.7928460   2.7928460   0.0000000   2.7928460
 AtZNuc=   1.0000000   1.0000000   8.0000000   1.0000000   1.0000000   8.0000000   1.0000000   1.0000000   8.0000000   1.0000000

  Atom        31          32          33          34          35          36          37          38          39          40
 IAtWgt=           1          16           1           1          16           1           1          16           1           1
 AtmWgt=   1.0078250  15.9949146   1.0078250   1.0078250  15.9949146   1.0078250   1.0078250  15.9949146   1.0078250   1.0078250
 NucSpn=           1           0           1           1           0           1           1           0           1           1
 AtZEff=   0.0000000   0.0000000   0.0000000   0.0000000   0.0000000   0.0000000   0.0000000   0.0000000   0.0000000   0.0000000
 NQMom=    0.0000000   0.0000000   0.0000000   0.0000000   0.0000000   0.0000000   0.0000000   0.0000000   0.0000000   0.0000000
 NMagM=    2.7928460   0.0000000   2.7928460   2.7928460   0.0000000   2.7928460   2.7928460   0.0000000   2.7928460   2.7928460
 AtZNuc=   1.0000000   8.0000000   1.0000000   1.0000000   8.0000000   1.0000000   1.0000000   8.0000000   1.0000000   1.0000000

  Atom        41          42          43          44          45          46          47          48          49          50
 IAtWgt=          16           1           1          16           1           1          16           1           1          16
 AtmWgt=  15.9949146   1.0078250   1.0078250  15.9949146   1.0078250   1.0078250  15.9949146   1.0078250   1.0078250  15.9949146
 NucSpn=           0           1           1           0           1           1           0           1           1           0
 AtZEff=   0.0000000   0.0000000   0.0000000   0.0000000   0.0000000   0.0000000   0.0000000   0.0000000   0.0000000   0.0000000
 NQMom=    0.0000000   0.0000000   0.0000000   0.0000000   0.0000000   0.0000000   0.0000000   0.0000000   0.0000000   0.0000000
 NMagM=    0.0000000   2.7928460   2.7928460   0.0000000   2.7928460   2.7928460   0.0000000   2.7928460   2.7928460   0.0000000
 AtZNuc=   8.0000000   1.0000000   1.0000000   8.0000000   1.0000000   1.0000000   8.0000000   1.0000000   1.0000000   8.0000000

  Atom        51          52          53          54          55          56          57          58          59          60
 IAtWgt=           1           1          16           1           1          16           1           1          16           1
 AtmWgt=   1.0078250   1.0078250  15.9949146   1.0078250   1.0078250  15.9949146   1.0078250   1.0078250  15.9949146   1.0078250
 NucSpn=           1           1           0           1           1           0           1           1           0           1
 AtZEff=   0.0000000   0.0000000   0.0000000   0.0000000   0.0000000   0.0000000   0.0000000   0.0000000   0.0000000   0.0000000
 NQMom=    0.0000000   0.0000000   0.0000000   0.0000000   0.0000000   0.0000000   0.0000000   0.0000000   0.0000000   0.0000000
 NMagM=    2.7928460   2.7928460   0.0000000   2.7928460   2.7928460   0.0000000   2.7928460   2.7928460   0.0000000   2.7928460
 AtZNuc=   1.0000000   1.0000000   8.0000000   1.0000000   1.0000000   8.0000000   1.0000000   1.0000000   8.0000000   1.0000000

  Atom        61          62          63          64          65          66          67          68          69          70
 IAtWgt=           1          16           1           1          16           1           1          16           1           1
 AtmWgt=   1.0078250  15.9949146   1.0078250   1.0078250  15.9949146   1.0078250   1.0078250  15.9949146   1.0078250   1.0078250
 NucSpn=           1           0           1           1           0           1           1           0           1           1
 AtZEff=   0.0000000   0.0000000   0.0000000   0.0000000   0.0000000   0.0000000   0.0000000   0.0000000   0.0000000   0.0000000
 NQMom=    0.0000000   0.0000000   0.0000000   0.0000000   0.0000000   0.0000000   0.0000000   0.0000000   0.0000000   0.0000000
 NMagM=    2.7928460   0.0000000   2.7928460   2.7928460   0.0000000   2.7928460   2.7928460   0.0000000   2.7928460   2.7928460
 AtZNuc=   1.0000000   8.0000000   1.0000000   1.0000000   8.0000000   1.0000000   1.0000000   8.0000000   1.0000000   1.0000000

  Atom        71          72          73          74          75          76          77          78          79          80
 IAtWgt=          16           1           1          16           1           1          16           1           1          16
 AtmWgt=  15.9949146   1.0078250   1.0078250  15.9949146   1.0078250   1.0078250  15.9949146   1.0078250   1.0078250  15.9949146
 NucSpn=           0           1           1           0           1           1           0           1           1           0
 AtZEff=   0.0000000   0.0000000   0.0000000   0.0000000   0.0000000   0.0000000   0.0000000   0.0000000   0.0000000   0.0000000
 NQMom=    0.0000000   0.0000000   0.0000000   0.0000000   0.0000000   0.0000000   0.0000000   0.0000000   0.0000000   0.0000000
 NMagM=    0.0000000   2.7928460   2.7928460   0.0000000   2.7928460   2.7928460   0.0000000   2.7928460   2.7928460   0.0000000
 AtZNuc=   8.0000000   1.0000000   1.0000000   8.0000000   1.0000000   1.0000000   8.0000000   1.0000000   1.0000000   8.0000000

  Atom        81          82          83          84          85          86          87          88          89          90
 IAtWgt=           1           1          16           1           1          16           1           1          16           1
 AtmWgt=   1.0078250   1.0078250  15.9949146   1.0078250   1.0078250  15.9949146   1.0078250   1.0078250  15.9949146   1.0078250
 NucSpn=           1           1           0           1           1           0           1           1           0           1
 AtZEff=   0.0000000   0.0000000   0.0000000   0.0000000   0.0000000   0.0000000   0.0000000   0.0000000   0.0000000   0.0000000
 NQMom=    0.0000000   0.0000000   0.0000000   0.0000000   0.0000000   0.0000000   0.0000000   0.0000000   0.0000000   0.0000000
 NMagM=    2.7928460   2.7928460   0.0000000   2.7928460   2.7928460   0.0000000   2.7928460   2.7928460   0.0000000   2.7928460
 AtZNuc=   1.0000000   1.0000000   8.0000000   1.0000000   1.0000000   8.0000000   1.0000000   1.0000000   8.0000000   1.0000000

  Atom        91          92          93          94          95          96          97
 IAtWgt=           1          16           1           1          16           1           1
 AtmWgt=   1.0078250  15.9949146   1.0078250   1.0078250  15.9949146   1.0078250   1.0078250
 NucSpn=           1           0           1           1           0           1           1
 AtZEff=   0.0000000   0.0000000   0.0000000   0.0000000   0.0000000   0.0000000   0.0000000
 NQMom=    0.0000000   0.0000000   0.0000000   0.0000000   0.0000000   0.0000000   0.0000000
 NMagM=    2.7928460   0.0000000   2.7928460   2.7928460   0.0000000   2.7928460   2.7928460
 AtZNuc=   1.0000000   8.0000000   1.0000000   1.0000000   8.0000000   1.0000000   1.0000000
 Leave Link  101 at Thu May  3 03:21:31 2018, MaxMem= 14763950080 cpu:        14.7
 (Enter /cm/shared/gaussian/g09.e01/intel64-sandybridge/g09/l103.exe)

 GradGradGradGradGradGradGradGradGradGradGradGradGradGradGradGradGradGrad
 Berny optimization.
 Initialization pass.
 Trust Radius=3.00D-01 FncErr=1.00D-07 GrdErr=1.00D-07
 Number of steps in this run=      2 maximum allowed number of steps=      2.
 GradGradGradGradGradGradGradGradGradGradGradGradGradGradGradGradGradGrad

 Leave Link  103 at Thu May  3 03:21:31 2018, MaxMem= 14763950080 cpu:         2.0
 (Enter /cm/shared/gaussian/g09.e01/intel64-sandybridge/g09/l202.exe)
 Symmetry turned off by external request.
 Stoichiometry    BrH64O32(1-)
 Framework group  C1[X(BrH64O32)]
 Deg. of freedom   285
 Full point group                 C1      NOp   1
                          Input orientation:                          
 ---------------------------------------------------------------------
 Center     Atomic      Atomic             Coordinates (Angstroms)
 Number     Number       Type             X           Y           Z
 ---------------------------------------------------------------------
      1         35           0       20.000000   20.000000   20.000000
      2          8           0       21.780000   22.250000   18.910000
      3          1           0       21.270000   21.670000   19.470000
      4          1           0       21.150000   22.870000   18.570000
      5          8           0       18.110000   19.050000   22.350000
      6          1           0       18.390000   19.450000   21.530000
      7          1           0       17.150000   19.040000   22.310000
      8          8           0       21.350000   18.760000   22.640000
      9          1           0       20.760000   19.160000   21.990000
     10          1           0       22.130000   18.510000   22.130000
     11          8           0       21.590000   17.870000   17.890000
     12          1           0       21.130000   18.470000   18.470000
     13          1           0       22.490000   18.190000   17.870000
     14          8           0       17.670000   22.420000   18.730000
     15          1           0       16.940000   22.180000   19.300000
     16          1           0       18.430000   22.020000   19.160000
     17          8           0       20.140000   16.570000   21.220000
     18          1           0       20.160000   17.140000   21.980000
     19          1           0       20.450000   17.110000   20.500000
     20          8           0       23.000000   21.290000   22.130000
     21          1           0       23.510000   20.510000   21.910000
     22          1           0       22.250000   21.260000   21.540000
     23          8           0       17.740000   17.970000   17.350000
     24          1           0       18.460000   18.260000   17.910000
     25          1           0       18.090000   17.220000   16.870000
     26          8           0       23.210000   20.700000   17.050000
     27          1           0       22.890000   21.250000   16.340000
     28          1           0       22.880000   21.120000   17.850000
     29          8           0       17.660000   21.810000   24.150000
     30          1           0       17.880000   21.330000   23.350000
     31          1           0       17.260000   21.140000   24.710000
     32          8           0       23.490000   17.900000   21.210000
     33          1           0       24.020000   17.540000   21.910000
     34          1           0       23.970000   17.680000   20.410000
     35          8           0       18.640000   18.070000   24.880000
     36          1           0       18.880000   18.450000   24.030000
     37          1           0       17.900000   18.590000   25.180000
     38          8           0       22.030000   22.160000   24.440000
     39          1           0       22.100000   21.740000   23.580000
     40          1           0       22.200000   23.090000   24.260000
     41          8           0       19.470000   24.360000   17.720000
     42          1           0       18.720000   23.790000   17.900000
     43          1           0       19.680000   24.750000   18.570000
     44          8           0       15.020000   18.030000   19.730000
     45          1           0       15.630000   18.630000   19.300000
     46          1           0       15.540000   17.590000   20.400000
     47          8           0       24.050000   23.920000   18.580000
     48          1           0       23.380000   23.250000   18.700000
     49          1           0       24.820000   23.570000   19.010000
     50          8           0       15.370000   19.390000   17.050000
     51          1           0       16.170000   18.890000   17.200000
     52          1           0       15.680000   20.260000   16.780000
     53          8           0       21.990000   15.460000   16.740000
     54          1           0       21.650000   16.280000   17.100000
     55          1           0       21.590000   14.780000   17.280000
     56          8           0       21.460000   17.490000   24.980000
     57          1           0       21.700000   18.160000   24.340000
     58          1           0       20.500000   17.490000   24.980000
     59          8           0       15.700000   22.860000   20.870000
     60          1           0       15.590000   22.050000   21.360000
     61          1           0       15.100000   23.480000   21.280000
     62          8           0       17.270000   15.120000   18.560000
     63          1           0       17.110000   16.070000   18.540000
     64          1           0       16.700000   14.770000   17.880000
     65          8           0       16.140000   21.930000   16.290000
     66          1           0       16.600000   22.340000   15.560000
     67          1           0       16.460000   22.390000   17.060000
     68          8           0       19.300000   16.070000   16.430000
     69          1           0       19.290000   15.170000   16.760000
     70          1           0       20.230000   16.290000   16.380000
     71          8           0       20.630000   21.160000   14.600000
     72          1           0       20.400000   20.500000   13.930000
     73          1           0       19.790000   21.500000   14.890000
     74          8           0       18.210000   19.520000   14.500000
     75          1           0       17.880000   18.960000   15.200000
     76          1           0       18.010000   20.410000   14.800000
     77          8           0       18.360000   14.260000   21.110000
     78          1           0       18.260000   14.570000   20.210000
     79          1           0       18.630000   15.040000   21.600000
     80          8           0       15.350000   20.050000   22.770000
     81          1           0       15.400000   20.920000   23.180000
     82          1           0       15.190000   19.450000   23.500000
     83          8           0       15.940000   16.860000   21.770000
     84          1           0       16.290000   15.970000   21.870000
     85          1           0       15.780000   17.150000   22.670000
     86          8           0       25.510000   21.740000   20.750000
     87          1           0       24.830000   22.220000   21.230000
     88          1           0       25.720000   21.000000   21.320000
     89          8           0       21.350000   13.930000   21.230000
     90          1           0       21.170000   14.840000   21.480000
     91          1           0       20.630000   13.430000   21.600000
     92          8           0       24.270000   18.610000   15.620000
     93          1           0       23.810000   19.320000   16.060000
     94          1           0       24.980000   19.040000   15.140000
     95          8           0       19.750000   25.820000   20.010000
     96          1           0       19.390000   25.500000   20.840000
     97          1           0       19.970000   26.740000   20.190000
 ---------------------------------------------------------------------
 Rotational constants (GHZ):      0.0542648      0.0507253      0.0489942
 Leave Link  202 at Thu May  3 03:21:31 2018, MaxMem= 14763950080 cpu:         0.6
 (Enter /cm/shared/gaussian/g09.e01/intel64-sandybridge/g09/l122.exe)
 Counterpoise: doing full dimer calculation.
 Leave Link  122 at Thu May  3 03:21:31 2018, MaxMem= 14763950080 cpu:         0.0
 (Enter /cm/shared/gaussian/g09.e01/intel64-sandybridge/g09/l301.exe)
 Standard basis: CC-pVDZ (5D, 7F)
 Ernie: Thresh=  0.10000D-02 Tol=  0.10000D-05 Strict=F.
 Ernie:  87 primitive shells out of 1114 were deleted.
   795 basis functions,  1651 primitive gaussians,   829 cartesian basis functions
   178 alpha electrons      178 beta electrons
       nuclear repulsion energy      5919.3199407517 Hartrees.
 IExCor= 1009 DFT=T Ex+Corr=PBE1PBE ExCW=0 ScaHFX=  0.250000
 ScaDFX=  0.750000  0.750000  1.000000  1.000000 ScalE2=  1.000000  1.000000
 IRadAn=      0 IRanWt=     -1 IRanGd=            0 ICorTp=0 IEmpDi=  4
 NAtoms=   97 NActive=   97 NUniq=   97 SFac= 1.00D+00 NAtFMM=   60 NAOKFM=T Big=T
 Integral buffers will be    131072 words long.
 Raffenetti 2 integral format.
 Two-electron integral symmetry is turned off.
 Leave Link  301 at Thu May  3 03:21:31 2018, MaxMem= 14763950080 cpu:         6.1
 (Enter /cm/shared/gaussian/g09.e01/intel64-sandybridge/g09/l302.exe)
 NPDir=0 NMtPBC=     1 NCelOv=     1 NCel=       1 NClECP=     1 NCelD=      1
         NCelK=      1 NCelE2=     1 NClLst=     1 CellRange=     0.0.
 One-electron integrals computed using PRISM.
 NBasis=   795 RedAO= T EigKep=  1.48D-02  NBF=   795
 NBsUse=   795 1.00D-06 EigRej= -1.00D+00 NBFU=   795
 Precomputing XC quadrature grid using
 IXCGrd= 4 IRadAn=           0 IRanWt=          -1 IRanGd=           0 AccXCQ= 0.00D+00.
 Generated NRdTot=       0 NPtTot=           0 NUsed=           0 NTot=          32
 NSgBfM=   723   746   752   752   752 MxSgAt=    97 MxSgA2=    97.
 Leave Link  302 at Thu May  3 03:21:38 2018, MaxMem= 14763950080 cpu:       444.1
 (Enter /cm/shared/gaussian/g09.e01/intel64-sandybridge/g09/l303.exe)
 DipDrv:  MaxL=1.
 Leave Link  303 at Thu May  3 03:21:39 2018, MaxMem= 14763950080 cpu:        30.0
 (Enter /cm/shared/gaussian/g09.e01/intel64-sandybridge/g09/l401.exe)
 ExpMin= 1.22D-01 ExpMax= 6.40D+05 ExpMxC= 6.18D+03 IAcc=2 IRadAn=         4 AccDes= 0.00D+00
 Harris functional with IExCor= 1009 and IRadAn=       4 diagonalized for initial guess.
 HarFok:  IExCor= 1009 AccDes= 0.00D+00 IRadAn=         4 IDoV= 1 UseB2=F ITyADJ=14
 ICtDFT=  3500011 ScaDFX=  1.000000  1.000000  1.000000  1.000000
 FoFCou: FMM=F IPFlag=           0 FMFlag=      100000 FMFlg1=        2001
         NFxFlg=           0 DoJE=T BraDBF=F KetDBF=T FulRan=T
         wScrn=  0.000000 ICntrl=     500 IOpCl=  0 I1Cent=   200000004 NGrid=           0
         NMat0=    1 NMatS0=      1 NMatT0=    0 NMatD0=    1 NMtDS0=    0 NMtDT0=    0
 Symmetry not used in FoFCou.
 Harris En= -5018.42078508171    
 JPrj=0 DoOrth=F DoCkMO=F.
 Leave Link  401 at Thu May  3 03:21:44 2018, MaxMem= 14763950080 cpu:       319.1
 (Enter /cm/shared/gaussian/g09.e01/intel64-sandybridge/g09/l502.exe)
 Closed shell SCF:
 Using DIIS extrapolation, IDIIS=  1040.
 Two-electron integral symmetry not used.
 IVT=     2138497 IEndB=     2138497 NGot= 14763950080 MDV= 14762516294
 LenX= 14762516294 LenY= 14761828224
 Requested convergence on RMS density matrix=1.00D-08 within 128 cycles.
 Requested convergence on MAX density matrix=1.00D-06.
 Requested convergence on             energy=1.00D-06.
 No special actions if energy rises.
 Fock matrices will be formed incrementally for  20 cycles.
 Integral accuracy reduced to 1.0D-05 until final iterations.

 Cycle   1  Pass 0  IDiag  1:
 FoFJK:  IHMeth= 1 ICntrl=       0 DoSepK=F KAlg= 0 I1Cent=   0 FoldK=F
 IRaf= 780000000 NMat=   1 IRICut=       1 DoRegI=T DoRafI=F ISym2E= 0.
 FoFCou: FMM=T IPFlag=           0 FMFlag=      100000 FMFlg1=        2001
         NFxFlg=           0 DoJE=F BraDBF=F KetDBF=F FulRan=T
         wScrn=  0.000000 ICntrl=       0 IOpCl=  0 I1Cent=           0 NGrid=           0
         NMat0=    1 NMatS0=      1 NMatT0=    0 NMatD0=    1 NMtDS0=    0 NMtDT0=    0
 Symmetry not used in FoFCou.
 FMM levels:  10  Number of levels for PrismC:   9
 E= -5015.22057430748    
 DIIS: error= 4.34D-02 at cycle   1 NSaved=   1.
 NSaved= 1 IEnMin= 1 EnMin= -5015.22057430748     IErMin= 1 ErrMin= 4.34D-02
 ErrMax= 4.34D-02  0.00D+00 EMaxC= 1.00D-01 BMatC= 2.76D+00 BMatP= 2.76D+00
 IDIUse=3 WtCom= 5.66D-01 WtEn= 4.34D-01
 Coeff-Com:  0.100D+01
 Coeff-En:   0.100D+01
 Coeff:      0.100D+01
 Gap=     0.312 Goal=   None    Shift=    0.000
 GapD=    0.312 DampG=1.000 DampE=0.500 DampFc=0.5000 IDamp=-1.
 Damping current iteration by 5.00D-01
 RMSDP=2.88D-03 MaxDP=1.63D-01              OVMax= 1.90D-01

 Cycle   2  Pass 0  IDiag  1:
 RMSU=  1.43D-03    CP:  9.85D-01
 E= -5016.02493184939     Delta-E=       -0.804357541912 Rises=F Damp=T
 DIIS: error= 8.72D-03 at cycle   2 NSaved=   2.
 NSaved= 2 IEnMin= 2 EnMin= -5016.02493184939     IErMin= 2 ErrMin= 8.72D-03
 ErrMax= 8.72D-03  0.00D+00 EMaxC= 1.00D-01 BMatC= 8.85D-02 BMatP= 2.76D+00
 IDIUse=3 WtCom= 9.13D-01 WtEn= 8.72D-02
 Coeff-Com:  0.121D+00 0.879D+00
 Coeff-En:   0.216D+00 0.784D+00
 Coeff:      0.129D+00 0.871D+00
 Gap=     0.200 Goal=   None    Shift=    0.000
 RMSDP=3.55D-04 MaxDP=2.18D-02 DE=-8.04D-01 OVMax= 1.14D-01

 Cycle   3  Pass 0  IDiag  1:
 RMSU=  2.77D-04    CP:  9.87D-01  8.46D-01
 E= -5017.19807253506     Delta-E=       -1.173140685671 Rises=F Damp=F
 DIIS: error= 1.15D-03 at cycle   3 NSaved=   3.
 NSaved= 3 IEnMin= 3 EnMin= -5017.19807253506     IErMin= 3 ErrMin= 1.15D-03
 ErrMax= 1.15D-03  0.00D+00 EMaxC= 1.00D-01 BMatC= 1.62D-03 BMatP= 8.85D-02
 IDIUse=3 WtCom= 9.89D-01 WtEn= 1.15D-02
 Coeff-Com:  0.978D-02 0.584D-01 0.932D+00
 Coeff-En:   0.000D+00 0.000D+00 0.100D+01
 Coeff:      0.967D-02 0.577D-01 0.933D+00
 Gap=     0.214 Goal=   None    Shift=    0.000
 RMSDP=8.72D-05 MaxDP=1.37D-02 DE=-1.17D+00 OVMax= 1.53D-02

 Cycle   4  Pass 0  IDiag  1:
 RMSU=  7.97D-05    CP:  9.87D-01  8.47D-01  8.73D-01
 E= -5017.19843886033     Delta-E=       -0.000366325266 Rises=F Damp=F
 DIIS: error= 1.42D-03 at cycle   4 NSaved=   4.
 NSaved= 4 IEnMin= 4 EnMin= -5017.19843886033     IErMin= 3 ErrMin= 1.15D-03
 ErrMax= 1.42D-03  0.00D+00 EMaxC= 1.00D-01 BMatC= 1.60D-03 BMatP= 1.62D-03
 IDIUse=3 WtCom= 9.86D-01 WtEn= 1.42D-02
 Coeff-Com:  0.254D-02 0.479D-02 0.496D+00 0.496D+00
 Coeff-En:   0.000D+00 0.000D+00 0.433D+00 0.567D+00
 Coeff:      0.250D-02 0.473D-02 0.496D+00 0.497D+00
 Gap=     0.213 Goal=   None    Shift=    0.000
 RMSDP=3.83D-05 MaxDP=5.19D-03 DE=-3.66D-04 OVMax= 5.48D-03

 Cycle   5  Pass 0  IDiag  1:
 RMSU=  1.62D-05    CP:  9.87D-01  8.45D-01  9.24D-01  6.05D-01
 E= -5017.19967908263     Delta-E=       -0.001240222300 Rises=F Damp=F
 DIIS: error= 1.18D-04 at cycle   5 NSaved=   5.
 NSaved= 5 IEnMin= 5 EnMin= -5017.19967908263     IErMin= 5 ErrMin= 1.18D-04
 ErrMax= 1.18D-04  0.00D+00 EMaxC= 1.00D-01 BMatC= 2.92D-05 BMatP= 1.60D-03
 IDIUse=3 WtCom= 9.99D-01 WtEn= 1.18D-03
 Coeff-Com:  0.811D-03-0.222D-02 0.132D+00 0.170D+00 0.700D+00
 Coeff-En:   0.000D+00 0.000D+00 0.000D+00 0.000D+00 0.100D+01
 Coeff:      0.810D-03-0.222D-02 0.131D+00 0.170D+00 0.700D+00
 Gap=     0.210 Goal=   None    Shift=    0.000
 RMSDP=7.55D-06 MaxDP=1.18D-03 DE=-1.24D-03 OVMax= 1.30D-03

 Cycle   6  Pass 0  IDiag  1:
 RMSU=  5.40D-06    CP:  9.87D-01  8.44D-01  9.33D-01  5.85D-01  7.42D-01
 E= -5017.19970027560     Delta-E=       -0.000021192976 Rises=F Damp=F
 DIIS: error= 9.04D-05 at cycle   6 NSaved=   6.
 NSaved= 6 IEnMin= 6 EnMin= -5017.19970027560     IErMin= 6 ErrMin= 9.04D-05
 ErrMax= 9.04D-05  0.00D+00 EMaxC= 1.00D-01 BMatC= 3.78D-06 BMatP= 2.92D-05
 IDIUse=1 WtCom= 1.00D+00 WtEn= 0.00D+00
 Coeff-Com:  0.186D-03-0.203D-02 0.305D-01 0.426D-01 0.300D+00 0.628D+00
 Coeff:      0.186D-03-0.203D-02 0.305D-01 0.426D-01 0.300D+00 0.628D+00
 Gap=     0.210 Goal=   None    Shift=    0.000
 RMSDP=2.37D-06 MaxDP=4.65D-04 DE=-2.12D-05 OVMax= 4.16D-04

 Initial convergence to 1.0D-05 achieved.  Increase integral accuracy.
 Cycle   7  Pass 1  IDiag  1:
 E= -5017.20049223616     Delta-E=       -0.000791960558 Rises=F Damp=F
 DIIS: error= 3.46D-05 at cycle   1 NSaved=   1.
 NSaved= 1 IEnMin= 1 EnMin= -5017.20049223616     IErMin= 1 ErrMin= 3.46D-05
 ErrMax= 3.46D-05  0.00D+00 EMaxC= 1.00D-01 BMatC= 1.19D-06 BMatP= 1.19D-06
 IDIUse=1 WtCom= 1.00D+00 WtEn= 0.00D+00
 Coeff-Com:  0.100D+01
 Coeff:      0.100D+01
 Gap=     0.210 Goal=   None    Shift=    0.000
 RMSDP=2.37D-06 MaxDP=4.65D-04 DE=-7.92D-04 OVMax= 2.82D-04

 Cycle   8  Pass 1  IDiag  1:
 RMSU=  3.97D-06    CP:  1.00D+00
 E= -5017.20049339605     Delta-E=       -0.000001159888 Rises=F Damp=F
 DIIS: error= 1.29D-05 at cycle   2 NSaved=   2.
 NSaved= 2 IEnMin= 2 EnMin= -5017.20049339605     IErMin= 2 ErrMin= 1.29D-05
 ErrMax= 1.29D-05  0.00D+00 EMaxC= 1.00D-01 BMatC= 2.23D-07 BMatP= 1.19D-06
 IDIUse=1 WtCom= 1.00D+00 WtEn= 0.00D+00
 Coeff-Com:  0.218D+00 0.782D+00
 Coeff:      0.218D+00 0.782D+00
 Gap=     0.210 Goal=   None    Shift=    0.000
 RMSDP=7.23D-07 MaxDP=1.09D-04 DE=-1.16D-06 OVMax= 9.82D-05

 Cycle   9  Pass 1  IDiag  1:
 RMSU=  7.21D-07    CP:  1.00D+00  9.86D-01
 E= -5017.20049345236     Delta-E=       -0.000000056316 Rises=F Damp=F
 DIIS: error= 1.05D-05 at cycle   3 NSaved=   3.
 NSaved= 3 IEnMin= 3 EnMin= -5017.20049345236     IErMin= 3 ErrMin= 1.05D-05
 ErrMax= 1.05D-05  0.00D+00 EMaxC= 1.00D-01 BMatC= 1.56D-07 BMatP= 2.23D-07
 IDIUse=1 WtCom= 1.00D+00 WtEn= 0.00D+00
 Coeff-Com: -0.516D-02 0.455D+00 0.550D+00
 Coeff:     -0.516D-02 0.455D+00 0.550D+00
 Gap=     0.210 Goal=   None    Shift=    0.000
 RMSDP=3.17D-07 MaxDP=5.47D-05 DE=-5.63D-08 OVMax= 4.88D-05

 Cycle  10  Pass 1  IDiag  1:
 RMSU=  1.14D-07    CP:  1.00D+00  1.01D+00  6.08D-01
 E= -5017.20049356361     Delta-E=       -0.000000111249 Rises=F Damp=F
 DIIS: error= 1.59D-06 at cycle   4 NSaved=   4.
 NSaved= 4 IEnMin= 4 EnMin= -5017.20049356361     IErMin= 4 ErrMin= 1.59D-06
 ErrMax= 1.59D-06  0.00D+00 EMaxC= 1.00D-01 BMatC= 1.31D-09 BMatP= 1.56D-07
 IDIUse=1 WtCom= 1.00D+00 WtEn= 0.00D+00
 Coeff-Com: -0.535D-02 0.191D+00 0.242D+00 0.572D+00
 Coeff:     -0.535D-02 0.191D+00 0.242D+00 0.572D+00
 Gap=     0.210 Goal=   None    Shift=    0.000
 RMSDP=4.98D-08 MaxDP=1.03D-05 DE=-1.11D-07 OVMax= 1.01D-05

 Cycle  11  Pass 1  IDiag  1:
 RMSU=  3.39D-08    CP:  1.00D+00  1.01D+00  5.99D-01  6.91D-01
 E= -5017.20049356483     Delta-E=       -0.000000001221 Rises=F Damp=F
 DIIS: error= 1.94D-07 at cycle   5 NSaved=   5.
 NSaved= 5 IEnMin= 5 EnMin= -5017.20049356483     IErMin= 5 ErrMin= 1.94D-07
 ErrMax= 1.94D-07  0.00D+00 EMaxC= 1.00D-01 BMatC= 5.48D-11 BMatP= 1.31D-09
 IDIUse=1 WtCom= 1.00D+00 WtEn= 0.00D+00
 Coeff-Com: -0.153D-02 0.415D-01 0.534D-01 0.207D+00 0.700D+00
 Coeff:     -0.153D-02 0.415D-01 0.534D-01 0.207D+00 0.700D+00
 Gap=     0.210 Goal=   None    Shift=    0.000
 RMSDP=9.10D-09 MaxDP=1.11D-06 DE=-1.22D-09 OVMax= 1.27D-06

 Cycle  12  Pass 1  IDiag  1:
 RMSU=  7.87D-09    CP:  1.00D+00  1.01D+00  6.00D-01  7.27D-01  9.61D-01
 E= -5017.20049356486     Delta-E=       -0.000000000027 Rises=F Damp=F
 DIIS: error= 9.66D-08 at cycle   6 NSaved=   6.
 NSaved= 6 IEnMin= 6 EnMin= -5017.20049356486     IErMin= 6 ErrMin= 9.66D-08
 ErrMax= 9.66D-08  0.00D+00 EMaxC= 1.00D-01 BMatC= 1.06D-11 BMatP= 5.48D-11
 IDIUse=1 WtCom= 1.00D+00 WtEn= 0.00D+00
 Coeff-Com: -0.483D-05-0.584D-02-0.724D-02 0.220D-01 0.336D+00 0.655D+00
 Coeff:     -0.483D-05-0.584D-02-0.724D-02 0.220D-01 0.336D+00 0.655D+00
 Gap=     0.210 Goal=   None    Shift=    0.000
 RMSDP=3.53D-09 MaxDP=4.99D-07 DE=-2.73D-11 OVMax= 5.48D-07

 SCF Done:  E(RPBE1PBE) =  -5017.20049356     A.U. after   12 cycles
            NFock= 12  Conv=0.35D-08     -V/T= 2.0028
 KE= 5.003298074026D+03 PE=-2.380491221504D+04 EE= 7.865093706696D+03
 Leave Link  502 at Thu May  3 03:23:59 2018, MaxMem= 14763950080 cpu:      8534.9
 (Enter /cm/shared/gaussian/g09.e01/intel64-sandybridge/g09/l601.exe)
 Copying SCF densities to generalized density rwf, IOpCl= 0 IROHF=0.

 **********************************************************************

            Population analysis using the SCF density.

 **********************************************************************

 Alpha  occ. eigenvalues -- -483.15989 -62.56290 -56.33530 -56.33524 -56.33513
 Alpha  occ. eigenvalues --  -19.19840 -19.18393 -19.17457 -19.16945 -19.16640
 Alpha  occ. eigenvalues --  -19.16022 -19.15376 -19.14796 -19.14521 -19.14055
 Alpha  occ. eigenvalues --  -19.13929 -19.13603 -19.13564 -19.13537 -19.13453
 Alpha  occ. eigenvalues --  -19.12977 -19.12935 -19.12299 -19.11962 -19.11752
 Alpha  occ. eigenvalues --  -19.11256 -19.11131 -19.11002 -19.09752 -19.09588
 Alpha  occ. eigenvalues --  -19.08325 -19.08304 -19.07937 -19.07090 -19.05642
 Alpha  occ. eigenvalues --  -19.05564 -19.05387  -8.66609  -6.46949  -6.46922
 Alpha  occ. eigenvalues --   -6.46883  -2.55230  -2.55223  -2.55191  -2.55170
 Alpha  occ. eigenvalues --   -2.55166  -1.02093  -1.01026  -0.99757  -0.99545
 Alpha  occ. eigenvalues --   -0.99226  -0.98737  -0.97643  -0.97601  -0.97143
 Alpha  occ. eigenvalues --   -0.96905  -0.96799  -0.96773  -0.96238  -0.96006
 Alpha  occ. eigenvalues --   -0.95949  -0.95451  -0.95404  -0.95190  -0.94357
 Alpha  occ. eigenvalues --   -0.94258  -0.93747  -0.93466  -0.93340  -0.92349
 Alpha  occ. eigenvalues --   -0.91915  -0.91288  -0.91002  -0.90695  -0.89769
 Alpha  occ. eigenvalues --   -0.88792  -0.88335  -0.88171  -0.66079  -0.52948
 Alpha  occ. eigenvalues --   -0.51502  -0.50110  -0.49993  -0.49332  -0.49228
 Alpha  occ. eigenvalues --   -0.48436  -0.47933  -0.47788  -0.47674  -0.47144
 Alpha  occ. eigenvalues --   -0.47074  -0.46927  -0.46865  -0.46627  -0.46574
 Alpha  occ. eigenvalues --   -0.46286  -0.45747  -0.45368  -0.45071  -0.44919
 Alpha  occ. eigenvalues --   -0.44210  -0.43989  -0.43796  -0.43113  -0.42814
 Alpha  occ. eigenvalues --   -0.42503  -0.42286  -0.41756  -0.40993  -0.40896
 Alpha  occ. eigenvalues --   -0.40437  -0.38235  -0.37547  -0.36958  -0.35946
 Alpha  occ. eigenvalues --   -0.35763  -0.35133  -0.34838  -0.34499  -0.34099
 Alpha  occ. eigenvalues --   -0.33977  -0.33798  -0.33492  -0.33358  -0.32695
 Alpha  occ. eigenvalues --   -0.32487  -0.32160  -0.31770  -0.31108  -0.30860
 Alpha  occ. eigenvalues --   -0.30593  -0.30254  -0.29704  -0.29653  -0.29173
 Alpha  occ. eigenvalues --   -0.28570  -0.28405  -0.28191  -0.28041  -0.27719
 Alpha  occ. eigenvalues --   -0.27510  -0.27453  -0.27179  -0.26260  -0.26205
 Alpha  occ. eigenvalues --   -0.26151  -0.25895  -0.25766  -0.25422  -0.25102
 Alpha  occ. eigenvalues --   -0.24959  -0.24792  -0.24520  -0.24423  -0.24328
 Alpha  occ. eigenvalues --   -0.24175  -0.24070  -0.23847  -0.23414  -0.23069
 Alpha  occ. eigenvalues --   -0.22970  -0.22771  -0.22523  -0.22158  -0.21770
 Alpha  occ. eigenvalues --   -0.21272  -0.21209  -0.20866  -0.20722  -0.20644
 Alpha  occ. eigenvalues --   -0.20142  -0.19493  -0.19372  -0.19117  -0.17937
 Alpha  occ. eigenvalues --   -0.17326  -0.17005  -0.16871
 Alpha virt. eigenvalues --    0.04172   0.07453   0.08654   0.09682   0.10369
 Alpha virt. eigenvalues --    0.10755   0.11705   0.12342   0.13303   0.13703
 Alpha virt. eigenvalues --    0.15243   0.15423   0.16125   0.16369   0.16482
 Alpha virt. eigenvalues --    0.17108   0.17230   0.18184   0.18420   0.18572
 Alpha virt. eigenvalues --    0.19161   0.19284   0.20016   0.20701   0.21068
 Alpha virt. eigenvalues --    0.21653   0.22070   0.22265   0.22932   0.23381
 Alpha virt. eigenvalues --    0.23432   0.23733   0.24123   0.24433   0.24875
 Alpha virt. eigenvalues --    0.25420   0.25721   0.26271   0.26563   0.27137
 Alpha virt. eigenvalues --    0.27648   0.28184   0.28812   0.29216   0.29257
 Alpha virt. eigenvalues --    0.29902   0.30312   0.30756   0.30909   0.31909
 Alpha virt. eigenvalues --    0.32047   0.32949   0.33946   0.34352   0.35104
 Alpha virt. eigenvalues --    0.35295   0.35684   0.35880   0.37049   0.37303
 Alpha virt. eigenvalues --    0.38501   0.39664   0.41259   0.42417   0.57374
 Alpha virt. eigenvalues --    0.58861   0.59164   0.60115   0.60295   0.61171
 Alpha virt. eigenvalues --    0.61278   0.61827   0.62335   0.62520   0.63189
 Alpha virt. eigenvalues --    0.63715   0.63856   0.64113   0.64416   0.64789
 Alpha virt. eigenvalues --    0.64967   0.65022   0.65449   0.65822   0.66259
 Alpha virt. eigenvalues --    0.66601   0.66881   0.66923   0.67249   0.67585
 Alpha virt. eigenvalues --    0.67814   0.68050   0.68282   0.68540   0.68812
 Alpha virt. eigenvalues --    0.69220   0.69558   0.69770   0.69959   0.70438
 Alpha virt. eigenvalues --    0.70938   0.71121   0.71446   0.71821   0.72059
 Alpha virt. eigenvalues --    0.72114   0.72312   0.72675   0.72815   0.72873
 Alpha virt. eigenvalues --    0.73356   0.73795   0.74007   0.74316   0.74658
 Alpha virt. eigenvalues --    0.74884   0.74974   0.75767   0.75856   0.76044
 Alpha virt. eigenvalues --    0.76221   0.77170   0.77544   0.78560   0.78726
 Alpha virt. eigenvalues --    0.79619   0.79857   0.80360   0.80930   0.81517
 Alpha virt. eigenvalues --    0.82714   0.83499   0.84556   0.85066   0.86951
 Alpha virt. eigenvalues --    0.88945   0.91177   0.91322   0.92655   0.92911
 Alpha virt. eigenvalues --    0.93439   0.94807   0.95491   0.95645   0.95959
 Alpha virt. eigenvalues --    0.96445   0.96836   0.97509   0.97722   0.98003
 Alpha virt. eigenvalues --    0.98534   0.98721   0.99328   0.99623   0.99764
 Alpha virt. eigenvalues --    1.00060   1.00327   1.00505   1.00749   1.00841
 Alpha virt. eigenvalues --    1.01544   1.01599   1.02194   1.02606   1.02926
 Alpha virt. eigenvalues --    1.03434   1.03544   1.03830   1.03968   1.04405
 Alpha virt. eigenvalues --    1.04620   1.04838   1.05405   1.05526   1.05992
 Alpha virt. eigenvalues --    1.06238   1.06264   1.06597   1.06807   1.07240
 Alpha virt. eigenvalues --    1.07793   1.08002   1.08214   1.08502   1.08551
 Alpha virt. eigenvalues --    1.08796   1.09068   1.09333   1.09755   1.10008
 Alpha virt. eigenvalues --    1.10267   1.10465   1.10971   1.11687   1.12050
 Alpha virt. eigenvalues --    1.12542   1.12793   1.13172   1.13596   1.13903
 Alpha virt. eigenvalues --    1.14400   1.14841   1.15201   1.15501   1.15802
 Alpha virt. eigenvalues --    1.16422   1.16917   1.17290   1.17595   1.17966
 Alpha virt. eigenvalues --    1.18350   1.18637   1.19009   1.19135   1.19778
 Alpha virt. eigenvalues --    1.20681   1.20816   1.21264   1.21471   1.21899
 Alpha virt. eigenvalues --    1.22064   1.22174   1.22287   1.22962   1.23367
 Alpha virt. eigenvalues --    1.23557   1.24025   1.24369   1.24893   1.25734
 Alpha virt. eigenvalues --    1.26356   1.26665   1.27323   1.27439   1.27504
 Alpha virt. eigenvalues --    1.28095   1.28267   1.28559   1.29004   1.29301
 Alpha virt. eigenvalues --    1.29625   1.30583   1.30652   1.30857   1.31102
 Alpha virt. eigenvalues --    1.31259   1.31635   1.31845   1.31945   1.32468
 Alpha virt. eigenvalues --    1.32677   1.32836   1.33226   1.33363   1.33691
 Alpha virt. eigenvalues --    1.33997   1.34167   1.34394   1.34439   1.34757
 Alpha virt. eigenvalues --    1.35249   1.35545   1.35817   1.36037   1.36639
 Alpha virt. eigenvalues --    1.36688   1.37277   1.37590   1.37803   1.37879
 Alpha virt. eigenvalues --    1.38337   1.38519   1.39056   1.39594   1.39727
 Alpha virt. eigenvalues --    1.40488   1.40722   1.41248   1.41621   1.42233
 Alpha virt. eigenvalues --    1.42819   1.42890   1.43492   1.44023   1.44681
 Alpha virt. eigenvalues --    1.44788   1.45670   1.45962   1.46163   1.46744
 Alpha virt. eigenvalues --    1.46771   1.47322   1.47633   1.48232   1.48740
 Alpha virt. eigenvalues --    1.49235   1.49768   1.49847   1.50282   1.50453
 Alpha virt. eigenvalues --    1.51287   1.51619   1.52200   1.52315   1.53037
 Alpha virt. eigenvalues --    1.53411   1.54328   1.54775   1.55075   1.55773
 Alpha virt. eigenvalues --    1.55860   1.56259   1.56802   1.57208   1.58022
 Alpha virt. eigenvalues --    1.58216   1.59644   1.59896   1.61035   1.61894
 Alpha virt. eigenvalues --    1.62288   1.62566   1.63005   1.63273   1.63658
 Alpha virt. eigenvalues --    1.64291   1.65221   1.66195   1.67440   1.67815
 Alpha virt. eigenvalues --    1.68220   1.68618   1.69173   1.69964   1.70160
 Alpha virt. eigenvalues --    1.70869   1.71547   1.71890   1.72519   1.72632
 Alpha virt. eigenvalues --    1.73013   1.73621   1.74138   1.74387   1.74481
 Alpha virt. eigenvalues --    1.74705   1.74869   1.75239   1.75815   1.76064
 Alpha virt. eigenvalues --    1.76434   1.76923   1.77478   1.77902   1.78400
 Alpha virt. eigenvalues --    1.79136   1.79518   1.80810   1.81546   1.81677
 Alpha virt. eigenvalues --    1.82008   1.82564   1.82838   1.83268   1.83960
 Alpha virt. eigenvalues --    1.84290   1.85206   1.85385   1.85885   1.86071
 Alpha virt. eigenvalues --    1.86283   1.86865   1.87448   1.87643   1.88125
 Alpha virt. eigenvalues --    1.88991   1.89094   1.90018   1.90273   1.90936
 Alpha virt. eigenvalues --    1.91093   1.91551   1.92248   1.94395   1.95965
 Alpha virt. eigenvalues --    1.96402   1.96730   1.97409   1.98161   1.98407
 Alpha virt. eigenvalues --    1.99069   1.99685   2.07313   2.15908   2.16613
 Alpha virt. eigenvalues --    2.17713   2.17802   2.18776   2.19400   2.19766
 Alpha virt. eigenvalues --    2.20430   2.20732   2.21228   2.21962   2.22453
 Alpha virt. eigenvalues --    2.22558   2.22600   2.22737   2.23085   2.23441
 Alpha virt. eigenvalues --    2.23601   2.23807   2.24551   2.24735   2.24790
 Alpha virt. eigenvalues --    2.24954   2.25161   2.25549   2.25907   2.26100
 Alpha virt. eigenvalues --    2.26712   2.26939   2.27237   2.27402   2.27796
 Alpha virt. eigenvalues --    2.28484   2.28881   2.29349   2.29470   2.29666
 Alpha virt. eigenvalues --    2.29906   2.29970   2.30495   2.31826   2.31911
 Alpha virt. eigenvalues --    2.33269   2.33470   2.34568   2.34974   2.35939
 Alpha virt. eigenvalues --    2.39527   2.40058   2.40589   2.41932   2.44385
 Alpha virt. eigenvalues --    2.46182   2.47537   2.50510   2.50974   2.54909
 Alpha virt. eigenvalues --    2.55198   2.57161   2.57208   2.61268   2.61739
 Alpha virt. eigenvalues --    2.64184   2.64405   2.93391   2.95095   2.95461
 Alpha virt. eigenvalues --    2.96223   2.96475   2.96688   2.97450   2.98496
 Alpha virt. eigenvalues --    2.98863   2.99008   2.99121   2.99521   2.99883
 Alpha virt. eigenvalues --    2.99999   3.00134   3.00609   3.00633   3.00688
 Alpha virt. eigenvalues --    3.00792   3.00843   3.01006   3.01486   3.01598
 Alpha virt. eigenvalues --    3.01810   3.01973   3.02132   3.02306   3.02391
 Alpha virt. eigenvalues --    3.02626   3.03680   3.04216   3.04568   3.04723
 Alpha virt. eigenvalues --    3.04867   3.04997   3.05122   3.05302   3.05335
 Alpha virt. eigenvalues --    3.05513   3.05686   3.05832   3.06019   3.06194
 Alpha virt. eigenvalues --    3.06615   3.06746   3.06952   3.06973   3.07467
 Alpha virt. eigenvalues --    3.07528   3.07964   3.08023   3.08327   3.08697
 Alpha virt. eigenvalues --    3.08709   3.10055   3.10476   3.10531   3.10791
 Alpha virt. eigenvalues --    3.12354   3.12760   3.13610   3.13912   3.14819
 Alpha virt. eigenvalues --    3.15155   3.15999   3.17517   3.18004   3.19951
 Alpha virt. eigenvalues --    3.20057   3.20271   3.21854   3.22019   3.22153
 Alpha virt. eigenvalues --    3.22397   3.22657   3.22941   3.23140   3.23805
 Alpha virt. eigenvalues --    3.24015   3.24253   3.24562   3.24743   3.24841
 Alpha virt. eigenvalues --    3.25729   3.25895   3.26246   3.26466   3.27198
 Alpha virt. eigenvalues --    3.27257   3.27725   3.28327   3.28789   3.29430
 Alpha virt. eigenvalues --    3.30089   3.30971   3.35921   3.52755   3.53002
 Alpha virt. eigenvalues --    3.53653   3.54034   3.55832   3.56253   3.57007
 Alpha virt. eigenvalues --    3.57395   3.57748   3.58292   3.58959   3.59552
 Alpha virt. eigenvalues --    3.59642   3.60141   3.60498   3.60794   3.61515
 Alpha virt. eigenvalues --    3.62265   3.62341   3.63392   3.63617   3.64025
 Alpha virt. eigenvalues --    3.65174   3.65787   3.66210   3.66817   3.67657
 Alpha virt. eigenvalues --    3.68145   3.68637   3.69471   3.69953   3.70477
 Alpha virt. eigenvalues --    3.79930   3.80060   3.83081   3.83204   3.83646
 Alpha virt. eigenvalues --    3.84146   3.84717   3.84822   3.86302   3.86520
 Alpha virt. eigenvalues --    3.87406   3.87933   3.88476   3.89171   3.89444
 Alpha virt. eigenvalues --    3.89819   3.90206   3.90772   3.91082   3.91172
 Alpha virt. eigenvalues --    3.91665   3.92043   3.92869   3.93781   3.94259
 Alpha virt. eigenvalues --    3.95156   3.95237   3.96056   3.96206   3.97857
 Alpha virt. eigenvalues --    3.98813   4.01320
          Condensed to atoms (all electrons):
 Mulliken charges:
               1
     1  Br  -0.708355
     2  O   -0.259318
     3  H    0.150704
     4  H    0.114439
     5  O   -0.273312
     6  H    0.147129
     7  H    0.105366
     8  O   -0.291270
     9  H    0.144749
    10  H    0.131508
    11  O   -0.254261
    12  H    0.141324
    13  H    0.152639
    14  O   -0.266579
    15  H    0.141069
    16  H    0.139972
    17  O   -0.254327
    18  H    0.126897
    19  H    0.126463
    20  O   -0.241497
    21  H    0.119522
    22  H    0.143147
    23  O   -0.268020
    24  H    0.139097
    25  H    0.160859
    26  O   -0.279002
    27  H    0.142380
    28  H    0.132154
    29  O   -0.262444
    30  H    0.126933
    31  H    0.120716
    32  O   -0.220441
    33  H    0.153306
    34  H    0.151688
    35  O   -0.273080
    36  H    0.151594
    37  H    0.107592
    38  O   -0.306811
    39  H    0.132866
    40  H    0.110530
    41  O   -0.311219
    42  H    0.125899
    43  H    0.135253
    44  O   -0.324201
    45  H    0.097325
    46  H    0.132856
    47  O   -0.307530
    48  H    0.122962
    49  H    0.123454
    50  O   -0.328026
    51  H    0.127161
    52  H    0.119291
    53  O   -0.274826
    54  H    0.138927
    55  H    0.126578
    56  O   -0.334958
    57  H    0.130037
    58  H    0.129079
    59  O   -0.245580
    60  H    0.138274
    61  H    0.137275
    62  O   -0.256069
    63  H    0.131535
    64  H    0.141140
    65  O   -0.236849
    66  H    0.132612
    67  H    0.139552
    68  O   -0.264027
    69  H    0.127577
    70  H    0.129487
    71  O   -0.270827
    72  H    0.147064
    73  H    0.121425
    74  O   -0.277723
    75  H    0.132589
    76  H    0.106153
    77  O   -0.301307
    78  H    0.133734
    79  H    0.134278
    80  O   -0.229288
    81  H    0.119706
    82  H    0.142254
    83  O   -0.207917
    84  H    0.138672
    85  H    0.125959
    86  O   -0.274691
    87  H    0.135258
    88  H    0.129734
    89  O   -0.315590
    90  H    0.123581
    91  H    0.122139
    92  O   -0.307556
    93  H    0.133235
    94  H    0.117259
    95  O   -0.226812
    96  H    0.144562
    97  H    0.145194
 Sum of Mulliken charges =  -1.00000
 Mulliken charges with hydrogens summed into heavy atoms:
               1
     1  Br  -0.708355
     2  O    0.005825
     5  O   -0.020818
     8  O   -0.015013
    11  O    0.039702
    14  O    0.014463
    17  O   -0.000966
    20  O    0.021171
    23  O    0.031936
    26  O   -0.004468
    29  O   -0.014795
    32  O    0.084553
    35  O   -0.013894
    38  O   -0.063414
    41  O   -0.050067
    44  O   -0.094019
    47  O   -0.061114
    50  O   -0.081574
    53  O   -0.009321
    56  O   -0.075842
    59  O    0.029969
    62  O    0.016606
    65  O    0.035314
    68  O   -0.006963
    71  O   -0.002338
    74  O   -0.038981
    77  O   -0.033295
    80  O    0.032672
    83  O    0.056714
    86  O   -0.009699
    89  O   -0.069869
    92  O   -0.057063
    95  O    0.062945
         Mulliken charges condensed to fragments:
      1     -0.708355
      2     -0.291645
 Electronic spatial extent (au):  <R**2>=        1509651.9975
 Charge=             -1.0000 electrons
 Dipole moment (field-independent basis, Debye):
    X=           -100.1552    Y=            -86.3800    Z=            -88.6759  Tot=            159.2356
 Quadrupole moment (field-independent basis, Debye-Ang):
   XX=          -2352.5912   YY=          -1812.5638   ZZ=          -1934.1079
   XY=          -1831.3370   XZ=          -1890.1646   YZ=          -1560.5805
 Traceless Quadrupole moment (field-independent basis, Debye-Ang):
   XX=           -319.5036   YY=            220.5239   ZZ=             98.9797
   XY=          -1831.3370   XZ=          -1890.1646   YZ=          -1560.5805
 Octapole moment (field-independent basis, Debye-Ang**2):
  XXX=         -59032.1636  YYY=         -42817.4258  ZZZ=         -48000.2803  XYY=         -38909.1466
  XXY=         -43910.9266  XXZ=         -45105.6056  XZZ=         -41884.9864  YZZ=         -33825.1543
  YYZ=         -32442.8697  XYZ=         -33968.9252
 Hexadecapole moment (field-independent basis, Debye-Ang**3):
 XXXX=       -1524635.0914 YYYY=       -1082726.3421 ZZZZ=       -1280363.0657 XXXY=       -1122432.2206
 XXXZ=       -1141196.8496 YYYX=        -924457.6160 YYYZ=        -767713.5980 ZZZX=       -1045944.4042
 ZZZY=        -846682.2388 XXYY=        -936624.8066 XXZZ=        -996905.0936 YYZZ=        -691769.6887
 XXYZ=        -831104.8584 YYXZ=        -715042.8006 ZZXY=        -748656.3598
 N-N= 5.919319940752D+03 E-N=-2.380491230412D+04  KE= 5.003298074026D+03
 No NMR shielding tensors so no spin-rotation constants.
 Leave Link  601 at Thu May  3 03:24:00 2018, MaxMem= 14763950080 cpu:        73.2
 (Enter /cm/shared/gaussian/g09.e01/intel64-sandybridge/g09/l701.exe)
 Compute integral first derivatives.
 ... and contract with generalized density number  0.
 Leave Link  701 at Thu May  3 03:24:03 2018, MaxMem= 14763950080 cpu:       151.7
 (Enter /cm/shared/gaussian/g09.e01/intel64-sandybridge/g09/l702.exe)
 L702 exits ... SP integral derivatives will be done elsewhere.
 Leave Link  702 at Thu May  3 03:24:04 2018, MaxMem= 14763950080 cpu:        49.0
 (Enter /cm/shared/gaussian/g09.e01/intel64-sandybridge/g09/l703.exe)
 Compute integral first derivatives, UseDBF=F ICtDFT=           0.
 Integral derivatives from FoFJK, PRISM(SPDF).
 Calling FoFJK, ICntrl=      2127 FMM=T ISym2X=0 I1Cent= 0 IOpClX= 0 NMat=1 NMatS=1 NMatT=0.
 FoFJK:  IHMeth= 1 ICntrl=    2127 DoSepK=F KAlg= 0 I1Cent=   0 FoldK=F
 IRaf=         0 NMat=   1 IRICut=       1 DoRegI=T DoRafI=F ISym2E= 0.
 FoFCou: FMM=T IPFlag=           0 FMFlag=      100000 FMFlg1=        2001
         NFxFlg=           0 DoJE=F BraDBF=F KetDBF=F FulRan=T
         wScrn=  0.000000 ICntrl=    2127 IOpCl=  0 I1Cent=           0 NGrid=           0
         NMat0=    1 NMatS0=      1 NMatT0=    0 NMatD0=    1 NMtDS0=    0 NMtDT0=    0
 Symmetry not used in FoFCou.
 FMM levels:  10  Number of levels for PrismC:   9
 Leave Link  703 at Thu May  3 03:24:19 2018, MaxMem= 14763950080 cpu:       965.8
 (Enter /cm/shared/gaussian/g09.e01/intel64-sandybridge/g09/l716.exe)
 Dipole        =-3.94041004D+01-3.39844973D+01-3.48877904D+01
 Cartesian Forces:  Max     0.032536365 RMS     0.009028986
 Leave Link  716 at Thu May  3 03:24:19 2018, MaxMem= 14763950080 cpu:         4.5
 (Enter /cm/shared/gaussian/g09.e01/intel64-sandybridge/g09/l122.exe)
 CPIOFr:  IOpCl= 0 IRwI=-1 IRwCP=  731 ICalc= -1 LCPTot=     1005244 Len1MO=     2550559 IndFrg=     1005244
 CPIOFr:  IOpCl= 0 IRwI=-1 IRwCP=  731 ICalc=  0 LCPTot=     1005244 Len1MO=     2550559 IndFrg=     3555803
 Counterpoise: doing DCBS calculation for fragment   1 NewBq=T
 Leave Link  122 at Thu May  3 03:24:19 2018, MaxMem= 14763950080 cpu:         7.1
 (Enter /cm/shared/gaussian/g09.e01/intel64-sandybridge/g09/l301.exe)
 Basis read from rwf:  (5D, 7F)
 No pseudopotential information found on rwf file.
   795 basis functions,  1651 primitive gaussians,   829 cartesian basis functions
    18 alpha electrons       18 beta electrons
       nuclear repulsion energy         0.0000000000 Hartrees.
 IExCor= 1009 DFT=T Ex+Corr=PBE1PBE ExCW=0 ScaHFX=  0.250000
 ScaDFX=  0.750000  0.750000  1.000000  1.000000 ScalE2=  1.000000  1.000000
 IRadAn=      0 IRanWt=     -1 IRanGd=            0 ICorTp=0 IEmpDi=  4
 NAtoms=   97 NActive=   97 NUniq=   97 SFac= 1.00D+00 NAtFMM=   60 NAOKFM=T Big=T
 Integral buffers will be    131072 words long.
 Raffenetti 2 integral format.
 Two-electron integral symmetry is turned off.
 No density basis found on file   718.
 Leave Link  301 at Thu May  3 03:24:19 2018, MaxMem= 14763950080 cpu:         6.5
 (Enter /cm/shared/gaussian/g09.e01/intel64-sandybridge/g09/l302.exe)
 NPDir=0 NMtPBC=     1 NCelOv=     1 NCel=       1 NClECP=     1 NCelD=      1
         NCelK=      1 NCelE2=     1 NClLst=     1 CellRange=     0.0.
 One-electron integrals computed using PRISM.
 NBasis=   795 RedAO= T EigKep=  1.48D-02  NBF=   795
 NBsUse=   795 1.00D-06 EigRej= -1.00D+00 NBFU=   795
 Precomputing XC quadrature grid using
 IXCGrd= 4 IRadAn=           0 IRanWt=          -1 IRanGd=           0 AccXCQ= 0.00D+00.
 Generated NRdTot=       0 NPtTot=           0 NUsed=           0 NTot=          32
 NSgBfM=   723   746   752   752   752 MxSgAt=    97 MxSgA2=    97.
 Leave Link  302 at Thu May  3 03:24:24 2018, MaxMem= 14763950080 cpu:       267.0
 (Enter /cm/shared/gaussian/g09.e01/intel64-sandybridge/g09/l303.exe)
 DipDrv:  MaxL=1.
 Leave Link  303 at Thu May  3 03:24:24 2018, MaxMem= 14763950080 cpu:        29.9
 (Enter /cm/shared/gaussian/g09.e01/intel64-sandybridge/g09/l401.exe)
 ExpMin= 1.22D-01 ExpMax= 6.40D+05 ExpMxC= 6.18D+03 IAcc=2 IRadAn=         4 AccDes= 0.00D+00
 Harris functional with IExCor= 1009 and IRadAn=       4 diagonalized for initial guess.
 HarFok:  IExCor= 1009 AccDes= 0.00D+00 IRadAn=         4 IDoV= 1 UseB2=F ITyADJ=14
 ICtDFT=  3500011 ScaDFX=  1.000000  1.000000  1.000000  1.000000
 FoFCou: FMM=F IPFlag=           0 FMFlag=      100000 FMFlg1=        2001
         NFxFlg=           0 DoJE=T BraDBF=F KetDBF=T FulRan=T
         wScrn=  0.000000 ICntrl=     500 IOpCl=  0 I1Cent=   200000004 NGrid=           0
         NMat0=    1 NMatS0=      1 NMatT0=    0 NMatD0=    1 NMtDS0=    0 NMtDT0=    0
 Symmetry not used in FoFCou.
 Harris En= -2574.01939378041    
 JPrj=0 DoOrth=F DoCkMO=F.
 Leave Link  401 at Thu May  3 03:24:29 2018, MaxMem= 14763950080 cpu:       271.2
 (Enter /cm/shared/gaussian/g09.e01/intel64-sandybridge/g09/l502.exe)
 Closed shell SCF:
 Using DIIS extrapolation, IDIIS=  1040.
 Two-electron integral symmetry not used.
 IVT=     2138497 IEndB=     2138497 NGot= 14763950080 MDV= 14762516294
 LenX= 14762516294 LenY= 14761828224
 Requested convergence on RMS density matrix=1.00D-08 within 128 cycles.
 Requested convergence on MAX density matrix=1.00D-06.
 Requested convergence on             energy=1.00D-06.
 No special actions if energy rises.
 Fock matrices will be formed incrementally for  20 cycles.
 Integral accuracy reduced to 1.0D-05 until final iterations.

 Cycle   1  Pass 0  IDiag  1:
 FoFJK:  IHMeth= 1 ICntrl=       0 DoSepK=F KAlg= 0 I1Cent=   0 FoldK=F
 IRaf= 780000000 NMat=   1 IRICut=       1 DoRegI=T DoRafI=F ISym2E= 0.
 FoFCou: FMM=T IPFlag=           0 FMFlag=      100000 FMFlg1=        2001
         NFxFlg=           0 DoJE=F BraDBF=F KetDBF=F FulRan=T
         wScrn=  0.000000 ICntrl=       0 IOpCl=  0 I1Cent=           0 NGrid=           0
         NMat0=    1 NMatS0=      1 NMatT0=    0 NMatD0=    1 NMtDS0=    0 NMtDT0=    0
 Symmetry not used in FoFCou.
 FMM levels:  10  Number of levels for PrismC:   9
 E= -2573.87843481870    
 DIIS: error= 1.03D-02 at cycle   1 NSaved=   1.
 NSaved= 1 IEnMin= 1 EnMin= -2573.87843481870     IErMin= 1 ErrMin= 1.03D-02
 ErrMax= 1.03D-02  0.00D+00 EMaxC= 1.00D-01 BMatC= 3.74D-02 BMatP= 3.74D-02
 IDIUse=3 WtCom= 8.97D-01 WtEn= 1.03D-01
 Coeff-Com:  0.100D+01
 Coeff-En:   0.100D+01
 Coeff:      0.100D+01
 Gap=     0.187 Goal=   None    Shift=    0.000
 GapD=    0.187 DampG=1.000 DampE=0.500 DampFc=0.5000 IDamp=-1.
 Damping current iteration by 5.00D-01
 RMSDP=4.49D-04 MaxDP=6.62D-02              OVMax= 1.42D-01

 Cycle   2  Pass 0  IDiag  1:
 RMSU=  2.23D-04    CP:  9.96D-01
 E= -2573.89451188445     Delta-E=       -0.016077065747 Rises=F Damp=T
 DIIS: error= 6.28D-03 at cycle   2 NSaved=   2.
 NSaved= 2 IEnMin= 2 EnMin= -2573.89451188445     IErMin= 2 ErrMin= 6.28D-03
 ErrMax= 6.28D-03  0.00D+00 EMaxC= 1.00D-01 BMatC= 8.76D-03 BMatP= 3.74D-02
 IDIUse=3 WtCom= 9.37D-01 WtEn= 6.28D-02
 Coeff-Com: -0.594D+00 0.159D+01
 Coeff-En:   0.000D+00 0.100D+01
 Coeff:     -0.556D+00 0.156D+01
 Gap=     0.187 Goal=   None    Shift=    0.000
 RMSDP=1.59D-04 MaxDP=3.71D-02 DE=-1.61D-02 OVMax= 6.10D-02

 Cycle   3  Pass 0  IDiag  1:
 RMSU=  1.40D-04    CP:  9.95D-01  1.34D+00
 E= -2573.90751340112     Delta-E=       -0.013001516671 Rises=F Damp=F
 DIIS: error= 3.01D-03 at cycle   3 NSaved=   3.
 NSaved= 3 IEnMin= 3 EnMin= -2573.90751340112     IErMin= 3 ErrMin= 3.01D-03
 ErrMax= 3.01D-03  0.00D+00 EMaxC= 1.00D-01 BMatC= 2.17D-03 BMatP= 8.76D-03
 IDIUse=3 WtCom= 9.70D-01 WtEn= 3.01D-02
 Coeff-Com: -0.304D+00 0.714D+00 0.589D+00
 Coeff-En:   0.000D+00 0.000D+00 0.100D+01
 Coeff:     -0.294D+00 0.693D+00 0.602D+00
 Gap=     0.171 Goal=   None    Shift=    0.000
 RMSDP=6.75D-05 MaxDP=1.65D-02 DE=-1.30D-02 OVMax= 1.95D-02

 Cycle   4  Pass 0  IDiag  1:
 RMSU=  8.17D-06    CP:  9.94D-01  1.53D+00  6.38D-01
 E= -2573.90983426111     Delta-E=       -0.002320859992 Rises=F Damp=F
 DIIS: error= 9.92D-05 at cycle   4 NSaved=   4.
 NSaved= 4 IEnMin= 4 EnMin= -2573.90983426111     IErMin= 4 ErrMin= 9.92D-05
 ErrMax= 9.92D-05  0.00D+00 EMaxC= 1.00D-01 BMatC= 1.57D-06 BMatP= 2.17D-03
 IDIUse=1 WtCom= 1.00D+00 WtEn= 0.00D+00
 Coeff-Com: -0.122D-01 0.228D-01 0.390D-01 0.950D+00
 Coeff:     -0.122D-01 0.228D-01 0.390D-01 0.950D+00
 Gap=     0.173 Goal=   None    Shift=    0.000
 RMSDP=2.31D-06 MaxDP=4.51D-04 DE=-2.32D-03 OVMax= 6.93D-04

 Initial convergence to 1.0D-05 achieved.  Increase integral accuracy.
 Cycle   5  Pass 1  IDiag  1:
 E= -2573.91075587033     Delta-E=       -0.000921609224 Rises=F Damp=F
 DIIS: error= 9.81D-06 at cycle   1 NSaved=   1.
 NSaved= 1 IEnMin= 1 EnMin= -2573.91075587033     IErMin= 1 ErrMin= 9.81D-06
 ErrMax= 9.81D-06  0.00D+00 EMaxC= 1.00D-01 BMatC= 1.14D-07 BMatP= 1.14D-07
 IDIUse=1 WtCom= 1.00D+00 WtEn= 0.00D+00
 Coeff-Com:  0.100D+01
 Coeff:      0.100D+01
 Gap=     0.173 Goal=   None    Shift=    0.000
 RMSDP=2.31D-06 MaxDP=4.51D-04 DE=-9.22D-04 OVMax= 2.99D-04

 Cycle   6  Pass 1  IDiag  1:
 RMSU=  1.42D-06    CP:  1.00D+00
 E= -2573.91075607492     Delta-E=       -0.000000204591 Rises=F Damp=F
 DIIS: error= 7.39D-06 at cycle   2 NSaved=   2.
 NSaved= 2 IEnMin= 2 EnMin= -2573.91075607492     IErMin= 2 ErrMin= 7.39D-06
 ErrMax= 7.39D-06  0.00D+00 EMaxC= 1.00D-01 BMatC= 2.46D-08 BMatP= 1.14D-07
 IDIUse=1 WtCom= 1.00D+00 WtEn= 0.00D+00
 Coeff-Com:  0.270D+00 0.730D+00
 Coeff:      0.270D+00 0.730D+00
 Gap=     0.173 Goal=   None    Shift=    0.000
 RMSDP=3.15D-07 MaxDP=6.67D-05 DE=-2.05D-07 OVMax= 1.01D-04

 Cycle   7  Pass 1  IDiag  1:
 RMSU=  3.10D-07    CP:  1.00D+00  9.65D-01
 E= -2573.91075610371     Delta-E=       -0.000000028788 Rises=F Damp=F
 DIIS: error= 2.74D-06 at cycle   3 NSaved=   3.
 NSaved= 3 IEnMin= 3 EnMin= -2573.91075610371     IErMin= 3 ErrMin= 2.74D-06
 ErrMax= 2.74D-06  0.00D+00 EMaxC= 1.00D-01 BMatC= 3.43D-09 BMatP= 2.46D-08
 IDIUse=1 WtCom= 1.00D+00 WtEn= 0.00D+00
 Coeff-Com: -0.262D-01 0.249D+00 0.777D+00
 Coeff:     -0.262D-01 0.249D+00 0.777D+00
 Gap=     0.173 Goal=   None    Shift=    0.000
 RMSDP=9.88D-08 MaxDP=2.40D-05 DE=-2.88D-08 OVMax= 2.65D-05

 Cycle   8  Pass 1  IDiag  1:
 RMSU=  4.46D-08    CP:  1.00D+00  1.01D+00  7.97D-01
 E= -2573.91075610788     Delta-E=       -0.000000004171 Rises=F Damp=F
 DIIS: error= 3.92D-07 at cycle   4 NSaved=   4.
 NSaved= 4 IEnMin= 4 EnMin= -2573.91075610788     IErMin= 4 ErrMin= 3.92D-07
 ErrMax= 3.92D-07  0.00D+00 EMaxC= 1.00D-01 BMatC= 6.27D-11 BMatP= 3.43D-09
 IDIUse=1 WtCom= 1.00D+00 WtEn= 0.00D+00
 Coeff-Com: -0.114D-01 0.783D-01 0.267D+00 0.666D+00
 Coeff:     -0.114D-01 0.783D-01 0.267D+00 0.666D+00
 Gap=     0.173 Goal=   None    Shift=    0.000
 RMSDP=1.38D-08 MaxDP=2.59D-06 DE=-4.17D-09 OVMax= 4.62D-06

 Cycle   9  Pass 1  IDiag  1:
 RMSU=  1.23D-08    CP:  1.00D+00  1.01D+00  8.08D-01  8.83D-01
 E= -2573.91075610796     Delta-E=       -0.000000000077 Rises=F Damp=F
 DIIS: error= 6.94D-08 at cycle   5 NSaved=   5.
 NSaved= 5 IEnMin= 5 EnMin= -2573.91075610796     IErMin= 5 ErrMin= 6.94D-08
 ErrMax= 6.94D-08  0.00D+00 EMaxC= 1.00D-01 BMatC= 2.19D-12 BMatP= 6.27D-11
 IDIUse=1 WtCom= 1.00D+00 WtEn= 0.00D+00
 Coeff-Com:  0.722D-03-0.112D-01-0.338D-01 0.110D+00 0.934D+00
 Coeff:      0.722D-03-0.112D-01-0.338D-01 0.110D+00 0.934D+00
 Gap=     0.173 Goal=   None    Shift=    0.000
 RMSDP=3.28D-09 MaxDP=4.75D-07 DE=-7.73D-11 OVMax= 1.21D-06

 SCF Done:  E(RPBE1PBE) =  -2573.91075611     A.U. after    9 cycles
            NFock=  9  Conv=0.33D-08     -V/T= 2.0013
 KE= 2.570524913373D+03 PE=-6.163048116413D+03 EE= 1.018612446932D+03
 Leave Link  502 at Thu May  3 03:26:04 2018, MaxMem= 14763950080 cpu:      5985.0
 (Enter /cm/shared/gaussian/g09.e01/intel64-sandybridge/g09/l601.exe)
 Copying SCF densities to generalized density rwf, IOpCl= 0 IROHF=0.

 **********************************************************************

            Population analysis using the SCF density.

 **********************************************************************

 Alpha  occ. eigenvalues -- -482.98585 -62.38742 -56.15996 -56.15995 -56.15989
 Alpha  occ. eigenvalues --   -8.48884  -6.29197  -6.29193  -6.29174  -2.37466
 Alpha  occ. eigenvalues --   -2.37465  -2.37451  -2.37446  -2.37443  -0.46975
 Alpha  occ. eigenvalues --   -0.02871  -0.02854  -0.02827
 Alpha virt. eigenvalues --    0.14467   0.16223   0.16666   0.16769   0.18493
 Alpha virt. eigenvalues --    0.18841   0.18985   0.19386   0.20298   0.20802
 Alpha virt. eigenvalues --    0.21809   0.21900   0.22411   0.22695   0.23066
 Alpha virt. eigenvalues --    0.23773   0.25138   0.25480   0.25662   0.26426
 Alpha virt. eigenvalues --    0.27183   0.27279   0.27696   0.28387   0.28492
 Alpha virt. eigenvalues --    0.28797   0.29013   0.30324   0.31082   0.31486
 Alpha virt. eigenvalues --    0.32210   0.32685   0.33070   0.33546   0.33810
 Alpha virt. eigenvalues --    0.34195   0.34842   0.35571   0.35684   0.36596
 Alpha virt. eigenvalues --    0.37066   0.37167   0.37718   0.37861   0.38079
 Alpha virt. eigenvalues --    0.38719   0.39192   0.39851   0.40218   0.40552
 Alpha virt. eigenvalues --    0.41355   0.41927   0.42390   0.43181   0.43615
 Alpha virt. eigenvalues --    0.44143   0.44607   0.45135   0.46125   0.46966
 Alpha virt. eigenvalues --    0.48433   0.49432   0.50895   0.52221   0.61238
 Alpha virt. eigenvalues --    0.61896   0.62354   0.63071   0.63256   0.63781
 Alpha virt. eigenvalues --    0.63892   0.64820   0.65110   0.66097   0.66453
 Alpha virt. eigenvalues --    0.66819   0.67020   0.68202   0.68819   0.69349
 Alpha virt. eigenvalues --    0.69791   0.70412   0.70883   0.71484   0.72000
 Alpha virt. eigenvalues --    0.72285   0.72907   0.73104   0.73463   0.73680
 Alpha virt. eigenvalues --    0.73913   0.74101   0.74209   0.74253   0.74393
 Alpha virt. eigenvalues --    0.74973   0.75062   0.75423   0.75811   0.76060
 Alpha virt. eigenvalues --    0.76328   0.76610   0.76744   0.77182   0.77643
 Alpha virt. eigenvalues --    0.77797   0.78015   0.78307   0.78676   0.78983
 Alpha virt. eigenvalues --    0.79146   0.80093   0.80288   0.80724   0.80919
 Alpha virt. eigenvalues --    0.81323   0.81574   0.81627   0.82114   0.82255
 Alpha virt. eigenvalues --    0.82579   0.82866   0.82966   0.83518   0.83836
 Alpha virt. eigenvalues --    0.84224   0.84706   0.84923   0.85301   0.85746
 Alpha virt. eigenvalues --    0.86095   0.86233   0.87077   0.87673   0.87934
 Alpha virt. eigenvalues --    0.88496   0.88885   0.89016   0.89496   0.90057
 Alpha virt. eigenvalues --    0.90252   0.90544   0.91340   0.91677   0.92311
 Alpha virt. eigenvalues --    0.92521   0.92624   0.93226   0.93418   0.94050
 Alpha virt. eigenvalues --    0.94329   0.94639   0.95098   0.95546   0.95609
 Alpha virt. eigenvalues --    0.96208   0.96662   0.96903   0.97398   0.97977
 Alpha virt. eigenvalues --    0.98627   0.98853   0.99290   0.99665   0.99834
 Alpha virt. eigenvalues --    1.00541   1.01005   1.01342   1.01584   1.02552
 Alpha virt. eigenvalues --    1.02784   1.03096   1.04079   1.04469   1.04820
 Alpha virt. eigenvalues --    1.05294   1.05582   1.06091   1.07109   1.07186
 Alpha virt. eigenvalues --    1.07501   1.07783   1.08422   1.09229   1.09991
 Alpha virt. eigenvalues --    1.10657   1.11013   1.11402   1.12546   1.13534
 Alpha virt. eigenvalues --    1.14334   1.15521   1.15679   1.16811   1.17385
 Alpha virt. eigenvalues --    1.19226   1.19423   1.21375   1.23137   1.24025
 Alpha virt. eigenvalues --    1.32283   1.63158   1.65017   1.66632   1.67556
 Alpha virt. eigenvalues --    1.68409   1.68620   1.68844   1.69567   1.70253
 Alpha virt. eigenvalues --    1.70547   1.70596   1.70684   1.71379   1.71930
 Alpha virt. eigenvalues --    1.72079   1.72400   1.72538   1.73082   1.73333
 Alpha virt. eigenvalues --    1.73526   1.73877   1.74100   1.74591   1.75018
 Alpha virt. eigenvalues --    1.75074   1.75215   1.75429   1.75554   1.75995
 Alpha virt. eigenvalues --    1.76105   1.76792   1.77241   1.77302   1.77507
 Alpha virt. eigenvalues --    1.77699   1.78124   1.78794   1.78900   1.79525
 Alpha virt. eigenvalues --    1.79934   1.80222   1.80588   1.80927   1.81125
 Alpha virt. eigenvalues --    1.81490   1.81791   1.82242   1.82603   1.82726
 Alpha virt. eigenvalues --    1.83968   1.84423   1.84801   1.85401   1.85765
 Alpha virt. eigenvalues --    1.86475   1.86883   1.86917   1.89163   1.89490
 Alpha virt. eigenvalues --    1.89986   1.90745   1.91442   1.92398   1.95118
 Alpha virt. eigenvalues --    1.97383   1.98018   1.98852   1.99056   1.99726
 Alpha virt. eigenvalues --    1.99869   2.00199   2.00480   2.00658   2.00889
 Alpha virt. eigenvalues --    2.01163   2.01417   2.01717   2.01777   2.01955
 Alpha virt. eigenvalues --    2.02314   2.02435   2.02880   2.03101   2.03223
 Alpha virt. eigenvalues --    2.03405   2.03654   2.03773   2.04118   2.04256
 Alpha virt. eigenvalues --    2.04624   2.04795   2.04862   2.05203   2.05534
 Alpha virt. eigenvalues --    2.05972   2.06128   2.06443   2.06782   2.07139
 Alpha virt. eigenvalues --    2.07449   2.08125   2.08266   2.08462   2.08776
 Alpha virt. eigenvalues --    2.09437   2.09713   2.10006   2.10596   2.11104
 Alpha virt. eigenvalues --    2.11259   2.11830   2.12156   2.12411   2.12717
 Alpha virt. eigenvalues --    2.13716   2.13975   2.14329   2.14580   2.15382
 Alpha virt. eigenvalues --    2.16303   2.16538   2.16905   2.16963   2.17420
 Alpha virt. eigenvalues --    2.17453   2.17783   2.17940   2.18523   2.18956
 Alpha virt. eigenvalues --    2.19402   2.19458   2.19809   2.20519   2.20765
 Alpha virt. eigenvalues --    2.21054   2.21757   2.22386   2.22625   2.23423
 Alpha virt. eigenvalues --    2.23684   2.23883   2.24421   2.24899   2.26748
 Alpha virt. eigenvalues --    2.28652   2.28862   2.29515   2.29865   2.30376
 Alpha virt. eigenvalues --    2.30785   2.31444   2.32321   2.32987   2.33772
 Alpha virt. eigenvalues --    2.34536   2.35946   2.37004   2.38283   2.39687
 Alpha virt. eigenvalues --    2.39716   2.39982   2.40172   2.40564   2.41238
 Alpha virt. eigenvalues --    2.41301   2.42539   2.43030   2.43430   2.44080
 Alpha virt. eigenvalues --    2.44590   2.44807   2.45082   2.45777   2.46178
 Alpha virt. eigenvalues --    2.46599   2.46700   2.47245   2.47623   2.48008
 Alpha virt. eigenvalues --    2.48236   2.48792   2.49002   2.49324   2.50623
 Alpha virt. eigenvalues --    2.52203   2.53105   2.53820   2.54088   2.54662
 Alpha virt. eigenvalues --    2.54786   2.55262   2.55532   2.67591   2.67852
 Alpha virt. eigenvalues --    2.68228   2.69137   2.69753   2.70337   2.70485
 Alpha virt. eigenvalues --    2.70671   2.71091   2.71384   2.71462   2.72896
 Alpha virt. eigenvalues --    2.73154   2.73459   2.73998   2.74553   2.75874
 Alpha virt. eigenvalues --    2.76731   2.77108   2.77643   2.77830   2.78402
 Alpha virt. eigenvalues --    2.80551   2.81395   2.82012   2.82592   2.82837
 Alpha virt. eigenvalues --    2.83450   2.83932   2.84222   2.84954   2.85039
 Alpha virt. eigenvalues --    2.85861   2.85968   2.86271   2.86861   2.87370
 Alpha virt. eigenvalues --    2.87714   2.88144   2.88408   2.88920   2.89017
 Alpha virt. eigenvalues --    2.89365   2.90669   2.90756   2.91545   2.91726
 Alpha virt. eigenvalues --    2.92289   2.93013   2.93939   2.94810   2.94971
 Alpha virt. eigenvalues --    2.95783   2.96391   2.98306   2.99176   2.99821
 Alpha virt. eigenvalues --    3.00175   3.00812   3.02700   3.05217   3.06070
 Alpha virt. eigenvalues --    3.07061   3.11736   3.13976   3.14409   3.15659
 Alpha virt. eigenvalues --    3.16471   3.16770   3.18267   3.18808   3.19307
 Alpha virt. eigenvalues --    3.20026   3.20587   3.20784   3.22126   3.23347
 Alpha virt. eigenvalues --    3.24138   3.26274   3.27900   3.29279   3.33691
 Alpha virt. eigenvalues --    3.33991   3.39081   3.40126   3.41908   3.43380
 Alpha virt. eigenvalues --    3.46044   3.47530   3.47931   3.53660   3.53915
 Alpha virt. eigenvalues --    3.54236   3.57093   3.59042   3.66338   4.51336
 Alpha virt. eigenvalues --    4.51705   4.52089   4.52240   4.52253   4.52485
 Alpha virt. eigenvalues --    4.52539   4.52691   4.52898   4.52945   4.52981
 Alpha virt. eigenvalues --    4.53022   4.53143   4.53255   4.53324   4.53335
 Alpha virt. eigenvalues --    4.53532   4.53959   4.54287   4.54301   4.54328
 Alpha virt. eigenvalues --    4.54344   4.54771   4.55314   4.55526   4.55664
 Alpha virt. eigenvalues --    4.56060   4.56190   4.56412   4.56456   4.56710
 Alpha virt. eigenvalues --    4.57502   4.59228   4.59847   4.60040   4.60245
 Alpha virt. eigenvalues --    4.60389   4.60404   4.60425   4.60479   4.60620
 Alpha virt. eigenvalues --    4.60734   4.60980   4.61117   4.61273   4.61339
 Alpha virt. eigenvalues --    4.61438   4.61592   4.61692   4.62064   4.62523
 Alpha virt. eigenvalues --    4.62681   4.62825   4.62844   4.62933   4.63122
 Alpha virt. eigenvalues --    4.63980   4.64359   4.64502   4.64683   4.64870
 Alpha virt. eigenvalues --    4.65211   4.65985   4.67451   4.73648   4.75014
 Alpha virt. eigenvalues --    4.75363   4.75593   4.76399   4.76454   4.76809
 Alpha virt. eigenvalues --    4.77148   4.77360   4.77983   4.78171   4.78270
 Alpha virt. eigenvalues --    4.78387   4.78760   4.79312   4.79778   4.80032
 Alpha virt. eigenvalues --    4.80245   4.80812   4.81075   4.81472   4.81679
 Alpha virt. eigenvalues --    4.82421   4.83306   4.83398   4.83751   4.84251
 Alpha virt. eigenvalues --    4.84474   4.84890   4.85301   4.85706   4.86198
 Alpha virt. eigenvalues --    4.86703   4.87034   4.87176   4.87236   4.87500
 Alpha virt. eigenvalues --    4.87678   4.87977   4.88049   4.88217   4.88281
 Alpha virt. eigenvalues --    4.88373   4.89109   4.89477   4.89764   4.90358
 Alpha virt. eigenvalues --    4.90957   4.92385   4.93392   4.93499   4.93671
 Alpha virt. eigenvalues --    4.94152   4.95070   4.95626   4.96550   4.97366
 Alpha virt. eigenvalues --    4.97991   4.98235   4.98885   4.99830   5.00661
 Alpha virt. eigenvalues --    5.01465   5.04576   5.04730   5.04943   5.05478
[...]
   Z20       41.81964   0.00390   0.00000  -0.03011  -0.03026  41.78938
   X21       44.42746  -0.00108   0.00000  -0.01676  -0.01675  44.41071
   Y21       38.75828  -0.01004   0.00000  -0.02193  -0.02166  38.73663
   Z21       41.40390  -0.00322   0.00000  -0.00285  -0.00280  41.40110
   X22       42.04641  -0.00921   0.00000  -0.00704  -0.00692  42.03948
   Y22       40.17558  -0.00399   0.00000  -0.01107  -0.01072  40.16486
   Z22       40.70470  -0.01234   0.00000  -0.02485  -0.02503  40.67967
   X23       33.52374  -0.02270   0.00000  -0.02222  -0.02225  33.50149
   Y23       33.95838   0.01653   0.00000   0.00779   0.00779  33.96616
   Z23       32.78675   0.00606   0.00000   0.00647   0.00671  32.79346
   X24       34.88434   0.00906   0.00000   0.00352   0.00349  34.88784
   Y24       34.50640   0.00283   0.00000   0.01181   0.01184  34.51824
   Z24       33.84500   0.00364   0.00000  -0.00207  -0.00185  33.84315
   X25       34.18515   0.01677   0.00000   0.03357   0.03348  34.21862
   Y25       32.54108  -0.01775   0.00000  -0.01158  -0.01173  32.52935
   Z25       31.87968  -0.00730   0.00000   0.00626   0.00669  31.88637
   X26       43.86054   0.01358   0.00000   0.02187   0.02217  43.88272
   Y26       39.11733  -0.01397   0.00000  -0.00067  -0.00139  39.11594
   Z26       32.21983   0.00038   0.00000  -0.00254  -0.00255  32.21728
   X27       43.25583  -0.01069   0.00000  -0.02917  -0.02876  43.22707
   Y27       40.15668   0.00792   0.00000   0.00016  -0.00067  40.15601
   Z27       30.87813  -0.00764   0.00000  -0.00522  -0.00536  30.87276
   X28       43.23693  -0.00817   0.00000  -0.02066  -0.02035  43.21659
   Y28       39.91102   0.00813   0.00000   0.01298   0.01247  39.92349
   Z28       33.73161   0.00403   0.00000  -0.00847  -0.00859  33.72303
   X29       33.37256  -0.01061   0.00000  -0.04865  -0.04862  33.32394
   Y29       41.21493   0.01032   0.00000   0.01200   0.01344  41.22837
   Z29       45.63689   0.00238   0.00000  -0.01929  -0.01986  45.61703
   X30       33.78830   0.00528   0.00000   0.01841   0.01843  33.80673
   Y30       40.30786  -0.01063   0.00000  -0.02727  -0.02602  40.28184
   Z30       44.12511  -0.00582   0.00000   0.00436   0.00391  44.12901
   X31       32.61667   0.00340   0.00000   0.01976   0.01968  32.63635
   Y31       39.94881  -0.00434   0.00000  -0.01204  -0.01044  39.93837
   Z31       46.69513   0.00153   0.00000   0.00660   0.00615  46.70129
   X32       44.38967  -0.00510   0.00000   0.02076   0.02049  44.41016
   Y32       33.82610   0.01197   0.00000   0.02995   0.03008  33.85617
   Z32       40.08109  -0.00581   0.00000   0.00275   0.00335  40.08444
   X33       45.39122   0.01005   0.00000   0.01307   0.01272  45.40394
   Y33       33.14580  -0.01019   0.00000  -0.02539  -0.02518  33.12062
   Z33       41.40390   0.01302   0.00000   0.01233   0.01303  41.41693
   X34       45.29674   0.00008   0.00000  -0.00888  -0.00912  45.28761
   Y34       33.41036  -0.00162   0.00000  -0.00394  -0.00404  33.40632
   Z34       38.56931  -0.00672   0.00000  -0.01494  -0.01427  38.55504
   X35       35.22450   0.00535   0.00000   0.00102   0.00056  35.22506
   Y35       34.14735  -0.01485   0.00000  -0.02259  -0.02111  34.12624
   Z35       47.01639   0.00703   0.00000  -0.00398  -0.00370  47.01268
   X36       35.67803  -0.00413   0.00000  -0.02400  -0.02436  35.65367
   Y36       34.86545   0.00765   0.00000   0.01093   0.01220  34.87764
   Z36       45.41012  -0.01139   0.00000  -0.01571  -0.01550  45.39462
   X37       33.82610  -0.00422   0.00000   0.00864   0.00822  33.83432
   Y37       35.13001   0.00702   0.00000   0.00645   0.00808  35.13809
   Z37       47.58330   0.00221   0.00000   0.00795   0.00807  47.59138
   X38       41.63067  -0.00775   0.00000  -0.03275  -0.03270  41.59797
   Y38       41.87633   0.00674   0.00000   0.01418   0.01517  41.89150
   Z38       46.18491   0.01778   0.00000   0.03122   0.03083  46.21574
   X39       41.76295   0.00703   0.00000   0.02915   0.02919  41.79214
   Y39       41.08265  -0.00499   0.00000  -0.01044  -0.00964  41.07300
   Z39       44.55974  -0.00437   0.00000   0.02762   0.02733  44.58707
   X40       41.95192   0.00096   0.00000   0.00365   0.00382  41.95574
   Y40       43.63378  -0.00049   0.00000  -0.00011   0.00082  43.63459
   Z40       45.84476  -0.00290   0.00000  -0.00606  -0.00663  45.83812
   X41       36.79297   0.01267   0.00000   0.03490   0.03560  36.82856
   Y41       46.03373  -0.00801   0.00000  -0.04344  -0.04357  45.99016
   Z41       33.48595  -0.01593   0.00000  -0.00931  -0.01031  33.47564
   X42       35.37567  -0.00903   0.00000  -0.01271  -0.01209  35.36359
   Y42       44.95658  -0.00448   0.00000   0.00069   0.00069  44.95727
   Z42       33.82610   0.00563   0.00000   0.01314   0.01222  33.83832
   X43       37.18981  -0.00133   0.00000  -0.01377  -0.01307  37.17674
   Y43       46.77072   0.00992   0.00000   0.03023   0.03025  46.80097
   Z43       35.09221   0.00891   0.00000  -0.00822  -0.00929  35.08292
   X44       28.38369  -0.01029   0.00000  -0.01437  -0.01453  28.36916
   Y44       34.07176   0.00503   0.00000   0.00933   0.01015  34.08191
   Z44       37.28430  -0.01279   0.00000  -0.03487  -0.03479  37.24951
   X45       29.53642  -0.00037   0.00000  -0.01146  -0.01152  29.52490
   Y45       35.20560   0.00597   0.00000   0.01755   0.01821  35.22380
   Z45       36.47171  -0.00854   0.00000  -0.03325  -0.03327  36.43845
   X46       29.36634   0.00234   0.00000  -0.01566  -0.01591  29.35043
   Y46       33.24028  -0.00353   0.00000   0.00760   0.00850  33.24878
   Z46       38.55041   0.00613   0.00000  -0.00783  -0.00763  38.54278
   X47       45.44791  -0.00050   0.00000   0.00419   0.00479  45.45270
   Y47       45.20225   0.01992   0.00000   0.01720   0.01670  45.21895
   Z47       35.11111  -0.00941   0.00000  -0.00126  -0.00191  35.10920
   X48       44.18180  -0.00951   0.00000  -0.00800  -0.00749  44.17431
   Y48       43.93613  -0.01059   0.00000  -0.00133  -0.00172  43.93441
   Z48       35.33788   0.00499   0.00000   0.01217   0.01163  35.34951
   X49       46.90300   0.01221   0.00000   0.01205   0.01258  46.91559
   Y49       44.54084  -0.01065   0.00000  -0.02086  -0.02136  44.51949
   Z49       35.92369   0.00707   0.00000   0.00354   0.00302  35.92672
   X50       29.04509  -0.01595   0.00000  -0.01427  -0.01411  29.03098
   Y50       36.64179   0.00110   0.00000   0.00070   0.00091  36.64270
   Z50       32.21983   0.00278   0.00000   0.01483   0.01464  32.23447
   X51       30.55687   0.01205   0.00000   0.00632   0.00641  30.56328
   Y51       35.69693  -0.00917   0.00000  -0.01600  -0.01585  35.68108
   Z51       32.50329  -0.00044   0.00000  -0.01105  -0.01108  32.49220
   X52       29.63091   0.00205   0.00000  -0.00252  -0.00225  29.62865
   Y52       38.28585   0.00531   0.00000   0.00095   0.00107  38.28692
   Z52       31.70960  -0.00339   0.00000  -0.00882  -0.00918  31.70043
   X53       41.55508   0.00589   0.00000  -0.01888  -0.01918  41.53590
   Y53       29.21517  -0.01094   0.00000  -0.01232  -0.01296  29.20221
   Z53       31.63402  -0.01835   0.00000  -0.03653  -0.03550  31.59851
   X54       40.91257   0.00747   0.00000   0.06721   0.06699  40.97956
   Y54       30.76474   0.01548   0.00000   0.01524   0.01471  30.77946
   Z54       32.31432   0.01784   0.00000   0.05497   0.05581  32.37012
   X55       40.79919  -0.00180   0.00000   0.00914   0.00873  40.80792
   Y55       27.93015  -0.00489   0.00000  -0.00285  -0.00332  27.92683
   Z55       32.65447   0.00872   0.00000   0.01886   0.02001  32.67448
   X56       40.55352   0.01239   0.00000   0.02071   0.02018  40.57370
   Y56       33.05131  -0.01512   0.00000  -0.02730  -0.02613  33.02518
   Z56       47.20536   0.01436   0.00000   0.02261   0.02318  47.22854
   X57       41.00706  -0.00747   0.00000  -0.02894  -0.02936  40.97770
   Y57       34.31743   0.00663   0.00000  -0.00294  -0.00193  34.31549
   Z57       45.99593  -0.00566   0.00000   0.00522   0.00566  46.00159
   X58       38.73939  -0.00498   0.00000   0.00865   0.00812  38.74750
   Y58       33.05131   0.00426   0.00000   0.00599   0.00727  33.05858
   Z58       47.20536   0.00108   0.00000   0.01867   0.01918  47.22453
   X59       29.66870   0.01099   0.00000   0.01861   0.01895  29.68765
   Y59       43.19914   0.00183   0.00000  -0.00740  -0.00642  43.19272
   Z59       39.43858  -0.00984   0.00000  -0.00109  -0.00199  39.43659
   X60       29.46083  -0.00500   0.00000  -0.01668  -0.01647  29.44436
   Y60       41.66846  -0.01167   0.00000  -0.02115  -0.02005  41.64841
   Z60       40.36455   0.00529   0.00000   0.00016  -0.00057  40.36398
   X61       28.53486  -0.00554   0.00000  -0.00161  -0.00121  28.53365
   Y61       44.37077   0.00424   0.00000  -0.00239  -0.00125  44.36951
   Z61       40.21337   0.00289   0.00000  -0.00511  -0.00618  40.20719
   X62       32.63557   0.01150   0.00000   0.01839   0.01795  32.65352
   Y62       28.57266  -0.00189   0.00000   0.00647   0.00677  28.57943
   Z62       35.07332   0.00883   0.00000   0.00222   0.00304  35.07636
   X63       32.33321  -0.00282   0.00000  -0.00504  -0.00537  32.32785
   Y63       30.36790   0.00833   0.00000   0.01317   0.01349  30.38139
   Z63       35.03552  -0.00270   0.00000  -0.00867  -0.00806  35.02747
   X64       31.55843  -0.00780   0.00000  -0.00844  -0.00888  31.54954
   Y64       27.91125  -0.00212   0.00000   0.00081   0.00104  27.91229
   Z64       33.78830  -0.00603   0.00000   0.00423   0.00509  33.79340
   X65       30.50018  -0.01023   0.00000  -0.01423  -0.01373  30.48645
   Y65       41.44169  -0.00691   0.00000   0.01356   0.01352  41.45521
   Z65       30.78364  -0.01104   0.00000  -0.01100  -0.01168  30.77196
   X66       31.36945   0.00310   0.00000   0.00285   0.00344  31.37289
   Y66       42.21648   0.00467   0.00000   0.01242   0.01217  42.22865
   Z66       29.40414  -0.00609   0.00000  -0.01208  -0.01282  29.39132
   X67       31.10489   0.01209   0.00000   0.03351   0.03401  31.13891
   Y67       42.31097   0.00509   0.00000  -0.01181  -0.01172  42.29925
   Z67       32.23873   0.01563   0.00000   0.01728   0.01652  32.25525
   X68       36.47171  -0.01766   0.00000  -0.02816  -0.02836  36.44335
   Y68       30.36790   0.00152   0.00000  -0.00349  -0.00388  30.36402
   Z68       31.04820  -0.00526   0.00000  -0.02133  -0.02059  31.02761
   X69       36.45282  -0.00181   0.00000  -0.01454  -0.01487  36.43795
   Y69       28.66715  -0.00351   0.00000   0.00152   0.00121  28.66836
   Z69       31.67181   0.00433   0.00000   0.01375   0.01468  31.68649
   X70       38.22916   0.00954   0.00000  -0.00654  -0.00672  38.22244
   Y70       30.78364  -0.00147   0.00000  -0.01403  -0.01454  30.76910
   Z70       30.95371  -0.00749   0.00000  -0.03682  -0.03607  30.91765
   X71       38.98505   0.01798   0.00000   0.02770   0.02821  39.01326
   Y71       39.98660  -0.00033   0.00000   0.02019   0.01926  40.00587
   Z71       27.59000  -0.00732   0.00000  -0.01939  -0.01965  27.57036
   X72       38.55041  -0.00423   0.00000  -0.01275  -0.01228  38.53813
   Y72       38.73939  -0.00003   0.00000  -0.00816  -0.00920  38.73018
   Z72       26.32389   0.00720   0.00000   0.02756   0.02743  26.35132
   X73       37.39768  -0.00894   0.00000   0.00653   0.00706  37.40474
   Y73       40.62911   0.00110   0.00000  -0.00565  -0.00642  40.62269
   Z73       28.13802   0.00366   0.00000   0.00971   0.00933  28.14735
   X74       34.41191   0.00582   0.00000  -0.00458  -0.00426  34.40765
   Y74       36.88745   0.00544   0.00000   0.00461   0.00394  36.89140
   Z74       27.40103  -0.01668   0.00000  -0.01724  -0.01729  27.38374
   X75       33.78830  -0.00360   0.00000   0.00745   0.00766  33.79596
   Y75       35.82921  -0.00526   0.00000   0.00191   0.00144  35.83064
   Z75       28.72384   0.01417   0.00000   0.01734   0.01738  28.74122
   X76       34.03397  -0.00543   0.00000  -0.02052  -0.02012  34.01385
   Y76       38.56931  -0.00046   0.00000  -0.00622  -0.00679  38.56252
   Z76       27.96795   0.00565   0.00000   0.01522   0.01497  27.98291
   X77       34.69537  -0.00944   0.00000  -0.04381  -0.04451  34.65087
   Y77       26.94749  -0.01248   0.00000  -0.00472  -0.00400  26.94350
   Z77       39.89212   0.01819   0.00000   0.02933   0.03040  39.92252
   X78       34.50640  -0.00213   0.00000  -0.00647  -0.00707  34.49933
   Y78       27.53331   0.00508   0.00000  -0.00838  -0.00784  27.52547
   Z78       38.19137  -0.01240   0.00000  -0.00199  -0.00099  38.19037
   X79       35.20560   0.00828   0.00000   0.03523   0.03461  35.24020
   Y79       28.42148   0.00779   0.00000   0.01292   0.01371  28.43519
   Z79       40.81808  -0.00483   0.00000  -0.02599  -0.02508  40.79301
   X80       29.00730   0.00216   0.00000   0.00564   0.00554  29.01283
   Y80       37.88901   0.00122   0.00000   0.00459   0.00601  37.89502
   Z80       43.02906  -0.00909   0.00000  -0.00554  -0.00587  43.02319
   X81       29.10178   0.00472   0.00000   0.02345   0.02343  29.12521
   Y81       39.53307   0.00227   0.00000  -0.00233  -0.00082  39.53225
   Z81       43.80385   0.00716   0.00000   0.02190   0.02138  43.82524
   X82       28.70494  -0.00486   0.00000  -0.01961  -0.01982  28.68512
   Y82       36.75517  -0.00106   0.00000   0.00526   0.00686  36.76203
   Z82       44.40856   0.00561   0.00000   0.00244   0.00222  44.41079
   X83       30.12223   0.00408   0.00000   0.01995   0.01953  30.14176
   Y83       31.86078  -0.00593   0.00000  -0.02729  -0.02614  31.83464
   Z83       41.13934   0.01209   0.00000   0.03635   0.03673  41.17607
   X84       30.78364   0.00626   0.00000   0.02811   0.02757  30.81121
   Y84       30.17893  -0.00723   0.00000  -0.03035  -0.02923  30.14970
   Z84       41.32831  -0.00252   0.00000  -0.00007   0.00052  41.32883
   X85       29.81988   0.00005   0.00000   0.00394   0.00350  29.82338
   Y85       32.40880  -0.00078   0.00000  -0.01494  -0.01359  32.39521
   Z85       42.84009   0.00362   0.00000   0.02742   0.02773  42.86782
   X86       48.20691   0.00502   0.00000   0.00471   0.00493  48.21184
   Y86       41.08265   0.00465   0.00000   0.01226   0.01205  41.09469
   Z86       39.21182  -0.01116   0.00000  -0.01161  -0.01171  39.20011
   X87       46.92190  -0.00745   0.00000  -0.01697  -0.01673  46.90517
   Y87       41.98971  -0.00087   0.00000  -0.01338  -0.01340  41.97631
   Z87       40.11889   0.00509   0.00000   0.00464   0.00441  40.12329
   X88       48.60376   0.00138   0.00000   0.00561   0.00571  48.60947
   Y88       39.68425  -0.00257   0.00000   0.00773   0.00761  39.69186
   Z88       40.28896   0.00473   0.00000   0.00015   0.00022  40.28918
   X89       40.34565   0.02221   0.00000   0.03930   0.03856  40.38421
   Y89       26.32389  -0.00521   0.00000  -0.01066  -0.01028  26.31361
   Z89       40.11889  -0.00649   0.00000   0.01213   0.01344  40.13233
   X90       40.00550  -0.00798   0.00000  -0.01909  -0.01973  39.98577
   Y90       28.04354   0.00775   0.00000   0.00352   0.00398  28.04752
   Z90       40.59132  -0.00106   0.00000  -0.02378  -0.02267  40.56864
   X91       38.98505  -0.01481   0.00000  -0.02159  -0.02241  38.96264
   Y91       25.37902  -0.00071   0.00000   0.01498   0.01553  25.39455
   Z91       40.81808   0.00253   0.00000  -0.01735  -0.01598  40.80210
   X92       45.86365   0.00540   0.00000  -0.00152  -0.00138  45.86227
   Y92       35.16780  -0.02170   0.00000  -0.02035  -0.02149  35.14631
   Z92       29.51752  -0.00868   0.00000  -0.01215  -0.01166  29.50587
   X93       44.99438  -0.00676   0.00000   0.00238   0.00258  44.99696
   Y93       36.50951   0.01520   0.00000   0.00552   0.00452  36.51403
   Z93       30.34900   0.01082   0.00000   0.01686   0.01718  30.36618
   X94       47.20536   0.00211   0.00000   0.00157   0.00179  47.20715
   Y94       35.98039   0.00404   0.00000   0.00615   0.00482  35.98521
   Z94       28.61045   0.00019   0.00000   0.00514   0.00559  28.61604
   X95       37.32209   0.00111   0.00000   0.00003   0.00077  37.32287
   Y95       48.79273   0.00144   0.00000  -0.00100  -0.00068  48.79205
   Z95       37.81342   0.00158   0.00000   0.01389   0.01260  37.82602
   X96       36.64179  -0.00189   0.00000  -0.00506  -0.00441  36.63738
   Y96       48.18802  -0.00198   0.00000  -0.00242  -0.00188  48.18614
   Z96       39.38189   0.00474   0.00000   0.01596   0.01471  39.39661
   X97       37.73783   0.00114   0.00000   0.00358   0.00443  37.74226
   Y97       50.53128   0.00031   0.00000   0.00122   0.00154  50.53282
   Z97       38.15357  -0.00148   0.00000  -0.00244  -0.00392  38.14965
         Item               Value     Threshold  Converged?
 Maximum Force            0.033140     0.000450     NO 
 RMS     Force            0.009055     0.000300     NO 
 Maximum Displacement     0.066989     0.001800     NO 
 RMS     Displacement     0.017593     0.001200     NO 
 Predicted change in Energy=-2.532587D-02
 GradGradGradGradGradGradGradGradGradGradGradGradGradGradGradGradGradGrad

 Leave Link  103 at Thu May  3 03:31:26 2018, MaxMem= 14763950080 cpu:        64.6
 (Enter /cm/shared/gaussian/g09.e01/intel64-sandybridge/g09/l9999.exe)
 1\1\GINC-POPLE03\Force\RPBE1PBE\CC-pVDZ\Br1H64O32(1-)\M.PELUSO\03-May-
 2018\0\\#p PBE1PBE/cc-pvDZ force Counterpoise=2 noSymm\\forces on chlo
 ride comput - NWATER: 32\\-1,1\Br,20.,20.,20.\O,21.78,22.25,18.91\H,21
 .27,21.67,19.47\H,21.15,22.87,18.57\O,18.11,19.05,22.35\H,18.39,19.45,
 21.53\H,17.15,19.04,22.31\O,21.35,18.76,22.64\H,20.76,19.16,21.99\H,22
 .13,18.51,22.13\O,21.59,17.87,17.89\H,21.13,18.47,18.47\H,22.49,18.19,
 17.87\O,17.67,22.42,18.73\H,16.94,22.18,19.3\H,18.43,22.02,19.16\O,20.
 14,16.57,21.22\H,20.16,17.14,21.98\H,20.45,17.11,20.5\O,23.,21.29,22.1
 3\H,23.51,20.51,21.91\H,22.25,21.26,21.54\O,17.74,17.97,17.35\H,18.46,
 18.26,17.91\H,18.09,17.22,16.87\O,23.21,20.7,17.05\H,22.89,21.25,16.34
 \H,22.88,21.12,17.85\O,17.66,21.81,24.15\H,17.88,21.33,23.35\H,17.26,2
 1.14,24.71\O,23.49,17.9,21.21\H,24.02,17.54,21.91\H,23.97,17.68,20.41\
 O,18.64,18.07,24.88\H,18.88,18.45,24.03\H,17.9,18.59,25.18\O,22.03,22.
 16,24.44\H,22.1,21.74,23.58\H,22.2,23.09,24.26\O,19.47,24.36,17.72\H,1
 8.72,23.79,17.9\H,19.68,24.75,18.57\O,15.02,18.03,19.73\H,15.63,18.63,
 19.3\H,15.54,17.59,20.4\O,24.05,23.92,18.58\H,23.38,23.25,18.7\H,24.82
 ,23.57,19.01\O,15.37,19.39,17.05\H,16.17,18.89,17.2\H,15.68,20.26,16.7
 8\O,21.99,15.46,16.74\H,21.65,16.28,17.1\H,21.59,14.78,17.28\O,21.46,1
 7.49,24.98\H,21.7,18.16,24.34\H,20.5,17.49,24.98\O,15.7,22.86,20.87\H,
 15.59,22.05,21.36\H,15.1,23.48,21.28\O,17.27,15.12,18.56\H,17.11,16.07
 ,18.54\H,16.7,14.77,17.88\O,16.14,21.93,16.29\H,16.6,22.34,15.56\H,16.
 46,22.39,17.06\O,19.3,16.07,16.43\H,19.29,15.17,16.76\H,20.23,16.29,16
 .38\O,20.63,21.16,14.6\H,20.4,20.5,13.93\H,19.79,21.5,14.89\O,18.21,19
 .52,14.5\H,17.88,18.96,15.2\H,18.01,20.41,14.8\O,18.36,14.26,21.11\H,1
 8.26,14.57,20.21\H,18.63,15.04,21.6\O,15.35,20.05,22.77\H,15.4,20.92,2
 3.18\H,15.19,19.45,23.5\O,15.94,16.86,21.77\H,16.29,15.97,21.87\H,15.7
 8,17.15,22.67\O,25.51,21.74,20.75\H,24.83,22.22,21.23\H,25.72,21.,21.3
 2\O,21.35,13.93,21.23\H,21.17,14.84,21.48\H,20.63,13.43,21.6\O,24.27,1
 8.61,15.62\H,23.81,19.32,16.06\H,24.98,19.04,15.14\O,19.75,25.82,20.01
 \H,19.39,25.5,20.84\H,19.97,26.74,20.19\\Version=ES64L-G09RevE.01\HF=-
 2443.1420319\RMSD=2.484e-09\RMSF=9.055e-03\Dipole=-2.0221935,2.8809891
 ,2.5566464\Quadrupole=-234.2066274,158.3167292,75.8898982,-1362.355542
 6,-1402.0442338,-1161.5775985\PG=C01 [X(Br1H64O32)]\\@


 MISERY NO LONGER LOVES COMPANY.  NOWADAYS IT INSISTS ON IT.

                                              -- BAKER'S LAW
 Job cpu time:       0 days 10 hours 20 minutes 12.8 seconds.
 File lengths (MBytes):  RWF=    482 Int=      0 D2E=      0 Chk=    160 Scr=      1
 Normal termination of Gaussian 09 at Thu May  3 03:31:26 2018.
