 Entering Gaussian System, Link 0=/cm/shared/gaussian/g09.e01/intel64-sandybridge/g09/g09
 Initial command:
 /cm/shared/gaussian/g09.e01/intel64-sandybridge/g09/l1.exe "/local/scratch/m.peluso/32_wat/Gau-36175.inp" -scrdir="/local/scratch/m.peluso/32_wat/"
 Entering Link 1 = /cm/shared/gaussian/g09.e01/intel64-sandybridge/g09/l1.exe PID=     36176.
  
 Copyright (c) 1988,1990,1992,1993,1995,1998,2003,2009,2015,
            Gaussian, Inc.  All Rights Reserved.
  
 This is part of the Gaussian(R) 09 program.  It is based on
 the Gaussian(R) 03 system (copyright 2003, Gaussian, Inc.),
 the Gaussian(R) 98 system (copyright 1998, Gaussian, Inc.),
 the Gaussian(R) 94 system (copyright 1995, Gaussian, Inc.),
 the Gaussian 92(TM) system (copyright 1992, Gaussian, Inc.),
 the Gaussian 90(TM) system (copyright 1990, Gaussian, Inc.),
 the Gaussian 88(TM) system (copyright 1988, Gaussian, Inc.),
 the Gaussian 86(TM) system (copyright 1986, Carnegie Mellon
 University), and the Gaussian 82(TM) system (copyright 1983,
 Carnegie Mellon University). Gaussian is a federally registered
 trademark of Gaussian, Inc.
  
 This software contains proprietary and confidential information,
 including trade secrets, belonging to Gaussian, Inc.
  
 This software is provided under written license and may be
 used, copied, transmitted, or stored only in accord with that
 written license.
  
 The following legend is applicable only to US Government
 contracts under FAR:
  
                    RESTRICTED RIGHTS LEGEND
  
 Use, reproduction and disclosure by the US Government is
 subject to restrictions as set forth in subparagraphs (a)
 and (c) of the Commercial Computer Software - Restricted
 Rights clause in FAR 52.227-19.
  
 Gaussian, Inc.
 340 Quinnipiac St., Bldg. 40, Wallingford CT 06492
  
  
 ---------------------------------------------------------------
 Warning -- This program may not be used in any manner that
 competes with the business of Gaussian, Inc. or will provide
 assistance to any competitor of Gaussian, Inc.  The licensee
 of this program is prohibited from giving any competitor of
 Gaussian, Inc. access to this program.  By using this program,
 the user acknowledges that Gaussian, Inc. is engaged in the
 business of creating and licensing software in the field of
 computational chemistry and represents and warrants to the
 licensee that it is not a competitor of Gaussian, Inc. and that
 it will not use this program in any manner prohibited above.
 ---------------------------------------------------------------
  

 Cite this work as:
 Gaussian 09, Revision E.01,
 M. J. Frisch, G. W. Trucks, H. B. Schlegel, G. E. Scuseria, 
 M. A. Robb, J. R. Cheeseman, G. Scalmani, V. Barone, B. Mennucci, 
 G. A. Petersson, H. Nakatsuji, M. Caricato, X. Li, H. P. Hratchian, 
 A. F. Izmaylov, J. Bloino, G. Zheng, J. L. Sonnenberg, M. Hada, 
 M. Ehara, K. Toyota, R. Fukuda, J. Hasegawa, M. Ishida, T. Nakajima, 
 Y. Honda, O. Kitao, H. Nakai, T. Vreven, J. A. Montgomery, Jr., 
 J. E. Peralta, F. Ogliaro, M. Bearpark, J. J. Heyd, E. Brothers, 
 K. N. Kudin, V. N. Staroverov, T. Keith, R. Kobayashi, J. Normand, 
 K. Raghavachari, A. Rendell, J. C. Burant, S. S. Iyengar, J. Tomasi, 
 M. Cossi, N. Rega, J. M. Millam, M. Klene, J. E. Knox, J. B. Cross, 
 V. Bakken, C. Adamo, J. Jaramillo, R. Gomperts, R. E. Stratmann, 
 O. Yazyev, A. J. Austin, R. Cammi, C. Pomelli, J. W. Ochterski, 
 R. L. Martin, K. Morokuma, V. G. Zakrzewski, G. A. Voth, 
 P. Salvador, J. J. Dannenberg, S. Dapprich, A. D. Daniels, 
 O. Farkas, J. B. Foresman, J. V. Ortiz, J. Cioslowski, 
 and D. J. Fox, Gaussian, Inc., Wallingford CT, 2013.
 
 ******************************************
 Gaussian 09:  ES64L-G09RevE.01 30-Nov-2015
                 3-May-2018 
 ******************************************
 %Mem=110GB
 %NProcShared=64
 Will use up to   64 processors via shared memory.
 %chk=snap9.chk
 ----------------------------------------------
 #p PBE1PBE/cc-pvDZ force Counterpoise=2 noSymm
 ----------------------------------------------
 1/10=7,30=1,38=1,62=2/1,3;
 2/12=2,15=1,17=6,18=5,40=1/2;
 1/10=7,30=1,38=1,53=2,62=2,63=101/22;
 3/5=16,11=2,16=1,25=1,30=1,71=1,74=-13/1,2,3;
 4//1;
 5/5=2,38=5/2;
 6/7=2,8=2,9=2,10=2,28=1/1;
 7/7=1,29=1,30=1,33=-1/1,2,3,16;
 1/10=7,30=1,53=2,62=2,63=101/22;
 3/5=7,6=11,11=2,16=1,25=1,30=1,71=1,74=-13,82=7/1,2,3;
 4//1;
 5/5=2,38=5/2;
 6/7=2,8=2,9=2,10=2,28=1/1;
 7/7=1,29=1,30=1,33=-1/1,2,3,16;
 1/10=7,30=1,53=2,62=2,63=101/22(-5);
 7/9=1,29=1,44=-1/16;
 1/10=7,30=1,62=2/3;
 99//99;
 Leave Link    1 at Thu May  3 10:37:09 2018, MaxMem= 14763950080 cpu:         8.0
 (Enter /cm/shared/gaussian/g09.e01/intel64-sandybridge/g09/l101.exe)
 --------------------------------------
 forces on chloride comput - NWATER: 32
 --------------------------------------
 Symbolic Z-matrix:
 Charge = -1 Multiplicity = 1 in supermolecule
 Charge = -1 Multiplicity = 1 in fragment      1.
 Charge =  0 Multiplicity = 1 in fragment      2.
 Br(Fragment=1)        20.       20.       20. 
 O(Fragment=2)         21.01     22.9      20.33 
 H(Fragment=2)         21.41     23.02     19.47 
 H(Fragment=2)         20.65     22.02     20.31 
 O(Fragment=2)         22.89     19.92     18.95 
 H(Fragment=2)         23.31     20.71     19.3 
 H(Fragment=2)         22.08     19.85     19.45 
 O(Fragment=2)         18.16     22.54     20.43 
 H(Fragment=2)         18.77     22.95     21.06 
 H(Fragment=2)         18.52     21.67     20.28 
 O(Fragment=2)         20.86     18.04     22.44 
 H(Fragment=2)         21.47     17.65     21.81 
 H(Fragment=2)         20.76     18.95     22.15 
 O(Fragment=2)         17.5      17.91     20.8 
 H(Fragment=2)         18.1      18.63     21.01 
 H(Fragment=2)         17.91     17.47     20.06 
 O(Fragment=2)         18.73     16.91     18.66 
 H(Fragment=2)         19.23     16.15     18.36 
 H(Fragment=2)         19.37     17.62     18.66 
 O(Fragment=2)         18.51     19.72     16.63 
 H(Fragment=2)         17.64     19.62     16.24 
 H(Fragment=2)         18.34     19.99     17.53 
 O(Fragment=2)         21.27     22.37     17.36 
 H(Fragment=2)         20.69     22.63     16.64 
 H(Fragment=2)         21.03     21.46     17.54 
 O(Fragment=2)         21.41     18.92     16.98 
 H(Fragment=2)         22.03     19.35     17.57 
 H(Fragment=2)         20.77     19.59     16.78 
 O(Fragment=2)         16.91     20.65     22.23 
 H(Fragment=2)         17.49     21.3      21.85 
 H(Fragment=2)         17.38     20.31     22.99 
 O(Fragment=2)         18.71     18.95     23.64 
 H(Fragment=2)         19.26     18.43     23.05 
 H(Fragment=2)         18.79     18.51     24.48 
 O(Fragment=2)         15.94     20.24     19.56 
 H(Fragment=2)         16.54     20.89     19.92 
 H(Fragment=2)         16.41     19.41     19.66 
 O(Fragment=2)         21.56     16.29     18.55 
 H(Fragment=2)         22.08     16.51     19.32 
 H(Fragment=2)         21.29     17.14     18.19 
 O(Fragment=2)         19.21     22.41     23.54 
 H(Fragment=2)         20.05     22.22     23.1 
 H(Fragment=2)         19.19     21.81     24.28 
 O(Fragment=2)         19.07     24.36     18.27 
 H(Fragment=2)         19.59     23.86     17.64 
 H(Fragment=2)         18.74     23.7      18.88 
 O(Fragment=2)         16.38     21.96     16.89 
 H(Fragment=2)         15.77     22.66     17.13 
 H(Fragment=2)         16.54     21.48     17.7 
 O(Fragment=2)         19.46     15.27     22.16 
 H(Fragment=2)         20.19     14.72     22.44 
 H(Fragment=2)         19.82     16.16     22.17 
 O(Fragment=2)         19.31     25.       21.35 
 H(Fragment=2)         19.83     24.31     20.95 
 H(Fragment=2)         18.74     25.32     20.65 
 O(Fragment=2)         24.49     21.15     21.44 
 H(Fragment=2)         24.19     21.42     20.57 
 H(Fragment=2)         24.67     21.97     21.89 
 O(Fragment=2)         19.07     22.46     15.7 
 H(Fragment=2)         18.4      23.13     15.58 
 H(Fragment=2)         18.6      21.7      16.06 
 O(Fragment=2)         23.07     16.77     21.07 
 H(Fragment=2)         23.77     17.43     21.12 
 H(Fragment=2)         23.54     15.93     21.09 
 O(Fragment=2)         24.82     17.86     18.11 
 H(Fragment=2)         25.11     18.1      18.99 
 H(Fragment=2)         24.01     18.35     17.97 
 O(Fragment=2)         20.15     19.       14.45 
 H(Fragment=2)         19.75     18.81     15.3 
 H(Fragment=2)         19.61     18.53     13.82 
 O(Fragment=2)         24.11     22.46     19.05 
 H(Fragment=2)         23.5      23.19     18.91 
 H(Fragment=2)         24.96     22.88     19.17 
 O(Fragment=2)         25.06     18.56     21.3 
 H(Fragment=2)         24.8      19.47     21.44 
 H(Fragment=2)         25.76     18.41     21.93 
 O(Fragment=2)         22.16     16.76     24.82 
 H(Fragment=2)         21.83     15.86     24.83 
 H(Fragment=2)         21.63     17.21     24.16 
 O(Fragment=2)         16.92     14.85     19.79 
 H(Fragment=2)         17.36     15.44     19.17 
 H(Fragment=2)         17.35     15.01     20.63 
 O(Fragment=2)         22.32     21.17     24.79 
 H(Fragment=2)         23.16     21.07     25.23 
 H(Fragment=2)         21.68     20.9      25.45 
 O(Fragment=2)         14.24     17.22     20.95 
 H(Fragment=2)         13.62     17.9      20.68 
 H(Fragment=2)         15.09     17.66     20.92 
 O(Fragment=2)         14.62     22.28     22.89 
 H(Fragment=2)         15.21     21.62     22.52 
 H(Fragment=2)         13.79     21.81     23.01 
 O(Fragment=2)         15.68     19.48     24.96 
 H(Fragment=2)         16.1      20.16     25.49 
 H(Fragment=2)         16.36     19.22     24.33 
 O(Fragment=2)         19.84     14.57     16.92 
 H(Fragment=2)         20.31     14.31     16.13 
 H(Fragment=2)         20.52     14.79     17.56 
 
 NAtoms=     97 NQM=       97 NQMF=       0 NMMI=      0 NMMIF=      0
                NMic=       0 NMicF=      0.
                    Isotopes and Nuclear Properties:
 (Nuclear quadrupole moments (NQMom) in fm**2, nuclear magnetic moments (NMagM)
  in nuclear magnetons)

  Atom         1           2           3           4           5           6           7           8           9          10
 IAtWgt=          79          16           1           1          16           1           1          16           1           1
 AtmWgt=  78.9183361  15.9949146   1.0078250   1.0078250  15.9949146   1.0078250   1.0078250  15.9949146   1.0078250   1.0078250
 NucSpn=           3           0           1           1           0           1           1           0           1           1
 AtZEff=   0.0000000   0.0000000   0.0000000   0.0000000   0.0000000   0.0000000   0.0000000   0.0000000   0.0000000   0.0000000
 NQMom=   31.3000000   0.0000000   0.0000000   0.0000000   0.0000000   0.0000000   0.0000000   0.0000000   0.0000000   0.0000000
 NMagM=    2.1063990   0.0000000   2.7928460   2.7928460   0.0000000   2.7928460   2.7928460   0.0000000   2.7928460   2.7928460
 AtZNuc=  35.0000000   8.0000000   1.0000000   1.0000000   8.0000000   1.0000000   1.0000000   8.0000000   1.0000000   1.0000000

  Atom        11          12          13          14          15          16          17          18          19          20
 IAtWgt=          16           1           1          16           1           1          16           1           1          16
 AtmWgt=  15.9949146   1.0078250   1.0078250  15.9949146   1.0078250   1.0078250  15.9949146   1.0078250   1.0078250  15.9949146
 NucSpn=           0           1           1           0           1           1           0           1           1           0
 AtZEff=   0.0000000   0.0000000   0.0000000   0.0000000   0.0000000   0.0000000   0.0000000   0.0000000   0.0000000   0.0000000
 NQMom=    0.0000000   0.0000000   0.0000000   0.0000000   0.0000000   0.0000000   0.0000000   0.0000000   0.0000000   0.0000000
 NMagM=    0.0000000   2.7928460   2.7928460   0.0000000   2.7928460   2.7928460   0.0000000   2.7928460   2.7928460   0.0000000
 AtZNuc=   8.0000000   1.0000000   1.0000000   8.0000000   1.0000000   1.0000000   8.0000000   1.0000000   1.0000000   8.0000000

  Atom        21          22          23          24          25          26          27          28          29          30
 IAtWgt=           1           1          16           1           1          16           1           1          16           1
 AtmWgt=   1.0078250   1.0078250  15.9949146   1.0078250   1.0078250  15.9949146   1.0078250   1.0078250  15.9949146   1.0078250
 NucSpn=           1           1           0           1           1           0           1           1           0           1
 AtZEff=   0.0000000   0.0000000   0.0000000   0.0000000   0.0000000   0.0000000   0.0000000   0.0000000   0.0000000   0.0000000
 NQMom=    0.0000000   0.0000000   0.0000000   0.0000000   0.0000000   0.0000000   0.0000000   0.0000000   0.0000000   0.0000000
 NMagM=    2.7928460   2.7928460   0.0000000   2.7928460   2.7928460   0.0000000   2.7928460   2.7928460   0.0000000   2.7928460
 AtZNuc=   1.0000000   1.0000000   8.0000000   1.0000000   1.0000000   8.0000000   1.0000000   1.0000000   8.0000000   1.0000000

  Atom        31          32          33          34          35          36          37          38          39          40
 IAtWgt=           1          16           1           1          16           1           1          16           1           1
 AtmWgt=   1.0078250  15.9949146   1.0078250   1.0078250  15.9949146   1.0078250   1.0078250  15.9949146   1.0078250   1.0078250
 NucSpn=           1           0           1           1           0           1           1           0           1           1
 AtZEff=   0.0000000   0.0000000   0.0000000   0.0000000   0.0000000   0.0000000   0.0000000   0.0000000   0.0000000   0.0000000
 NQMom=    0.0000000   0.0000000   0.0000000   0.0000000   0.0000000   0.0000000   0.0000000   0.0000000   0.0000000   0.0000000
 NMagM=    2.7928460   0.0000000   2.7928460   2.7928460   0.0000000   2.7928460   2.7928460   0.0000000   2.7928460   2.7928460
 AtZNuc=   1.0000000   8.0000000   1.0000000   1.0000000   8.0000000   1.0000000   1.0000000   8.0000000   1.0000000   1.0000000

  Atom        41          42          43          44          45          46          47          48          49          50
 IAtWgt=          16           1           1          16           1           1          16           1           1          16
 AtmWgt=  15.9949146   1.0078250   1.0078250  15.9949146   1.0078250   1.0078250  15.9949146   1.0078250   1.0078250  15.9949146
 NucSpn=           0           1           1           0           1           1           0           1           1           0
 AtZEff=   0.0000000   0.0000000   0.0000000   0.0000000   0.0000000   0.0000000   0.0000000   0.0000000   0.0000000   0.0000000
 NQMom=    0.0000000   0.0000000   0.0000000   0.0000000   0.0000000   0.0000000   0.0000000   0.0000000   0.0000000   0.0000000
 NMagM=    0.0000000   2.7928460   2.7928460   0.0000000   2.7928460   2.7928460   0.0000000   2.7928460   2.7928460   0.0000000
 AtZNuc=   8.0000000   1.0000000   1.0000000   8.0000000   1.0000000   1.0000000   8.0000000   1.0000000   1.0000000   8.0000000

  Atom        51          52          53          54          55          56          57          58          59          60
 IAtWgt=           1           1          16           1           1          16           1           1          16           1
 AtmWgt=   1.0078250   1.0078250  15.9949146   1.0078250   1.0078250  15.9949146   1.0078250   1.0078250  15.9949146   1.0078250
 NucSpn=           1           1           0           1           1           0           1           1           0           1
 AtZEff=   0.0000000   0.0000000   0.0000000   0.0000000   0.0000000   0.0000000   0.0000000   0.0000000   0.0000000   0.0000000
 NQMom=    0.0000000   0.0000000   0.0000000   0.0000000   0.0000000   0.0000000   0.0000000   0.0000000   0.0000000   0.0000000
 NMagM=    2.7928460   2.7928460   0.0000000   2.7928460   2.7928460   0.0000000   2.7928460   2.7928460   0.0000000   2.7928460
 AtZNuc=   1.0000000   1.0000000   8.0000000   1.0000000   1.0000000   8.0000000   1.0000000   1.0000000   8.0000000   1.0000000

  Atom        61          62          63          64          65          66          67          68          69          70
 IAtWgt=           1          16           1           1          16           1           1          16           1           1
 AtmWgt=   1.0078250  15.9949146   1.0078250   1.0078250  15.9949146   1.0078250   1.0078250  15.9949146   1.0078250   1.0078250
 NucSpn=           1           0           1           1           0           1           1           0           1           1
 AtZEff=   0.0000000   0.0000000   0.0000000   0.0000000   0.0000000   0.0000000   0.0000000   0.0000000   0.0000000   0.0000000
 NQMom=    0.0000000   0.0000000   0.0000000   0.0000000   0.0000000   0.0000000   0.0000000   0.0000000   0.0000000   0.0000000
 NMagM=    2.7928460   0.0000000   2.7928460   2.7928460   0.0000000   2.7928460   2.7928460   0.0000000   2.7928460   2.7928460
 AtZNuc=   1.0000000   8.0000000   1.0000000   1.0000000   8.0000000   1.0000000   1.0000000   8.0000000   1.0000000   1.0000000

  Atom        71          72          73          74          75          76          77          78          79          80
 IAtWgt=          16           1           1          16           1           1          16           1           1          16
 AtmWgt=  15.9949146   1.0078250   1.0078250  15.9949146   1.0078250   1.0078250  15.9949146   1.0078250   1.0078250  15.9949146
 NucSpn=           0           1           1           0           1           1           0           1           1           0
 AtZEff=   0.0000000   0.0000000   0.0000000   0.0000000   0.0000000   0.0000000   0.0000000   0.0000000   0.0000000   0.0000000
 NQMom=    0.0000000   0.0000000   0.0000000   0.0000000   0.0000000   0.0000000   0.0000000   0.0000000   0.0000000   0.0000000
 NMagM=    0.0000000   2.7928460   2.7928460   0.0000000   2.7928460   2.7928460   0.0000000   2.7928460   2.7928460   0.0000000
 AtZNuc=   8.0000000   1.0000000   1.0000000   8.0000000   1.0000000   1.0000000   8.0000000   1.0000000   1.0000000   8.0000000

  Atom        81          82          83          84          85          86          87          88          89          90
 IAtWgt=           1           1          16           1           1          16           1           1          16           1
 AtmWgt=   1.0078250   1.0078250  15.9949146   1.0078250   1.0078250  15.9949146   1.0078250   1.0078250  15.9949146   1.0078250
 NucSpn=           1           1           0           1           1           0           1           1           0           1
 AtZEff=   0.0000000   0.0000000   0.0000000   0.0000000   0.0000000   0.0000000   0.0000000   0.0000000   0.0000000   0.0000000
 NQMom=    0.0000000   0.0000000   0.0000000   0.0000000   0.0000000   0.0000000   0.0000000   0.0000000   0.0000000   0.0000000
 NMagM=    2.7928460   2.7928460   0.0000000   2.7928460   2.7928460   0.0000000   2.7928460   2.7928460   0.0000000   2.7928460
 AtZNuc=   1.0000000   1.0000000   8.0000000   1.0000000   1.0000000   8.0000000   1.0000000   1.0000000   8.0000000   1.0000000

  Atom        91          92          93          94          95          96          97
 IAtWgt=           1          16           1           1          16           1           1
 AtmWgt=   1.0078250  15.9949146   1.0078250   1.0078250  15.9949146   1.0078250   1.0078250
 NucSpn=           1           0           1           1           0           1           1
 AtZEff=   0.0000000   0.0000000   0.0000000   0.0000000   0.0000000   0.0000000   0.0000000
 NQMom=    0.0000000   0.0000000   0.0000000   0.0000000   0.0000000   0.0000000   0.0000000
 NMagM=    2.7928460   0.0000000   2.7928460   2.7928460   0.0000000   2.7928460   2.7928460
 AtZNuc=   1.0000000   8.0000000   1.0000000   1.0000000   8.0000000   1.0000000   1.0000000
 Leave Link  101 at Thu May  3 10:37:09 2018, MaxMem= 14763950080 cpu:        15.0
 (Enter /cm/shared/gaussian/g09.e01/intel64-sandybridge/g09/l103.exe)

 GradGradGradGradGradGradGradGradGradGradGradGradGradGradGradGradGradGrad
 Berny optimization.
 Initialization pass.
 Trust Radius=3.00D-01 FncErr=1.00D-07 GrdErr=1.00D-07
 Number of steps in this run=      2 maximum allowed number of steps=      2.
 GradGradGradGradGradGradGradGradGradGradGradGradGradGradGradGradGradGrad

 Leave Link  103 at Thu May  3 10:37:09 2018, MaxMem= 14763950080 cpu:         2.2
 (Enter /cm/shared/gaussian/g09.e01/intel64-sandybridge/g09/l202.exe)
 Symmetry turned off by external request.
 Stoichiometry    BrH64O32(1-)
 Framework group  C1[X(BrH64O32)]
 Deg. of freedom   285
 Full point group                 C1      NOp   1
                          Input orientation:                          
 ---------------------------------------------------------------------
 Center     Atomic      Atomic             Coordinates (Angstroms)
 Number     Number       Type             X           Y           Z
 ---------------------------------------------------------------------
      1         35           0       20.000000   20.000000   20.000000
      2          8           0       21.010000   22.900000   20.330000
      3          1           0       21.410000   23.020000   19.470000
      4          1           0       20.650000   22.020000   20.310000
      5          8           0       22.890000   19.920000   18.950000
      6          1           0       23.310000   20.710000   19.300000
      7          1           0       22.080000   19.850000   19.450000
      8          8           0       18.160000   22.540000   20.430000
      9          1           0       18.770000   22.950000   21.060000
     10          1           0       18.520000   21.670000   20.280000
     11          8           0       20.860000   18.040000   22.440000
     12          1           0       21.470000   17.650000   21.810000
     13          1           0       20.760000   18.950000   22.150000
     14          8           0       17.500000   17.910000   20.800000
     15          1           0       18.100000   18.630000   21.010000
     16          1           0       17.910000   17.470000   20.060000
     17          8           0       18.730000   16.910000   18.660000
     18          1           0       19.230000   16.150000   18.360000
     19          1           0       19.370000   17.620000   18.660000
     20          8           0       18.510000   19.720000   16.630000
     21          1           0       17.640000   19.620000   16.240000
     22          1           0       18.340000   19.990000   17.530000
     23          8           0       21.270000   22.370000   17.360000
     24          1           0       20.690000   22.630000   16.640000
     25          1           0       21.030000   21.460000   17.540000
     26          8           0       21.410000   18.920000   16.980000
     27          1           0       22.030000   19.350000   17.570000
     28          1           0       20.770000   19.590000   16.780000
     29          8           0       16.910000   20.650000   22.230000
     30          1           0       17.490000   21.300000   21.850000
     31          1           0       17.380000   20.310000   22.990000
     32          8           0       18.710000   18.950000   23.640000
     33          1           0       19.260000   18.430000   23.050000
     34          1           0       18.790000   18.510000   24.480000
     35          8           0       15.940000   20.240000   19.560000
     36          1           0       16.540000   20.890000   19.920000
     37          1           0       16.410000   19.410000   19.660000
     38          8           0       21.560000   16.290000   18.550000
     39          1           0       22.080000   16.510000   19.320000
     40          1           0       21.290000   17.140000   18.190000
     41          8           0       19.210000   22.410000   23.540000
     42          1           0       20.050000   22.220000   23.100000
     43          1           0       19.190000   21.810000   24.280000
     44          8           0       19.070000   24.360000   18.270000
     45          1           0       19.590000   23.860000   17.640000
     46          1           0       18.740000   23.700000   18.880000
     47          8           0       16.380000   21.960000   16.890000
     48          1           0       15.770000   22.660000   17.130000
     49          1           0       16.540000   21.480000   17.700000
     50          8           0       19.460000   15.270000   22.160000
     51          1           0       20.190000   14.720000   22.440000
     52          1           0       19.820000   16.160000   22.170000
     53          8           0       19.310000   25.000000   21.350000
     54          1           0       19.830000   24.310000   20.950000
     55          1           0       18.740000   25.320000   20.650000
     56          8           0       24.490000   21.150000   21.440000
     57          1           0       24.190000   21.420000   20.570000
     58          1           0       24.670000   21.970000   21.890000
     59          8           0       19.070000   22.460000   15.700000
     60          1           0       18.400000   23.130000   15.580000
     61          1           0       18.600000   21.700000   16.060000
     62          8           0       23.070000   16.770000   21.070000
     63          1           0       23.770000   17.430000   21.120000
     64          1           0       23.540000   15.930000   21.090000
     65          8           0       24.820000   17.860000   18.110000
     66          1           0       25.110000   18.100000   18.990000
     67          1           0       24.010000   18.350000   17.970000
     68          8           0       20.150000   19.000000   14.450000
     69          1           0       19.750000   18.810000   15.300000
     70          1           0       19.610000   18.530000   13.820000
     71          8           0       24.110000   22.460000   19.050000
     72          1           0       23.500000   23.190000   18.910000
     73          1           0       24.960000   22.880000   19.170000
     74          8           0       25.060000   18.560000   21.300000
     75          1           0       24.800000   19.470000   21.440000
     76          1           0       25.760000   18.410000   21.930000
     77          8           0       22.160000   16.760000   24.820000
     78          1           0       21.830000   15.860000   24.830000
     79          1           0       21.630000   17.210000   24.160000
     80          8           0       16.920000   14.850000   19.790000
     81          1           0       17.360000   15.440000   19.170000
     82          1           0       17.350000   15.010000   20.630000
     83          8           0       22.320000   21.170000   24.790000
     84          1           0       23.160000   21.070000   25.230000
     85          1           0       21.680000   20.900000   25.450000
     86          8           0       14.240000   17.220000   20.950000
     87          1           0       13.620000   17.900000   20.680000
     88          1           0       15.090000   17.660000   20.920000
     89          8           0       14.620000   22.280000   22.890000
     90          1           0       15.210000   21.620000   22.520000
     91          1           0       13.790000   21.810000   23.010000
     92          8           0       15.680000   19.480000   24.960000
     93          1           0       16.100000   20.160000   25.490000
     94          1           0       16.360000   19.220000   24.330000
     95          8           0       19.840000   14.570000   16.920000
     96          1           0       20.310000   14.310000   16.130000
     97          1           0       20.520000   14.790000   17.560000
 ---------------------------------------------------------------------
 Rotational constants (GHZ):      0.0604684      0.0561079      0.0538534
 Leave Link  202 at Thu May  3 10:37:09 2018, MaxMem= 14763950080 cpu:         0.6
 (Enter /cm/shared/gaussian/g09.e01/intel64-sandybridge/g09/l122.exe)
 Counterpoise: doing full dimer calculation.
 Leave Link  122 at Thu May  3 10:37:09 2018, MaxMem= 14763950080 cpu:         0.1
 (Enter /cm/shared/gaussian/g09.e01/intel64-sandybridge/g09/l301.exe)
 Standard basis: CC-pVDZ (5D, 7F)
 Ernie: Thresh=  0.10000D-02 Tol=  0.10000D-05 Strict=F.
 Ernie:  87 primitive shells out of 1114 were deleted.
   795 basis functions,  1651 primitive gaussians,   829 cartesian basis functions
   178 alpha electrons      178 beta electrons
       nuclear repulsion energy      6244.2683748806 Hartrees.
 IExCor= 1009 DFT=T Ex+Corr=PBE1PBE ExCW=0 ScaHFX=  0.250000
 ScaDFX=  0.750000  0.750000  1.000000  1.000000 ScalE2=  1.000000  1.000000
 IRadAn=      0 IRanWt=     -1 IRanGd=            0 ICorTp=0 IEmpDi=  4
 NAtoms=   97 NActive=   97 NUniq=   97 SFac= 1.00D+00 NAtFMM=   60 NAOKFM=T Big=T
 Integral buffers will be    131072 words long.
 Raffenetti 2 integral format.
 Two-electron integral symmetry is turned off.
 Leave Link  301 at Thu May  3 10:37:09 2018, MaxMem= 14763950080 cpu:         6.4
 (Enter /cm/shared/gaussian/g09.e01/intel64-sandybridge/g09/l302.exe)
 NPDir=0 NMtPBC=     1 NCelOv=     1 NCel=       1 NClECP=     1 NCelD=      1
         NCelK=      1 NCelE2=     1 NClLst=     1 CellRange=     0.0.
 One-electron integrals computed using PRISM.
 NBasis=   795 RedAO= T EigKep=  1.33D-02  NBF=   795
 NBsUse=   795 1.00D-06 EigRej= -1.00D+00 NBFU=   795
 Precomputing XC quadrature grid using
 IXCGrd= 4 IRadAn=           0 IRanWt=          -1 IRanGd=           0 AccXCQ= 0.00D+00.
 Generated NRdTot=       0 NPtTot=           0 NUsed=           0 NTot=          32
 NSgBfM=   730   731   731   731   731 MxSgAt=    97 MxSgA2=    97.
 Leave Link  302 at Thu May  3 10:37:16 2018, MaxMem= 14763950080 cpu:       445.7
 (Enter /cm/shared/gaussian/g09.e01/intel64-sandybridge/g09/l303.exe)
 DipDrv:  MaxL=1.
 Leave Link  303 at Thu May  3 10:37:17 2018, MaxMem= 14763950080 cpu:        31.1
 (Enter /cm/shared/gaussian/g09.e01/intel64-sandybridge/g09/l401.exe)
 ExpMin= 1.22D-01 ExpMax= 6.40D+05 ExpMxC= 6.18D+03 IAcc=2 IRadAn=         4 AccDes= 0.00D+00
 Harris functional with IExCor= 1009 and IRadAn=       4 diagonalized for initial guess.
 HarFok:  IExCor= 1009 AccDes= 0.00D+00 IRadAn=         4 IDoV= 1 UseB2=F ITyADJ=14
 ICtDFT=  3500011 ScaDFX=  1.000000  1.000000  1.000000  1.000000
 FoFCou: FMM=F IPFlag=           0 FMFlag=      100000 FMFlg1=        2001
         NFxFlg=           0 DoJE=T BraDBF=F KetDBF=T FulRan=T
         wScrn=  0.000000 ICntrl=     500 IOpCl=  0 I1Cent=   200000004 NGrid=           0
         NMat0=    1 NMatS0=      1 NMatT0=    0 NMatD0=    1 NMtDS0=    0 NMtDT0=    0
 Symmetry not used in FoFCou.
 Harris En= -5018.38655963548    
 JPrj=0 DoOrth=F DoCkMO=F.
 Leave Link  401 at Thu May  3 10:37:22 2018, MaxMem= 14763950080 cpu:       335.2
 (Enter /cm/shared/gaussian/g09.e01/intel64-sandybridge/g09/l502.exe)
 Closed shell SCF:
 Using DIIS extrapolation, IDIIS=  1040.
 Two-electron integral symmetry not used.
 IVT=     2138497 IEndB=     2138497 NGot= 14763950080 MDV= 14762516294
 LenX= 14762516294 LenY= 14761828224
 Requested convergence on RMS density matrix=1.00D-08 within 128 cycles.
 Requested convergence on MAX density matrix=1.00D-06.
 Requested convergence on             energy=1.00D-06.
 No special actions if energy rises.
 Fock matrices will be formed incrementally for  20 cycles.
 Integral accuracy reduced to 1.0D-05 until final iterations.

 Cycle   1  Pass 0  IDiag  1:
 FoFJK:  IHMeth= 1 ICntrl=       0 DoSepK=F KAlg= 0 I1Cent=   0 FoldK=F
 IRaf= 850000000 NMat=   1 IRICut=       1 DoRegI=T DoRafI=F ISym2E= 0.
 FoFCou: FMM=T IPFlag=           0 FMFlag=      100000 FMFlg1=        2001
         NFxFlg=           0 DoJE=F BraDBF=F KetDBF=F FulRan=T
         wScrn=  0.000000 ICntrl=       0 IOpCl=  0 I1Cent=           0 NGrid=           0
         NMat0=    1 NMatS0=      1 NMatT0=    0 NMatD0=    1 NMtDS0=    0 NMtDT0=    0
 Symmetry not used in FoFCou.
 FMM levels:  10  Number of levels for PrismC:   9
 E= -5015.30429513387    
 DIIS: error= 4.13D-02 at cycle   1 NSaved=   1.
 NSaved= 1 IEnMin= 1 EnMin= -5015.30429513387     IErMin= 1 ErrMin= 4.13D-02
 ErrMax= 4.13D-02  0.00D+00 EMaxC= 1.00D-01 BMatC= 2.70D+00 BMatP= 2.70D+00
 IDIUse=3 WtCom= 5.87D-01 WtEn= 4.13D-01
 Coeff-Com:  0.100D+01
 Coeff-En:   0.100D+01
 Coeff:      0.100D+01
 Gap=     0.333 Goal=   None    Shift=    0.000
 GapD=    0.333 DampG=1.000 DampE=0.500 DampFc=0.5000 IDamp=-1.
 Damping current iteration by 5.00D-01
 RMSDP=2.85D-03 MaxDP=1.53D-01              OVMax= 1.78D-01

 Cycle   2  Pass 0  IDiag  1:
 RMSU=  1.41D-03    CP:  9.86D-01
 E= -5016.08907295673     Delta-E=       -0.784777822861 Rises=F Damp=T
 DIIS: error= 7.59D-03 at cycle   2 NSaved=   2.
 NSaved= 2 IEnMin= 2 EnMin= -5016.08907295673     IErMin= 2 ErrMin= 7.59D-03
 ErrMax= 7.59D-03  0.00D+00 EMaxC= 1.00D-01 BMatC= 8.76D-02 BMatP= 2.70D+00
 IDIUse=3 WtCom= 9.24D-01 WtEn= 7.59D-02
 Coeff-Com:  0.121D+00 0.879D+00
 Coeff-En:   0.216D+00 0.784D+00
 Coeff:      0.128D+00 0.872D+00
 Gap=     0.226 Goal=   None    Shift=    0.000
 RMSDP=3.62D-04 MaxDP=2.29D-02 DE=-7.85D-01 OVMax= 9.73D-02

 Cycle   3  Pass 0  IDiag  1:
 RMSU=  2.84D-04    CP:  9.87D-01  8.41D-01
 E= -5017.23295757753     Delta-E=       -1.143884620800 Rises=F Damp=F
 DIIS: error= 1.39D-03 at cycle   3 NSaved=   3.
 NSaved= 3 IEnMin= 3 EnMin= -5017.23295757753     IErMin= 3 ErrMin= 1.39D-03
 ErrMax= 1.39D-03  0.00D+00 EMaxC= 1.00D-01 BMatC= 2.10D-03 BMatP= 8.76D-02
 IDIUse=3 WtCom= 9.86D-01 WtEn= 1.39D-02
 Coeff-Com:  0.105D-01 0.776D-01 0.912D+00
 Coeff-En:   0.000D+00 0.000D+00 0.100D+01
 Coeff:      0.103D-01 0.766D-01 0.913D+00
 Gap=     0.234 Goal=   None    Shift=    0.000
 RMSDP=1.02D-04 MaxDP=1.44D-02 DE=-1.14D+00 OVMax= 1.68D-02

 Cycle   4  Pass 0  IDiag  1:
 RMSU=  8.76D-05    CP:  9.88D-01  8.47D-01  8.18D-01
 E= -5017.23346612446     Delta-E=       -0.000508546931 Rises=F Damp=F
 DIIS: error= 9.11D-04 at cycle   4 NSaved=   4.
 NSaved= 4 IEnMin= 4 EnMin= -5017.23346612446     IErMin= 4 ErrMin= 9.11D-04
 ErrMax= 9.11D-04  0.00D+00 EMaxC= 1.00D-01 BMatC= 2.00D-03 BMatP= 2.10D-03
 IDIUse=3 WtCom= 9.91D-01 WtEn= 9.11D-03
 Coeff-Com:  0.205D-02 0.805D-02 0.492D+00 0.498D+00
 Coeff-En:   0.000D+00 0.000D+00 0.429D+00 0.571D+00
 Coeff:      0.203D-02 0.798D-02 0.491D+00 0.499D+00
 Gap=     0.234 Goal=   None    Shift=    0.000
 RMSDP=4.38D-05 MaxDP=5.54D-03 DE=-5.09D-04 OVMax= 5.28D-03

 Cycle   5  Pass 0  IDiag  1:
 RMSU=  1.78D-05    CP:  9.87D-01  8.43D-01  8.83D-01  5.98D-01
 E= -5017.23502994041     Delta-E=       -0.001563815946 Rises=F Damp=F
 DIIS: error= 1.37D-04 at cycle   5 NSaved=   5.
 NSaved= 5 IEnMin= 5 EnMin= -5017.23502994041     IErMin= 5 ErrMin= 1.37D-04
 ErrMax= 1.37D-04  0.00D+00 EMaxC= 1.00D-01 BMatC= 3.89D-05 BMatP= 2.00D-03
 IDIUse=3 WtCom= 9.99D-01 WtEn= 1.37D-03
 Coeff-Com:  0.707D-03-0.136D-02 0.148D+00 0.184D+00 0.668D+00
 Coeff-En:   0.000D+00 0.000D+00 0.000D+00 0.000D+00 0.100D+01
 Coeff:      0.706D-03-0.136D-02 0.148D+00 0.184D+00 0.668D+00
 Gap=     0.235 Goal=   None    Shift=    0.000
 RMSDP=8.66D-06 MaxDP=1.28D-03 DE=-1.56D-03 OVMax= 1.20D-03

 Cycle   6  Pass 0  IDiag  1:
 RMSU=  5.70D-06    CP:  9.87D-01  8.43D-01  8.94D-01  5.78D-01  7.05D-01
 E= -5017.23506111729     Delta-E=       -0.000031176884 Rises=F Damp=F
 DIIS: error= 9.04D-05 at cycle   6 NSaved=   6.
 NSaved= 6 IEnMin= 6 EnMin= -5017.23506111729     IErMin= 6 ErrMin= 9.04D-05
 ErrMax= 9.04D-05  0.00D+00 EMaxC= 1.00D-01 BMatC= 3.83D-06 BMatP= 3.89D-05
 IDIUse=1 WtCom= 1.00D+00 WtEn= 0.00D+00
 Coeff-Com:  0.142D-03-0.193D-02 0.332D-01 0.430D-01 0.273D+00 0.652D+00
 Coeff:      0.142D-03-0.193D-02 0.332D-01 0.430D-01 0.273D+00 0.652D+00
 Gap=     0.235 Goal=   None    Shift=    0.000
 RMSDP=2.34D-06 MaxDP=4.41D-04 DE=-3.12D-05 OVMax= 3.52D-04

 Initial convergence to 1.0D-05 achieved.  Increase integral accuracy.
 Cycle   7  Pass 1  IDiag  1:
 E= -5017.23569787401     Delta-E=       -0.000636756717 Rises=F Damp=F
 DIIS: error= 3.49D-05 at cycle   1 NSaved=   1.
 NSaved= 1 IEnMin= 1 EnMin= -5017.23569787401     IErMin= 1 ErrMin= 3.49D-05
 ErrMax= 3.49D-05  0.00D+00 EMaxC= 1.00D-01 BMatC= 1.92D-06 BMatP= 1.92D-06
 IDIUse=1 WtCom= 1.00D+00 WtEn= 0.00D+00
 Coeff-Com:  0.100D+01
 Coeff:      0.100D+01
 Gap=     0.235 Goal=   None    Shift=    0.000
 RMSDP=2.34D-06 MaxDP=4.41D-04 DE=-6.37D-04 OVMax= 2.53D-04

 Cycle   8  Pass 1  IDiag  1:
 RMSU=  5.50D-06    CP:  1.00D+00
 E= -5017.23569978380     Delta-E=       -0.000001909790 Rises=F Damp=F
 DIIS: error= 1.30D-05 at cycle   2 NSaved=   2.
 NSaved= 2 IEnMin= 2 EnMin= -5017.23569978380     IErMin= 2 ErrMin= 1.30D-05
 ErrMax= 1.30D-05  0.00D+00 EMaxC= 1.00D-01 BMatC= 2.55D-07 BMatP= 1.92D-06
 IDIUse=1 WtCom= 1.00D+00 WtEn= 0.00D+00
 Coeff-Com:  0.165D+00 0.835D+00
 Coeff:      0.165D+00 0.835D+00
 Gap=     0.235 Goal=   None    Shift=    0.000
 RMSDP=8.03D-07 MaxDP=1.11D-04 DE=-1.91D-06 OVMax= 1.22D-04

 Cycle   9  Pass 1  IDiag  1:
 RMSU=  8.02D-07    CP:  1.00D+00  9.96D-01
 E= -5017.23569980452     Delta-E=       -0.000000020722 Rises=F Damp=F
 DIIS: error= 1.33D-05 at cycle   3 NSaved=   3.
 NSaved= 3 IEnMin= 3 EnMin= -5017.23569980452     IErMin= 2 ErrMin= 1.30D-05
 ErrMax= 1.33D-05  0.00D+00 EMaxC= 1.00D-01 BMatC= 2.36D-07 BMatP= 2.55D-07
 IDIUse=1 WtCom= 1.00D+00 WtEn= 0.00D+00
 Coeff-Com: -0.891D-02 0.491D+00 0.517D+00
 Coeff:     -0.891D-02 0.491D+00 0.517D+00
 Gap=     0.235 Goal=   None    Shift=    0.000
 RMSDP=3.92D-07 MaxDP=6.10D-05 DE=-2.07D-08 OVMax= 6.16D-05

 Cycle  10  Pass 1  IDiag  1:
 RMSU=  1.09D-07    CP:  1.00D+00  1.01D+00  5.46D-01
 E= -5017.23569997377     Delta-E=       -0.000000169250 Rises=F Damp=F
 DIIS: error= 9.21D-07 at cycle   4 NSaved=   4.
 NSaved= 4 IEnMin= 4 EnMin= -5017.23569997377     IErMin= 4 ErrMin= 9.21D-07
 ErrMax= 9.21D-07  0.00D+00 EMaxC= 1.00D-01 BMatC= 1.03D-09 BMatP= 2.36D-07
 IDIUse=1 WtCom= 1.00D+00 WtEn= 0.00D+00
 Coeff-Com: -0.507D-02 0.203D+00 0.221D+00 0.581D+00
 Coeff:     -0.507D-02 0.203D+00 0.221D+00 0.581D+00
 Gap=     0.235 Goal=   None    Shift=    0.000
 RMSDP=4.28D-08 MaxDP=5.45D-06 DE=-1.69D-07 OVMax= 6.86D-06

 Cycle  11  Pass 1  IDiag  1:
 RMSU=  3.57D-08    CP:  1.00D+00  1.01D+00  5.44D-01  7.95D-01
 E= -5017.23569997475     Delta-E=       -0.000000000980 Rises=F Damp=F
 DIIS: error= 1.89D-07 at cycle   5 NSaved=   5.
 NSaved= 5 IEnMin= 5 EnMin= -5017.23569997475     IErMin= 5 ErrMin= 1.89D-07
 ErrMax= 1.89D-07  0.00D+00 EMaxC= 1.00D-01 BMatC= 7.66D-11 BMatP= 1.03D-09
 IDIUse=1 WtCom= 1.00D+00 WtEn= 0.00D+00
 Coeff-Com: -0.111D-02 0.312D-01 0.354D-01 0.228D+00 0.706D+00
 Coeff:     -0.111D-02 0.312D-01 0.354D-01 0.228D+00 0.706D+00
 Gap=     0.235 Goal=   None    Shift=    0.000
 RMSDP=1.01D-08 MaxDP=1.35D-06 DE=-9.80D-10 OVMax= 1.21D-06

 Cycle  12  Pass 1  IDiag  1:
 RMSU=  8.49D-09    CP:  1.00D+00  1.02D+00  5.45D-01  8.41D-01  9.61D-01
 E= -5017.23569997480     Delta-E=       -0.000000000055 Rises=F Damp=F
 DIIS: error= 7.54D-08 at cycle   6 NSaved=   6.
 NSaved= 6 IEnMin= 6 EnMin= -5017.23569997480     IErMin= 6 ErrMin= 7.54D-08
 ErrMax= 7.54D-08  0.00D+00 EMaxC= 1.00D-01 BMatC= 1.05D-11 BMatP= 7.66D-11
 IDIUse=1 WtCom= 1.00D+00 WtEn= 0.00D+00
 Coeff-Com:  0.107D-03-0.103D-01-0.105D-01 0.363D-01 0.322D+00 0.662D+00
 Coeff:      0.107D-03-0.103D-01-0.105D-01 0.363D-01 0.322D+00 0.662D+00
 Gap=     0.235 Goal=   None    Shift=    0.000
 RMSDP=3.80D-09 MaxDP=4.46D-07 DE=-5.46D-11 OVMax= 5.76D-07

 SCF Done:  E(RPBE1PBE) =  -5017.23569997     A.U. after   12 cycles
            NFock= 12  Conv=0.38D-08     -V/T= 2.0028
 KE= 5.003247331031D+03 PE=-2.445604417079D+04 EE= 8.191292764902D+03
 Leave Link  502 at Thu May  3 10:40:03 2018, MaxMem= 14763950080 cpu:     10146.3
 (Enter /cm/shared/gaussian/g09.e01/intel64-sandybridge/g09/l601.exe)
 Copying SCF densities to generalized density rwf, IOpCl= 0 IROHF=0.

 **********************************************************************

            Population analysis using the SCF density.

 **********************************************************************

 Alpha  occ. eigenvalues -- -483.15732 -62.56061 -56.33300 -56.33287 -56.33281
 Alpha  occ. eigenvalues --  -19.20425 -19.17296 -19.16420 -19.16392 -19.15981
 Alpha  occ. eigenvalues --  -19.15277 -19.15192 -19.14144 -19.13905 -19.13110
 Alpha  occ. eigenvalues --  -19.12941 -19.12886 -19.12759 -19.12401 -19.12326
 Alpha  occ. eigenvalues --  -19.12323 -19.12090 -19.11943 -19.10929 -19.10867
 Alpha  occ. eigenvalues --  -19.10735 -19.10484 -19.10355 -19.09377 -19.09282
 Alpha  occ. eigenvalues --  -19.09116 -19.08911 -19.08816 -19.08571 -19.06766
 Alpha  occ. eigenvalues --  -19.06208 -19.06126  -8.66416  -6.46774  -6.46718
 Alpha  occ. eigenvalues --   -6.46683  -2.55054  -2.55040  -2.55013  -2.54966
 Alpha  occ. eigenvalues --   -2.54964  -1.02958  -1.00500  -0.99146  -0.98862
 Alpha  occ. eigenvalues --   -0.98800  -0.97765  -0.97356  -0.97234  -0.96344
 Alpha  occ. eigenvalues --   -0.96242  -0.95826  -0.95473  -0.95238  -0.95028
 Alpha  occ. eigenvalues --   -0.94841  -0.94591  -0.94446  -0.94353  -0.93577
 Alpha  occ. eigenvalues --   -0.93274  -0.93160  -0.92913  -0.92882  -0.92028
 Alpha  occ. eigenvalues --   -0.91935  -0.91771  -0.91440  -0.91337  -0.90990
 Alpha  occ. eigenvalues --   -0.89261  -0.88697  -0.88462  -0.66266  -0.53082
 Alpha  occ. eigenvalues --   -0.52065  -0.50666  -0.50101  -0.49050  -0.48515
 Alpha  occ. eigenvalues --   -0.48263  -0.47931  -0.47047  -0.46624  -0.46496
 Alpha  occ. eigenvalues --   -0.46410  -0.46226  -0.45986  -0.45794  -0.45603
 Alpha  occ. eigenvalues --   -0.45293  -0.45180  -0.44666  -0.44487  -0.44293
 Alpha  occ. eigenvalues --   -0.43545  -0.43228  -0.42702  -0.42676  -0.42438
 Alpha  occ. eigenvalues --   -0.42180  -0.42117  -0.41652  -0.40094  -0.39734
 Alpha  occ. eigenvalues --   -0.39567  -0.39152  -0.38726  -0.37266  -0.35827
 Alpha  occ. eigenvalues --   -0.35320  -0.34550  -0.34190  -0.33719  -0.33402
 Alpha  occ. eigenvalues --   -0.32870  -0.32734  -0.32402  -0.32219  -0.31930
 Alpha  occ. eigenvalues --   -0.31369  -0.30862  -0.30612  -0.30521  -0.30436
 Alpha  occ. eigenvalues --   -0.30063  -0.29701  -0.29564  -0.29233  -0.29143
 Alpha  occ. eigenvalues --   -0.28712  -0.28602  -0.28379  -0.28071  -0.27869
 Alpha  occ. eigenvalues --   -0.27762  -0.27695  -0.27137  -0.26812  -0.26726
 Alpha  occ. eigenvalues --   -0.25867  -0.25667  -0.25372  -0.25140  -0.24935
 Alpha  occ. eigenvalues --   -0.24882  -0.24736  -0.24375  -0.24241  -0.23787
 Alpha  occ. eigenvalues --   -0.23229  -0.23226  -0.22861  -0.22776  -0.22614
 Alpha  occ. eigenvalues --   -0.22478  -0.22262  -0.21730  -0.21618  -0.21406
 Alpha  occ. eigenvalues --   -0.21296  -0.21079  -0.20245  -0.20202  -0.20070
 Alpha  occ. eigenvalues --   -0.19870  -0.19805  -0.19783  -0.19581  -0.19404
 Alpha  occ. eigenvalues --   -0.17536  -0.17164  -0.16856
 Alpha virt. eigenvalues --    0.06613   0.08315   0.09664   0.10062   0.11414
 Alpha virt. eigenvalues --    0.12859   0.13655   0.14344   0.14940   0.15149
 Alpha virt. eigenvalues --    0.16009   0.16151   0.16655   0.16997   0.17486
 Alpha virt. eigenvalues --    0.18100   0.18352   0.18694   0.18871   0.19469
 Alpha virt. eigenvalues --    0.19652   0.20224   0.20527   0.20864   0.21393
 Alpha virt. eigenvalues --    0.22258   0.22296   0.23225   0.23893   0.24621
 Alpha virt. eigenvalues --    0.24672   0.25167   0.25653   0.25917   0.26681
 Alpha virt. eigenvalues --    0.26956   0.27311   0.28050   0.28609   0.29352
 Alpha virt. eigenvalues --    0.29706   0.29858   0.29978   0.30290   0.30836
 Alpha virt. eigenvalues --    0.31321   0.32153   0.32445   0.32869   0.33120
 Alpha virt. eigenvalues --    0.33607   0.34390   0.34728   0.34903   0.35687
 Alpha virt. eigenvalues --    0.35962   0.36363   0.36679   0.37552   0.38277
 Alpha virt. eigenvalues --    0.38781   0.39259   0.40940   0.41433   0.56349
 Alpha virt. eigenvalues --    0.57978   0.59227   0.59767   0.60508   0.61545
 Alpha virt. eigenvalues --    0.61781   0.62745   0.63120   0.63572   0.63818
 Alpha virt. eigenvalues --    0.64017   0.64238   0.64582   0.64820   0.65446
 Alpha virt. eigenvalues --    0.65682   0.66036   0.66367   0.66696   0.66994
 Alpha virt. eigenvalues --    0.67398   0.67837   0.67910   0.68291   0.68598
 Alpha virt. eigenvalues --    0.69024   0.69089   0.69154   0.69819   0.69946
 Alpha virt. eigenvalues --    0.70086   0.70383   0.70769   0.70868   0.71434
 Alpha virt. eigenvalues --    0.71643   0.71724   0.72214   0.72615   0.72879
 Alpha virt. eigenvalues --    0.73140   0.73300   0.73436   0.73952   0.74357
 Alpha virt. eigenvalues --    0.74405   0.74720   0.75476   0.75960   0.76717
 Alpha virt. eigenvalues --    0.76859   0.77063   0.77654   0.78146   0.78723
 Alpha virt. eigenvalues --    0.79412   0.79834   0.79957   0.80631   0.81474
 Alpha virt. eigenvalues --    0.82195   0.82466   0.83158   0.83780   0.84339
 Alpha virt. eigenvalues --    0.84642   0.84941   0.85917   0.87475   0.88531
 Alpha virt. eigenvalues --    0.91103   0.92453   0.93749   0.94062   0.94370
 Alpha virt. eigenvalues --    0.95437   0.96442   0.97078   0.97513   0.97995
 Alpha virt. eigenvalues --    0.98442   0.98882   0.99062   0.99229   0.99549
 Alpha virt. eigenvalues --    0.99838   1.00167   1.00240   1.00476   1.01195
 Alpha virt. eigenvalues --    1.01466   1.01667   1.02050   1.02383   1.02703
 Alpha virt. eigenvalues --    1.02841   1.03468   1.03703   1.04324   1.04780
 Alpha virt. eigenvalues --    1.05190   1.05250   1.05562   1.05695   1.06156
 Alpha virt. eigenvalues --    1.06327   1.06422   1.06697   1.06920   1.07181
 Alpha virt. eigenvalues --    1.07606   1.07786   1.07947   1.08112   1.08370
 Alpha virt. eigenvalues --    1.08849   1.08871   1.09278   1.09704   1.10037
 Alpha virt. eigenvalues --    1.10152   1.10723   1.11123   1.11562   1.11948
 Alpha virt. eigenvalues --    1.12071   1.12267   1.12468   1.12758   1.13342
 Alpha virt. eigenvalues --    1.13649   1.14200   1.14447   1.14603   1.14716
 Alpha virt. eigenvalues --    1.15094   1.15883   1.16278   1.16761   1.16994
 Alpha virt. eigenvalues --    1.17709   1.17979   1.18163   1.18440   1.18644
 Alpha virt. eigenvalues --    1.18986   1.19393   1.19654   1.20163   1.20271
 Alpha virt. eigenvalues --    1.20860   1.21455   1.21821   1.22244   1.22406
 Alpha virt. eigenvalues --    1.23122   1.23789   1.24017   1.24760   1.24935
 Alpha virt. eigenvalues --    1.25570   1.26053   1.26195   1.26662   1.27621
 Alpha virt. eigenvalues --    1.27827   1.28295   1.28447   1.28773   1.29062
 Alpha virt. eigenvalues --    1.29254   1.29751   1.29943   1.30453   1.30824
 Alpha virt. eigenvalues --    1.31040   1.31262   1.31634   1.32008   1.32219
 Alpha virt. eigenvalues --    1.32424   1.32473   1.32989   1.33185   1.33605
 Alpha virt. eigenvalues --    1.33690   1.33836   1.34083   1.34808   1.34990
 Alpha virt. eigenvalues --    1.35159   1.35446   1.35827   1.35910   1.36520
 Alpha virt. eigenvalues --    1.36699   1.36944   1.37383   1.37791   1.37937
 Alpha virt. eigenvalues --    1.38037   1.38413   1.38721   1.38989   1.39333
 Alpha virt. eigenvalues --    1.39692   1.40174   1.40713   1.41165   1.41707
 Alpha virt. eigenvalues --    1.42243   1.42606   1.43227   1.43516   1.43750
 Alpha virt. eigenvalues --    1.43782   1.44620   1.44664   1.45044   1.45931
 Alpha virt. eigenvalues --    1.46198   1.46952   1.47215   1.47667   1.48397
 Alpha virt. eigenvalues --    1.48573   1.48657   1.49283   1.49432   1.49933
 Alpha virt. eigenvalues --    1.50347   1.50746   1.51314   1.52112   1.52530
 Alpha virt. eigenvalues --    1.52974   1.53324   1.53693   1.53882   1.54752
 Alpha virt. eigenvalues --    1.55088   1.55653   1.55967   1.56339   1.56586
 Alpha virt. eigenvalues --    1.57128   1.57253   1.58019   1.58399   1.58714
 Alpha virt. eigenvalues --    1.59041   1.59397   1.59924   1.60931   1.61399
 Alpha virt. eigenvalues --    1.61914   1.62808   1.62978   1.63580   1.64642
 Alpha virt. eigenvalues --    1.65343   1.65506   1.66459   1.67217   1.68479
 Alpha virt. eigenvalues --    1.68904   1.69558   1.71595   1.72197   1.72423
 Alpha virt. eigenvalues --    1.73923   1.74218   1.74566   1.75600   1.76124
 Alpha virt. eigenvalues --    1.76428   1.76877   1.77051   1.77511   1.77536
 Alpha virt. eigenvalues --    1.77966   1.78602   1.78949   1.79365   1.79591
 Alpha virt. eigenvalues --    1.80202   1.80347   1.80467   1.81008   1.81592
 Alpha virt. eigenvalues --    1.82049   1.82428   1.83048   1.83431   1.83722
 Alpha virt. eigenvalues --    1.83836   1.84050   1.84295   1.84757   1.85059
 Alpha virt. eigenvalues --    1.85808   1.86579   1.86602   1.87608   1.87908
 Alpha virt. eigenvalues --    1.88650   1.89109   1.89771   1.89875   1.90631
 Alpha virt. eigenvalues --    1.90821   1.91792   1.92567   1.92895   1.93831
 Alpha virt. eigenvalues --    1.94552   1.95109   1.95786   1.97792   1.98240
 Alpha virt. eigenvalues --    1.98971   2.00286   2.01272   2.02844   2.04073
 Alpha virt. eigenvalues --    2.06022   2.09176   2.10963   2.16646   2.18697
 Alpha virt. eigenvalues --    2.19441   2.19748   2.19851   2.20910   2.21230
 Alpha virt. eigenvalues --    2.21959   2.22709   2.22854   2.23493   2.23598
 Alpha virt. eigenvalues --    2.23827   2.23868   2.24345   2.24674   2.24852
 Alpha virt. eigenvalues --    2.25603   2.25696   2.26119   2.26669   2.26701
 Alpha virt. eigenvalues --    2.27121   2.27594   2.27877   2.28007   2.28233
 Alpha virt. eigenvalues --    2.28551   2.28818   2.29033   2.29188   2.29734
 Alpha virt. eigenvalues --    2.30131   2.30312   2.30933   2.31141   2.31777
 Alpha virt. eigenvalues --    2.32160   2.32911   2.33263   2.33960   2.34479
 Alpha virt. eigenvalues --    2.34973   2.36168   2.36844   2.37233   2.37407
 Alpha virt. eigenvalues --    2.38165   2.39925   2.40164   2.41577   2.42676
 Alpha virt. eigenvalues --    2.43424   2.44865   2.46200   2.46649   2.47530
 Alpha virt. eigenvalues --    2.48300   2.50697   2.51914   2.53227   2.56464
 Alpha virt. eigenvalues --    2.59742   2.61149   2.92612   2.95875   2.96299
 Alpha virt. eigenvalues --    2.97740   2.98359   2.98581   2.99251   2.99578
 Alpha virt. eigenvalues --    3.00048   3.00239   3.00340   3.00458   3.00816
 Alpha virt. eigenvalues --    3.01401   3.01506   3.01589   3.01799   3.01975
 Alpha virt. eigenvalues --    3.02140   3.02334   3.02433   3.02577   3.02628
 Alpha virt. eigenvalues --    3.02676   3.02861   3.03271   3.03456   3.03565
 Alpha virt. eigenvalues --    3.03781   3.04092   3.04255   3.04675   3.04790
 Alpha virt. eigenvalues --    3.04996   3.05139   3.05582   3.05679   3.05977
 Alpha virt. eigenvalues --    3.06216   3.06403   3.06507   3.06593   3.06775
 Alpha virt. eigenvalues --    3.06850   3.07023   3.07080   3.07178   3.07554
 Alpha virt. eigenvalues --    3.07855   3.08192   3.09015   3.09347   3.09366
 Alpha virt. eigenvalues --    3.09940   3.10009   3.10759   3.11361   3.11652
 Alpha virt. eigenvalues --    3.11837   3.12858   3.13373   3.14087   3.14601
 Alpha virt. eigenvalues --    3.15870   3.18198   3.20063   3.20314   3.20456
 Alpha virt. eigenvalues --    3.20673   3.21678   3.22029   3.22620   3.22751
 Alpha virt. eigenvalues --    3.23035   3.23172   3.23455   3.23680   3.24114
 Alpha virt. eigenvalues --    3.24202   3.24857   3.25125   3.25484   3.25666
 Alpha virt. eigenvalues --    3.25918   3.26267   3.26638   3.27122   3.27358
 Alpha virt. eigenvalues --    3.27725   3.28294   3.28913   3.29367   3.29857
 Alpha virt. eigenvalues --    3.29869   3.30825   3.31840   3.54051   3.54445
 Alpha virt. eigenvalues --    3.56551   3.56768   3.57262   3.57555   3.58372
 Alpha virt. eigenvalues --    3.58438   3.58926   3.60196   3.60643   3.60870
 Alpha virt. eigenvalues --    3.61163   3.62161   3.62611   3.62787   3.63077
 Alpha virt. eigenvalues --    3.63412   3.63851   3.64144   3.65080   3.65266
 Alpha virt. eigenvalues --    3.65381   3.66142   3.66635   3.67520   3.68275
 Alpha virt. eigenvalues --    3.68711   3.70277   3.73291   3.74810   3.75349
 Alpha virt. eigenvalues --    3.79686   3.82025   3.84046   3.84106   3.85595
 Alpha virt. eigenvalues --    3.85962   3.86764   3.87061   3.87602   3.87962
 Alpha virt. eigenvalues --    3.88694   3.89232   3.89484   3.89739   3.90079
 Alpha virt. eigenvalues --    3.90382   3.90934   3.91244   3.91758   3.92092
 Alpha virt. eigenvalues --    3.92697   3.93200   3.93846   3.94602   3.95468
 Alpha virt. eigenvalues --    3.96667   3.97406   3.98998   3.99464   4.00169
 Alpha virt. eigenvalues --    4.02180   4.05062
          Condensed to atoms (all electrons):
 Mulliken charges:
               1
     1  Br  -0.717044
     2  O   -0.291451
     3  H    0.127461
     4  H    0.140483
     5  O   -0.268425
     6  H    0.141354
     7  H    0.141088
     8  O   -0.274097
     9  H    0.137793
    10  H    0.143176
    11  O   -0.268891
    12  H    0.149782
    13  H    0.157313
    14  O   -0.283582
    15  H    0.129922
    16  H    0.130921
    17  O   -0.268633
    18  H    0.135173
    19  H    0.137100
    20  O   -0.225434
    21  H    0.155507
    22  H    0.146270
    23  O   -0.294398
    24  H    0.158390
    25  H    0.119642
    26  O   -0.277416
    27  H    0.139252
    28  H    0.133851
    29  O   -0.267269
    30  H    0.117913
    31  H    0.118315
    32  O   -0.273870
    33  H    0.151941
    34  H    0.128518
    35  O   -0.281874
    36  H    0.137722
    37  H    0.116213
    38  O   -0.296345
    39  H    0.115338
    40  H    0.129888
    41  O   -0.245055
    42  H    0.140329
    43  H    0.121625
    44  O   -0.309980
    45  H    0.100748
    46  H    0.108751
    47  O   -0.287431
    48  H    0.149126
    49  H    0.114188
    50  O   -0.263612
    51  H    0.117813
    52  H    0.125562
    53  O   -0.278667
    54  H    0.130292
    55  H    0.137724
    56  O   -0.255001
    57  H    0.118731
    58  H    0.138584
    59  O   -0.276301
    60  H    0.141698
    61  H    0.126485
    62  O   -0.271361
    63  H    0.151182
    64  H    0.147094
    65  O   -0.306423
    66  H    0.111716
    67  H    0.144937
    68  O   -0.277604
    69  H    0.133946
    70  H    0.115848
    71  O   -0.218328
    72  H    0.163073
    73  H    0.145520
    74  O   -0.259049
    75  H    0.151276
    76  H    0.138537
    77  O   -0.302705
    78  H    0.123823
    79  H    0.123590
    80  O   -0.299029
    81  H    0.143687
    82  H    0.132883
    83  O   -0.259410
    84  H    0.131804
    85  H    0.133074
    86  O   -0.289021
    87  H    0.119905
    88  H    0.139215
    89  O   -0.313369
    90  H    0.131488
    91  H    0.118653
    92  O   -0.272161
    93  H    0.122486
    94  H    0.144370
    95  O   -0.278199
    96  H    0.131591
    97  H    0.139756
 Sum of Mulliken charges =  -1.00000
 Mulliken charges with hydrogens summed into heavy atoms:
               1
     1  Br  -0.717044
     2  O   -0.023507
     5  O    0.014017
     8  O    0.006872
    11  O    0.038204
    14  O   -0.022740
    17  O    0.003641
    20  O    0.076343
    23  O   -0.016367
    26  O   -0.004313
    29  O   -0.031041
    32  O    0.006589
    35  O   -0.027940
    38  O   -0.051120
    41  O    0.016899
    44  O   -0.100481
    47  O   -0.024117
    50  O   -0.020238
    53  O   -0.010650
    56  O    0.002313
    59  O   -0.008118
    62  O    0.026915
    65  O   -0.049769
    68  O   -0.027810
    71  O    0.090266
    74  O    0.030764
    77  O   -0.055292
    80  O   -0.022460
    83  O    0.005468
    86  O   -0.029901
    89  O   -0.063227
    92  O   -0.005305
    95  O   -0.006852
         Mulliken charges condensed to fragments:
      1     -0.717044
      2     -0.282956
 Electronic spatial extent (au):  <R**2>=        1535848.7739
 Charge=             -1.0000 electrons
 Dipole moment (field-independent basis, Debye):
    X=            -79.5209    Y=            -90.9946    Z=            -92.6840  Tot=            152.2955
 Quadrupole moment (field-independent basis, Debye-Ang):
   XX=          -1532.4962   YY=          -2020.9820   ZZ=          -2033.2016
   XY=          -1496.8432   XZ=          -1458.8295   YZ=          -1771.7169
 Traceless Quadrupole moment (field-independent basis, Debye-Ang):
   XX=            329.7304   YY=           -158.7554   ZZ=           -170.9750
   XY=          -1496.8432   XZ=          -1458.8295   YZ=          -1771.7169
 Octapole moment (field-independent basis, Debye-Ang**2):
  XXX=         -34419.8056  YYY=         -50269.2498  ZZZ=         -49143.8598  XYY=         -33726.0424
  XXY=         -28589.7517  XXZ=         -26800.8179  XZZ=         -31432.5540  YZZ=         -39379.0257
  YYZ=         -39929.2399  XYZ=         -27704.0369
 Hexadecapole moment (field-independent basis, Debye-Ang**3):
 XXXX=        -862357.8962 YYYY=       -1325662.5999 ZZZZ=       -1257994.3443 XXXY=        -636381.6694
 XXXZ=        -586420.9012 YYYX=        -859815.7939 YYYZ=       -1007294.8466 ZZZX=        -769263.4978
 ZZZY=        -962941.3634 XXYY=        -639985.8015 XXZZ=        -559520.2426 YYZZ=        -889429.3853
 XXYZ=        -503164.4187 YYXZ=        -639063.2057 ZZXY=        -606239.4918
 N-N= 6.244268374881D+03 E-N=-2.445604422068D+04  KE= 5.003247331031D+03
 No NMR shielding tensors so no spin-rotation constants.
 Leave Link  601 at Thu May  3 10:40:04 2018, MaxMem= 14763950080 cpu:        71.0
 (Enter /cm/shared/gaussian/g09.e01/intel64-sandybridge/g09/l701.exe)
 Compute integral first derivatives.
 ... and contract with generalized density number  0.
 Leave Link  701 at Thu May  3 10:40:07 2018, MaxMem= 14763950080 cpu:       155.3
 (Enter /cm/shared/gaussian/g09.e01/intel64-sandybridge/g09/l702.exe)
 L702 exits ... SP integral derivatives will be done elsewhere.
 Leave Link  702 at Thu May  3 10:40:07 2018, MaxMem= 14763950080 cpu:         2.5
 (Enter /cm/shared/gaussian/g09.e01/intel64-sandybridge/g09/l703.exe)
 Compute integral first derivatives, UseDBF=F ICtDFT=           0.
 Integral derivatives from FoFJK, PRISM(SPDF).
 Calling FoFJK, ICntrl=      2127 FMM=T ISym2X=0 I1Cent= 0 IOpClX= 0 NMat=1 NMatS=1 NMatT=0.
 FoFJK:  IHMeth= 1 ICntrl=    2127 DoSepK=F KAlg= 0 I1Cent=   0 FoldK=F
 IRaf=         0 NMat=   1 IRICut=       1 DoRegI=T DoRafI=F ISym2E= 0.
 FoFCou: FMM=T IPFlag=           0 FMFlag=      100000 FMFlg1=        2001
         NFxFlg=           0 DoJE=F BraDBF=F KetDBF=F FulRan=T
         wScrn=  0.000000 ICntrl=    2127 IOpCl=  0 I1Cent=           0 NGrid=           0
         NMat0=    1 NMatS0=      1 NMatT0=    0 NMatD0=    1 NMtDS0=    0 NMtDT0=    0
 Symmetry not used in FoFCou.
 FMM levels:  10  Number of levels for PrismC:   9
 Leave Link  703 at Thu May  3 10:40:28 2018, MaxMem= 14763950080 cpu:      1327.0
 (Enter /cm/shared/gaussian/g09.e01/intel64-sandybridge/g09/l716.exe)
 Dipole        =-3.12859339D+01-3.58000363D+01-3.64646981D+01
 Cartesian Forces:  Max     0.030507932 RMS     0.009345333
 Leave Link  716 at Thu May  3 10:40:28 2018, MaxMem= 14763950080 cpu:         4.7
 (Enter /cm/shared/gaussian/g09.e01/intel64-sandybridge/g09/l122.exe)
 CPIOFr:  IOpCl= 0 IRwI=-1 IRwCP=  731 ICalc= -1 LCPTot=     1005244 Len1MO=     2550559 IndFrg=     1005244
 CPIOFr:  IOpCl= 0 IRwI=-1 IRwCP=  731 ICalc=  0 LCPTot=     1005244 Len1MO=     2550559 IndFrg=     3555803
 Counterpoise: doing DCBS calculation for fragment   1 NewBq=T
 Leave Link  122 at Thu May  3 10:40:28 2018, MaxMem= 14763950080 cpu:         9.2
 (Enter /cm/shared/gaussian/g09.e01/intel64-sandybridge/g09/l301.exe)
 Basis read from rwf:  (5D, 7F)
 No pseudopotential information found on rwf file.
   795 basis functions,  1651 primitive gaussians,   829 cartesian basis functions
    18 alpha electrons       18 beta electrons
       nuclear repulsion energy         0.0000000000 Hartrees.
 IExCor= 1009 DFT=T Ex+Corr=PBE1PBE ExCW=0 ScaHFX=  0.250000
 ScaDFX=  0.750000  0.750000  1.000000  1.000000 ScalE2=  1.000000  1.000000
 IRadAn=      0 IRanWt=     -1 IRanGd=            0 ICorTp=0 IEmpDi=  4
 NAtoms=   97 NActive=   97 NUniq=   97 SFac= 1.00D+00 NAtFMM=   60 NAOKFM=T Big=T
 Integral buffers will be    131072 words long.
 Raffenetti 2 integral format.
 Two-electron integral symmetry is turned off.
 No density basis found on file   718.
 Leave Link  301 at Thu May  3 10:40:28 2018, MaxMem= 14763950080 cpu:         7.0
 (Enter /cm/shared/gaussian/g09.e01/intel64-sandybridge/g09/l302.exe)
 NPDir=0 NMtPBC=     1 NCelOv=     1 NCel=       1 NClECP=     1 NCelD=      1
         NCelK=      1 NCelE2=     1 NClLst=     1 CellRange=     0.0.
 One-electron integrals computed using PRISM.
 NBasis=   795 RedAO= T EigKep=  1.33D-02  NBF=   795
 NBsUse=   795 1.00D-06 EigRej= -1.00D+00 NBFU=   795
 Precomputing XC quadrature grid using
 IXCGrd= 4 IRadAn=           0 IRanWt=          -1 IRanGd=           0 AccXCQ= 0.00D+00.
 Generated NRdTot=       0 NPtTot=           0 NUsed=           0 NTot=          32
 NSgBfM=   730   731   731   731   731 MxSgAt=    97 MxSgA2=    97.
 Leave Link  302 at Thu May  3 10:40:33 2018, MaxMem= 14763950080 cpu:       271.5
 (Enter /cm/shared/gaussian/g09.e01/intel64-sandybridge/g09/l303.exe)
 DipDrv:  MaxL=1.
 Leave Link  303 at Thu May  3 10:40:35 2018, MaxMem= 14763950080 cpu:       132.3
 (Enter /cm/shared/gaussian/g09.e01/intel64-sandybridge/g09/l401.exe)
 ExpMin= 1.22D-01 ExpMax= 6.40D+05 ExpMxC= 6.18D+03 IAcc=2 IRadAn=         4 AccDes= 0.00D+00
 Harris functional with IExCor= 1009 and IRadAn=       4 diagonalized for initial guess.
 HarFok:  IExCor= 1009 AccDes= 0.00D+00 IRadAn=         4 IDoV= 1 UseB2=F ITyADJ=14
 ICtDFT=  3500011 ScaDFX=  1.000000  1.000000  1.000000  1.000000
 FoFCou: FMM=F IPFlag=           0 FMFlag=      100000 FMFlg1=        2001
         NFxFlg=           0 DoJE=T BraDBF=F KetDBF=T FulRan=T
         wScrn=  0.000000 ICntrl=     500 IOpCl=  0 I1Cent=   200000004 NGrid=           0
         NMat0=    1 NMatS0=      1 NMatT0=    0 NMatD0=    1 NMtDS0=    0 NMtDT0=    0
 Symmetry not used in FoFCou.
 Harris En= -2574.02006800948    
 JPrj=0 DoOrth=F DoCkMO=F.
 Leave Link  401 at Thu May  3 10:40:39 2018, MaxMem= 14763950080 cpu:       292.0
 (Enter /cm/shared/gaussian/g09.e01/intel64-sandybridge/g09/l502.exe)
 Closed shell SCF:
 Using DIIS extrapolation, IDIIS=  1040.
 Two-electron integral symmetry not used.
 IVT=     2138497 IEndB=     2138497 NGot= 14763950080 MDV= 14762516294
 LenX= 14762516294 LenY= 14761828224
 Requested convergence on RMS density matrix=1.00D-08 within 128 cycles.
 Requested convergence on MAX density matrix=1.00D-06.
 Requested convergence on             energy=1.00D-06.
 No special actions if energy rises.
 Fock matrices will be formed incrementally for  20 cycles.
 Integral accuracy reduced to 1.0D-05 until final iterations.

 Cycle   1  Pass 0  IDiag  1:
 FoFJK:  IHMeth= 1 ICntrl=       0 DoSepK=F KAlg= 0 I1Cent=   0 FoldK=F
 IRaf= 850000000 NMat=   1 IRICut=       1 DoRegI=T DoRafI=F ISym2E= 0.
 FoFCou: FMM=T IPFlag=           0 FMFlag=      100000 FMFlg1=        2001
         NFxFlg=           0 DoJE=F BraDBF=F KetDBF=F FulRan=T
         wScrn=  0.000000 ICntrl=       0 IOpCl=  0 I1Cent=           0 NGrid=           0
         NMat0=    1 NMatS0=      1 NMatT0=    0 NMatD0=    1 NMtDS0=    0 NMtDT0=    0
 Symmetry not used in FoFCou.
 FMM levels:  10  Number of levels for PrismC:   9
 E= -2573.87953151150    
 DIIS: error= 1.04D-02 at cycle   1 NSaved=   1.
 NSaved= 1 IEnMin= 1 EnMin= -2573.87953151150     IErMin= 1 ErrMin= 1.04D-02
 ErrMax= 1.04D-02  0.00D+00 EMaxC= 1.00D-01 BMatC= 3.86D-02 BMatP= 3.86D-02
 IDIUse=3 WtCom= 8.96D-01 WtEn= 1.04D-01
 Coeff-Com:  0.100D+01
 Coeff-En:   0.100D+01
 Coeff:      0.100D+01
 Gap=     0.179 Goal=   None    Shift=    0.000
 GapD=    0.179 DampG=1.000 DampE=0.500 DampFc=0.5000 IDamp=-1.
 Damping current iteration by 5.00D-01
 RMSDP=4.75D-04 MaxDP=6.95D-02              OVMax= 1.53D-01

 Cycle   2  Pass 0  IDiag  1:
 RMSU=  2.35D-04    CP:  9.95D-01
 E= -2573.89659092456     Delta-E=       -0.017059413062 Rises=F Damp=T
 DIIS: error= 6.41D-03 at cycle   2 NSaved=   2.
 NSaved= 2 IEnMin= 2 EnMin= -2573.89659092456     IErMin= 2 ErrMin= 6.41D-03
 ErrMax= 6.41D-03  0.00D+00 EMaxC= 1.00D-01 BMatC= 9.19D-03 BMatP= 3.86D-02
 IDIUse=3 WtCom= 9.36D-01 WtEn= 6.41D-02
 Coeff-Com: -0.557D+00 0.156D+01
 Coeff-En:   0.000D+00 0.100D+01
 Coeff:     -0.522D+00 0.152D+01
 Gap=     0.196 Goal=   None    Shift=    0.000
 RMSDP=1.71D-04 MaxDP=4.18D-02 DE=-1.71D-02 OVMax= 7.05D-02

 Cycle   3  Pass 0  IDiag  1:
 RMSU=  1.52D-04    CP:  9.94D-01  1.34D+00
 E= -2573.91024153359     Delta-E=       -0.013650609028 Rises=F Damp=F
 DIIS: error= 3.30D-03 at cycle   3 NSaved=   3.
 NSaved= 3 IEnMin= 3 EnMin= -2573.91024153359     IErMin= 3 ErrMin= 3.30D-03
 ErrMax= 3.30D-03  0.00D+00 EMaxC= 1.00D-01 BMatC= 2.72D-03 BMatP= 9.19D-03
 IDIUse=3 WtCom= 9.67D-01 WtEn= 3.30D-02
 Coeff-Com: -0.303D+00 0.721D+00 0.583D+00
 Coeff-En:   0.000D+00 0.000D+00 0.100D+01
 Coeff:     -0.293D+00 0.697D+00 0.597D+00
 Gap=     0.178 Goal=   None    Shift=    0.000
 RMSDP=7.36D-05 MaxDP=1.83D-02 DE=-1.37D-02 OVMax= 2.24D-02

 Cycle   4  Pass 0  IDiag  1:
 RMSU=  8.45D-06    CP:  9.92D-01  1.52D+00  6.21D-01
 E= -2573.91322540112     Delta-E=       -0.002983867532 Rises=F Damp=F
 DIIS: error= 1.07D-04 at cycle   4 NSaved=   4.
 NSaved= 4 IEnMin= 4 EnMin= -2573.91322540112     IErMin= 4 ErrMin= 1.07D-04
 ErrMax= 1.07D-04  0.00D+00 EMaxC= 1.00D-01 BMatC= 1.59D-06 BMatP= 2.72D-03
 IDIUse=3 WtCom= 9.99D-01 WtEn= 1.07D-03
 Coeff-Com: -0.172D-01 0.329D-01 0.416D-01 0.943D+00
 Coeff-En:   0.000D+00 0.000D+00 0.000D+00 0.100D+01
 Coeff:     -0.172D-01 0.329D-01 0.416D-01 0.943D+00
 Gap=     0.180 Goal=   None    Shift=    0.000
 RMSDP=2.35D-06 MaxDP=4.44D-04 DE=-2.98D-03 OVMax= 6.91D-04

 Initial convergence to 1.0D-05 achieved.  Increase integral accuracy.
 Cycle   5  Pass 1  IDiag  1:
 E= -2573.91398154948     Delta-E=       -0.000756148360 Rises=F Damp=F
 DIIS: error= 1.30D-05 at cycle   1 NSaved=   1.
 NSaved= 1 IEnMin= 1 EnMin= -2573.91398154948     IErMin= 1 ErrMin= 1.30D-05
 ErrMax= 1.30D-05  0.00D+00 EMaxC= 1.00D-01 BMatC= 1.24D-07 BMatP= 1.24D-07
 IDIUse=1 WtCom= 1.00D+00 WtEn= 0.00D+00
 Coeff-Com:  0.100D+01
 Coeff:      0.100D+01
 Gap=     0.180 Goal=   None    Shift=    0.000
 RMSDP=2.35D-06 MaxDP=4.44D-04 DE=-7.56D-04 OVMax= 2.82D-04

 Cycle   6  Pass 1  IDiag  1:
 RMSU=  1.57D-06    CP:  1.00D+00
 E= -2573.91398177137     Delta-E=       -0.000000221888 Rises=F Damp=F
 DIIS: error= 6.97D-06 at cycle   2 NSaved=   2.
 NSaved= 2 IEnMin= 2 EnMin= -2573.91398177137     IErMin= 2 ErrMin= 6.97D-06
 ErrMax= 6.97D-06  0.00D+00 EMaxC= 1.00D-01 BMatC= 1.85D-08 BMatP= 1.24D-07
 IDIUse=1 WtCom= 1.00D+00 WtEn= 0.00D+00
 Coeff-Com:  0.203D+00 0.797D+00
 Coeff:      0.203D+00 0.797D+00
 Gap=     0.180 Goal=   None    Shift=    0.000
 RMSDP=2.93D-07 MaxDP=6.10D-05 DE=-2.22D-07 OVMax= 1.03D-04

 Cycle   7  Pass 1  IDiag  1:
 RMSU=  2.87D-07    CP:  1.00D+00  9.64D-01
 E= -2573.91398179115     Delta-E=       -0.000000019781 Rises=F Damp=F
 DIIS: error= 3.34D-06 at cycle   3 NSaved=   3.
 NSaved= 3 IEnMin= 3 EnMin= -2573.91398179115     IErMin= 3 ErrMin= 3.34D-06
 ErrMax= 3.34D-06  0.00D+00 EMaxC= 1.00D-01 BMatC= 4.48D-09 BMatP= 1.85D-08
 IDIUse=1 WtCom= 1.00D+00 WtEn= 0.00D+00
 Coeff-Com: -0.263D-01 0.313D+00 0.713D+00
 Coeff:     -0.263D-01 0.313D+00 0.713D+00
 Gap=     0.180 Goal=   None    Shift=    0.000
 RMSDP=1.07D-07 MaxDP=2.45D-05 DE=-1.98D-08 OVMax= 3.27D-05

 Cycle   8  Pass 1  IDiag  1:
 RMSU=  5.08D-08    CP:  1.00D+00  1.00D+00  7.50D-01
 E= -2573.91398179669     Delta-E=       -0.000000005541 Rises=F Damp=F
 DIIS: error= 4.14D-07 at cycle   4 NSaved=   4.
 NSaved= 4 IEnMin= 4 EnMin= -2573.91398179669     IErMin= 4 ErrMin= 4.14D-07
 ErrMax= 4.14D-07  0.00D+00 EMaxC= 1.00D-01 BMatC= 8.14D-11 BMatP= 4.48D-09
 IDIUse=1 WtCom= 1.00D+00 WtEn= 0.00D+00
 Coeff-Com: -0.111D-01 0.106D+00 0.263D+00 0.642D+00
 Coeff:     -0.111D-01 0.106D+00 0.263D+00 0.642D+00
 Gap=     0.180 Goal=   None    Shift=    0.000
 RMSDP=1.56D-08 MaxDP=3.20D-06 DE=-5.54D-09 OVMax= 5.31D-06

 Cycle   9  Pass 1  IDiag  1:
 RMSU=  1.26D-08    CP:  1.00D+00  1.00D+00  7.65D-01  8.52D-01
 E= -2573.91398179674     Delta-E=       -0.000000000050 Rises=F Damp=F
 DIIS: error= 7.19D-08 at cycle   5 NSaved=   5.
 NSaved= 5 IEnMin= 5 EnMin= -2573.91398179674     IErMin= 5 ErrMin= 7.19D-08
 ErrMax= 7.19D-08  0.00D+00 EMaxC= 1.00D-01 BMatC= 2.43D-12 BMatP= 8.14D-11
 IDIUse=1 WtCom= 1.00D+00 WtEn= 0.00D+00
 Coeff-Com:  0.402D-03-0.139D-01-0.291D-01 0.106D+00 0.936D+00
 Coeff:      0.402D-03-0.139D-01-0.291D-01 0.106D+00 0.936D+00
 Gap=     0.180 Goal=   None    Shift=    0.000
 RMSDP=3.50D-09 MaxDP=6.15D-07 DE=-5.00D-11 OVMax= 1.43D-06

 SCF Done:  E(RPBE1PBE) =  -2573.91398180     A.U. after    9 cycles
            NFock=  9  Conv=0.35D-08     -V/T= 2.0013
 KE= 2.570499647101D+03 PE=-6.162795254945D+03 EE= 1.018381626047D+03
 Leave Link  502 at Thu May  3 10:42:27 2018, MaxMem= 14763950080 cpu:      6760.6
 (Enter /cm/shared/gaussian/g09.e01/intel64-sandybridge/g09/l601.exe)
 Copying SCF densities to generalized density rwf, IOpCl= 0 IROHF=0.

 **********************************************************************

            Population analysis using the SCF density.

 **********************************************************************

 Alpha  occ. eigenvalues -- -482.99307 -62.39447 -56.16703 -56.16700 -56.16698
 Alpha  occ. eigenvalues --   -8.49575  -6.29885  -6.29876  -6.29871  -2.38150
 Alpha  occ. eigenvalues --   -2.38149  -2.38144  -2.38138  -2.38137  -0.47555
 Alpha  occ. eigenvalues --   -0.03396  -0.03385  -0.03377
 Alpha virt. eigenvalues --    0.14587   0.16370   0.16625   0.17431   0.18324
 Alpha virt. eigenvalues --    0.19265   0.19392   0.19972   0.20597   0.21542
 Alpha virt. eigenvalues --    0.22025   0.22553   0.22670   0.23202   0.24414
 Alpha virt. eigenvalues --    0.24713   0.25008   0.25730   0.26044   0.26166
 Alpha virt. eigenvalues --    0.26980   0.27622   0.28164   0.28404   0.29072
 Alpha virt. eigenvalues --    0.29729   0.30048   0.30743   0.31500   0.31793
 Alpha virt. eigenvalues --    0.32108   0.33096   0.33531   0.34025   0.34992
 Alpha virt. eigenvalues --    0.35068   0.35848   0.36037   0.36911   0.37179
 Alpha virt. eigenvalues --    0.37537   0.38131   0.38778   0.39084   0.39884
 Alpha virt. eigenvalues --    0.40266   0.40505   0.41081   0.42310   0.42784
 Alpha virt. eigenvalues --    0.43218   0.43555   0.43770   0.44673   0.45503
 Alpha virt. eigenvalues --    0.46166   0.46915   0.47294   0.49800   0.50265
 Alpha virt. eigenvalues --    0.50649   0.51210   0.53570   0.54537   0.61527
 Alpha virt. eigenvalues --    0.62559   0.63380   0.63880   0.64141   0.64666
 Alpha virt. eigenvalues --    0.64966   0.65721   0.65914   0.66737   0.66889
 Alpha virt. eigenvalues --    0.67279   0.67831   0.67995   0.68600   0.68947
 Alpha virt. eigenvalues --    0.69542   0.70034   0.70657   0.70828   0.71245
 Alpha virt. eigenvalues --    0.71720   0.71912   0.72383   0.72912   0.73304
 Alpha virt. eigenvalues --    0.73681   0.73903   0.74366   0.74612   0.75270
 Alpha virt. eigenvalues --    0.75398   0.75720   0.75760   0.76239   0.76318
 Alpha virt. eigenvalues --    0.76708   0.77293   0.77864   0.78035   0.78105
 Alpha virt. eigenvalues --    0.78457   0.78738   0.79118   0.79497   0.79810
 Alpha virt. eigenvalues --    0.80158   0.80741   0.81277   0.81341   0.81709
 Alpha virt. eigenvalues --    0.81815   0.82188   0.82560   0.82978   0.83288
 Alpha virt. eigenvalues --    0.83544   0.83714   0.84398   0.84791   0.85054
 Alpha virt. eigenvalues --    0.85393   0.85767   0.86089   0.86618   0.86860
 Alpha virt. eigenvalues --    0.87532   0.87910   0.88229   0.89017   0.89527
 Alpha virt. eigenvalues --    0.89793   0.89973   0.90336   0.90894   0.91021
 Alpha virt. eigenvalues --    0.91551   0.92161   0.92467   0.93294   0.93598
 Alpha virt. eigenvalues --    0.94064   0.94375   0.94819   0.95271   0.95585
 Alpha virt. eigenvalues --    0.95678   0.96147   0.96710   0.96938   0.97272
 Alpha virt. eigenvalues --    0.97608   0.97885   0.98541   0.99188   0.99445
 Alpha virt. eigenvalues --    1.00298   1.00648   1.01220   1.01578   1.02234
 Alpha virt. eigenvalues --    1.02777   1.03227   1.03917   1.04147   1.04574
 Alpha virt. eigenvalues --    1.05039   1.05749   1.06151   1.06684   1.06874
 Alpha virt. eigenvalues --    1.07723   1.08247   1.08322   1.10032   1.10502
 Alpha virt. eigenvalues --    1.11653   1.11853   1.12245   1.13543   1.13657
 Alpha virt. eigenvalues --    1.14669   1.15720   1.16256   1.17118   1.17511
 Alpha virt. eigenvalues --    1.18559   1.20308   1.21098   1.21414   1.21679
 Alpha virt. eigenvalues --    1.24060   1.24349   1.27651   1.29600   1.30310
 Alpha virt. eigenvalues --    1.34231   1.63438   1.66936   1.67805   1.68820
 Alpha virt. eigenvalues --    1.69128   1.69258   1.69885   1.70083   1.70463
 Alpha virt. eigenvalues --    1.70729   1.71040   1.72006   1.72070   1.72474
 Alpha virt. eigenvalues --    1.72961   1.73077   1.73191   1.73516   1.74064
 Alpha virt. eigenvalues --    1.74217   1.74309   1.75157   1.75335   1.75431
 Alpha virt. eigenvalues --    1.75862   1.75942   1.76295   1.76471   1.77034
 Alpha virt. eigenvalues --    1.77228   1.78028   1.78302   1.78721   1.78748
 Alpha virt. eigenvalues --    1.79515   1.79878   1.80286   1.80430   1.80604
 Alpha virt. eigenvalues --    1.81206   1.81839   1.82008   1.82346   1.82643
 Alpha virt. eigenvalues --    1.82952   1.83257   1.83988   1.84758   1.85164
 Alpha virt. eigenvalues --    1.85398   1.86014   1.86460   1.87310   1.88081
 Alpha virt. eigenvalues --    1.88374   1.89538   1.89903   1.90457   1.91334
 Alpha virt. eigenvalues --    1.92420   1.93193   1.94811   1.95475   1.98214
 Alpha virt. eigenvalues --    1.98669   1.99284   1.99760   2.00202   2.00761
 Alpha virt. eigenvalues --    2.00957   2.01140   2.01388   2.01504   2.01661
 Alpha virt. eigenvalues --    2.01703   2.01910   2.02003   2.02708   2.02817
 Alpha virt. eigenvalues --    2.03088   2.03238   2.03574   2.03852   2.03936
 Alpha virt. eigenvalues --    2.04394   2.04558   2.04960   2.05557   2.05661
 Alpha virt. eigenvalues --    2.05859   2.06424   2.06570   2.06735   2.06909
 Alpha virt. eigenvalues --    2.07322   2.07757   2.08476   2.08585   2.08920
 Alpha virt. eigenvalues --    2.09070   2.09312   2.10150   2.10460   2.10957
 Alpha virt. eigenvalues --    2.11147   2.11418   2.11819   2.12101   2.12550
 Alpha virt. eigenvalues --    2.12579   2.12875   2.13613   2.14282   2.14505
 Alpha virt. eigenvalues --    2.15007   2.15438   2.15887   2.16300   2.16607
 Alpha virt. eigenvalues --    2.16925   2.16962   2.17405   2.17735   2.17799
 Alpha virt. eigenvalues --    2.18266   2.18538   2.18624   2.19350   2.19481
 Alpha virt. eigenvalues --    2.20003   2.20687   2.21061   2.21730   2.22414
 Alpha virt. eigenvalues --    2.22861   2.23391   2.23805   2.24594   2.24849
 Alpha virt. eigenvalues --    2.25546   2.25785   2.26322   2.27103   2.28817
 Alpha virt. eigenvalues --    2.29452   2.29894   2.30106   2.31108   2.31481
 Alpha virt. eigenvalues --    2.31947   2.33118   2.33651   2.34289   2.35060
 Alpha virt. eigenvalues --    2.35516   2.36039   2.36830   2.37509   2.39352
 Alpha virt. eigenvalues --    2.40004   2.40608   2.41580   2.41829   2.42021
 Alpha virt. eigenvalues --    2.42120   2.42497   2.42883   2.43058   2.43125
 Alpha virt. eigenvalues --    2.43505   2.43777   2.44594   2.44774   2.45401
 Alpha virt. eigenvalues --    2.45741   2.46771   2.47336   2.48296   2.48499
 Alpha virt. eigenvalues --    2.50224   2.50805   2.51374   2.51498   2.52106
 Alpha virt. eigenvalues --    2.52913   2.53505   2.54528   2.55954   2.56328
 Alpha virt. eigenvalues --    2.57397   2.57842   2.63345   2.68196   2.68626
 Alpha virt. eigenvalues --    2.69616   2.69723   2.69943   2.70898   2.70964
 Alpha virt. eigenvalues --    2.71325   2.71738   2.72211   2.72784   2.73132
 Alpha virt. eigenvalues --    2.73760   2.74145   2.74943   2.75162   2.75637
 Alpha virt. eigenvalues --    2.75663   2.77058   2.78224   2.79096   2.79704
 Alpha virt. eigenvalues --    2.80346   2.80730   2.81350   2.82140   2.82193
 Alpha virt. eigenvalues --    2.82501   2.83475   2.84104   2.84580   2.84698
 Alpha virt. eigenvalues --    2.85403   2.85862   2.86561   2.87378   2.87684
 Alpha virt. eigenvalues --    2.88325   2.88719   2.90294   2.90759   2.91210
 Alpha virt. eigenvalues --    2.92179   2.92237   2.92823   2.93465   2.93787
 Alpha virt. eigenvalues --    2.93982   2.95271   2.95853   2.96520   2.98564
 Alpha virt. eigenvalues --    2.99744   3.00855   3.01387   3.02799   3.03705
 Alpha virt. eigenvalues --    3.04220   3.04630   3.06741   3.07518   3.08786
 Alpha virt. eigenvalues --    3.10561   3.12109   3.15548   3.15806   3.16315
 Alpha virt. eigenvalues --    3.17268   3.18708   3.19568   3.20331   3.21895
 Alpha virt. eigenvalues --    3.22463   3.23009   3.23363   3.25641   3.27433
 Alpha virt. eigenvalues --    3.28475   3.29435   3.30414   3.32256   3.33952
 Alpha virt. eigenvalues --    3.34279   3.35147   3.37017   3.38985   3.40116
 Alpha virt. eigenvalues --    3.42737   3.44002   3.47729   3.49883   3.52684
 Alpha virt. eigenvalues --    3.55920   3.57311   3.60148   3.61498   4.51838
 Alpha virt. eigenvalues --    4.52016   4.52033   4.52173   4.52314   4.52450
 Alpha virt. eigenvalues --    4.52502   4.52553   4.52705   4.52985   4.53292
 Alpha virt. eigenvalues --    4.53344   4.53392   4.53417   4.53540   4.53847
 Alpha virt. eigenvalues --    4.54236   4.54355   4.54520   4.55176   4.55235
 Alpha virt. eigenvalues --    4.55365   4.55639   4.56008   4.56403   4.56673
 Alpha virt. eigenvalues --    4.56756   4.57058   4.57324   4.57960   4.58281
 Alpha virt. eigenvalues --    4.59072   4.59488   4.59621   4.59632   4.59965
 Alpha virt. eigenvalues --    4.60358   4.60432   4.60825   4.61004   4.61107
 Alpha virt. eigenvalues --    4.61269   4.61373   4.61586   4.61627   4.61834
 Alpha virt. eigenvalues --    4.61862   4.61949   4.62031   4.62516   4.62803
 Alpha virt. eigenvalues --    4.62863   4.63215   4.63341   4.63608   4.63924
 Alpha virt. eigenvalues --    4.64105   4.64532   4.65314   4.65495   4.66234
 Alpha virt. eigenvalues --    4.67032   4.69766   4.70789   4.74905   4.75016
 Alpha virt. eigenvalues --    4.75051   4.75306   4.75431   4.75489   4.75643
 Alpha virt. eigenvalues --    4.75853   4.75945   4.77179   4.77270   4.77975
 Alpha virt. eigenvalues --    4.78586   4.79344   4.80048   4.80151   4.81317
 Alpha virt. eigenvalues --    4.81694   4.81983   4.82212   4.82603   4.82680
 Alpha virt. eigenvalues --    4.83325   4.83351   4.83451   4.83877   4.84152
 Alpha virt. eigenvalues --    4.85177   4.85269   4.85310   4.85491   4.86069
 Alpha virt. eigenvalues --    4.86226   4.87275   4.87523   4.87599   4.87688
 Alpha virt. eigenvalues --    4.87853   4.88188   4.88253   4.89077   4.89560
 Alpha virt. eigenvalues --    4.89863   4.90304   4.90384   4.90753   4.91488
 Alpha virt. eigenvalues --    4.92943   4.93451   4.94380   4.94602   4.95108
 Alpha virt. eigenvalues --    4.95426   4.95891   4.96869   4.97521   4.97917
 Alpha virt. eigenvalues --    4.98635   4.98928   4.99968   5.01049   5.01087
[...]
   Y20       37.26540   0.00363   0.00000   0.02903   0.02955  37.29495
   Z20       31.42615  -0.00829   0.00000  -0.00385  -0.00463  31.42151
   X21       33.33477  -0.00802   0.00000  -0.01437  -0.01241  33.32236
   Y21       37.07643  -0.00036   0.00000   0.00050   0.00152  37.07795
   Z21       30.68915  -0.00187   0.00000   0.00383   0.00254  30.69169
   X22       34.65758  -0.00218   0.00000  -0.00274  -0.00133  34.65625
   Y22       37.77563  -0.00203   0.00000  -0.02621  -0.02563  37.75000
   Z22       33.12690   0.01581   0.00000   0.03199   0.03112  33.15802
   X23       40.19447   0.01814   0.00000   0.01765   0.02049  40.21496
   Y23       42.27317   0.00923   0.00000   0.01917   0.01815  42.29132
   Z23       32.80565   0.01403   0.00000   0.01206   0.01297  32.81861
   X24       39.09843  -0.01161   0.00000  -0.01128  -0.00789  39.09054
   Y24       42.76450  -0.00313   0.00000  -0.02360  -0.02427  42.74023
   Z24       31.44504  -0.01371   0.00000  -0.01503  -0.01445  31.43059
   X25       39.74094  -0.00232   0.00000   0.00601   0.00823  39.74918
   Y25       40.55352  -0.00563   0.00000   0.00849   0.00759  40.56111
   Z25       33.14580   0.00263   0.00000   0.01586   0.01660  33.16239
   X26       40.45904   0.00136   0.00000  -0.00836  -0.00722  40.45182
   Y26       35.75362  -0.02538   0.00000  -0.03335  -0.03443  35.71918
   Z26       32.08755  -0.00165   0.00000   0.01657   0.01742  32.10497
   X27       41.63067   0.01101   0.00000   0.01620   0.01727  41.64794
   Y27       36.56620   0.01020   0.00000   0.01873   0.01728  36.58348
   Z27       33.20249   0.00606   0.00000  -0.00995  -0.00873  33.19376
   X28       39.24961  -0.01271   0.00000  -0.01424  -0.01260  39.23701
   Y28       37.01973   0.00981   0.00000  -0.01106  -0.01178  37.00796
   Z28       31.70960  -0.00646   0.00000  -0.01973  -0.01923  31.69037
   X29       31.95527  -0.02114   0.00000  -0.01691  -0.01782  31.93745
   Y29       39.02284  -0.01102   0.00000  -0.01195  -0.01077  39.01207
   Z29       42.00861  -0.00257   0.00000  -0.00288  -0.00455  42.00406
   X30       33.05131   0.01006   0.00000  -0.00829  -0.00861  33.04270
   Y30       40.25117   0.01832   0.00000   0.03731   0.03818  40.28935
   Z30       41.29052  -0.00088   0.00000   0.02233   0.02101  41.31153
   X31       32.84344   0.01015   0.00000   0.02228   0.02075  32.86419
   Y31       38.38034  -0.00397   0.00000  -0.01234  -0.01146  38.36888
   Z31       43.44480   0.00480   0.00000  -0.00782  -0.00922  43.43558
   X32       35.35678  -0.01383   0.00000  -0.01214  -0.01478  35.34199
   Y32       35.81031   0.02060   0.00000   0.03155   0.03169  35.84200
   Z32       44.67313   0.00607   0.00000   0.02922   0.02851  44.70164
   X33       36.39613   0.00223   0.00000  -0.03197  -0.03457  36.36156
   Y33       34.82765  -0.01064   0.00000  -0.00842  -0.00856  34.81910
   Z33       43.55819  -0.00649   0.00000   0.00403   0.00361  43.56180
   X34       35.50795   0.00175   0.00000   0.00065  -0.00273  35.50522
   Y34       34.97883  -0.00790   0.00000  -0.01367  -0.01361  34.96522
   Z34       46.26050   0.01050   0.00000   0.02092   0.02025  46.28074
   X35       30.12223  -0.00933   0.00000   0.02480   0.02524  30.14747
   Y35       38.24806   0.00800   0.00000   0.01146   0.01327  38.26132
   Z35       36.96304  -0.02464   0.00000  -0.09337  -0.09561  36.86744
   X36       31.25607   0.00309   0.00000  -0.02023  -0.01969  31.23638
   Y36       39.47638   0.00513   0.00000  -0.00107   0.00041  39.47678
   Z36       37.64334   0.01282   0.00000   0.04772   0.04584  37.68919
   X37       31.01041   0.00748   0.00000  -0.00001  -0.00013  31.01027
   Y37       36.67958  -0.01233   0.00000  -0.01241  -0.01086  36.66872
   Z37       37.15202   0.01008   0.00000   0.04308   0.04107  37.19309
   X38       40.74250  -0.01067   0.00000  -0.02066  -0.02185  40.72065
   Y38       30.78364  -0.01323   0.00000  -0.00825  -0.00947  30.77416
   Z38       35.05442  -0.00978   0.00000  -0.00123  -0.00041  35.05401
   X39       41.72515   0.01016   0.00000   0.00966   0.00815  41.73330
   Y39       31.19938   0.00428   0.00000   0.00208   0.00053  31.19991
   Z39       36.50951   0.01448   0.00000   0.00953   0.01067  36.52018
   X40       40.23227   0.00432   0.00000   0.03310   0.03261  40.26488
   Y40       32.38991   0.00892   0.00000   0.00868   0.00761  32.39751
   Z40       34.37412  -0.01047   0.00000  -0.04065  -0.03993  34.33419
   X41       36.30164   0.00036   0.00000   0.00319   0.00251  36.30415
   Y41       42.34876   0.00880   0.00000   0.00555   0.00542  42.35418
   Z41       44.48415  -0.01194   0.00000  -0.01394  -0.01422  44.46994
   X42       37.88901   0.00146   0.00000   0.01289   0.01235  37.90136
   Y42       41.98971  -0.00100   0.00000  -0.00118  -0.00176  41.98795
   Z42       43.65267   0.00433   0.00000   0.01355   0.01375  43.66643
   X43       36.26384   0.00130   0.00000   0.00165   0.00020  36.26404
   Y43       41.21493  -0.01004   0.00000  -0.01624  -0.01640  41.19853
   Z43       45.88255   0.00572   0.00000  -0.00878  -0.00909  45.87346
   X44       36.03708  -0.00232   0.00000  -0.02096  -0.01755  36.01953
   Y44       46.03373   0.01901   0.00000   0.01656   0.01671  46.05044
   Z44       34.52530  -0.00489   0.00000  -0.00395  -0.00424  34.52106
   X45       37.01973   0.00262   0.00000  -0.00377  -0.00029  37.01945
   Y45       45.08887  -0.00697   0.00000  -0.00956  -0.00967  45.07920
   Z45       33.33477  -0.00029   0.00000   0.01401   0.01401  33.34878
   X46       35.41347  -0.00516   0.00000  -0.01112  -0.00843  35.40504
   Y46       44.78651  -0.01262   0.00000  -0.01152  -0.01122  44.77529
   Z46       35.67803   0.00833   0.00000   0.00702   0.00652  35.68455
   X47       30.95371   0.00772   0.00000   0.01746   0.02034  30.97405
   Y47       41.49839   0.00118   0.00000  -0.00494  -0.00327  41.49512
   Z47       31.91747  -0.01914   0.00000  -0.01011  -0.01202  31.90545
   X48       29.80098  -0.00218   0.00000   0.00459   0.00771  29.80869
   Y48       42.82119   0.00166   0.00000  -0.00836  -0.00636  42.81483
   Z48       32.37101   0.00526   0.00000   0.00642   0.00418  32.37519
   X49       31.25607  -0.00724   0.00000  -0.04009  -0.03795  31.21812
   Y49       40.59132  -0.00669   0.00000  -0.01289  -0.01132  40.58000
   Z49       33.44815   0.01644   0.00000   0.02290   0.02104  33.46920
   X50       36.77407  -0.00992   0.00000  -0.00697  -0.01078  36.76329
   Y50       28.85612  -0.00240   0.00000  -0.00042  -0.00064  28.85548
   Z50       41.87633  -0.00057   0.00000   0.00803   0.00761  41.88394
   X51       38.15357   0.00696   0.00000   0.01314   0.00886  38.16243
   Y51       27.81677  -0.00372   0.00000  -0.00037  -0.00100  27.81576
   Z51       42.40545   0.00076   0.00000  -0.00571  -0.00572  42.39973
   X52       37.45437   0.00092   0.00000  -0.00616  -0.00949  37.44488
   Y52       30.53797   0.00829   0.00000   0.01204   0.01163  30.54960
   Z52       41.89523  -0.00187   0.00000  -0.01000  -0.01017  41.88505
   X53       36.49061  -0.00777   0.00000  -0.01355  -0.01157  36.47904
   Y53       47.24315   0.01147   0.00000  -0.00404  -0.00414  47.23901
   Z53       40.34565   0.01998   0.00000   0.02175   0.02162  40.36728
   X54       37.47327   0.01824   0.00000   0.04890   0.05075  37.52402
   Y54       45.93924  -0.00710   0.00000   0.02812   0.02773  45.96698
   Z54       39.58976  -0.01487   0.00000  -0.02675  -0.02658  39.56318
   X55       35.41347  -0.00099   0.00000   0.00664   0.00920  35.42267
   Y55       47.84787  -0.00160   0.00000  -0.01056  -0.01033  47.83754
   Z55       39.02284  -0.00859   0.00000  -0.01267  -0.01310  39.00975
   X56       46.27939   0.00398   0.00000   0.01129   0.01111  46.29051
   Y56       39.96771  -0.01462   0.00000  -0.00755  -0.01050  39.95721
   Z56       40.51573   0.00738   0.00000   0.00299   0.00569  40.52142
   X57       45.71248  -0.00287   0.00000  -0.00115  -0.00067  45.71181
   Y57       40.47793   0.01189   0.00000   0.03988   0.03714  40.51507
   Z57       38.87167  -0.00717   0.00000   0.00325   0.00580  38.87746
   X58       46.61954  -0.00085   0.00000  -0.00967  -0.00966  46.60988
   Y58       41.51728   0.00793   0.00000   0.00229  -0.00077  41.51651
   Z58       41.36611   0.00700   0.00000   0.02296   0.02580  41.39190
   X59       36.03708   0.01703   0.00000   0.01738   0.02122  36.05830
   Y59       42.44325   0.00430   0.00000   0.01235   0.01259  42.45584
   Z59       29.66870  -0.00364   0.00000  -0.00350  -0.00385  29.66485
   X60       34.77096  -0.00921   0.00000  -0.01704  -0.01278  34.75818
   Y60       43.70937   0.00373   0.00000  -0.00006   0.00056  43.70993
   Z60       29.44193   0.00355   0.00000   0.01947   0.01875  29.46069
   X61       35.14891  -0.00455   0.00000   0.00428   0.00749  35.15640
   Y61       41.00706  -0.00557   0.00000  -0.00187  -0.00138  41.00568
   Z61       30.34900   0.00080   0.00000  -0.01085  -0.01151  30.33749
   X62       43.59598  -0.02059   0.00000  -0.02234  -0.02470  43.57128
   Y62       31.69071  -0.01183   0.00000  -0.00210  -0.00425  31.68646
   Z62       39.81653  -0.00318   0.00000  -0.01387  -0.01216  39.80437
   X63       44.91879   0.01522   0.00000   0.00782   0.00579  44.92458
   Y63       32.93793   0.01417   0.00000   0.01367   0.01113  32.94906
   Z63       39.91102   0.00076   0.00000  -0.00244  -0.00030  39.91072
   X64       44.48415  -0.00108   0.00000  -0.01257  -0.01541  44.46874
   Y64       30.10334  -0.00117   0.00000   0.00026  -0.00214  30.10119
   Z64       39.85432   0.00057   0.00000   0.00130   0.00325  39.85758
   X65       46.90300   0.01036   0.00000   0.01727   0.01720  46.92020
   Y65       33.75051  -0.01254   0.00000  -0.01169  -0.01469  33.73582
   Z65       34.22294  -0.01019   0.00000  -0.01008  -0.00732  34.21563
   X66       47.45102  -0.00371   0.00000  -0.01639  -0.01684  47.43419
   Y66       34.20404   0.00612   0.00000   0.01303   0.00984  34.21388
   Z66       35.88590   0.00917   0.00000   0.00863   0.01157  35.89747
   X67       45.37232  -0.00532   0.00000   0.00528   0.00556  45.37788
   Y67       34.67647   0.00581   0.00000   0.00323   0.00068  34.67716
   Z67       33.95838   0.00520   0.00000   0.01501   0.01733  33.97571
   X68       38.07798   0.00971   0.00000   0.00084   0.00351  38.08149
   Y68       35.90480   0.00742   0.00000   0.00783   0.00754  35.91233
   Z68       27.30654  -0.00603   0.00000  -0.01561  -0.01548  27.29107
   X69       37.32209  -0.00384   0.00000   0.00011   0.00217  37.32426
   Y69       35.54575  -0.00403   0.00000  -0.00933  -0.00943  35.53632
   Z69       28.91281   0.00559   0.00000  -0.00397  -0.00408  28.90873
   X70       37.05753  -0.00692   0.00000  -0.01497  -0.01221  37.04532
   Y70       35.01663  -0.00521   0.00000  -0.00855  -0.00852  35.00811
   Z70       26.11602  -0.00471   0.00000  -0.00703  -0.00723  26.10878
   X71       45.56130  -0.00161   0.00000   0.00242   0.00433  45.56563
   Y71       42.44325  -0.00508   0.00000   0.00238  -0.00027  42.44298
   Z71       35.99928   0.00191   0.00000   0.00658   0.00911  36.00840
   X72       44.40856  -0.00628   0.00000  -0.01671  -0.01431  44.39425
   Y72       43.82275   0.00108   0.00000  -0.00710  -0.00940  43.81335
   Z72       35.73472  -0.00292   0.00000  -0.01284  -0.01063  35.72409
   X73       47.16756   0.00921   0.00000   0.01406   0.01614  47.18371
   Y73       43.23693   0.00376   0.00000   0.01034   0.00722  43.24415
   Z73       36.22605  -0.00087   0.00000  -0.01121  -0.00816  36.21789
   X74       47.35654   0.00067   0.00000   0.00967   0.00815  47.36469
   Y74       35.07332  -0.02365   0.00000  -0.01336  -0.01662  35.05670
   Z74       40.25117  -0.01264   0.00000  -0.02102  -0.01809  40.23308
   X75       46.86521  -0.00538   0.00000  -0.00106  -0.00215  46.86305
   Y75       36.79297   0.02408   0.00000   0.02090   0.01779  36.81075
   Z75       40.51573   0.00339   0.00000  -0.00425  -0.00144  40.51429
   X76       48.67935   0.00711   0.00000   0.00749   0.00552  48.68487
   Y76       34.78986  -0.00221   0.00000  -0.00786  -0.01153  34.77833
   Z76       41.44169   0.00693   0.00000   0.00430   0.00763  41.44932
   X77       41.87633   0.00922   0.00000   0.00809   0.00357  41.87990
   Y77       31.67181   0.00018   0.00000   0.00620   0.00440  31.67621
   Z77       46.90300   0.01083   0.00000   0.00870   0.00989  46.91290
   X78       41.25272  -0.00419   0.00000  -0.00705  -0.01207  41.24065
   Y78       29.97106  -0.00339   0.00000   0.00320   0.00158  29.97264
   Z78       46.92190  -0.00225   0.00000  -0.00829  -0.00733  46.91457
   X79       40.87478  -0.00570   0.00000   0.00810   0.00421  40.87898
   Y79       32.52219   0.00612   0.00000   0.00975   0.00826  32.53045
   Z79       45.65578  -0.01146   0.00000  -0.01842  -0.01751  45.63827
   X80       31.97417  -0.00800   0.00000  -0.00003  -0.00272  31.97145
   Y80       28.06243  -0.00858   0.00000  -0.02258  -0.02132  28.04112
   Z80       37.39768  -0.00772   0.00000  -0.00153  -0.00342  37.39426
   X81       32.80565   0.00060   0.00000  -0.00689  -0.00889  32.79675
   Y81       29.17737   0.00290   0.00000   0.00513   0.00619  29.18356
   Z81       36.22605   0.00376   0.00000   0.01585   0.01424  36.24029
   X82       32.78675   0.00789   0.00000   0.01642   0.01335  32.80010
   Y82       28.36479   0.00566   0.00000   0.01279   0.01379  28.37858
   Z82       38.98505   0.00554   0.00000  -0.00060  -0.00223  38.98282
   X83       42.17869  -0.00735   0.00000  -0.00670  -0.00879  42.16990
   Y83       40.00550   0.00477   0.00000   0.01117   0.00928  40.01478
   Z83       46.84631  -0.01201   0.00000  -0.01292  -0.01147  46.83484
   X84       43.76606   0.00854   0.00000   0.00437   0.00197  43.76803
   Y84       39.81653  -0.00247   0.00000  -0.00408  -0.00645  39.81008
   Z84       47.67779   0.00571   0.00000  -0.00048   0.00145  47.67924
   X85       40.96926  -0.00272   0.00000   0.00034  -0.00228  40.96698
   Y85       39.49528  -0.00286   0.00000  -0.00520  -0.00677  39.48851
   Z85       48.09353   0.00471   0.00000   0.00074   0.00182  48.09535
   X86       26.90970  -0.00811   0.00000  -0.00338  -0.00543  26.90427
   Y86       32.54108  -0.00876   0.00000  -0.00770  -0.00501  32.53608
   Z86       39.58976   0.00178   0.00000   0.00674   0.00340  39.59316
   X87       25.73807  -0.00013   0.00000   0.01033   0.00881  25.74688
   Y87       33.82610   0.00576   0.00000   0.01181   0.01485  33.84095
   Z87       39.07954  -0.00151   0.00000   0.00032  -0.00334  39.07620
   X88       28.51597   0.01218   0.00000   0.01819   0.01639  28.53236
   Y88       33.37256   0.00372   0.00000  -0.00945  -0.00723  33.36534
   Z88       39.53307   0.00042   0.00000   0.00656   0.00374  39.53681
   X89       27.62780  -0.00936   0.00000  -0.01107  -0.01145  27.61634
   Y89       42.10310   0.01314   0.00000   0.00983   0.01224  42.11534
   Z89       43.25583   0.00412   0.00000  -0.00021  -0.00313  43.25270
   X90       28.74273   0.01174   0.00000   0.02204   0.02149  28.76422
   Y90       40.85588  -0.01017   0.00000  -0.00542  -0.00333  40.85255
   Z90       42.55663  -0.00163   0.00000   0.01906   0.01646  42.57309
   X91       26.05932   0.00026   0.00000   0.00329   0.00257  26.06189
   Y91       41.21493  -0.00386   0.00000  -0.01728  -0.01442  41.20050
   Z91       43.48260   0.00003   0.00000   0.00310  -0.00031  43.48229
   X92       29.63091  -0.00406   0.00000   0.00607   0.00294  29.63385
   Y92       36.81187  -0.00557   0.00000  -0.02111  -0.01937  36.79250
   Z92       47.16756   0.00210   0.00000   0.01635   0.01393  47.18149
   X93       30.42459   0.00278   0.00000   0.00567   0.00263  30.42722
   Y93       38.09688   0.00534   0.00000   0.01238   0.01387  38.11075
   Z93       48.16912  -0.00093   0.00000  -0.01361  -0.01576  48.15336
   X94       30.91592   0.00148   0.00000  -0.00242  -0.00532  30.91060
   Y94       36.32054  -0.00155   0.00000  -0.00631  -0.00492  36.31562
   Z94       45.97704  -0.00334   0.00000  -0.00696  -0.00900  45.96804
   X95       37.49217  -0.01650   0.00000  -0.00953  -0.01073  37.48144
   Y95       27.53331  -0.00192   0.00000  -0.01010  -0.01031  27.52300
   Z95       31.97417   0.00433   0.00000   0.02136   0.02113  31.99530
   X96       38.38034   0.00628   0.00000   0.00290   0.00202  38.38236
   Y96       27.04198   0.00152   0.00000   0.01685   0.01640  27.05838
   Z96       30.48128  -0.00470   0.00000   0.00332   0.00336  30.48464
   X97       38.77718   0.01439   0.00000   0.03078   0.02935  38.80653
   Y97       27.94905   0.00402   0.00000   0.01183   0.01121  27.96026
   Z97       33.18359   0.00458   0.00000  -0.00247  -0.00228  33.18131
         Item               Value     Threshold  Converged?
 Maximum Force            0.030975     0.000450     NO 
 RMS     Force            0.009365     0.000300     NO 
 Maximum Displacement     0.095606     0.001800     NO 
 RMS     Displacement     0.017501     0.001200     NO 
 Predicted change in Energy=-2.513874D-02
 GradGradGradGradGradGradGradGradGradGradGradGradGradGradGradGradGradGrad

 Leave Link  103 at Thu May  3 10:48:34 2018, MaxMem= 14763950080 cpu:        66.2
 (Enter /cm/shared/gaussian/g09.e01/intel64-sandybridge/g09/l9999.exe)
 1\1\GINC-POPLE03\Force\RPBE1PBE\CC-pVDZ\Br1H64O32(1-)\M.PELUSO\03-May-
 2018\0\\#p PBE1PBE/cc-pvDZ force Counterpoise=2 noSymm\\forces on chlo
 ride comput - NWATER: 32\\-1,1\Br,20.,20.,20.\O,21.01,22.9,20.33\H,21.
 41,23.02,19.47\H,20.65,22.02,20.31\O,22.89,19.92,18.95\H,23.31,20.71,1
 9.3\H,22.08,19.85,19.45\O,18.16,22.54,20.43\H,18.77,22.95,21.06\H,18.5
 2,21.67,20.28\O,20.86,18.04,22.44\H,21.47,17.65,21.81\H,20.76,18.95,22
 .15\O,17.5,17.91,20.8\H,18.1,18.63,21.01\H,17.91,17.47,20.06\O,18.73,1
 6.91,18.66\H,19.23,16.15,18.36\H,19.37,17.62,18.66\O,18.51,19.72,16.63
 \H,17.64,19.62,16.24\H,18.34,19.99,17.53\O,21.27,22.37,17.36\H,20.69,2
 2.63,16.64\H,21.03,21.46,17.54\O,21.41,18.92,16.98\H,22.03,19.35,17.57
 \H,20.77,19.59,16.78\O,16.91,20.65,22.23\H,17.49,21.3,21.85\H,17.38,20
 .31,22.99\O,18.71,18.95,23.64\H,19.26,18.43,23.05\H,18.79,18.51,24.48\
 O,15.94,20.24,19.56\H,16.54,20.89,19.92\H,16.41,19.41,19.66\O,21.56,16
 .29,18.55\H,22.08,16.51,19.32\H,21.29,17.14,18.19\O,19.21,22.41,23.54\
 H,20.05,22.22,23.1\H,19.19,21.81,24.28\O,19.07,24.36,18.27\H,19.59,23.
 86,17.64\H,18.74,23.7,18.88\O,16.38,21.96,16.89\H,15.77,22.66,17.13\H,
 16.54,21.48,17.7\O,19.46,15.27,22.16\H,20.19,14.72,22.44\H,19.82,16.16
 ,22.17\O,19.31,25.,21.35\H,19.83,24.31,20.95\H,18.74,25.32,20.65\O,24.
 49,21.15,21.44\H,24.19,21.42,20.57\H,24.67,21.97,21.89\O,19.07,22.46,1
 5.7\H,18.4,23.13,15.58\H,18.6,21.7,16.06\O,23.07,16.77,21.07\H,23.77,1
 7.43,21.12\H,23.54,15.93,21.09\O,24.82,17.86,18.11\H,25.11,18.1,18.99\
 H,24.01,18.35,17.97\O,20.15,19.,14.45\H,19.75,18.81,15.3\H,19.61,18.53
 ,13.82\O,24.11,22.46,19.05\H,23.5,23.19,18.91\H,24.96,22.88,19.17\O,25
 .06,18.56,21.3\H,24.8,19.47,21.44\H,25.76,18.41,21.93\O,22.16,16.76,24
 .82\H,21.83,15.86,24.83\H,21.63,17.21,24.16\O,16.92,14.85,19.79\H,17.3
 6,15.44,19.17\H,17.35,15.01,20.63\O,22.32,21.17,24.79\H,23.16,21.07,25
 .23\H,21.68,20.9,25.45\O,14.24,17.22,20.95\H,13.62,17.9,20.68\H,15.09,
 17.66,20.92\O,14.62,22.28,22.89\H,15.21,21.62,22.52\H,13.79,21.81,23.0
 1\O,15.68,19.48,24.96\H,16.1,20.16,25.49\H,16.36,19.22,24.33\O,19.84,1
 4.57,16.92\H,20.31,14.31,16.13\H,20.52,14.79,17.56\\Version=ES64L-G09R
 evE.01\HF=-2443.1874305\RMSD=2.843e-09\RMSF=9.365e-03\Dipole=6.1676078
 ,1.4374247,1.5671503\Quadrupole=244.1810217,-115.2001581,-128.9808637,
 -1113.4281272,-1087.5490298,-1318.1536474\PG=C01 [X(Br1H64O32)]\\@


 LIFE CAN ONLY BE UNDERSTOOD BACKWARD, BUT MUST
 BE LIVED FORWARD. -- KIRKEGAARD
 Job cpu time:       0 days 11 hours 58 minutes 32.4 seconds.
 File lengths (MBytes):  RWF=    482 Int=      0 D2E=      0 Chk=    160 Scr=      1
 Normal termination of Gaussian 09 at Thu May  3 10:48:34 2018.
