 Entering Gaussian System, Link 0=/cm/shared/gaussian/g09.e01/intel64-sandybridge/g09/g09
 Initial command:
 /cm/shared/gaussian/g09.e01/intel64-sandybridge/g09/l1.exe "/local/scratch/m.peluso/32_wat/Gau-59526.inp" -scrdir="/local/scratch/m.peluso/32_wat/"
 Entering Link 1 = /cm/shared/gaussian/g09.e01/intel64-sandybridge/g09/l1.exe PID=     59527.
  
 Copyright (c) 1988,1990,1992,1993,1995,1998,2003,2009,2015,
            Gaussian, Inc.  All Rights Reserved.
  
 This is part of the Gaussian(R) 09 program.  It is based on
 the Gaussian(R) 03 system (copyright 2003, Gaussian, Inc.),
 the Gaussian(R) 98 system (copyright 1998, Gaussian, Inc.),
 the Gaussian(R) 94 system (copyright 1995, Gaussian, Inc.),
 the Gaussian 92(TM) system (copyright 1992, Gaussian, Inc.),
 the Gaussian 90(TM) system (copyright 1990, Gaussian, Inc.),
 the Gaussian 88(TM) system (copyright 1988, Gaussian, Inc.),
 the Gaussian 86(TM) system (copyright 1986, Carnegie Mellon
 University), and the Gaussian 82(TM) system (copyright 1983,
 Carnegie Mellon University). Gaussian is a federally registered
 trademark of Gaussian, Inc.
  
 This software contains proprietary and confidential information,
 including trade secrets, belonging to Gaussian, Inc.
  
 This software is provided under written license and may be
 used, copied, transmitted, or stored only in accord with that
 written license.
  
 The following legend is applicable only to US Government
 contracts under FAR:
  
                    RESTRICTED RIGHTS LEGEND
  
 Use, reproduction and disclosure by the US Government is
 subject to restrictions as set forth in subparagraphs (a)
 and (c) of the Commercial Computer Software - Restricted
 Rights clause in FAR 52.227-19.
  
 Gaussian, Inc.
 340 Quinnipiac St., Bldg. 40, Wallingford CT 06492
  
  
 ---------------------------------------------------------------
 Warning -- This program may not be used in any manner that
 competes with the business of Gaussian, Inc. or will provide
 assistance to any competitor of Gaussian, Inc.  The licensee
 of this program is prohibited from giving any competitor of
 Gaussian, Inc. access to this program.  By using this program,
 the user acknowledges that Gaussian, Inc. is engaged in the
 business of creating and licensing software in the field of
 computational chemistry and represents and warrants to the
 licensee that it is not a competitor of Gaussian, Inc. and that
 it will not use this program in any manner prohibited above.
 ---------------------------------------------------------------
  

 Cite this work as:
 Gaussian 09, Revision E.01,
 M. J. Frisch, G. W. Trucks, H. B. Schlegel, G. E. Scuseria, 
 M. A. Robb, J. R. Cheeseman, G. Scalmani, V. Barone, B. Mennucci, 
 G. A. Petersson, H. Nakatsuji, M. Caricato, X. Li, H. P. Hratchian, 
 A. F. Izmaylov, J. Bloino, G. Zheng, J. L. Sonnenberg, M. Hada, 
 M. Ehara, K. Toyota, R. Fukuda, J. Hasegawa, M. Ishida, T. Nakajima, 
 Y. Honda, O. Kitao, H. Nakai, T. Vreven, J. A. Montgomery, Jr., 
 J. E. Peralta, F. Ogliaro, M. Bearpark, J. J. Heyd, E. Brothers, 
 K. N. Kudin, V. N. Staroverov, T. Keith, R. Kobayashi, J. Normand, 
 K. Raghavachari, A. Rendell, J. C. Burant, S. S. Iyengar, J. Tomasi, 
 M. Cossi, N. Rega, J. M. Millam, M. Klene, J. E. Knox, J. B. Cross, 
 V. Bakken, C. Adamo, J. Jaramillo, R. Gomperts, R. E. Stratmann, 
 O. Yazyev, A. J. Austin, R. Cammi, C. Pomelli, J. W. Ochterski, 
 R. L. Martin, K. Morokuma, V. G. Zakrzewski, G. A. Voth, 
 P. Salvador, J. J. Dannenberg, S. Dapprich, A. D. Daniels, 
 O. Farkas, J. B. Foresman, J. V. Ortiz, J. Cioslowski, 
 and D. J. Fox, Gaussian, Inc., Wallingford CT, 2013.
 
 ******************************************
 Gaussian 09:  ES64L-G09RevE.01 30-Nov-2015
                 2-May-2018 
 ******************************************
 %Mem=110GB
 %NProcShared=64
 Will use up to   64 processors via shared memory.
 %chk=snap2.chk
 ----------------------------------------------
 #p PBE1PBE/cc-pvDZ force Counterpoise=2 noSymm
 ----------------------------------------------
 1/10=7,30=1,38=1,62=2/1,3;
 2/12=2,15=1,17=6,18=5,40=1/2;
 1/10=7,30=1,38=1,53=2,62=2,63=101/22;
 3/5=16,11=2,16=1,25=1,30=1,71=1,74=-13/1,2,3;
 4//1;
 5/5=2,38=5/2;
 6/7=2,8=2,9=2,10=2,28=1/1;
 7/7=1,29=1,30=1,33=-1/1,2,3,16;
 1/10=7,30=1,53=2,62=2,63=101/22;
 3/5=7,6=11,11=2,16=1,25=1,30=1,71=1,74=-13,82=7/1,2,3;
 4//1;
 5/5=2,38=5/2;
 6/7=2,8=2,9=2,10=2,28=1/1;
 7/7=1,29=1,30=1,33=-1/1,2,3,16;
 1/10=7,30=1,53=2,62=2,63=101/22(-5);
 7/9=1,29=1,44=-1/16;
 1/10=7,30=1,62=2/3;
 99//99;
 Leave Link    1 at Wed May  2 21:18:30 2018, MaxMem= 14763950080 cpu:         7.7
 (Enter /cm/shared/gaussian/g09.e01/intel64-sandybridge/g09/l101.exe)
 --------------------------------------
 forces on chloride comput - NWATER: 32
 --------------------------------------
 Symbolic Z-matrix:
 Charge = -1 Multiplicity = 1 in supermolecule
 Charge = -1 Multiplicity = 1 in fragment      1.
 Charge =  0 Multiplicity = 1 in fragment      2.
 Br(Fragment=1)        20.       20.       20. 
 O(Fragment=2)         22.57     19.75     18.41 
 H(Fragment=2)         21.79     19.9      18.95 
 H(Fragment=2)         23.05     19.06     18.88 
 O(Fragment=2)         19.35     16.98     19.7 
 H(Fragment=2)         19.46     16.69     20.61 
 H(Fragment=2)         19.55     17.92     19.73 
 O(Fragment=2)         17.43     19.98     18.05 
 H(Fragment=2)         16.91     19.56     18.74 
 H(Fragment=2)         18.31     20.05     18.43 
 O(Fragment=2)         17.5      21.61     21.41 
 H(Fragment=2)         18.1      20.94     21.07 
 H(Fragment=2)         17.36     22.2      20.67 
 O(Fragment=2)         22.44     18.81     21.93 
 H(Fragment=2)         22.78     18.21     21.27 
 H(Fragment=2)         21.66     19.2      21.53 
 O(Fragment=2)         20.85     23.24     19.75 
 H(Fragment=2)         19.98     23.41     20.12 
 H(Fragment=2)         21.04     22.33     19.98 
 O(Fragment=2)         20.23     18.61     16.97 
 H(Fragment=2)         21.1      19.       17.09 
 H(Fragment=2)         19.7      18.98     17.67 
 O(Fragment=2)         20.55     22.44     16.28 
 H(Fragment=2)         21.03     22.53     17.1 
 H(Fragment=2)         20.12     23.28     16.15 
 O(Fragment=2)         17.2      18.09     23.23 
 H(Fragment=2)         16.8      17.55     22.55 
 H(Fragment=2)         18.13     18.14     23. 
 O(Fragment=2)         20.47     16.48     22.44 
 H(Fragment=2)         20.86     17.1      23.04 
 H(Fragment=2)         21.06     15.73     22.45 
 O(Fragment=2)         18.75     23.29     23.49 
 H(Fragment=2)         18.6      22.36     23.33 
 H(Fragment=2)         19.69     23.41     23.35 
 O(Fragment=2)         23.24     17.09     20.1 
 H(Fragment=2)         22.61     16.39     19.96 
 H(Fragment=2)         23.87     16.73     20.73 
 O(Fragment=2)         15.64     19.23     20.23 
 H(Fragment=2)         15.61     18.33     20.55 
 H(Fragment=2)         14.72     19.5      20.2 
 O(Fragment=2)         21.6      15.24     19.24 
 H(Fragment=2)         20.77     15.7      19.09 
 H(Fragment=2)         21.48     14.81     20.09 
 O(Fragment=2)         17.48     19.69     15.24 
 H(Fragment=2)         16.9      20.41     15.5 
 H(Fragment=2)         17.99     19.5      16.03 
 O(Fragment=2)         18.4      24.2      20.54 
 H(Fragment=2)         17.54     24.58     20.73 
 H(Fragment=2)         18.83     24.14     21.39 
 O(Fragment=2)         22.66     24.15     17.99 
 H(Fragment=2)         22.09     23.8      18.68 
 H(Fragment=2)         23.45     23.61     18.04 
 O(Fragment=2)         15.73     20.25     23.09 
 H(Fragment=2)         16.18     20.7      22.37 
 H(Fragment=2)         16.25     19.46     23.24 
 O(Fragment=2)         17.65     15.55     17.47 
 H(Fragment=2)         17.72     14.79     18.05 
 H(Fragment=2)         18.19     16.22     17.88 
 O(Fragment=2)         22.79     19.28     24.61 
 H(Fragment=2)         22.12     18.59     24.67 
 H(Fragment=2)         23.01     19.31     23.68 
 O(Fragment=2)         24.12     20.87     16.09 
 H(Fragment=2)         23.52     21.       15.36 
 H(Fragment=2)         23.58     20.5      16.79 
 O(Fragment=2)         21.44     23.52     23.16 
 H(Fragment=2)         21.7      23.06     23.96 
 H(Fragment=2)         22.21     23.5      22.6 
 O(Fragment=2)         21.38     20.51     14.6 
 H(Fragment=2)         21.82     21.2      14.11 
 H(Fragment=2)         20.85     20.98     15.25 
 O(Fragment=2)         16.61     22.81     16.06 
 H(Fragment=2)         17.2      23.56     16.05 
 H(Fragment=2)         17.17     22.06     16.28 
 O(Fragment=2)         23.78     23.09     22. 
 H(Fragment=2)         24.23     23.94     21.91 
 H(Fragment=2)         24.49     22.45     21.94 
 O(Fragment=2)         16.24     16.54     21.39 
 H(Fragment=2)         16.7      15.86     20.89 
 H(Fragment=2)         15.37     16.18     21.55 
 O(Fragment=2)         18.39     14.55     21.84 
 H(Fragment=2)         18.95     15.26     22.17 
 H(Fragment=2)         18.96     13.79     21.81 
 O(Fragment=2)         20.97     26.26     20.49 
 H(Fragment=2)         21.02     25.33     20.28 
 H(Fragment=2)         21.27     26.7      19.7 
 O(Fragment=2)         20.53     15.04     16.37 
 H(Fragment=2)         21.15     15.68     16.71 
 H(Fragment=2)         19.9      15.55     15.86 
 O(Fragment=2)         24.2      15.89     17.51 
 H(Fragment=2)         23.54     15.92     18.2 
 H(Fragment=2)         24.92     16.43     17.84 
 O(Fragment=2)         18.39     16.54     15.06 
 H(Fragment=2)         17.95     16.39     15.9 
 H(Fragment=2)         18.63     17.46     15.07 
 O(Fragment=2)         17.       21.       25.55 
 H(Fragment=2)         16.7      20.79     24.66 
 H(Fragment=2)         16.41     21.7      25.84 
 
 NAtoms=     97 NQM=       97 NQMF=       0 NMMI=      0 NMMIF=      0
                NMic=       0 NMicF=      0.
                    Isotopes and Nuclear Properties:
 (Nuclear quadrupole moments (NQMom) in fm**2, nuclear magnetic moments (NMagM)
  in nuclear magnetons)

  Atom         1           2           3           4           5           6           7           8           9          10
 IAtWgt=          79          16           1           1          16           1           1          16           1           1
 AtmWgt=  78.9183361  15.9949146   1.0078250   1.0078250  15.9949146   1.0078250   1.0078250  15.9949146   1.0078250   1.0078250
 NucSpn=           3           0           1           1           0           1           1           0           1           1
 AtZEff=   0.0000000   0.0000000   0.0000000   0.0000000   0.0000000   0.0000000   0.0000000   0.0000000   0.0000000   0.0000000
 NQMom=   31.3000000   0.0000000   0.0000000   0.0000000   0.0000000   0.0000000   0.0000000   0.0000000   0.0000000   0.0000000
 NMagM=    2.1063990   0.0000000   2.7928460   2.7928460   0.0000000   2.7928460   2.7928460   0.0000000   2.7928460   2.7928460
 AtZNuc=  35.0000000   8.0000000   1.0000000   1.0000000   8.0000000   1.0000000   1.0000000   8.0000000   1.0000000   1.0000000

  Atom        11          12          13          14          15          16          17          18          19          20
 IAtWgt=          16           1           1          16           1           1          16           1           1          16
 AtmWgt=  15.9949146   1.0078250   1.0078250  15.9949146   1.0078250   1.0078250  15.9949146   1.0078250   1.0078250  15.9949146
 NucSpn=           0           1           1           0           1           1           0           1           1           0
 AtZEff=   0.0000000   0.0000000   0.0000000   0.0000000   0.0000000   0.0000000   0.0000000   0.0000000   0.0000000   0.0000000
 NQMom=    0.0000000   0.0000000   0.0000000   0.0000000   0.0000000   0.0000000   0.0000000   0.0000000   0.0000000   0.0000000
 NMagM=    0.0000000   2.7928460   2.7928460   0.0000000   2.7928460   2.7928460   0.0000000   2.7928460   2.7928460   0.0000000
 AtZNuc=   8.0000000   1.0000000   1.0000000   8.0000000   1.0000000   1.0000000   8.0000000   1.0000000   1.0000000   8.0000000

  Atom        21          22          23          24          25          26          27          28          29          30
 IAtWgt=           1           1          16           1           1          16           1           1          16           1
 AtmWgt=   1.0078250   1.0078250  15.9949146   1.0078250   1.0078250  15.9949146   1.0078250   1.0078250  15.9949146   1.0078250
 NucSpn=           1           1           0           1           1           0           1           1           0           1
 AtZEff=   0.0000000   0.0000000   0.0000000   0.0000000   0.0000000   0.0000000   0.0000000   0.0000000   0.0000000   0.0000000
 NQMom=    0.0000000   0.0000000   0.0000000   0.0000000   0.0000000   0.0000000   0.0000000   0.0000000   0.0000000   0.0000000
 NMagM=    2.7928460   2.7928460   0.0000000   2.7928460   2.7928460   0.0000000   2.7928460   2.7928460   0.0000000   2.7928460
 AtZNuc=   1.0000000   1.0000000   8.0000000   1.0000000   1.0000000   8.0000000   1.0000000   1.0000000   8.0000000   1.0000000

  Atom        31          32          33          34          35          36          37          38          39          40
 IAtWgt=           1          16           1           1          16           1           1          16           1           1
 AtmWgt=   1.0078250  15.9949146   1.0078250   1.0078250  15.9949146   1.0078250   1.0078250  15.9949146   1.0078250   1.0078250
 NucSpn=           1           0           1           1           0           1           1           0           1           1
 AtZEff=   0.0000000   0.0000000   0.0000000   0.0000000   0.0000000   0.0000000   0.0000000   0.0000000   0.0000000   0.0000000
 NQMom=    0.0000000   0.0000000   0.0000000   0.0000000   0.0000000   0.0000000   0.0000000   0.0000000   0.0000000   0.0000000
 NMagM=    2.7928460   0.0000000   2.7928460   2.7928460   0.0000000   2.7928460   2.7928460   0.0000000   2.7928460   2.7928460
 AtZNuc=   1.0000000   8.0000000   1.0000000   1.0000000   8.0000000   1.0000000   1.0000000   8.0000000   1.0000000   1.0000000

  Atom        41          42          43          44          45          46          47          48          49          50
 IAtWgt=          16           1           1          16           1           1          16           1           1          16
 AtmWgt=  15.9949146   1.0078250   1.0078250  15.9949146   1.0078250   1.0078250  15.9949146   1.0078250   1.0078250  15.9949146
 NucSpn=           0           1           1           0           1           1           0           1           1           0
 AtZEff=   0.0000000   0.0000000   0.0000000   0.0000000   0.0000000   0.0000000   0.0000000   0.0000000   0.0000000   0.0000000
 NQMom=    0.0000000   0.0000000   0.0000000   0.0000000   0.0000000   0.0000000   0.0000000   0.0000000   0.0000000   0.0000000
 NMagM=    0.0000000   2.7928460   2.7928460   0.0000000   2.7928460   2.7928460   0.0000000   2.7928460   2.7928460   0.0000000
 AtZNuc=   8.0000000   1.0000000   1.0000000   8.0000000   1.0000000   1.0000000   8.0000000   1.0000000   1.0000000   8.0000000

  Atom        51          52          53          54          55          56          57          58          59          60
 IAtWgt=           1           1          16           1           1          16           1           1          16           1
 AtmWgt=   1.0078250   1.0078250  15.9949146   1.0078250   1.0078250  15.9949146   1.0078250   1.0078250  15.9949146   1.0078250
 NucSpn=           1           1           0           1           1           0           1           1           0           1
 AtZEff=   0.0000000   0.0000000   0.0000000   0.0000000   0.0000000   0.0000000   0.0000000   0.0000000   0.0000000   0.0000000
 NQMom=    0.0000000   0.0000000   0.0000000   0.0000000   0.0000000   0.0000000   0.0000000   0.0000000   0.0000000   0.0000000
 NMagM=    2.7928460   2.7928460   0.0000000   2.7928460   2.7928460   0.0000000   2.7928460   2.7928460   0.0000000   2.7928460
 AtZNuc=   1.0000000   1.0000000   8.0000000   1.0000000   1.0000000   8.0000000   1.0000000   1.0000000   8.0000000   1.0000000

  Atom        61          62          63          64          65          66          67          68          69          70
 IAtWgt=           1          16           1           1          16           1           1          16           1           1
 AtmWgt=   1.0078250  15.9949146   1.0078250   1.0078250  15.9949146   1.0078250   1.0078250  15.9949146   1.0078250   1.0078250
 NucSpn=           1           0           1           1           0           1           1           0           1           1
 AtZEff=   0.0000000   0.0000000   0.0000000   0.0000000   0.0000000   0.0000000   0.0000000   0.0000000   0.0000000   0.0000000
 NQMom=    0.0000000   0.0000000   0.0000000   0.0000000   0.0000000   0.0000000   0.0000000   0.0000000   0.0000000   0.0000000
 NMagM=    2.7928460   0.0000000   2.7928460   2.7928460   0.0000000   2.7928460   2.7928460   0.0000000   2.7928460   2.7928460
 AtZNuc=   1.0000000   8.0000000   1.0000000   1.0000000   8.0000000   1.0000000   1.0000000   8.0000000   1.0000000   1.0000000

  Atom        71          72          73          74          75          76          77          78          79          80
 IAtWgt=          16           1           1          16           1           1          16           1           1          16
 AtmWgt=  15.9949146   1.0078250   1.0078250  15.9949146   1.0078250   1.0078250  15.9949146   1.0078250   1.0078250  15.9949146
 NucSpn=           0           1           1           0           1           1           0           1           1           0
 AtZEff=   0.0000000   0.0000000   0.0000000   0.0000000   0.0000000   0.0000000   0.0000000   0.0000000   0.0000000   0.0000000
 NQMom=    0.0000000   0.0000000   0.0000000   0.0000000   0.0000000   0.0000000   0.0000000   0.0000000   0.0000000   0.0000000
 NMagM=    0.0000000   2.7928460   2.7928460   0.0000000   2.7928460   2.7928460   0.0000000   2.7928460   2.7928460   0.0000000
 AtZNuc=   8.0000000   1.0000000   1.0000000   8.0000000   1.0000000   1.0000000   8.0000000   1.0000000   1.0000000   8.0000000

  Atom        81          82          83          84          85          86          87          88          89          90
 IAtWgt=           1           1          16           1           1          16           1           1          16           1
 AtmWgt=   1.0078250   1.0078250  15.9949146   1.0078250   1.0078250  15.9949146   1.0078250   1.0078250  15.9949146   1.0078250
 NucSpn=           1           1           0           1           1           0           1           1           0           1
 AtZEff=   0.0000000   0.0000000   0.0000000   0.0000000   0.0000000   0.0000000   0.0000000   0.0000000   0.0000000   0.0000000
 NQMom=    0.0000000   0.0000000   0.0000000   0.0000000   0.0000000   0.0000000   0.0000000   0.0000000   0.0000000   0.0000000
 NMagM=    2.7928460   2.7928460   0.0000000   2.7928460   2.7928460   0.0000000   2.7928460   2.7928460   0.0000000   2.7928460
 AtZNuc=   1.0000000   1.0000000   8.0000000   1.0000000   1.0000000   8.0000000   1.0000000   1.0000000   8.0000000   1.0000000

  Atom        91          92          93          94          95          96          97
 IAtWgt=           1          16           1           1          16           1           1
 AtmWgt=   1.0078250  15.9949146   1.0078250   1.0078250  15.9949146   1.0078250   1.0078250
 NucSpn=           1           0           1           1           0           1           1
 AtZEff=   0.0000000   0.0000000   0.0000000   0.0000000   0.0000000   0.0000000   0.0000000
 NQMom=    0.0000000   0.0000000   0.0000000   0.0000000   0.0000000   0.0000000   0.0000000
 NMagM=    2.7928460   0.0000000   2.7928460   2.7928460   0.0000000   2.7928460   2.7928460
 AtZNuc=   1.0000000   8.0000000   1.0000000   1.0000000   8.0000000   1.0000000   1.0000000
 Leave Link  101 at Wed May  2 21:18:31 2018, MaxMem= 14763950080 cpu:        12.6
 (Enter /cm/shared/gaussian/g09.e01/intel64-sandybridge/g09/l103.exe)

 GradGradGradGradGradGradGradGradGradGradGradGradGradGradGradGradGradGrad
 Berny optimization.
 Initialization pass.
 Trust Radius=3.00D-01 FncErr=1.00D-07 GrdErr=1.00D-07
 Number of steps in this run=      2 maximum allowed number of steps=      2.
 GradGradGradGradGradGradGradGradGradGradGradGradGradGradGradGradGradGrad

 Leave Link  103 at Wed May  2 21:18:31 2018, MaxMem= 14763950080 cpu:         1.7
 (Enter /cm/shared/gaussian/g09.e01/intel64-sandybridge/g09/l202.exe)
 Symmetry turned off by external request.
 Stoichiometry    BrH64O32(1-)
 Framework group  C1[X(BrH64O32)]
 Deg. of freedom   285
 Full point group                 C1      NOp   1
                          Input orientation:                          
 ---------------------------------------------------------------------
 Center     Atomic      Atomic             Coordinates (Angstroms)
 Number     Number       Type             X           Y           Z
 ---------------------------------------------------------------------
      1         35           0       20.000000   20.000000   20.000000
      2          8           0       22.570000   19.750000   18.410000
      3          1           0       21.790000   19.900000   18.950000
      4          1           0       23.050000   19.060000   18.880000
      5          8           0       19.350000   16.980000   19.700000
      6          1           0       19.460000   16.690000   20.610000
      7          1           0       19.550000   17.920000   19.730000
      8          8           0       17.430000   19.980000   18.050000
      9          1           0       16.910000   19.560000   18.740000
     10          1           0       18.310000   20.050000   18.430000
     11          8           0       17.500000   21.610000   21.410000
     12          1           0       18.100000   20.940000   21.070000
     13          1           0       17.360000   22.200000   20.670000
     14          8           0       22.440000   18.810000   21.930000
     15          1           0       22.780000   18.210000   21.270000
     16          1           0       21.660000   19.200000   21.530000
     17          8           0       20.850000   23.240000   19.750000
     18          1           0       19.980000   23.410000   20.120000
     19          1           0       21.040000   22.330000   19.980000
     20          8           0       20.230000   18.610000   16.970000
     21          1           0       21.100000   19.000000   17.090000
     22          1           0       19.700000   18.980000   17.670000
     23          8           0       20.550000   22.440000   16.280000
     24          1           0       21.030000   22.530000   17.100000
     25          1           0       20.120000   23.280000   16.150000
     26          8           0       17.200000   18.090000   23.230000
     27          1           0       16.800000   17.550000   22.550000
     28          1           0       18.130000   18.140000   23.000000
     29          8           0       20.470000   16.480000   22.440000
     30          1           0       20.860000   17.100000   23.040000
     31          1           0       21.060000   15.730000   22.450000
     32          8           0       18.750000   23.290000   23.490000
     33          1           0       18.600000   22.360000   23.330000
     34          1           0       19.690000   23.410000   23.350000
     35          8           0       23.240000   17.090000   20.100000
     36          1           0       22.610000   16.390000   19.960000
     37          1           0       23.870000   16.730000   20.730000
     38          8           0       15.640000   19.230000   20.230000
     39          1           0       15.610000   18.330000   20.550000
     40          1           0       14.720000   19.500000   20.200000
     41          8           0       21.600000   15.240000   19.240000
     42          1           0       20.770000   15.700000   19.090000
     43          1           0       21.480000   14.810000   20.090000
     44          8           0       17.480000   19.690000   15.240000
     45          1           0       16.900000   20.410000   15.500000
     46          1           0       17.990000   19.500000   16.030000
     47          8           0       18.400000   24.200000   20.540000
     48          1           0       17.540000   24.580000   20.730000
     49          1           0       18.830000   24.140000   21.390000
     50          8           0       22.660000   24.150000   17.990000
     51          1           0       22.090000   23.800000   18.680000
     52          1           0       23.450000   23.610000   18.040000
     53          8           0       15.730000   20.250000   23.090000
     54          1           0       16.180000   20.700000   22.370000
     55          1           0       16.250000   19.460000   23.240000
     56          8           0       17.650000   15.550000   17.470000
     57          1           0       17.720000   14.790000   18.050000
     58          1           0       18.190000   16.220000   17.880000
     59          8           0       22.790000   19.280000   24.610000
     60          1           0       22.120000   18.590000   24.670000
     61          1           0       23.010000   19.310000   23.680000
     62          8           0       24.120000   20.870000   16.090000
     63          1           0       23.520000   21.000000   15.360000
     64          1           0       23.580000   20.500000   16.790000
     65          8           0       21.440000   23.520000   23.160000
     66          1           0       21.700000   23.060000   23.960000
     67          1           0       22.210000   23.500000   22.600000
     68          8           0       21.380000   20.510000   14.600000
     69          1           0       21.820000   21.200000   14.110000
     70          1           0       20.850000   20.980000   15.250000
     71          8           0       16.610000   22.810000   16.060000
     72          1           0       17.200000   23.560000   16.050000
     73          1           0       17.170000   22.060000   16.280000
     74          8           0       23.780000   23.090000   22.000000
     75          1           0       24.230000   23.940000   21.910000
     76          1           0       24.490000   22.450000   21.940000
     77          8           0       16.240000   16.540000   21.390000
     78          1           0       16.700000   15.860000   20.890000
     79          1           0       15.370000   16.180000   21.550000
     80          8           0       18.390000   14.550000   21.840000
     81          1           0       18.950000   15.260000   22.170000
     82          1           0       18.960000   13.790000   21.810000
     83          8           0       20.970000   26.260000   20.490000
     84          1           0       21.020000   25.330000   20.280000
     85          1           0       21.270000   26.700000   19.700000
     86          8           0       20.530000   15.040000   16.370000
     87          1           0       21.150000   15.680000   16.710000
     88          1           0       19.900000   15.550000   15.860000
     89          8           0       24.200000   15.890000   17.510000
     90          1           0       23.540000   15.920000   18.200000
     91          1           0       24.920000   16.430000   17.840000
     92          8           0       18.390000   16.540000   15.060000
     93          1           0       17.950000   16.390000   15.900000
     94          1           0       18.630000   17.460000   15.070000
     95          8           0       17.000000   21.000000   25.550000
     96          1           0       16.700000   20.790000   24.660000
     97          1           0       16.410000   21.700000   25.840000
 ---------------------------------------------------------------------
 Rotational constants (GHZ):      0.0603227      0.0538985      0.0463826
 Leave Link  202 at Wed May  2 21:18:31 2018, MaxMem= 14763950080 cpu:         0.5
 (Enter /cm/shared/gaussian/g09.e01/intel64-sandybridge/g09/l122.exe)
 Counterpoise: doing full dimer calculation.
 Leave Link  122 at Wed May  2 21:18:31 2018, MaxMem= 14763950080 cpu:         0.0
 (Enter /cm/shared/gaussian/g09.e01/intel64-sandybridge/g09/l301.exe)
 Standard basis: CC-pVDZ (5D, 7F)
 Ernie: Thresh=  0.10000D-02 Tol=  0.10000D-05 Strict=F.
 Ernie:  87 primitive shells out of 1114 were deleted.
   795 basis functions,  1651 primitive gaussians,   829 cartesian basis functions
   178 alpha electrons      178 beta electrons
       nuclear repulsion energy      6060.4092654041 Hartrees.
 IExCor= 1009 DFT=T Ex+Corr=PBE1PBE ExCW=0 ScaHFX=  0.250000
 ScaDFX=  0.750000  0.750000  1.000000  1.000000 ScalE2=  1.000000  1.000000
 IRadAn=      0 IRanWt=     -1 IRanGd=            0 ICorTp=0 IEmpDi=  4
 NAtoms=   97 NActive=   97 NUniq=   97 SFac= 1.00D+00 NAtFMM=   60 NAOKFM=T Big=T
 Integral buffers will be    131072 words long.
 Raffenetti 2 integral format.
 Two-electron integral symmetry is turned off.
 Leave Link  301 at Wed May  2 21:18:31 2018, MaxMem= 14763950080 cpu:         4.3
 (Enter /cm/shared/gaussian/g09.e01/intel64-sandybridge/g09/l302.exe)
 NPDir=0 NMtPBC=     1 NCelOv=     1 NCel=       1 NClECP=     1 NCelD=      1
         NCelK=      1 NCelE2=     1 NClLst=     1 CellRange=     0.0.
 One-electron integrals computed using PRISM.
 NBasis=   795 RedAO= T EigKep=  1.52D-02  NBF=   795
 NBsUse=   795 1.00D-06 EigRej= -1.00D+00 NBFU=   795
 Precomputing XC quadrature grid using
 IXCGrd= 4 IRadAn=           0 IRanWt=          -1 IRanGd=           0 AccXCQ= 0.00D+00.
 Generated NRdTot=       0 NPtTot=           0 NUsed=           0 NTot=          32
 NSgBfM=   690   710   714   723   723 MxSgAt=    97 MxSgA2=    97.
 Leave Link  302 at Wed May  2 21:18:37 2018, MaxMem= 14763950080 cpu:       403.4
 (Enter /cm/shared/gaussian/g09.e01/intel64-sandybridge/g09/l303.exe)
 DipDrv:  MaxL=1.
 Leave Link  303 at Wed May  2 21:18:38 2018, MaxMem= 14763950080 cpu:        29.0
 (Enter /cm/shared/gaussian/g09.e01/intel64-sandybridge/g09/l401.exe)
 ExpMin= 1.22D-01 ExpMax= 6.40D+05 ExpMxC= 6.18D+03 IAcc=2 IRadAn=         4 AccDes= 0.00D+00
 Harris functional with IExCor= 1009 and IRadAn=       4 diagonalized for initial guess.
 HarFok:  IExCor= 1009 AccDes= 0.00D+00 IRadAn=         4 IDoV= 1 UseB2=F ITyADJ=14
 ICtDFT=  3500011 ScaDFX=  1.000000  1.000000  1.000000  1.000000
 FoFCou: FMM=F IPFlag=           0 FMFlag=      100000 FMFlg1=        2001
         NFxFlg=           0 DoJE=T BraDBF=F KetDBF=T FulRan=T
         wScrn=  0.000000 ICntrl=     500 IOpCl=  0 I1Cent=   200000004 NGrid=           0
         NMat0=    1 NMatS0=      1 NMatT0=    0 NMatD0=    1 NMtDS0=    0 NMtDT0=    0
 Symmetry not used in FoFCou.
 Harris En= -5018.41851514415    
 JPrj=0 DoOrth=F DoCkMO=F.
 Leave Link  401 at Wed May  2 21:18:43 2018, MaxMem= 14763950080 cpu:       307.9
 (Enter /cm/shared/gaussian/g09.e01/intel64-sandybridge/g09/l502.exe)
 Closed shell SCF:
 Using DIIS extrapolation, IDIIS=  1040.
 Two-electron integral symmetry not used.
 IVT=     2138497 IEndB=     2138497 NGot= 14763950080 MDV= 14762516294
 LenX= 14762516294 LenY= 14761828224
 Requested convergence on RMS density matrix=1.00D-08 within 128 cycles.
 Requested convergence on MAX density matrix=1.00D-06.
 Requested convergence on             energy=1.00D-06.
 No special actions if energy rises.
 Fock matrices will be formed incrementally for  20 cycles.
 Integral accuracy reduced to 1.0D-05 until final iterations.

 Cycle   1  Pass 0  IDiag  1:
 FoFJK:  IHMeth= 1 ICntrl=       0 DoSepK=F KAlg= 0 I1Cent=   0 FoldK=F
 IRaf= 810000000 NMat=   1 IRICut=       1 DoRegI=T DoRafI=F ISym2E= 0.
 FoFCou: FMM=T IPFlag=           0 FMFlag=      100000 FMFlg1=        2001
         NFxFlg=           0 DoJE=F BraDBF=F KetDBF=F FulRan=T
         wScrn=  0.000000 ICntrl=       0 IOpCl=  0 I1Cent=           0 NGrid=           0
         NMat0=    1 NMatS0=      1 NMatT0=    0 NMatD0=    1 NMtDS0=    0 NMtDT0=    0
 Symmetry not used in FoFCou.
 FMM levels:  10  Number of levels for PrismC:   9
 E= -5015.28022369519    
 DIIS: error= 3.84D-02 at cycle   1 NSaved=   1.
 NSaved= 1 IEnMin= 1 EnMin= -5015.28022369519     IErMin= 1 ErrMin= 3.84D-02
 ErrMax= 3.84D-02  0.00D+00 EMaxC= 1.00D-01 BMatC= 2.73D+00 BMatP= 2.73D+00
 IDIUse=3 WtCom= 6.16D-01 WtEn= 3.84D-01
 Coeff-Com:  0.100D+01
 Coeff-En:   0.100D+01
 Coeff:      0.100D+01
 Gap=     0.316 Goal=   None    Shift=    0.000
 GapD=    0.316 DampG=1.000 DampE=0.500 DampFc=0.5000 IDamp=-1.
 Damping current iteration by 5.00D-01
 RMSDP=2.88D-03 MaxDP=1.57D-01              OVMax= 1.84D-01

 Cycle   2  Pass 0  IDiag  1:
 RMSU=  1.43D-03    CP:  9.85D-01
 E= -5016.07235859036     Delta-E=       -0.792134895166 Rises=F Damp=T
 DIIS: error= 8.33D-03 at cycle   2 NSaved=   2.
 NSaved= 2 IEnMin= 2 EnMin= -5016.07235859036     IErMin= 2 ErrMin= 8.33D-03
 ErrMax= 8.33D-03  0.00D+00 EMaxC= 1.00D-01 BMatC= 8.79D-02 BMatP= 2.73D+00
 IDIUse=3 WtCom= 9.17D-01 WtEn= 8.33D-02
 Coeff-Com:  0.121D+00 0.879D+00
 Coeff-En:   0.216D+00 0.784D+00
 Coeff:      0.128D+00 0.872D+00
 Gap=     0.190 Goal=   None    Shift=    0.000
 RMSDP=3.63D-04 MaxDP=1.99D-02 DE=-7.92D-01 OVMax= 1.28D-01

 Cycle   3  Pass 0  IDiag  1:
 RMSU=  2.83D-04    CP:  9.87D-01  8.43D-01
 E= -5017.23030816172     Delta-E=       -1.157949571365 Rises=F Damp=F
 DIIS: error= 1.27D-03 at cycle   3 NSaved=   3.
 NSaved= 3 IEnMin= 3 EnMin= -5017.23030816172     IErMin= 3 ErrMin= 1.27D-03
 ErrMax= 1.27D-03  0.00D+00 EMaxC= 1.00D-01 BMatC= 1.99D-03 BMatP= 8.79D-02
 IDIUse=3 WtCom= 9.87D-01 WtEn= 1.27D-02
 Coeff-Com:  0.101D-01 0.713D-01 0.919D+00
 Coeff-En:   0.000D+00 0.000D+00 0.100D+01
 Coeff:      0.995D-02 0.704D-01 0.920D+00
 Gap=     0.206 Goal=   None    Shift=    0.000
 RMSDP=9.96D-05 MaxDP=1.42D-02 DE=-1.16D+00 OVMax= 1.70D-02

 Cycle   4  Pass 0  IDiag  1:
 RMSU=  8.95D-05    CP:  9.88D-01  8.46D-01  8.46D-01
 E= -5017.23058162305     Delta-E=       -0.000273461330 Rises=F Damp=F
 DIIS: error= 9.87D-04 at cycle   4 NSaved=   4.
 NSaved= 4 IEnMin= 4 EnMin= -5017.23058162305     IErMin= 4 ErrMin= 9.87D-04
 ErrMax= 9.87D-04  0.00D+00 EMaxC= 1.00D-01 BMatC= 2.16D-03 BMatP= 1.99D-03
 IDIUse=3 WtCom= 9.90D-01 WtEn= 9.87D-03
 Coeff-Com:  0.207D-02 0.680D-02 0.508D+00 0.483D+00
 Coeff-En:   0.000D+00 0.000D+00 0.463D+00 0.537D+00
 Coeff:      0.205D-02 0.674D-02 0.508D+00 0.483D+00
 Gap=     0.199 Goal=   None    Shift=    0.000
 RMSDP=4.44D-05 MaxDP=5.53D-03 DE=-2.73D-04 OVMax= 5.66D-03

 Cycle   5  Pass 0  IDiag  1:
 RMSU=  1.81D-05    CP:  9.87D-01  8.43D-01  9.07D-01  5.93D-01
 E= -5017.23226510606     Delta-E=       -0.001683483006 Rises=F Damp=F
 DIIS: error= 1.14D-04 at cycle   5 NSaved=   5.
 NSaved= 5 IEnMin= 5 EnMin= -5017.23226510606     IErMin= 5 ErrMin= 1.14D-04
 ErrMax= 1.14D-04  0.00D+00 EMaxC= 1.00D-01 BMatC= 3.44D-05 BMatP= 1.99D-03
 IDIUse=3 WtCom= 9.99D-01 WtEn= 1.14D-03
 Coeff-Com:  0.678D-03-0.197D-02 0.144D+00 0.168D+00 0.689D+00
 Coeff-En:   0.000D+00 0.000D+00 0.000D+00 0.000D+00 0.100D+01
 Coeff:      0.677D-03-0.196D-02 0.144D+00 0.168D+00 0.689D+00
 Gap=     0.199 Goal=   None    Shift=    0.000
 RMSDP=8.25D-06 MaxDP=1.24D-03 DE=-1.68D-03 OVMax= 1.24D-03

 Cycle   6  Pass 0  IDiag  1:
 RMSU=  5.86D-06    CP:  9.87D-01  8.43D-01  9.18D-01  5.75D-01  7.47D-01
 E= -5017.23229126368     Delta-E=       -0.000026157617 Rises=F Damp=F
 DIIS: error= 7.11D-05 at cycle   6 NSaved=   6.
 NSaved= 6 IEnMin= 6 EnMin= -5017.23229126368     IErMin= 6 ErrMin= 7.11D-05
 ErrMax= 7.11D-05  0.00D+00 EMaxC= 1.00D-01 BMatC= 3.90D-06 BMatP= 3.44D-05
 IDIUse=1 WtCom= 1.00D+00 WtEn= 0.00D+00
 Coeff-Com:  0.149D-03-0.201D-02 0.326D-01 0.408D-01 0.286D+00 0.642D+00
 Coeff:      0.149D-03-0.201D-02 0.326D-01 0.408D-01 0.286D+00 0.642D+00
 Gap=     0.199 Goal=   None    Shift=    0.000
 RMSDP=2.31D-06 MaxDP=4.23D-04 DE=-2.62D-05 OVMax= 3.43D-04

 Initial convergence to 1.0D-05 achieved.  Increase integral accuracy.
 Cycle   7  Pass 1  IDiag  1:
 E= -5017.23304242989     Delta-E=       -0.000751166212 Rises=F Damp=F
 DIIS: error= 2.60D-05 at cycle   1 NSaved=   1.
 NSaved= 1 IEnMin= 1 EnMin= -5017.23304242989     IErMin= 1 ErrMin= 2.60D-05
 ErrMax= 2.60D-05  0.00D+00 EMaxC= 1.00D-01 BMatC= 1.44D-06 BMatP= 1.44D-06
 IDIUse=1 WtCom= 1.00D+00 WtEn= 0.00D+00
 Coeff-Com:  0.100D+01
 Coeff:      0.100D+01
 Gap=     0.199 Goal=   None    Shift=    0.000
 RMSDP=2.31D-06 MaxDP=4.23D-04 DE=-7.51D-04 OVMax= 2.83D-04

 Cycle   8  Pass 1  IDiag  1:
 RMSU=  4.37D-06    CP:  1.00D+00
 E= -5017.23304376634     Delta-E=       -0.000001336452 Rises=F Damp=F
 DIIS: error= 1.47D-05 at cycle   2 NSaved=   2.
 NSaved= 2 IEnMin= 2 EnMin= -5017.23304376634     IErMin= 2 ErrMin= 1.47D-05
 ErrMax= 1.47D-05  0.00D+00 EMaxC= 1.00D-01 BMatC= 3.45D-07 BMatP= 1.44D-06
 IDIUse=1 WtCom= 1.00D+00 WtEn= 0.00D+00
 Coeff-Com:  0.256D+00 0.744D+00
 Coeff:      0.256D+00 0.744D+00
 Gap=     0.199 Goal=   None    Shift=    0.000
 RMSDP=8.26D-07 MaxDP=1.06D-04 DE=-1.34D-06 OVMax= 1.10D-04

 Cycle   9  Pass 1  IDiag  1:
 RMSU=  8.23D-07    CP:  1.00D+00  9.85D-01
 E= -5017.23304387350     Delta-E=       -0.000000107160 Rises=F Damp=F
 DIIS: error= 1.22D-05 at cycle   3 NSaved=   3.
 NSaved= 3 IEnMin= 3 EnMin= -5017.23304387350     IErMin= 3 ErrMin= 1.22D-05
 ErrMax= 1.22D-05  0.00D+00 EMaxC= 1.00D-01 BMatC= 2.02D-07 BMatP= 3.45D-07
 IDIUse=1 WtCom= 1.00D+00 WtEn= 0.00D+00
 Coeff-Com: -0.749D-02 0.433D+00 0.574D+00
 Coeff:     -0.749D-02 0.433D+00 0.574D+00
 Gap=     0.199 Goal=   None    Shift=    0.000
 RMSDP=3.60D-07 MaxDP=5.07D-05 DE=-1.07D-07 OVMax= 5.25D-05

 Cycle  10  Pass 1  IDiag  1:
 RMSU=  1.07D-07    CP:  1.00D+00  1.01D+00  6.01D-01
 E= -5017.23304401629     Delta-E=       -0.000000142791 Rises=F Damp=F
 DIIS: error= 1.04D-06 at cycle   4 NSaved=   4.
 NSaved= 4 IEnMin= 4 EnMin= -5017.23304401629     IErMin= 4 ErrMin= 1.04D-06
 ErrMax= 1.04D-06  0.00D+00 EMaxC= 1.00D-01 BMatC= 1.43D-09 BMatP= 2.02D-07
 IDIUse=1 WtCom= 1.00D+00 WtEn= 0.00D+00
 Coeff-Com: -0.567D-02 0.194D+00 0.266D+00 0.545D+00
 Coeff:     -0.567D-02 0.194D+00 0.266D+00 0.545D+00
 Gap=     0.199 Goal=   None    Shift=    0.000
 RMSDP=4.36D-08 MaxDP=7.10D-06 DE=-1.43D-07 OVMax= 7.13D-06

 Cycle  11  Pass 1  IDiag  1:
 RMSU=  3.23D-08    CP:  1.00D+00  1.01D+00  6.03D-01  7.31D-01
 E= -5017.23304401743     Delta-E=       -0.000000001144 Rises=F Damp=F
 DIIS: error= 2.26D-07 at cycle   5 NSaved=   5.
 NSaved= 5 IEnMin= 5 EnMin= -5017.23304401743     IErMin= 5 ErrMin= 2.26D-07
 ErrMax= 2.26D-07  0.00D+00 EMaxC= 1.00D-01 BMatC= 8.40D-11 BMatP= 1.43D-09
 IDIUse=1 WtCom= 1.00D+00 WtEn= 0.00D+00
 Coeff-Com: -0.187D-02 0.502D-01 0.699D-01 0.233D+00 0.649D+00
 Coeff:     -0.187D-02 0.502D-01 0.699D-01 0.233D+00 0.649D+00
 Gap=     0.199 Goal=   None    Shift=    0.000
 RMSDP=9.68D-09 MaxDP=9.06D-07 DE=-1.14D-09 OVMax= 9.88D-07

 SCF Done:  E(RPBE1PBE) =  -5017.23304402     A.U. after   11 cycles
            NFock= 11  Conv=0.97D-08     -V/T= 2.0028
 KE= 5.003399702403D+03 PE=-2.408768108240D+04 EE= 8.006639070574D+03
 Leave Link  502 at Wed May  2 21:20:41 2018, MaxMem= 14763950080 cpu:      7459.8
 (Enter /cm/shared/gaussian/g09.e01/intel64-sandybridge/g09/l601.exe)
 Copying SCF densities to generalized density rwf, IOpCl= 0 IROHF=0.

 **********************************************************************

            Population analysis using the SCF density.

 **********************************************************************

 Alpha  occ. eigenvalues -- -483.16054 -62.56407 -56.33641 -56.33630 -56.33626
 Alpha  occ. eigenvalues --  -19.22145 -19.19900 -19.18652 -19.18542 -19.17915
 Alpha  occ. eigenvalues --  -19.17749 -19.14561 -19.13739 -19.13682 -19.13673
 Alpha  occ. eigenvalues --  -19.13183 -19.13119 -19.12658 -19.12594 -19.12318
 Alpha  occ. eigenvalues --  -19.11880 -19.11478 -19.11265 -19.11251 -19.10793
 Alpha  occ. eigenvalues --  -19.10166 -19.10140 -19.10110 -19.09422 -19.08237
 Alpha  occ. eigenvalues --  -19.07867 -19.07625 -19.07583 -19.07314 -19.06889
 Alpha  occ. eigenvalues --  -19.06470 -19.06242  -8.66796  -6.47148  -6.47091
 Alpha  occ. eigenvalues --   -6.47080  -2.55420  -2.55416  -2.55406  -2.55355
 Alpha  occ. eigenvalues --   -2.55353  -1.04829  -1.02639  -1.02473  -1.00525
 Alpha  occ. eigenvalues --   -1.00291  -1.00236  -0.97016  -0.96923  -0.96126
 Alpha  occ. eigenvalues --   -0.96108  -0.95821  -0.95805  -0.95658  -0.95307
 Alpha  occ. eigenvalues --   -0.94913  -0.94780  -0.93971  -0.93738  -0.93729
 Alpha  occ. eigenvalues --   -0.93382  -0.92849  -0.92718  -0.92642  -0.91790
 Alpha  occ. eigenvalues --   -0.90876  -0.90370  -0.90213  -0.90051  -0.89933
 Alpha  occ. eigenvalues --   -0.89852  -0.88797  -0.88720  -0.66814  -0.55395
 Alpha  occ. eigenvalues --   -0.52799  -0.52700  -0.51143  -0.50869  -0.50620
 Alpha  occ. eigenvalues --   -0.49122  -0.48249  -0.47772  -0.47327  -0.46464
 Alpha  occ. eigenvalues --   -0.46376  -0.46361  -0.46342  -0.45651  -0.45189
 Alpha  occ. eigenvalues --   -0.44991  -0.44863  -0.44492  -0.44351  -0.44272
 Alpha  occ. eigenvalues --   -0.44080  -0.43111  -0.42460  -0.42162  -0.41893
 Alpha  occ. eigenvalues --   -0.41499  -0.41369  -0.41304  -0.40929  -0.40409
 Alpha  occ. eigenvalues --   -0.40070  -0.39536  -0.39264  -0.38537  -0.37337
 Alpha  occ. eigenvalues --   -0.37163  -0.36542  -0.35181  -0.34707  -0.34300
 Alpha  occ. eigenvalues --   -0.33614  -0.33048  -0.32674  -0.32472  -0.32293
 Alpha  occ. eigenvalues --   -0.32255  -0.31282  -0.31144  -0.31011  -0.30849
 Alpha  occ. eigenvalues --   -0.30250  -0.29765  -0.29431  -0.29316  -0.28982
 Alpha  occ. eigenvalues --   -0.28938  -0.28751  -0.28507  -0.28235  -0.28012
 Alpha  occ. eigenvalues --   -0.27392  -0.27240  -0.26434  -0.26216  -0.26066
 Alpha  occ. eigenvalues --   -0.26000  -0.25872  -0.25832  -0.25630  -0.25303
 Alpha  occ. eigenvalues --   -0.25267  -0.24999  -0.24932  -0.24231  -0.23662
 Alpha  occ. eigenvalues --   -0.23368  -0.23317  -0.22854  -0.22596  -0.22293
 Alpha  occ. eigenvalues --   -0.22122  -0.21723  -0.21572  -0.21470  -0.21256
 Alpha  occ. eigenvalues --   -0.20931  -0.20801  -0.20614  -0.20495  -0.19830
 Alpha  occ. eigenvalues --   -0.19196  -0.18882  -0.18696  -0.18466  -0.18249
 Alpha  occ. eigenvalues --   -0.18216  -0.17753  -0.17337
 Alpha virt. eigenvalues --    0.02574   0.08363   0.08600   0.09302   0.10122
 Alpha virt. eigenvalues --    0.11002   0.12985   0.13216   0.14096   0.14682
 Alpha virt. eigenvalues --    0.15090   0.15586   0.16113   0.16680   0.17047
 Alpha virt. eigenvalues --    0.17244   0.17523   0.17978   0.18699   0.18828
 Alpha virt. eigenvalues --    0.19754   0.19943   0.20593   0.20724   0.21096
 Alpha virt. eigenvalues --    0.21929   0.22218   0.22874   0.23291   0.24007
 Alpha virt. eigenvalues --    0.24319   0.24897   0.25550   0.26046   0.26526
 Alpha virt. eigenvalues --    0.26963   0.27401   0.27943   0.28387   0.28784
 Alpha virt. eigenvalues --    0.28996   0.29171   0.29916   0.30468   0.30752
 Alpha virt. eigenvalues --    0.30976   0.31387   0.31933   0.32568   0.33146
 Alpha virt. eigenvalues --    0.33349   0.33590   0.34847   0.35486   0.35847
 Alpha virt. eigenvalues --    0.36290   0.36706   0.37242   0.37472   0.38465
 Alpha virt. eigenvalues --    0.38813   0.39448   0.40524   0.43285   0.54868
 Alpha virt. eigenvalues --    0.55866   0.57562   0.58501   0.59229   0.59559
 Alpha virt. eigenvalues --    0.60116   0.61205   0.61406   0.61925   0.62652
 Alpha virt. eigenvalues --    0.62823   0.63356   0.63942   0.64262   0.64433
 Alpha virt. eigenvalues --    0.65035   0.65588   0.65688   0.66001   0.66385
 Alpha virt. eigenvalues --    0.66516   0.66912   0.66948   0.67305   0.67382
 Alpha virt. eigenvalues --    0.67578   0.67940   0.68525   0.68814   0.69177
 Alpha virt. eigenvalues --    0.69828   0.69963   0.70238   0.70307   0.70877
 Alpha virt. eigenvalues --    0.71284   0.71585   0.71746   0.71907   0.72047
 Alpha virt. eigenvalues --    0.72591   0.72824   0.73401   0.73729   0.73986
 Alpha virt. eigenvalues --    0.74249   0.74583   0.74771   0.75291   0.75538
 Alpha virt. eigenvalues --    0.75975   0.76587   0.76706   0.76962   0.77273
 Alpha virt. eigenvalues --    0.77721   0.78635   0.79029   0.79118   0.79610
 Alpha virt. eigenvalues --    0.80580   0.80974   0.81756   0.82812   0.83295
 Alpha virt. eigenvalues --    0.84438   0.85673   0.86702   0.87700   0.88179
 Alpha virt. eigenvalues --    0.91552   0.92438   0.93147   0.93740   0.93940
 Alpha virt. eigenvalues --    0.95402   0.96240   0.96629   0.96871   0.97143
 Alpha virt. eigenvalues --    0.97381   0.97738   0.97986   0.98586   0.99152
 Alpha virt. eigenvalues --    0.99289   0.99613   0.99670   1.00102   1.00689
 Alpha virt. eigenvalues --    1.00818   1.01064   1.01288   1.01690   1.02115
 Alpha virt. eigenvalues --    1.02380   1.02739   1.02910   1.03013   1.03119
 Alpha virt. eigenvalues --    1.03648   1.04086   1.04161   1.04487   1.04620
 Alpha virt. eigenvalues --    1.04930   1.05377   1.05606   1.06201   1.06224
 Alpha virt. eigenvalues --    1.06812   1.07288   1.07431   1.07749   1.07993
 Alpha virt. eigenvalues --    1.08358   1.08503   1.08669   1.09016   1.09109
 Alpha virt. eigenvalues --    1.09400   1.09697   1.10107   1.10327   1.10710
 Alpha virt. eigenvalues --    1.11058   1.11238   1.11469   1.12103   1.12175
 Alpha virt. eigenvalues --    1.12410   1.13450   1.13859   1.14302   1.14626
 Alpha virt. eigenvalues --    1.15065   1.15347   1.15410   1.15741   1.16074
 Alpha virt. eigenvalues --    1.16441   1.16898   1.17305   1.17440   1.17639
 Alpha virt. eigenvalues --    1.18162   1.18431   1.18599   1.19146   1.20112
 Alpha virt. eigenvalues --    1.20606   1.20685   1.21001   1.21545   1.21791
 Alpha virt. eigenvalues --    1.22067   1.22278   1.22460   1.22732   1.23664
 Alpha virt. eigenvalues --    1.25114   1.25289   1.25746   1.25842   1.26026
 Alpha virt. eigenvalues --    1.26767   1.27081   1.27233   1.27384   1.27833
 Alpha virt. eigenvalues --    1.28019   1.29067   1.29281   1.29747   1.30312
 Alpha virt. eigenvalues --    1.30393   1.30697   1.31203   1.31411   1.31856
 Alpha virt. eigenvalues --    1.31952   1.32358   1.32597   1.32661   1.32760
 Alpha virt. eigenvalues --    1.32916   1.33340   1.33470   1.33681   1.33935
 Alpha virt. eigenvalues --    1.34099   1.34591   1.35001   1.35165   1.35726
 Alpha virt. eigenvalues --    1.35955   1.36303   1.36413   1.37144   1.37395
 Alpha virt. eigenvalues --    1.37903   1.38139   1.38891   1.39087   1.39370
 Alpha virt. eigenvalues --    1.39978   1.40158   1.40400   1.40565   1.41012
 Alpha virt. eigenvalues --    1.41167   1.41426   1.41905   1.42604   1.42748
 Alpha virt. eigenvalues --    1.42988   1.43111   1.43791   1.44559   1.45098
 Alpha virt. eigenvalues --    1.45523   1.45861   1.46444   1.47008   1.47779
 Alpha virt. eigenvalues --    1.47820   1.48336   1.48579   1.48794   1.49240
 Alpha virt. eigenvalues --    1.49654   1.50347   1.50728   1.51231   1.51590
 Alpha virt. eigenvalues --    1.52331   1.53283   1.53610   1.53937   1.54069
 Alpha virt. eigenvalues --    1.54460   1.54943   1.55609   1.55986   1.56079
 Alpha virt. eigenvalues --    1.56313   1.56509   1.57160   1.57409   1.57693
 Alpha virt. eigenvalues --    1.58430   1.59249   1.59587   1.59765   1.60261
 Alpha virt. eigenvalues --    1.60332   1.60758   1.61439   1.61992   1.62880
 Alpha virt. eigenvalues --    1.63679   1.64143   1.64549   1.65279   1.65545
 Alpha virt. eigenvalues --    1.65663   1.66260   1.68385   1.69164   1.70056
 Alpha virt. eigenvalues --    1.73047   1.73393   1.73595   1.73862   1.74644
 Alpha virt. eigenvalues --    1.75372   1.75476   1.75877   1.76052   1.76636
 Alpha virt. eigenvalues --    1.77548   1.77880   1.77994   1.78732   1.79359
 Alpha virt. eigenvalues --    1.79989   1.80099   1.80273   1.80497   1.80634
 Alpha virt. eigenvalues --    1.81280   1.81513   1.82018   1.82128   1.82517
 Alpha virt. eigenvalues --    1.83129   1.83633   1.84022   1.84393   1.84542
 Alpha virt. eigenvalues --    1.84999   1.85423   1.85652   1.85984   1.86802
 Alpha virt. eigenvalues --    1.87365   1.87919   1.88864   1.89191   1.89637
 Alpha virt. eigenvalues --    1.90204   1.90719   1.91310   1.91830   1.92574
 Alpha virt. eigenvalues --    1.92760   1.93307   1.95101   1.95532   1.96211
 Alpha virt. eigenvalues --    1.96454   1.97488   1.97696   1.98788   1.99921
 Alpha virt. eigenvalues --    2.00344   2.03730   2.06006   2.15849   2.16429
 Alpha virt. eigenvalues --    2.17647   2.17750   2.17981   2.18879   2.20035
 Alpha virt. eigenvalues --    2.20080   2.20228   2.21237   2.21987   2.22408
 Alpha virt. eigenvalues --    2.22712   2.23271   2.23672   2.23801   2.24243
 Alpha virt. eigenvalues --    2.24473   2.24907   2.25327   2.25560   2.25723
 Alpha virt. eigenvalues --    2.25906   2.26015   2.26326   2.27088   2.27407
 Alpha virt. eigenvalues --    2.27497   2.27666   2.28584   2.28941   2.29881
 Alpha virt. eigenvalues --    2.30060   2.30242   2.30801   2.31733   2.32138
 Alpha virt. eigenvalues --    2.32525   2.32722   2.33214   2.33541   2.33967
 Alpha virt. eigenvalues --    2.36108   2.36305   2.37296   2.38061   2.38190
 Alpha virt. eigenvalues --    2.41574   2.42796   2.44086   2.45564   2.48007
 Alpha virt. eigenvalues --    2.50198   2.51556   2.53582   2.54034   2.55835
 Alpha virt. eigenvalues --    2.56619   2.56892   2.61602   2.62014   2.64305
 Alpha virt. eigenvalues --    2.66225   2.74904   2.91391   2.93305   2.95694
 Alpha virt. eigenvalues --    2.96352   2.96360   2.97096   2.98226   2.98706
 Alpha virt. eigenvalues --    2.98820   2.99727   2.99789   2.99840   3.00170
 Alpha virt. eigenvalues --    3.00701   3.00907   3.01131   3.01297   3.01498
 Alpha virt. eigenvalues --    3.01694   3.01982   3.02112   3.02154   3.02291
 Alpha virt. eigenvalues --    3.02599   3.03144   3.03254   3.03392   3.03459
 Alpha virt. eigenvalues --    3.04073   3.04253   3.04601   3.04688   3.04749
 Alpha virt. eigenvalues --    3.04765   3.05253   3.05838   3.06059   3.06089
 Alpha virt. eigenvalues --    3.06133   3.06449   3.06621   3.06781   3.06909
 Alpha virt. eigenvalues --    3.06967   3.07217   3.07254   3.07759   3.08074
 Alpha virt. eigenvalues --    3.08227   3.08294   3.08560   3.08680   3.08899
 Alpha virt. eigenvalues --    3.09196   3.10549   3.10602   3.10726   3.11012
 Alpha virt. eigenvalues --    3.11170   3.11602   3.12192   3.12912   3.14809
 Alpha virt. eigenvalues --    3.15169   3.16534   3.16690   3.17177   3.19686
 Alpha virt. eigenvalues --    3.20104   3.20615   3.21531   3.21847   3.22484
 Alpha virt. eigenvalues --    3.22955   3.23464   3.23719   3.23886   3.25034
 Alpha virt. eigenvalues --    3.25243   3.25310   3.25574   3.25788   3.25939
 Alpha virt. eigenvalues --    3.26184   3.26379   3.26602   3.26975   3.27279
 Alpha virt. eigenvalues --    3.27574   3.27912   3.28674   3.29168   3.30448
 Alpha virt. eigenvalues --    3.30751   3.30980   3.31352   3.52004   3.52605
 Alpha virt. eigenvalues --    3.53993   3.54435   3.54534   3.55800   3.57679
 Alpha virt. eigenvalues --    3.57966   3.58633   3.58865   3.59801   3.59990
 Alpha virt. eigenvalues --    3.60271   3.61117   3.61965   3.62016   3.62456
 Alpha virt. eigenvalues --    3.63239   3.63606   3.64246   3.64672   3.65037
 Alpha virt. eigenvalues --    3.65564   3.65756   3.66676   3.66882   3.67767
 Alpha virt. eigenvalues --    3.68407   3.68930   3.70082   3.71824   3.72807
 Alpha virt. eigenvalues --    3.78988   3.80578   3.82775   3.83997   3.85007
 Alpha virt. eigenvalues --    3.85279   3.85621   3.86051   3.87425   3.88250
 Alpha virt. eigenvalues --    3.88329   3.88545   3.88963   3.89143   3.89884
 Alpha virt. eigenvalues --    3.90027   3.90450   3.90715   3.90926   3.92040
 Alpha virt. eigenvalues --    3.92393   3.93068   3.93302   3.93684   3.93723
 Alpha virt. eigenvalues --    3.94152   3.94809   3.95755   3.96714   3.97275
 Alpha virt. eigenvalues --    3.98853   4.00263
          Condensed to atoms (all electrons):
 Mulliken charges:
               1
     1  Br  -0.711400
     2  O   -0.274783
     3  H    0.157649
     4  H    0.129958
     5  O   -0.281845
     6  H    0.104654
     7  H    0.161920
     8  O   -0.299968
     9  H    0.123669
    10  H    0.152655
    11  O   -0.257885
    12  H    0.153720
    13  H    0.124223
    14  O   -0.312256
    15  H    0.111137
    16  H    0.148838
    17  O   -0.273037
    18  H    0.142008
    19  H    0.158684
    20  O   -0.280241
    21  H    0.129651
    22  H    0.108927
    23  O   -0.248674
    24  H    0.123749
    25  H    0.130514
    26  O   -0.276138
    27  H    0.147810
    28  H    0.129846
    29  O   -0.219066
    30  H    0.142311
    31  H    0.128337
    32  O   -0.304728
    33  H    0.122014
    34  H    0.138932
    35  O   -0.241554
    36  H    0.114672
    37  H    0.138362
    38  O   -0.234877
    39  H    0.111655
    40  H    0.139549
    41  O   -0.218027
    42  H    0.147941
    43  H    0.119701
    44  O   -0.288718
    45  H    0.133890
    46  H    0.129330
    47  O   -0.246022
    48  H    0.149426
    49  H    0.124545
    50  O   -0.312534
    51  H    0.145821
    52  H    0.127385
    53  O   -0.338115
    54  H    0.132001
    55  H    0.145432
    56  O   -0.250331
    57  H    0.129436
    58  H    0.135563
    59  O   -0.302667
    60  H    0.116034
    61  H    0.136786
    62  O   -0.318196
    63  H    0.104695
    64  H    0.131410
    65  O   -0.266130
    66  H    0.137418
    67  H    0.131810
    68  O   -0.275232
    69  H    0.114494
    70  H    0.143871
    71  O   -0.281605
    72  H    0.131187
    73  H    0.121753
    74  O   -0.233298
    75  H    0.153140
    76  H    0.145569
    77  O   -0.215983
    78  H    0.158127
    79  H    0.156075
    80  O   -0.270954
    81  H    0.136606
    82  H    0.127348
    83  O   -0.288674
    84  H    0.127490
    85  H    0.125005
    86  O   -0.314249
    87  H    0.128267
    88  H    0.116000
    89  O   -0.278834
    90  H    0.125019
    91  H    0.122097
    92  O   -0.279365
    93  H    0.140958
    94  H    0.148313
    95  O   -0.316582
    96  H    0.114493
    97  H    0.122085
 Sum of Mulliken charges =  -1.00000
 Mulliken charges with hydrogens summed into heavy atoms:
               1
     1  Br  -0.711400
     2  O    0.012824
     5  O   -0.015271
     8  O   -0.023644
    11  O    0.020059
    14  O   -0.052280
    17  O    0.027654
    20  O   -0.041662
    23  O    0.005589
    26  O    0.001518
    29  O    0.051582
    32  O   -0.043782
    35  O    0.011480
    38  O    0.016327
    41  O    0.049615
    44  O   -0.025498
    47  O    0.027949
    50  O   -0.039328
    53  O   -0.060683
    56  O    0.014668
    59  O   -0.049847
    62  O   -0.082091
    65  O    0.003099
    68  O   -0.016867
    71  O   -0.028664
    74  O    0.065410
    77  O    0.098219
    80  O   -0.007000
    83  O   -0.036179
    86  O   -0.069982
    89  O   -0.031718
    92  O    0.009906
    95  O   -0.080004
         Mulliken charges condensed to fragments:
      1     -0.711400
      2     -0.288600
 Electronic spatial extent (au):  <R**2>=        1521886.0301
 Charge=             -1.0000 electrons
 Dipole moment (field-independent basis, Debye):
    X=            -91.4642    Y=           -100.2512    Z=            -83.8095  Tot=            159.4994
 Quadrupole moment (field-independent basis, Debye-Ang):
   XX=          -1974.7592   YY=          -2334.5816   ZZ=          -1808.9966
   XY=          -1900.5173   XZ=          -1553.8300   YZ=          -1844.0421
 Traceless Quadrupole moment (field-independent basis, Debye-Ang):
   XX=             64.6866   YY=           -295.1358   ZZ=            230.4492
   XY=          -1900.5173   XZ=          -1553.8300   YZ=          -1844.0421
 Octapole moment (field-independent basis, Debye-Ang**2):
  XXX=         -47064.1968  YYY=         -58162.1697  ZZZ=         -46083.8764  XYY=         -44369.8622
  XXY=         -40621.7988  XXZ=         -33161.8443  XZZ=         -32980.4108  YZZ=         -40957.6721
  YYZ=         -44826.9485  XYZ=         -34193.4769
 Hexadecapole moment (field-independent basis, Debye-Ang**3):
 XXXX=       -1191588.4249 YYYY=       -1502308.0248 ZZZZ=       -1273042.6886 XXXY=        -956541.3104
 XXXZ=        -792738.2795 YYYX=       -1112681.4114 YYYZ=       -1149333.9289 ZZZX=        -839293.5974
 ZZZY=       -1042409.0989 XXYY=        -937045.5477 XXZZ=        -686458.0032 YYZZ=       -1004757.8076
 XXYZ=        -720039.5051 YYXZ=        -837761.3928 ZZXY=        -750682.1325
 N-N= 6.060409265404D+03 E-N=-2.408768105145D+04  KE= 5.003399702403D+03
 No NMR shielding tensors so no spin-rotation constants.
 Leave Link  601 at Wed May  2 21:20:44 2018, MaxMem= 14763950080 cpu:        69.2
 (Enter /cm/shared/gaussian/g09.e01/intel64-sandybridge/g09/l701.exe)
 Compute integral first derivatives.
 ... and contract with generalized density number  0.
 Leave Link  701 at Wed May  2 21:20:46 2018, MaxMem= 14763950080 cpu:       124.9
 (Enter /cm/shared/gaussian/g09.e01/intel64-sandybridge/g09/l702.exe)
 L702 exits ... SP integral derivatives will be done elsewhere.
 Leave Link  702 at Wed May  2 21:20:46 2018, MaxMem= 14763950080 cpu:        15.2
 (Enter /cm/shared/gaussian/g09.e01/intel64-sandybridge/g09/l703.exe)
 Compute integral first derivatives, UseDBF=F ICtDFT=           0.
 Integral derivatives from FoFJK, PRISM(SPDF).
 Calling FoFJK, ICntrl=      2127 FMM=T ISym2X=0 I1Cent= 0 IOpClX= 0 NMat=1 NMatS=1 NMatT=0.
 FoFJK:  IHMeth= 1 ICntrl=    2127 DoSepK=F KAlg= 0 I1Cent=   0 FoldK=F
 IRaf=         0 NMat=   1 IRICut=       1 DoRegI=T DoRafI=F ISym2E= 0.
 FoFCou: FMM=T IPFlag=           0 FMFlag=      100000 FMFlg1=        2001
         NFxFlg=           0 DoJE=F BraDBF=F KetDBF=F FulRan=T
         wScrn=  0.000000 ICntrl=    2127 IOpCl=  0 I1Cent=           0 NGrid=           0
         NMat0=    1 NMatS0=      1 NMatT0=    0 NMatD0=    1 NMtDS0=    0 NMtDT0=    0
 Symmetry not used in FoFCou.
 FMM levels:  10  Number of levels for PrismC:   9
 Leave Link  703 at Wed May  2 21:21:02 2018, MaxMem= 14763950080 cpu:       981.2
 (Enter /cm/shared/gaussian/g09.e01/intel64-sandybridge/g09/l716.exe)
 Dipole        =-3.59848004D+01-3.94418787D+01-3.29732022D+01
 Cartesian Forces:  Max     0.031480632 RMS     0.009735451
 Leave Link  716 at Wed May  2 21:21:02 2018, MaxMem= 14763950080 cpu:         3.5
 (Enter /cm/shared/gaussian/g09.e01/intel64-sandybridge/g09/l122.exe)
 CPIOFr:  IOpCl= 0 IRwI=-1 IRwCP=  731 ICalc= -1 LCPTot=     1005244 Len1MO=     2550559 IndFrg=     1005244
 CPIOFr:  IOpCl= 0 IRwI=-1 IRwCP=  731 ICalc=  0 LCPTot=     1005244 Len1MO=     2550559 IndFrg=     3555803
 Counterpoise: doing DCBS calculation for fragment   1 NewBq=T
 Leave Link  122 at Wed May  2 21:21:02 2018, MaxMem= 14763950080 cpu:         7.0
 (Enter /cm/shared/gaussian/g09.e01/intel64-sandybridge/g09/l301.exe)
 Basis read from rwf:  (5D, 7F)
 No pseudopotential information found on rwf file.
   795 basis functions,  1651 primitive gaussians,   829 cartesian basis functions
    18 alpha electrons       18 beta electrons
       nuclear repulsion energy         0.0000000000 Hartrees.
 IExCor= 1009 DFT=T Ex+Corr=PBE1PBE ExCW=0 ScaHFX=  0.250000
 ScaDFX=  0.750000  0.750000  1.000000  1.000000 ScalE2=  1.000000  1.000000
 IRadAn=      0 IRanWt=     -1 IRanGd=            0 ICorTp=0 IEmpDi=  4
 NAtoms=   97 NActive=   97 NUniq=   97 SFac= 1.00D+00 NAtFMM=   60 NAOKFM=T Big=T
 Integral buffers will be    131072 words long.
 Raffenetti 2 integral format.
 Two-electron integral symmetry is turned off.
 No density basis found on file   718.
 Leave Link  301 at Wed May  2 21:21:02 2018, MaxMem= 14763950080 cpu:         4.6
 (Enter /cm/shared/gaussian/g09.e01/intel64-sandybridge/g09/l302.exe)
 NPDir=0 NMtPBC=     1 NCelOv=     1 NCel=       1 NClECP=     1 NCelD=      1
         NCelK=      1 NCelE2=     1 NClLst=     1 CellRange=     0.0.
 One-electron integrals computed using PRISM.
 NBasis=   795 RedAO= T EigKep=  1.52D-02  NBF=   795
 NBsUse=   795 1.00D-06 EigRej= -1.00D+00 NBFU=   795
 Precomputing XC quadrature grid using
 IXCGrd= 4 IRadAn=           0 IRanWt=          -1 IRanGd=           0 AccXCQ= 0.00D+00.
 Generated NRdTot=       0 NPtTot=           0 NUsed=           0 NTot=          32
 NSgBfM=   690   710   714   723   723 MxSgAt=    97 MxSgA2=    97.
 Leave Link  302 at Wed May  2 21:21:06 2018, MaxMem= 14763950080 cpu:       244.4
 (Enter /cm/shared/gaussian/g09.e01/intel64-sandybridge/g09/l303.exe)
 DipDrv:  MaxL=1.
 Leave Link  303 at Wed May  2 21:21:07 2018, MaxMem= 14763950080 cpu:        28.3
 (Enter /cm/shared/gaussian/g09.e01/intel64-sandybridge/g09/l401.exe)
 ExpMin= 1.22D-01 ExpMax= 6.40D+05 ExpMxC= 6.18D+03 IAcc=2 IRadAn=         4 AccDes= 0.00D+00
 Harris functional with IExCor= 1009 and IRadAn=       4 diagonalized for initial guess.
 HarFok:  IExCor= 1009 AccDes= 0.00D+00 IRadAn=         4 IDoV= 1 UseB2=F ITyADJ=14
 ICtDFT=  3500011 ScaDFX=  1.000000  1.000000  1.000000  1.000000
 FoFCou: FMM=F IPFlag=           0 FMFlag=      100000 FMFlg1=        2001
         NFxFlg=           0 DoJE=T BraDBF=F KetDBF=T FulRan=T
         wScrn=  0.000000 ICntrl=     500 IOpCl=  0 I1Cent=   200000004 NGrid=           0
         NMat0=    1 NMatS0=      1 NMatT0=    0 NMatD0=    1 NMtDS0=    0 NMtDT0=    0
 Symmetry not used in FoFCou.
 Harris En= -2574.01982934264    
 JPrj=0 DoOrth=F DoCkMO=F.
 Leave Link  401 at Wed May  2 21:21:11 2018, MaxMem= 14763950080 cpu:       277.0
 (Enter /cm/shared/gaussian/g09.e01/intel64-sandybridge/g09/l502.exe)
 Closed shell SCF:
 Using DIIS extrapolation, IDIIS=  1040.
 Two-electron integral symmetry not used.
 IVT=     2138497 IEndB=     2138497 NGot= 14763950080 MDV= 14762516294
 LenX= 14762516294 LenY= 14761828224
 Requested convergence on RMS density matrix=1.00D-08 within 128 cycles.
 Requested convergence on MAX density matrix=1.00D-06.
 Requested convergence on             energy=1.00D-06.
 No special actions if energy rises.
 Fock matrices will be formed incrementally for  20 cycles.
 Integral accuracy reduced to 1.0D-05 until final iterations.

 Cycle   1  Pass 0  IDiag  1:
 FoFJK:  IHMeth= 1 ICntrl=       0 DoSepK=F KAlg= 0 I1Cent=   0 FoldK=F
 IRaf= 810000000 NMat=   1 IRICut=       1 DoRegI=T DoRafI=F ISym2E= 0.
 FoFCou: FMM=T IPFlag=           0 FMFlag=      100000 FMFlg1=        2001
         NFxFlg=           0 DoJE=F BraDBF=F KetDBF=F FulRan=T
         wScrn=  0.000000 ICntrl=       0 IOpCl=  0 I1Cent=           0 NGrid=           0
         NMat0=    1 NMatS0=      1 NMatT0=    0 NMatD0=    1 NMtDS0=    0 NMtDT0=    0
 Symmetry not used in FoFCou.
 FMM levels:  10  Number of levels for PrismC:   9
 E= -2573.87847852205    
 DIIS: error= 1.18D-02 at cycle   1 NSaved=   1.
 NSaved= 1 IEnMin= 1 EnMin= -2573.87847852205     IErMin= 1 ErrMin= 1.18D-02
 ErrMax= 1.18D-02  0.00D+00 EMaxC= 1.00D-01 BMatC= 3.84D-02 BMatP= 3.84D-02
 IDIUse=3 WtCom= 8.82D-01 WtEn= 1.18D-01
 Coeff-Com:  0.100D+01
 Coeff-En:   0.100D+01
 Coeff:      0.100D+01
 Gap=     0.184 Goal=   None    Shift=    0.000
 GapD=    0.184 DampG=1.000 DampE=0.500 DampFc=0.5000 IDamp=-1.
 Damping current iteration by 5.00D-01
 RMSDP=4.82D-04 MaxDP=6.59D-02              OVMax= 1.47D-01

 Cycle   2  Pass 0  IDiag  1:
 RMSU=  2.39D-04    CP:  9.95D-01
 E= -2573.89505092432     Delta-E=       -0.016572402269 Rises=F Damp=T
 DIIS: error= 6.90D-03 at cycle   2 NSaved=   2.
 NSaved= 2 IEnMin= 2 EnMin= -2573.89505092432     IErMin= 2 ErrMin= 6.90D-03
 ErrMax= 6.90D-03  0.00D+00 EMaxC= 1.00D-01 BMatC= 9.04D-03 BMatP= 3.84D-02
 IDIUse=3 WtCom= 9.31D-01 WtEn= 6.90D-02
 Coeff-Com: -0.584D+00 0.158D+01
 Coeff-En:   0.000D+00 0.100D+01
 Coeff:     -0.544D+00 0.154D+01
 Gap=     0.188 Goal=   None    Shift=    0.000
 RMSDP=1.71D-04 MaxDP=4.03D-02 DE=-1.66D-02 OVMax= 6.49D-02

 Cycle   3  Pass 0  IDiag  1:
 RMSU=  1.45D-04    CP:  9.94D-01  1.38D+00
 E= -2573.90840545096     Delta-E=       -0.013354526639 Rises=F Damp=F
 DIIS: error= 2.46D-03 at cycle   3 NSaved=   3.
 NSaved= 3 IEnMin= 3 EnMin= -2573.90840545096     IErMin= 3 ErrMin= 2.46D-03
 ErrMax= 2.46D-03  0.00D+00 EMaxC= 1.00D-01 BMatC= 2.37D-03 BMatP= 9.04D-03
 IDIUse=3 WtCom= 9.75D-01 WtEn= 2.46D-02
 Coeff-Com: -0.304D+00 0.717D+00 0.586D+00
 Coeff-En:   0.000D+00 0.000D+00 0.100D+01
 Coeff:     -0.296D+00 0.700D+00 0.597D+00
 Gap=     0.171 Goal=   None    Shift=    0.000
 RMSDP=6.92D-05 MaxDP=1.69D-02 DE=-1.34D-02 OVMax= 2.05D-02

 Cycle   4  Pass 0  IDiag  1:
 RMSU=  8.30D-06    CP:  9.92D-01  1.55D+00  6.33D-01
 E= -2573.91095930626     Delta-E=       -0.002553855295 Rises=F Damp=F
 DIIS: error= 6.61D-05 at cycle   4 NSaved=   4.
 NSaved= 4 IEnMin= 4 EnMin= -2573.91095930626     IErMin= 4 ErrMin= 6.61D-05
 ErrMax= 6.61D-05  0.00D+00 EMaxC= 1.00D-01 BMatC= 1.09D-06 BMatP= 2.37D-03
 IDIUse=1 WtCom= 1.00D+00 WtEn= 0.00D+00
 Coeff-Com: -0.144D-01 0.270D-01 0.339D-01 0.954D+00
 Coeff:     -0.144D-01 0.270D-01 0.339D-01 0.954D+00
 Gap=     0.173 Goal=   None    Shift=    0.000
 RMSDP=2.24D-06 MaxDP=3.63D-04 DE=-2.55D-03 OVMax= 6.46D-04

 Initial convergence to 1.0D-05 achieved.  Increase integral accuracy.
 Cycle   5  Pass 1  IDiag  1:
 E= -2573.91174713413     Delta-E=       -0.000787827875 Rises=F Damp=F
 DIIS: error= 1.22D-05 at cycle   1 NSaved=   1.
 NSaved= 1 IEnMin= 1 EnMin= -2573.91174713413     IErMin= 1 ErrMin= 1.22D-05
 ErrMax= 1.22D-05  0.00D+00 EMaxC= 1.00D-01 BMatC= 1.28D-07 BMatP= 1.28D-07
 IDIUse=1 WtCom= 1.00D+00 WtEn= 0.00D+00
 Coeff-Com:  0.100D+01
 Coeff:      0.100D+01
 Gap=     0.173 Goal=   None    Shift=    0.000
 RMSDP=2.24D-06 MaxDP=3.63D-04 DE=-7.88D-04 OVMax= 3.30D-04

 Cycle   6  Pass 1  IDiag  1:
 RMSU=  1.58D-06    CP:  1.00D+00
 E= -2573.91174736116     Delta-E=       -0.000000227032 Rises=F Damp=F
 DIIS: error= 7.25D-06 at cycle   2 NSaved=   2.
 NSaved= 2 IEnMin= 2 EnMin= -2573.91174736116     IErMin= 2 ErrMin= 7.25D-06
 ErrMax= 7.25D-06  0.00D+00 EMaxC= 1.00D-01 BMatC= 2.88D-08 BMatP= 1.28D-07
 IDIUse=1 WtCom= 1.00D+00 WtEn= 0.00D+00
 Coeff-Com:  0.255D+00 0.745D+00
 Coeff:      0.255D+00 0.745D+00
 Gap=     0.173 Goal=   None    Shift=    0.000
 RMSDP=3.61D-07 MaxDP=7.90D-05 DE=-2.27D-07 OVMax= 1.21D-04

 Cycle   7  Pass 1  IDiag  1:
 RMSU=  3.52D-07    CP:  1.00D+00  9.53D-01
 E= -2573.91174739346     Delta-E=       -0.000000032302 Rises=F Damp=F
 DIIS: error= 3.51D-06 at cycle   3 NSaved=   3.
 NSaved= 3 IEnMin= 3 EnMin= -2573.91174739346     IErMin= 3 ErrMin= 3.51D-06
 ErrMax= 3.51D-06  0.00D+00 EMaxC= 1.00D-01 BMatC= 5.69D-09 BMatP= 2.88D-08
 IDIUse=1 WtCom= 1.00D+00 WtEn= 0.00D+00
 Coeff-Com: -0.307D-01 0.293D+00 0.738D+00
 Coeff:     -0.307D-01 0.293D+00 0.738D+00
 Gap=     0.173 Goal=   None    Shift=    0.000
 RMSDP=1.18D-07 MaxDP=2.75D-05 DE=-3.23D-08 OVMax= 3.44D-05

 Cycle   8  Pass 1  IDiag  1:
 RMSU=  4.50D-08    CP:  1.00D+00  1.00D+00  7.82D-01
 E= -2573.91174740012     Delta-E=       -0.000000006655 Rises=F Damp=F
 DIIS: error= 3.68D-07 at cycle   4 NSaved=   4.
 NSaved= 4 IEnMin= 4 EnMin= -2573.91174740012     IErMin= 4 ErrMin= 3.68D-07
 ErrMax= 3.68D-07  0.00D+00 EMaxC= 1.00D-01 BMatC= 6.06D-11 BMatP= 5.69D-09
 IDIUse=1 WtCom= 1.00D+00 WtEn= 0.00D+00
 Coeff-Com: -0.134D-01 0.954D-01 0.236D+00 0.682D+00
 Coeff:     -0.134D-01 0.954D-01 0.236D+00 0.682D+00
 Gap=     0.173 Goal=   None    Shift=    0.000
 RMSDP=1.24D-08 MaxDP=1.65D-06 DE=-6.66D-09 OVMax= 4.01D-06

 Cycle   9  Pass 1  IDiag  1:
 RMSU=  9.17D-09    CP:  1.00D+00  1.00D+00  7.85D-01  8.50D-01
 E= -2573.91174740021     Delta-E=       -0.000000000085 Rises=F Damp=F
 DIIS: error= 5.18D-08 at cycle   5 NSaved=   5.
 NSaved= 5 IEnMin= 5 EnMin= -2573.91174740021     IErMin= 5 ErrMin= 5.18D-08
 ErrMax= 5.18D-08  0.00D+00 EMaxC= 1.00D-01 BMatC= 2.26D-12 BMatP= 6.06D-11
 IDIUse=1 WtCom= 1.00D+00 WtEn= 0.00D+00
 Coeff-Com: -0.103D-03-0.430D-02-0.208D-01 0.110D+00 0.916D+00
 Coeff:     -0.103D-03-0.430D-02-0.208D-01 0.110D+00 0.916D+00
 Gap=     0.173 Goal=   None    Shift=    0.000
 RMSDP=3.49D-09 MaxDP=6.83D-07 DE=-8.55D-11 OVMax= 1.07D-06

 SCF Done:  E(RPBE1PBE) =  -2573.91174740     A.U. after    9 cycles
            NFock=  9  Conv=0.35D-08     -V/T= 2.0013
 KE= 2.570516172418D+03 PE=-6.162971204814D+03 EE= 1.018543284997D+03
 Leave Link  502 at Wed May  2 21:22:36 2018, MaxMem= 14763950080 cpu:      5347.6
 (Enter /cm/shared/gaussian/g09.e01/intel64-sandybridge/g09/l601.exe)
 Copying SCF densities to generalized density rwf, IOpCl= 0 IROHF=0.

 **********************************************************************

            Population analysis using the SCF density.

 **********************************************************************

 Alpha  occ. eigenvalues -- -482.98802 -62.38951 -56.16207 -56.16203 -56.16200
 Alpha  occ. eigenvalues --   -8.49089  -6.29402  -6.29390  -6.29381  -2.37668
 Alpha  occ. eigenvalues --   -2.37667  -2.37659  -2.37650  -2.37648  -0.47160
 Alpha  occ. eigenvalues --   -0.03033  -0.03025  -0.03007
 Alpha virt. eigenvalues --    0.14262   0.15903   0.16353   0.17097   0.17990
 Alpha virt. eigenvalues --    0.18409   0.19303   0.19985   0.20181   0.21357
 Alpha virt. eigenvalues --    0.21475   0.22852   0.22867   0.23601   0.23882
 Alpha virt. eigenvalues --    0.24579   0.24965   0.25243   0.25573   0.25854
 Alpha virt. eigenvalues --    0.26355   0.27072   0.28194   0.28646   0.29323
 Alpha virt. eigenvalues --    0.29756   0.30318   0.30724   0.30896   0.31738
 Alpha virt. eigenvalues --    0.31973   0.32545   0.33332   0.33888   0.34561
 Alpha virt. eigenvalues --    0.34820   0.35229   0.35693   0.36253   0.36692
 Alpha virt. eigenvalues --    0.37463   0.37902   0.38325   0.38875   0.39177
 Alpha virt. eigenvalues --    0.39568   0.40021   0.40356   0.41091   0.41903
 Alpha virt. eigenvalues --    0.42018   0.42391   0.42691   0.43175   0.44423
 Alpha virt. eigenvalues --    0.44909   0.45312   0.45762   0.46287   0.47274
 Alpha virt. eigenvalues --    0.48341   0.49709   0.49999   0.51272   0.61783
 Alpha virt. eigenvalues --    0.62437   0.62954   0.63392   0.64087   0.64293
 Alpha virt. eigenvalues --    0.64716   0.65002   0.65680   0.65848   0.66512
 Alpha virt. eigenvalues --    0.67387   0.67581   0.67647   0.68563   0.68741
 Alpha virt. eigenvalues --    0.69029   0.69401   0.70198   0.70698   0.71360
 Alpha virt. eigenvalues --    0.71423   0.72341   0.72746   0.72950   0.73194
 Alpha virt. eigenvalues --    0.73575   0.74207   0.74688   0.74789   0.74976
 Alpha virt. eigenvalues --    0.75240   0.75684   0.75798   0.76100   0.76392
 Alpha virt. eigenvalues --    0.76615   0.76935   0.77112   0.77384   0.77845
 Alpha virt. eigenvalues --    0.78398   0.78978   0.79108   0.79381   0.79728
 Alpha virt. eigenvalues --    0.79892   0.80488   0.80942   0.81471   0.81505
 Alpha virt. eigenvalues --    0.81915   0.82220   0.82548   0.82784   0.83135
 Alpha virt. eigenvalues --    0.83835   0.83977   0.84160   0.84580   0.85126
 Alpha virt. eigenvalues --    0.85357   0.86018   0.86542   0.86881   0.87664
 Alpha virt. eigenvalues --    0.87883   0.88303   0.88857   0.89346   0.89454
 Alpha virt. eigenvalues --    0.89980   0.90308   0.90533   0.90715   0.91015
 Alpha virt. eigenvalues --    0.91431   0.91775   0.92057   0.92402   0.92707
 Alpha virt. eigenvalues --    0.92939   0.93504   0.93809   0.93962   0.94744
 Alpha virt. eigenvalues --    0.95135   0.95408   0.96039   0.96522   0.96711
 Alpha virt. eigenvalues --    0.97559   0.97655   0.98173   0.99236   0.99554
 Alpha virt. eigenvalues --    0.99897   1.00233   1.01082   1.01451   1.02413
 Alpha virt. eigenvalues --    1.02587   1.03101   1.03703   1.04177   1.04994
 Alpha virt. eigenvalues --    1.05193   1.05613   1.05872   1.06536   1.06733
 Alpha virt. eigenvalues --    1.07339   1.07676   1.08481   1.08823   1.09048
 Alpha virt. eigenvalues --    1.09781   1.09912   1.10927   1.11302   1.12090
 Alpha virt. eigenvalues --    1.12384   1.12722   1.13682   1.14387   1.14477
 Alpha virt. eigenvalues --    1.14805   1.15754   1.16361   1.16493   1.18199
 Alpha virt. eigenvalues --    1.19897   1.20868   1.21370   1.23687   1.26217
 Alpha virt. eigenvalues --    1.30254   1.64318   1.65443   1.66064   1.66853
 Alpha virt. eigenvalues --    1.67220   1.68783   1.68911   1.69379   1.69817
 Alpha virt. eigenvalues --    1.70401   1.70431   1.70983   1.71335   1.71797
 Alpha virt. eigenvalues --    1.71938   1.72392   1.72633   1.73058   1.73298
 Alpha virt. eigenvalues --    1.73572   1.74084   1.74563   1.75045   1.75352
 Alpha virt. eigenvalues --    1.75820   1.76230   1.76294   1.76603   1.76943
 Alpha virt. eigenvalues --    1.77182   1.77373   1.77533   1.77833   1.77984
 Alpha virt. eigenvalues --    1.78332   1.78660   1.79294   1.79600   1.79941
 Alpha virt. eigenvalues --    1.80909   1.81021   1.81303   1.81590   1.81965
 Alpha virt. eigenvalues --    1.82256   1.82383   1.83096   1.83103   1.83208
 Alpha virt. eigenvalues --    1.83714   1.83859   1.84545   1.85176   1.85401
 Alpha virt. eigenvalues --    1.86834   1.87463   1.88376   1.89101   1.89902
 Alpha virt. eigenvalues --    1.91315   1.91905   1.92435   1.93613   1.95567
 Alpha virt. eigenvalues --    1.96911   1.97971   1.98223   1.99063   1.99763
 Alpha virt. eigenvalues --    2.00143   2.00202   2.00669   2.00990   2.01311
 Alpha virt. eigenvalues --    2.01476   2.01727   2.01905   2.02145   2.02176
 Alpha virt. eigenvalues --    2.02367   2.02762   2.02927   2.03118   2.03331
 Alpha virt. eigenvalues --    2.03421   2.03678   2.03892   2.04328   2.04365
 Alpha virt. eigenvalues --    2.04500   2.05204   2.05414   2.05816   2.06157
 Alpha virt. eigenvalues --    2.06340   2.06599   2.07092   2.07310   2.08019
 Alpha virt. eigenvalues --    2.08330   2.08534   2.08797   2.08973   2.09762
 Alpha virt. eigenvalues --    2.10090   2.10227   2.10243   2.10610   2.11277
 Alpha virt. eigenvalues --    2.11712   2.12254   2.12745   2.13049   2.14150
 Alpha virt. eigenvalues --    2.14720   2.14883   2.15723   2.15762   2.16181
 Alpha virt. eigenvalues --    2.16412   2.16717   2.16866   2.17030   2.17888
 Alpha virt. eigenvalues --    2.18192   2.18580   2.18958   2.19123   2.19321
 Alpha virt. eigenvalues --    2.19480   2.19997   2.20255   2.20816   2.21439
 Alpha virt. eigenvalues --    2.21739   2.22099   2.22831   2.22981   2.23384
 Alpha virt. eigenvalues --    2.24085   2.24664   2.25557   2.26851   2.27022
 Alpha virt. eigenvalues --    2.27181   2.28079   2.28706   2.29135   2.29646
 Alpha virt. eigenvalues --    2.30450   2.31591   2.31966   2.32456   2.33381
 Alpha virt. eigenvalues --    2.34398   2.35344   2.36258   2.36839   2.37471
 Alpha virt. eigenvalues --    2.38902   2.40088   2.40590   2.41384   2.42037
 Alpha virt. eigenvalues --    2.42819   2.43006   2.43270   2.43511   2.45082
 Alpha virt. eigenvalues --    2.45301   2.45687   2.46132   2.46387   2.46538
 Alpha virt. eigenvalues --    2.47024   2.47423   2.47660   2.48049   2.48982
 Alpha virt. eigenvalues --    2.49158   2.50032   2.50773   2.51099   2.51200
 Alpha virt. eigenvalues --    2.51805   2.52068   2.52897   2.53023   2.54101
 Alpha virt. eigenvalues --    2.54703   2.55058   2.55079   2.64756   2.66521
 Alpha virt. eigenvalues --    2.67089   2.69104   2.69475   2.69860   2.70058
 Alpha virt. eigenvalues --    2.70704   2.71005   2.71171   2.71634   2.71747
 Alpha virt. eigenvalues --    2.72424   2.73049   2.73288   2.74204   2.74718
 Alpha virt. eigenvalues --    2.76114   2.77182   2.77462   2.78521   2.79657
 Alpha virt. eigenvalues --    2.79851   2.80109   2.80406   2.80851   2.81757
 Alpha virt. eigenvalues --    2.83384   2.83758   2.84061   2.84351   2.84911
 Alpha virt. eigenvalues --    2.85112   2.86536   2.86928   2.87136   2.87623
 Alpha virt. eigenvalues --    2.87940   2.88626   2.89281   2.89734   2.90068
 Alpha virt. eigenvalues --    2.90206   2.90883   2.91309   2.92002   2.93556
 Alpha virt. eigenvalues --    2.94042   2.94600   2.95206   2.96084   2.96886
 Alpha virt. eigenvalues --    2.97485   2.98861   2.99043   2.99943   3.00073
 Alpha virt. eigenvalues --    3.02676   3.03000   3.04563   3.06799   3.08383
 Alpha virt. eigenvalues --    3.09007   3.14128   3.14589   3.16339   3.16889
 Alpha virt. eigenvalues --    3.17342   3.18079   3.18277   3.19193   3.19808
 Alpha virt. eigenvalues --    3.22968   3.25495   3.27322   3.28257   3.28314
 Alpha virt. eigenvalues --    3.29295   3.29975   3.32270   3.34118   3.36405
 Alpha virt. eigenvalues --    3.37477   3.38807   3.40652   3.42888   3.46620
 Alpha virt. eigenvalues --    3.46967   3.47606   3.48815   3.49237   3.53972
 Alpha virt. eigenvalues --    3.61683   3.62418   3.64051   3.65681   4.51272
 Alpha virt. eigenvalues --    4.51570   4.51945   4.52020   4.52162   4.52359
 Alpha virt. eigenvalues --    4.52361   4.52448   4.52573   4.52876   4.52911
 Alpha virt. eigenvalues --    4.53176   4.53315   4.53356   4.53533   4.53853
 Alpha virt. eigenvalues --    4.53946   4.54080   4.54317   4.54716   4.54885
 Alpha virt. eigenvalues --    4.55134   4.55252   4.55563   4.56036   4.56117
 Alpha virt. eigenvalues --    4.56223   4.56406   4.57027   4.57257   4.57527
 Alpha virt. eigenvalues --    4.58698   4.59225   4.59563   4.59751   4.60118
 Alpha virt. eigenvalues --    4.60189   4.60490   4.60716   4.60746   4.60767
 Alpha virt. eigenvalues --    4.60784   4.60846   4.60942   4.61325   4.61474
 Alpha virt. eigenvalues --    4.61754   4.61946   4.62071   4.62256   4.62347
 Alpha virt. eigenvalues --    4.63087   4.63122   4.63467   4.63525   4.63761
 Alpha virt. eigenvalues --    4.63931   4.64190   4.64609   4.64790   4.64917
 Alpha virt. eigenvalues --    4.65124   4.66414   4.67408   4.74974   4.75133
 Alpha virt. eigenvalues --    4.75195   4.75341   4.75379   4.75566   4.76191
 Alpha virt. eigenvalues --    4.76272   4.76937   4.77533   4.77855   4.77940
 Alpha virt. eigenvalues --    4.78506   4.78823   4.79048   4.79332   4.80553
 Alpha virt. eigenvalues --    4.80907   4.81110   4.81383   4.82035   4.82760
 Alpha virt. eigenvalues --    4.82941   4.83378   4.83604   4.83713   4.83920
 Alpha virt. eigenvalues --    4.84530   4.84899   4.85162   4.85834   4.86360
 Alpha virt. eigenvalues --    4.86875   4.86889   4.87200   4.87368   4.87864
 Alpha virt. eigenvalues --    4.87880   4.88105   4.88641   4.88893   4.88922
 Alpha virt. eigenvalues --    4.89066   4.89685   4.89956   4.90580   4.91332
 Alpha virt. eigenvalues --    4.92140   4.92557   4.93324   4.94010   4.94427
 Alpha virt. eigenvalues --    4.95394   4.95563   4.95773   4.96000   4.96293
 Alpha virt. eigenvalues --    4.96951   4.98139   4.98788   4.99994   5.00851
 Alpha virt. eigenvalues --    5.01232   5.03039   5.03777   5.04791   5.05153
 Alpha virt. eigenvalues --    5.06269   5.06897   5.07733   5.08215   5.08414
 Alpha virt. eigenvalues --    5.09002   5.09564   5.10152   5.11627   5.12648
 Alpha virt. eigenvalues --    5.13232   5.13636   5.13923   5.14373   5.15515
 Alpha virt. eigenvalues --    5.16924   5.17458   5.17777   5.18212   5.18959
 Alpha virt. eigenvalues --    5.19881   5.20076   5.20823   5.23021   5.23677
 Alpha virt. eigenvalues --    5.28006   5.29057   5.29732   5.34031   5.35276
 Alpha virt. eigenvalues --    5.36700   5.37486   5.38007   5.38085   5.38343
 Alpha virt. eigenvalues --    5.38610   5.39030   5.40856   5.41634   5.43356
[...]
   Y21       35.90480   0.00463   0.00000  -0.00380  -0.00437  35.90042
   Z21       32.29542   0.00256   0.00000  -0.00502  -0.00340  32.29202
   X22       37.22760  -0.00206   0.00000   0.00669   0.00825  37.23586
   Y22       35.86700   0.00489   0.00000  -0.00229  -0.00263  35.86437
   Z22       33.39146   0.00900   0.00000   0.00291   0.00389  33.39535
   X23       38.83387  -0.00629   0.00000  -0.02553  -0.02298  38.81089
   Y23       42.40545  -0.01314   0.00000  -0.01360  -0.01427  42.39118
   Z23       30.76474  -0.00825   0.00000   0.01100   0.01174  30.77649
   X24       39.74094   0.00862   0.00000   0.01675   0.01893  39.75987
   Y24       42.57553   0.00748   0.00000   0.02553   0.02496  42.60049
   Z24       32.31432   0.01100   0.00000   0.00535   0.00631  32.32062
   X25       38.02129  -0.00245   0.00000   0.00030   0.00300  38.02429
   Y25       43.99282   0.01007   0.00000   0.01404   0.01339  44.00622
   Z25       30.51908   0.00106   0.00000   0.00352   0.00391  30.52299
   X26       32.50329   0.01014   0.00000   0.02842   0.02730  32.53059
   Y26       34.18515   0.00680   0.00000  -0.02200  -0.02109  34.16406
   Z26       43.89834   0.02386   0.00000   0.04993   0.04991  43.94825
   X27       31.74740  -0.00128   0.00000   0.02134   0.02049  31.76789
   Y27       33.16469  -0.01179   0.00000  -0.01139  -0.01056  33.15413
   Z27       42.61332  -0.01220   0.00000   0.00374   0.00363  42.61695
   X28       34.26073   0.00275   0.00000   0.01366   0.01267  34.27340
   Y28       34.27963   0.00161   0.00000   0.01384   0.01462  34.29425
   Z28       43.46370  -0.00297   0.00000  -0.00639  -0.00599  43.45771
   X29       38.68269  -0.01976   0.00000  -0.02498  -0.02588  38.65681
   Y29       31.14269  -0.01391   0.00000  -0.02917  -0.02872  31.11397
   Z29       42.40545  -0.01441   0.00000  -0.00054   0.00124  42.40669
   X30       39.41969   0.01136   0.00000   0.00889   0.00778  39.42746
   Y30       32.31432   0.01907   0.00000   0.03116   0.03167  32.34599
   Z30       43.53929   0.00867   0.00000  -0.02730  -0.02545  43.51384
   X31       39.79763   0.00961   0.00000   0.02485   0.02387  39.82150
   Y31       29.72539  -0.00566   0.00000  -0.00508  -0.00469  29.72070
   Z31       42.42435   0.00232   0.00000   0.00629   0.00849  42.43284
   X32       35.43236  -0.01336   0.00000  -0.00828  -0.00899  35.42337
   Y32       44.01172   0.01539   0.00000   0.02809   0.02890  44.04062
   Z32       44.38967   0.00198   0.00000  -0.00898  -0.00923  44.38043
   X33       35.14891  -0.00522   0.00000  -0.02285  -0.02358  35.12533
   Y33       42.25428  -0.00823   0.00000   0.01182   0.01261  42.26689
   Z33       44.08731  -0.00476   0.00000  -0.01411  -0.01427  44.07304
   X34       37.20871   0.01616   0.00000   0.01988   0.01924  37.22795
   Y34       44.23849   0.00038   0.00000  -0.00188  -0.00119  44.23730
   Z34       44.12511  -0.00196   0.00000   0.00065   0.00083  44.12593
   X35       43.91724   0.02802   0.00000   0.03910   0.03935  43.95659
   Y35       32.29542   0.02506   0.00000   0.01921   0.01896  32.31438
   Z35       37.98350   0.00745   0.00000   0.00854   0.01151  37.99500
   X36       42.72671  -0.02528   0.00000  -0.02180  -0.02154  42.70517
   Y36       30.97261  -0.02042   0.00000   0.01040   0.01019  30.98280
   Z36       37.71893  -0.01345   0.00000  -0.04429  -0.04151  37.67743
   X37       45.10776   0.00667   0.00000   0.03108   0.03100  45.13876
   Y37       31.61512  -0.00340   0.00000  -0.02147  -0.02167  31.59345
   Z37       39.17402  -0.00060   0.00000  -0.00578  -0.00246  39.17157
   X38       29.55532   0.00616   0.00000   0.00922   0.00963  29.56494
   Y38       36.33943   0.00773   0.00000  -0.00584  -0.00532  36.33412
   Z38       38.22916  -0.01000   0.00000  -0.03188  -0.03284  38.19632
   X39       29.49862   0.00359   0.00000   0.01866   0.01882  29.51744
   Y39       34.63868  -0.01265   0.00000  -0.01243  -0.01185  34.62683
   Z39       38.83387   0.00507   0.00000   0.00836   0.00756  38.84143
   X40       27.81677  -0.00334   0.00000   0.00421   0.00465  27.82142
   Y40       36.84966   0.00358   0.00000   0.01035   0.01097  36.86063
   Z40       38.17247   0.00133   0.00000   0.00957   0.00814  38.18060
   X41       40.81808   0.01878   0.00000   0.01187   0.01233  40.83042
   Y41       28.79943  -0.00766   0.00000   0.00635   0.00611  28.80553
   Z41       36.35833   0.00659   0.00000   0.01907   0.02160  36.37993
   X42       39.24961  -0.01876   0.00000  -0.01355  -0.01296  39.23665
   Y42       29.66870   0.01320   0.00000   0.02215   0.02197  29.69067
   Z42       36.07487  -0.00468   0.00000  -0.00988  -0.00782  36.06705
   X43       40.59132  -0.00557   0.00000  -0.02896  -0.02893  40.56239
   Y43       27.98684  -0.00666   0.00000  -0.03290  -0.03297  27.95387
   Z43       37.96460  -0.00009   0.00000  -0.00506  -0.00251  37.96209
   X44       33.03241   0.00217   0.00000   0.01793   0.02071  33.05312
   Y44       37.20871  -0.00096   0.00000   0.00743   0.00687  37.21558
   Z44       28.79943  -0.01555   0.00000  -0.02702  -0.02721  28.77222
   X45       31.93637  -0.00287   0.00000  -0.01498  -0.01226  31.92411
   Y45       38.56931  -0.00295   0.00000  -0.02365  -0.02410  38.54521
   Z45       29.29076   0.00295   0.00000   0.00067   0.00008  29.29083
   X46       33.99617  -0.00070   0.00000  -0.01856  -0.01618  33.97999
   Y46       36.84966   0.00243   0.00000   0.01091   0.01045  36.86011
   Z46       30.29231   0.00957   0.00000   0.01301   0.01308  30.30539
   X47       34.77096   0.00013   0.00000   0.01338   0.01412  34.78508
   Y47       45.73137  -0.00033   0.00000   0.00658   0.00689  45.73827
   Z47       38.81497  -0.02100   0.00000  -0.00415  -0.00473  38.81025
   X48       33.14580  -0.00096   0.00000   0.00568   0.00638  33.15217
   Y48       46.44947   0.00186   0.00000   0.00236   0.00279  46.45226
   Z48       39.17402   0.00324   0.00000  -0.00136  -0.00240  39.17162
   X49       35.58354  -0.00307   0.00000  -0.04203  -0.04170  35.54185
   Y49       45.61799  -0.00204   0.00000  -0.01183  -0.01140  45.60659
   Z49       40.42124   0.02653   0.00000   0.05531   0.05494  40.47618
   X50       42.82119   0.00371   0.00000   0.00206   0.00399  42.82518
   Y50       45.63689   0.00846   0.00000   0.00576   0.00519  45.64208
   Z50       33.99617  -0.01212   0.00000  -0.01700  -0.01558  33.98059
   X51       41.74405  -0.00925   0.00000  -0.01264  -0.01107  41.73298
   Y51       44.97548  -0.00139   0.00000   0.01678   0.01639  44.99187
   Z51       35.30008   0.01007   0.00000   0.00686   0.00807  35.30816
   X52       44.31408   0.00450   0.00000  -0.00086   0.00100  44.31508
   Y52       44.61643  -0.00621   0.00000  -0.01542  -0.01606  44.60038
   Z52       34.09066  -0.00188   0.00000  -0.01273  -0.01085  34.07981
   X53       29.72539  -0.02302   0.00000  -0.01912  -0.01995  29.70544
   Y53       38.26695   0.01657   0.00000   0.03250   0.03354  38.30049
   Z53       43.63378   0.01353   0.00000   0.02827   0.02716  43.66093
   X54       30.57577   0.00847   0.00000   0.00387   0.00342  30.57919
   Y54       39.11733   0.00562   0.00000   0.01034   0.01120  39.12853
   Z54       42.27317  -0.00963   0.00000  -0.00083  -0.00181  42.27136
   X55       30.70805   0.01023   0.00000  -0.00559  -0.00657  30.70148
   Y55       36.77407  -0.01442   0.00000  -0.00434  -0.00333  36.77074
   Z55       43.91724  -0.00194   0.00000  -0.01234  -0.01306  43.90417
   X56       33.35367  -0.01789   0.00000  -0.04905  -0.04774  33.30592
   Y56       29.38524  -0.00231   0.00000   0.02601   0.02585  29.41109
   Z56       33.01352  -0.00335   0.00000   0.03140   0.03202  33.04553
   X57       33.48595   0.00550   0.00000   0.02201   0.02299  33.50894
   Y57       27.94905  -0.00249   0.00000  -0.00725  -0.00732  27.94173
   Z57       34.10956  -0.00011   0.00000  -0.01359  -0.01278  34.09678
   X58       34.37412   0.01261   0.00000   0.02424   0.02543  34.39955
   Y58       30.65136   0.00791   0.00000  -0.00122  -0.00136  30.65000
   Z58       33.78830   0.01321   0.00000   0.03305   0.03382  33.82213
   X59       43.06686   0.00220   0.00000   0.02334   0.02171  43.08856
   Y59       36.43392   0.00168   0.00000  -0.00153  -0.00092  36.43300
   Z59       46.50616   0.02207   0.00000   0.02216   0.02452  46.53068
   X60       41.80074   0.00142   0.00000   0.00469   0.00296  41.80370
   Y60       35.13001   0.00324   0.00000   0.01645   0.01713  35.14714
   Z60       46.61954  -0.00318   0.00000  -0.00081   0.00136  46.62090
   X61       43.48260  -0.00474   0.00000  -0.02978  -0.03098  43.45162
   Y61       36.49061  -0.00359   0.00000  -0.00882  -0.00840  36.48222
   Z61       44.74871  -0.01692   0.00000  -0.01598  -0.01353  44.73518
   X62       45.58019   0.02103   0.00000   0.01313   0.01561  45.59581
   Y62       39.43858   0.00853   0.00000   0.02710   0.02604  39.46463
   Z62       30.40569   0.00272   0.00000   0.00993   0.01262  30.41831
   X63       44.44636  -0.01384   0.00000  -0.02744  -0.02460  44.42176
   Y63       39.68425  -0.00475   0.00000  -0.02441  -0.02553  39.65871
   Z63       29.02619  -0.00342   0.00000   0.01105   0.01343  29.03962
   X64       44.55974  -0.01032   0.00000  -0.00983  -0.00771  44.55203
   Y64       38.73939  -0.00457   0.00000  -0.00268  -0.00355  38.73583
   Z64       31.72850   0.00619   0.00000   0.00218   0.00468  31.73318
   X65       40.51573  -0.02202   0.00000  -0.02188  -0.02243  40.49330
   Y65       44.44636   0.00747   0.00000   0.02000   0.02049  44.46685
   Z65       43.76606   0.01050   0.00000   0.02269   0.02365  43.78970
   X66       41.00706   0.00468   0.00000   0.00857   0.00761  41.01467
   Y66       43.57708  -0.00377   0.00000  -0.00936  -0.00876  43.56833
   Z66       45.27784   0.00265   0.00000   0.00333   0.00451  45.28234
   X67       41.97082   0.01271   0.00000  -0.00992  -0.01020  41.96062
   Y67       44.40856  -0.00746   0.00000  -0.03086  -0.03056  44.37801
   Z67       42.70781  -0.00956   0.00000  -0.00834  -0.00702  42.70079
   X68       40.40234   0.00751   0.00000   0.01941   0.02255  40.42490
   Y68       38.75828  -0.02060   0.00000  -0.02304  -0.02409  38.73419
   Z68       27.59000  -0.00455   0.00000  -0.00453  -0.00305  27.58696
   X69       41.23382  -0.00055   0.00000  -0.01682  -0.01338  41.22044
   Y69       40.06219   0.01067   0.00000   0.01605   0.01486  40.07706
   Z69       26.66404  -0.00391   0.00000  -0.00894  -0.00738  26.65665
   X70       39.40079  -0.00395   0.00000   0.00351   0.00640  39.40719
   Y70       39.64645   0.00890   0.00000   0.00571   0.00483  39.65128
   Z70       28.81832   0.00456   0.00000  -0.00917  -0.00802  28.81030
   X71       31.38835  -0.01298   0.00000  -0.01316  -0.01046  31.37789
   Y71       43.10465  -0.00456   0.00000  -0.00813  -0.00845  43.09621
   Z71       30.34900  -0.00255   0.00000  -0.00165  -0.00281  30.34620
   X72       32.50329   0.00841   0.00000   0.00630   0.00907  32.51236
   Y72       44.52195   0.00440   0.00000  -0.00451  -0.00489  44.51706
   Z72       30.33010  -0.00001   0.00000  -0.00119  -0.00221  30.32790
   X73       32.44660   0.00716   0.00000   0.01206   0.01457  32.46116
   Y73       41.68736  -0.00110   0.00000   0.00786   0.00752  41.69488
   Z73       30.76474   0.00631   0.00000   0.02750   0.02674  30.79148
   X74       44.93769   0.00339   0.00000   0.01485   0.01481  44.95250
   Y74       43.63378   0.00878   0.00000   0.01535   0.01539  43.64917
   Z74       41.57397  -0.00297   0.00000  -0.01641  -0.01428  41.55970
   X75       45.78806   0.00008   0.00000   0.01447   0.01455  45.80262
   Y75       45.24004  -0.00008   0.00000   0.00992   0.00990  45.24994
   Z75       41.40390  -0.00137   0.00000  -0.01023  -0.00805  41.39585
   X76       46.27939   0.00231   0.00000   0.00044   0.00037  46.27976
   Y76       42.42435  -0.00666   0.00000  -0.01363  -0.01367  42.41069
   Z76       41.46059  -0.00014   0.00000  -0.00132   0.00126  41.46185
   X77       30.68915  -0.00512   0.00000  -0.03482  -0.03521  30.65394
   Y77       31.25607   0.00564   0.00000   0.00787   0.00854  31.26461
   Z77       40.42124  -0.00942   0.00000  -0.05469  -0.05490  40.36634
   X78       31.55843   0.00856   0.00000   0.02439   0.02415  31.58258
   Y78       29.97106  -0.00511   0.00000  -0.01059  -0.01005  29.96100
   Z78       39.47638  -0.00203   0.00000   0.00527   0.00542  39.48180
   X79       29.04509  -0.00906   0.00000  -0.01825  -0.01877  29.02632
   Y79       30.57577  -0.00661   0.00000  -0.03037  -0.02958  30.54619
   Z79       40.72360   0.00328   0.00000   0.00901   0.00847  40.73207
   X80       34.75206  -0.01336   0.00000  -0.00704  -0.00785  34.74422
   Y80       27.49552   0.00786   0.00000   0.01349   0.01404  27.50955
   Z80       41.27162  -0.00609   0.00000  -0.02252  -0.02136  41.25026
   X81       35.81031   0.00234   0.00000  -0.00848  -0.00938  35.80093
   Y81       28.83722   0.00624   0.00000   0.00791   0.00847  28.84569
   Z81       41.89523   0.00751   0.00000   0.02699   0.02828  41.92351
   X82       35.82921   0.00789   0.00000   0.00124   0.00037  35.82958
   Y82       26.05932  -0.01145   0.00000  -0.00827  -0.00779  26.05153
   Z82       41.21493  -0.00115   0.00000  -0.00501  -0.00344  41.21148
   X83       39.62756  -0.00363   0.00000   0.00268   0.00365  39.63121
   Y83       49.62421   0.00898   0.00000   0.00769   0.00774  49.63195
   Z83       38.72049   0.01599   0.00000   0.01617   0.01642  38.73691
   X84       39.72204   0.00181   0.00000   0.00229   0.00327  39.72531
   Y84       47.86676  -0.01199   0.00000  -0.00855  -0.00855  47.85822
   Z84       38.32365  -0.00436   0.00000  -0.00070  -0.00026  38.32339
   X85       40.19447   0.00398   0.00000   0.00256   0.00395  40.19842
   Y85       50.45569   0.00099   0.00000  -0.00884  -0.00897  50.44672
   Z85       37.22760  -0.01147   0.00000  -0.01346  -0.01315  37.21446
   X86       38.79608   0.00391   0.00000  -0.00950  -0.00773  38.78835
   Y86       28.42148  -0.02016   0.00000  -0.01147  -0.01212  28.40936
   Z86       30.93482   0.01053   0.00000   0.02094   0.02300  30.95782
   X87       39.96771   0.00632   0.00000   0.00747   0.00916  39.97687
   Y87       29.63091   0.01028   0.00000   0.01622   0.01557  29.64648
   Z87       31.57732  -0.00122   0.00000  -0.01903  -0.01679  31.56053
   X88       37.60555  -0.01196   0.00000  -0.01266  -0.01059  37.59496
   Y88       29.38524   0.01217   0.00000   0.01013   0.00945  29.39469
   Z88       29.97106  -0.00977   0.00000  -0.00846  -0.00678  29.96428
   X89       45.73137   0.00488   0.00000   0.00942   0.01076  45.74213
   Y89       30.02775  -0.00785   0.00000  -0.01864  -0.01945  30.00829
   Z89       33.08910  -0.01143   0.00000  -0.01323  -0.00961  33.07950
   X90       44.48415  -0.00519   0.00000  -0.00315  -0.00214  44.48202
   Y90       30.08444   0.00169   0.00000   0.00256   0.00194  30.08638
   Z90       34.39302   0.00624   0.00000  -0.00569  -0.00238  34.39064
   X91       47.09198   0.00007   0.00000  -0.01153  -0.01029  47.08168
   Y91       31.04820   0.00523   0.00000   0.01451   0.01369  31.06189
   Z91       33.71271   0.00311   0.00000  -0.00075   0.00311  33.71583
   X92       34.75206   0.00512   0.00000   0.01969   0.02223  34.77429
   Y92       31.25607  -0.01370   0.00000  -0.00695  -0.00763  31.24844
   Z92       28.45928  -0.01045   0.00000  -0.01445  -0.01364  28.44564
   X93       33.92058  -0.00602   0.00000  -0.01296  -0.01082  33.90976
   Y93       30.97261  -0.00512   0.00000  -0.02069  -0.02118  30.95144
   Z93       30.04665   0.00420   0.00000  -0.01672  -0.01610  30.03055
   X94       35.20560   0.00396   0.00000   0.00166   0.00428  35.20988
   Y94       32.99462   0.01720   0.00000   0.02195   0.02126  33.01587
   Z94       28.47817   0.00031   0.00000  -0.00035   0.00040  28.47857
   X95       32.12534   0.01254   0.00000   0.01919   0.01729  32.14263
   Y95       39.68425  -0.00201   0.00000  -0.00521  -0.00385  39.68039
   Z95       48.28250   0.01447   0.00000   0.00817   0.00753  48.29003
   X96       31.55843  -0.01170   0.00000  -0.02837  -0.02988  31.52855
   Y96       39.28741   0.00008   0.00000   0.00349   0.00471  39.29212
   Z96       46.60065  -0.01237   0.00000  -0.00306  -0.00381  46.59683
   X97       31.01041  -0.00219   0.00000   0.00689   0.00493  31.01534
   Y97       41.00706   0.00225   0.00000   0.00007   0.00153  41.00859
   Z97       48.83052  -0.00410   0.00000  -0.01142  -0.01246  48.81806
         Item               Value     Threshold  Converged?
 Maximum Force            0.031961     0.000450     NO 
 RMS     Force            0.009773     0.000300     NO 
 Maximum Displacement     0.054940     0.001800     NO 
 RMS     Displacement     0.017546     0.001200     NO 
 Predicted change in Energy=-2.590371D-02
 GradGradGradGradGradGradGradGradGradGradGradGradGradGradGradGradGradGrad

 Leave Link  103 at Wed May  2 21:27:26 2018, MaxMem= 14763950080 cpu:        52.6
 (Enter /cm/shared/gaussian/g09.e01/intel64-sandybridge/g09/l9999.exe)
 1\1\GINC-POPLE03\Force\RPBE1PBE\CC-pVDZ\Br1H64O32(1-)\M.PELUSO\02-May-
 2018\0\\#p PBE1PBE/cc-pvDZ force Counterpoise=2 noSymm\\forces on chlo
 ride comput - NWATER: 32\\-1,1\Br,20.,20.,20.\O,22.57,19.75,18.41\H,21
 .79,19.9,18.95\H,23.05,19.06,18.88\O,19.35,16.98,19.7\H,19.46,16.69,20
 .61\H,19.55,17.92,19.73\O,17.43,19.98,18.05\H,16.91,19.56,18.74\H,18.3
 1,20.05,18.43\O,17.5,21.61,21.41\H,18.1,20.94,21.07\H,17.36,22.2,20.67
 \O,22.44,18.81,21.93\H,22.78,18.21,21.27\H,21.66,19.2,21.53\O,20.85,23
 .24,19.75\H,19.98,23.41,20.12\H,21.04,22.33,19.98\O,20.23,18.61,16.97\
 H,21.1,19.,17.09\H,19.7,18.98,17.67\O,20.55,22.44,16.28\H,21.03,22.53,
 17.1\H,20.12,23.28,16.15\O,17.2,18.09,23.23\H,16.8,17.55,22.55\H,18.13
 ,18.14,23.\O,20.47,16.48,22.44\H,20.86,17.1,23.04\H,21.06,15.73,22.45\
 O,18.75,23.29,23.49\H,18.6,22.36,23.33\H,19.69,23.41,23.35\O,23.24,17.
 09,20.1\H,22.61,16.39,19.96\H,23.87,16.73,20.73\O,15.64,19.23,20.23\H,
 15.61,18.33,20.55\H,14.72,19.5,20.2\O,21.6,15.24,19.24\H,20.77,15.7,19
 .09\H,21.48,14.81,20.09\O,17.48,19.69,15.24\H,16.9,20.41,15.5\H,17.99,
 19.5,16.03\O,18.4,24.2,20.54\H,17.54,24.58,20.73\H,18.83,24.14,21.39\O
 ,22.66,24.15,17.99\H,22.09,23.8,18.68\H,23.45,23.61,18.04\O,15.73,20.2
 5,23.09\H,16.18,20.7,22.37\H,16.25,19.46,23.24\O,17.65,15.55,17.47\H,1
 7.72,14.79,18.05\H,18.19,16.22,17.88\O,22.79,19.28,24.61\H,22.12,18.59
 ,24.67\H,23.01,19.31,23.68\O,24.12,20.87,16.09\H,23.52,21.,15.36\H,23.
 58,20.5,16.79\O,21.44,23.52,23.16\H,21.7,23.06,23.96\H,22.21,23.5,22.6
 \O,21.38,20.51,14.6\H,21.82,21.2,14.11\H,20.85,20.98,15.25\O,16.61,22.
 81,16.06\H,17.2,23.56,16.05\H,17.17,22.06,16.28\O,23.78,23.09,22.\H,24
 .23,23.94,21.91\H,24.49,22.45,21.94\O,16.24,16.54,21.39\H,16.7,15.86,2
 0.89\H,15.37,16.18,21.55\O,18.39,14.55,21.84\H,18.95,15.26,22.17\H,18.
 96,13.79,21.81\O,20.97,26.26,20.49\H,21.02,25.33,20.28\H,21.27,26.7,19
 .7\O,20.53,15.04,16.37\H,21.15,15.68,16.71\H,19.9,15.55,15.86\O,24.2,1
 5.89,17.51\H,23.54,15.92,18.2\H,24.92,16.43,17.84\O,18.39,16.54,15.06\
 H,17.95,16.39,15.9\H,18.63,17.46,15.07\O,17.,21.,25.55\H,16.7,20.79,24
 .66\H,16.41,21.7,25.84\\Version=ES64L-G09RevE.01\HF=-2443.1844891\RMSD
 =3.371e-09\RMSF=9.773e-03\Dipole=1.5960117,-2.2057179,4.2559528\Quadru
 pole=51.6691818,-219.7303617,168.0611799,-1414.7580566,-1158.3562251,-
 1375.9794597\PG=C01 [X(Br1H64O32)]\\@


 Human beings, who are almost unique in having the
 ability to learn from the experience of others, are
 also remarkable for their apparent disinclination to do so.
                               -- Douglas Adams,
                                Last Chance to See
 Job cpu time:       0 days  9 hours 14 minutes 33.1 seconds.
 File lengths (MBytes):  RWF=    482 Int=      0 D2E=      0 Chk=    160 Scr=      1
 Normal termination of Gaussian 09 at Wed May  2 21:27:26 2018.
