 Entering Gaussian System, Link 0=/cm/shared/gaussian/g09.e01/intel64-sandybridge/g09/g09
 Initial command:
 /cm/shared/gaussian/g09.e01/intel64-sandybridge/g09/l1.exe "/local/scratch/m.peluso/32_wat/Gau-47609.inp" -scrdir="/local/scratch/m.peluso/32_wat/"
 Entering Link 1 = /cm/shared/gaussian/g09.e01/intel64-sandybridge/g09/l1.exe PID=     47610.
  
 Copyright (c) 1988,1990,1992,1993,1995,1998,2003,2009,2015,
            Gaussian, Inc.  All Rights Reserved.
  
 This is part of the Gaussian(R) 09 program.  It is based on
 the Gaussian(R) 03 system (copyright 2003, Gaussian, Inc.),
 the Gaussian(R) 98 system (copyright 1998, Gaussian, Inc.),
 the Gaussian(R) 94 system (copyright 1995, Gaussian, Inc.),
 the Gaussian 92(TM) system (copyright 1992, Gaussian, Inc.),
 the Gaussian 90(TM) system (copyright 1990, Gaussian, Inc.),
 the Gaussian 88(TM) system (copyright 1988, Gaussian, Inc.),
 the Gaussian 86(TM) system (copyright 1986, Carnegie Mellon
 University), and the Gaussian 82(TM) system (copyright 1983,
 Carnegie Mellon University). Gaussian is a federally registered
 trademark of Gaussian, Inc.
  
 This software contains proprietary and confidential information,
 including trade secrets, belonging to Gaussian, Inc.
  
 This software is provided under written license and may be
 used, copied, transmitted, or stored only in accord with that
 written license.
  
 The following legend is applicable only to US Government
 contracts under FAR:
  
                    RESTRICTED RIGHTS LEGEND
  
 Use, reproduction and disclosure by the US Government is
 subject to restrictions as set forth in subparagraphs (a)
 and (c) of the Commercial Computer Software - Restricted
 Rights clause in FAR 52.227-19.
  
 Gaussian, Inc.
 340 Quinnipiac St., Bldg. 40, Wallingford CT 06492
  
  
 ---------------------------------------------------------------
 Warning -- This program may not be used in any manner that
 competes with the business of Gaussian, Inc. or will provide
 assistance to any competitor of Gaussian, Inc.  The licensee
 of this program is prohibited from giving any competitor of
 Gaussian, Inc. access to this program.  By using this program,
 the user acknowledges that Gaussian, Inc. is engaged in the
 business of creating and licensing software in the field of
 computational chemistry and represents and warrants to the
 licensee that it is not a competitor of Gaussian, Inc. and that
 it will not use this program in any manner prohibited above.
 ---------------------------------------------------------------
  

 Cite this work as:
 Gaussian 09, Revision E.01,
 M. J. Frisch, G. W. Trucks, H. B. Schlegel, G. E. Scuseria, 
 M. A. Robb, J. R. Cheeseman, G. Scalmani, V. Barone, B. Mennucci, 
 G. A. Petersson, H. Nakatsuji, M. Caricato, X. Li, H. P. Hratchian, 
 A. F. Izmaylov, J. Bloino, G. Zheng, J. L. Sonnenberg, M. Hada, 
 M. Ehara, K. Toyota, R. Fukuda, J. Hasegawa, M. Ishida, T. Nakajima, 
 Y. Honda, O. Kitao, H. Nakai, T. Vreven, J. A. Montgomery, Jr., 
 J. E. Peralta, F. Ogliaro, M. Bearpark, J. J. Heyd, E. Brothers, 
 K. N. Kudin, V. N. Staroverov, T. Keith, R. Kobayashi, J. Normand, 
 K. Raghavachari, A. Rendell, J. C. Burant, S. S. Iyengar, J. Tomasi, 
 M. Cossi, N. Rega, J. M. Millam, M. Klene, J. E. Knox, J. B. Cross, 
 V. Bakken, C. Adamo, J. Jaramillo, R. Gomperts, R. E. Stratmann, 
 O. Yazyev, A. J. Austin, R. Cammi, C. Pomelli, J. W. Ochterski, 
 R. L. Martin, K. Morokuma, V. G. Zakrzewski, G. A. Voth, 
 P. Salvador, J. J. Dannenberg, S. Dapprich, A. D. Daniels, 
 O. Farkas, J. B. Foresman, J. V. Ortiz, J. Cioslowski, 
 and D. J. Fox, Gaussian, Inc., Wallingford CT, 2013.
 
 ******************************************
 Gaussian 09:  ES64L-G09RevE.01 30-Nov-2015
                 2-May-2018 
 ******************************************
 %Mem=110GB
 %NProcShared=64
 Will use up to   64 processors via shared memory.
 %chk=snap94.chk
 ----------------------------------------------
 #p PBE1PBE/cc-pvDZ force Counterpoise=2 noSymm
 ----------------------------------------------
 1/10=7,30=1,38=1,62=2/1,3;
 2/12=2,15=1,17=6,18=5,40=1/2;
 1/10=7,30=1,38=1,53=2,62=2,63=101/22;
 3/5=16,11=2,16=1,25=1,30=1,71=1,74=-13/1,2,3;
 4//1;
 5/5=2,38=5/2;
 6/7=2,8=2,9=2,10=2,28=1/1;
 7/7=1,29=1,30=1,33=-1/1,2,3,16;
 1/10=7,30=1,53=2,62=2,63=101/22;
 3/5=7,6=11,11=2,16=1,25=1,30=1,71=1,74=-13,82=7/1,2,3;
 4//1;
 5/5=2,38=5/2;
 6/7=2,8=2,9=2,10=2,28=1/1;
 7/7=1,29=1,30=1,33=-1/1,2,3,16;
 1/10=7,30=1,53=2,62=2,63=101/22(-5);
 7/9=1,29=1,44=-1/16;
 1/10=7,30=1,62=2/3;
 99//99;
 Leave Link    1 at Wed May  2 18:40:57 2018, MaxMem= 14763950080 cpu:         4.3
 (Enter /cm/shared/gaussian/g09.e01/intel64-sandybridge/g09/l101.exe)
 --------------------------------------
 forces on chloride comput - NWATER: 32
 --------------------------------------
 Symbolic Z-matrix:
 Charge = -1 Multiplicity = 1 in supermolecule
 Charge = -1 Multiplicity = 1 in fragment      1.
 Charge =  0 Multiplicity = 1 in fragment      2.
 Br(Fragment=1)        20.       20.       20. 
 O(Fragment=2)         17.72     18.09     19.94 
 H(Fragment=2)         18.35     18.73     20.25 
 H(Fragment=2)         17.12     17.97     20.66 
 O(Fragment=2)         22.6      18.75     18.58 
 H(Fragment=2)         21.74     19.12     18.76 
 H(Fragment=2)         23.17     19.51     18.47 
 O(Fragment=2)         19.18     20.01     23.17 
 H(Fragment=2)         19.54     19.83     22.3 
 H(Fragment=2)         19.94     20.11     23.73 
 O(Fragment=2)         18.62     21.99     17.86 
 H(Fragment=2)         18.79     21.7      18.76 
 H(Fragment=2)         17.67     22.06     17.81 
 O(Fragment=2)         22.21     22.59     19.25 
 H(Fragment=2)         21.64     21.83     19.34 
 H(Fragment=2)         23.09     22.25     19.44 
 O(Fragment=2)         23.37     20.29     21.75 
 H(Fragment=2)         22.53     19.93     21.46 
 H(Fragment=2)         23.13     21.06     22.27 
 O(Fragment=2)         19.61     17.08     17.43 
 H(Fragment=2)         19.94     17.62     16.7 
 H(Fragment=2)         19.17     17.7      18.01 
 O(Fragment=2)         22.49     22.89     22.18 
 H(Fragment=2)         22.03     22.6      21.4 
 H(Fragment=2)         22.21     23.8      22.3 
 O(Fragment=2)         16.39     18.8      17.56 
 H(Fragment=2)         17.09     18.89     16.91 
 H(Fragment=2)         16.85     18.69     18.39 
 O(Fragment=2)         17.47     22.15     23.19 
 H(Fragment=2)         18.04     21.38     23.09 
 H(Fragment=2)         17.37     22.25     24.14 
 O(Fragment=2)         16.49     18.14     22.41 
 H(Fragment=2)         16.84     18.98     22.71 
 H(Fragment=2)         15.67     18.04     22.9 
 O(Fragment=2)         24.42     21.26     19.44 
 H(Fragment=2)         24.25     20.77     20.24 
 H(Fragment=2)         25.18     20.83     19.05 
 O(Fragment=2)         20.65     23.63     16.77 
 H(Fragment=2)         21.3      23.22     17.35 
 H(Fragment=2)         19.82     23.23     17.02 
 O(Fragment=2)         23.19     16.1      20.25 
 H(Fragment=2)         22.91     16.23     21.16 
 H(Fragment=2)         23.16     16.97     19.86 
 O(Fragment=2)         22.7      20.2      15.76 
 H(Fragment=2)         22.84     19.88     14.87 
 H(Fragment=2)         21.98     19.68     16.1 
 O(Fragment=2)         20.05     19.16     15.59 
 H(Fragment=2)         19.88     20.11     15.61 
 H(Fragment=2)         20.09     18.95     14.66 
 O(Fragment=2)         18.58     14.86     19.54 
 H(Fragment=2)         18.71     15.81     19.64 
 H(Fragment=2)         17.64     14.77     19.37 
 O(Fragment=2)         17.83     24.       21.48 
 H(Fragment=2)         17.95     23.32     22.13 
 H(Fragment=2)         16.95     24.34     21.64 
 O(Fragment=2)         20.98     25.08     19.46 
 H(Fragment=2)         21.45     24.29     19.19 
 H(Fragment=2)         20.18     25.07     18.94 
 O(Fragment=2)         15.87     21.62     17.9 
 H(Fragment=2)         15.06     21.79     18.38 
 H(Fragment=2)         15.95     20.66     17.89 
 O(Fragment=2)         18.14     21.37     15.09 
 H(Fragment=2)         17.98     21.39     16.04 
 H(Fragment=2)         17.31     21.66     14.71 
 O(Fragment=2)         23.26     17.15     16.58 
 H(Fragment=2)         23.05     17.66     17.36 
 H(Fragment=2)         22.46     16.64     16.41 
 O(Fragment=2)         21.62     19.78     24.42 
 H(Fragment=2)         21.4      18.86     24.54 
 H(Fragment=2)         22.05     20.03     25.24 
 O(Fragment=2)         21.4      15.09     17.48 
 H(Fragment=2)         21.3      14.61     18.3 
 H(Fragment=2)         20.76     15.8      17.54 
 O(Fragment=2)         18.24     25.17     18.9 
 H(Fragment=2)         17.6      24.85     18.26 
 H(Fragment=2)         18.13     24.6      19.66 
 O(Fragment=2)         18.15     15.33     22.97 
 H(Fragment=2)         18.21     15.72     23.84 
 H(Fragment=2)         18.04     16.08     22.38 
 O(Fragment=2)         15.13     20.92     22.42 
 H(Fragment=2)         15.94     21.36     22.67 
 H(Fragment=2)         14.5      21.63     22.28 
 O(Fragment=2)         25.54     19.45     22.97 
 H(Fragment=2)         25.96     20.28     23.22 
 H(Fragment=2)         24.79     19.72     22.44 
 O(Fragment=2)         24.59     22.12     16.49 
 H(Fragment=2)         24.06     22.9      16.33 
 H(Fragment=2)         23.96     21.4      16.49 
 O(Fragment=2)         22.28     15.51     22.75 
 H(Fragment=2)         22.84     15.08     23.4 
 H(Fragment=2)         21.91     14.79     22.25 
 O(Fragment=2)         21.58     25.61     22.31 
 H(Fragment=2)         20.97     26.35     22.32 
 H(Fragment=2)         21.61     25.33     21.4 
 O(Fragment=2)         14.2      19.65     19.77 
 H(Fragment=2)         14.37     18.75     19.48 
 H(Fragment=2)         14.31     19.62     20.72 
 
 NAtoms=     97 NQM=       97 NQMF=       0 NMMI=      0 NMMIF=      0
                NMic=       0 NMicF=      0.
                    Isotopes and Nuclear Properties:
 (Nuclear quadrupole moments (NQMom) in fm**2, nuclear magnetic moments (NMagM)
  in nuclear magnetons)

  Atom         1           2           3           4           5           6           7           8           9          10
 IAtWgt=          79          16           1           1          16           1           1          16           1           1
 AtmWgt=  78.9183361  15.9949146   1.0078250   1.0078250  15.9949146   1.0078250   1.0078250  15.9949146   1.0078250   1.0078250
 NucSpn=           3           0           1           1           0           1           1           0           1           1
 AtZEff=   0.0000000   0.0000000   0.0000000   0.0000000   0.0000000   0.0000000   0.0000000   0.0000000   0.0000000   0.0000000
 NQMom=   31.3000000   0.0000000   0.0000000   0.0000000   0.0000000   0.0000000   0.0000000   0.0000000   0.0000000   0.0000000
 NMagM=    2.1063990   0.0000000   2.7928460   2.7928460   0.0000000   2.7928460   2.7928460   0.0000000   2.7928460   2.7928460
 AtZNuc=  35.0000000   8.0000000   1.0000000   1.0000000   8.0000000   1.0000000   1.0000000   8.0000000   1.0000000   1.0000000

  Atom        11          12          13          14          15          16          17          18          19          20
 IAtWgt=          16           1           1          16           1           1          16           1           1          16
 AtmWgt=  15.9949146   1.0078250   1.0078250  15.9949146   1.0078250   1.0078250  15.9949146   1.0078250   1.0078250  15.9949146
 NucSpn=           0           1           1           0           1           1           0           1           1           0
 AtZEff=   0.0000000   0.0000000   0.0000000   0.0000000   0.0000000   0.0000000   0.0000000   0.0000000   0.0000000   0.0000000
 NQMom=    0.0000000   0.0000000   0.0000000   0.0000000   0.0000000   0.0000000   0.0000000   0.0000000   0.0000000   0.0000000
 NMagM=    0.0000000   2.7928460   2.7928460   0.0000000   2.7928460   2.7928460   0.0000000   2.7928460   2.7928460   0.0000000
 AtZNuc=   8.0000000   1.0000000   1.0000000   8.0000000   1.0000000   1.0000000   8.0000000   1.0000000   1.0000000   8.0000000

  Atom        21          22          23          24          25          26          27          28          29          30
 IAtWgt=           1           1          16           1           1          16           1           1          16           1
 AtmWgt=   1.0078250   1.0078250  15.9949146   1.0078250   1.0078250  15.9949146   1.0078250   1.0078250  15.9949146   1.0078250
 NucSpn=           1           1           0           1           1           0           1           1           0           1
 AtZEff=   0.0000000   0.0000000   0.0000000   0.0000000   0.0000000   0.0000000   0.0000000   0.0000000   0.0000000   0.0000000
 NQMom=    0.0000000   0.0000000   0.0000000   0.0000000   0.0000000   0.0000000   0.0000000   0.0000000   0.0000000   0.0000000
 NMagM=    2.7928460   2.7928460   0.0000000   2.7928460   2.7928460   0.0000000   2.7928460   2.7928460   0.0000000   2.7928460
 AtZNuc=   1.0000000   1.0000000   8.0000000   1.0000000   1.0000000   8.0000000   1.0000000   1.0000000   8.0000000   1.0000000

  Atom        31          32          33          34          35          36          37          38          39          40
 IAtWgt=           1          16           1           1          16           1           1          16           1           1
 AtmWgt=   1.0078250  15.9949146   1.0078250   1.0078250  15.9949146   1.0078250   1.0078250  15.9949146   1.0078250   1.0078250
 NucSpn=           1           0           1           1           0           1           1           0           1           1
 AtZEff=   0.0000000   0.0000000   0.0000000   0.0000000   0.0000000   0.0000000   0.0000000   0.0000000   0.0000000   0.0000000
 NQMom=    0.0000000   0.0000000   0.0000000   0.0000000   0.0000000   0.0000000   0.0000000   0.0000000   0.0000000   0.0000000
 NMagM=    2.7928460   0.0000000   2.7928460   2.7928460   0.0000000   2.7928460   2.7928460   0.0000000   2.7928460   2.7928460
 AtZNuc=   1.0000000   8.0000000   1.0000000   1.0000000   8.0000000   1.0000000   1.0000000   8.0000000   1.0000000   1.0000000

  Atom        41          42          43          44          45          46          47          48          49          50
 IAtWgt=          16           1           1          16           1           1          16           1           1          16
 AtmWgt=  15.9949146   1.0078250   1.0078250  15.9949146   1.0078250   1.0078250  15.9949146   1.0078250   1.0078250  15.9949146
 NucSpn=           0           1           1           0           1           1           0           1           1           0
 AtZEff=   0.0000000   0.0000000   0.0000000   0.0000000   0.0000000   0.0000000   0.0000000   0.0000000   0.0000000   0.0000000
 NQMom=    0.0000000   0.0000000   0.0000000   0.0000000   0.0000000   0.0000000   0.0000000   0.0000000   0.0000000   0.0000000
 NMagM=    0.0000000   2.7928460   2.7928460   0.0000000   2.7928460   2.7928460   0.0000000   2.7928460   2.7928460   0.0000000
 AtZNuc=   8.0000000   1.0000000   1.0000000   8.0000000   1.0000000   1.0000000   8.0000000   1.0000000   1.0000000   8.0000000

  Atom        51          52          53          54          55          56          57          58          59          60
 IAtWgt=           1           1          16           1           1          16           1           1          16           1
 AtmWgt=   1.0078250   1.0078250  15.9949146   1.0078250   1.0078250  15.9949146   1.0078250   1.0078250  15.9949146   1.0078250
 NucSpn=           1           1           0           1           1           0           1           1           0           1
 AtZEff=   0.0000000   0.0000000   0.0000000   0.0000000   0.0000000   0.0000000   0.0000000   0.0000000   0.0000000   0.0000000
 NQMom=    0.0000000   0.0000000   0.0000000   0.0000000   0.0000000   0.0000000   0.0000000   0.0000000   0.0000000   0.0000000
 NMagM=    2.7928460   2.7928460   0.0000000   2.7928460   2.7928460   0.0000000   2.7928460   2.7928460   0.0000000   2.7928460
 AtZNuc=   1.0000000   1.0000000   8.0000000   1.0000000   1.0000000   8.0000000   1.0000000   1.0000000   8.0000000   1.0000000

  Atom        61          62          63          64          65          66          67          68          69          70
 IAtWgt=           1          16           1           1          16           1           1          16           1           1
 AtmWgt=   1.0078250  15.9949146   1.0078250   1.0078250  15.9949146   1.0078250   1.0078250  15.9949146   1.0078250   1.0078250
 NucSpn=           1           0           1           1           0           1           1           0           1           1
 AtZEff=   0.0000000   0.0000000   0.0000000   0.0000000   0.0000000   0.0000000   0.0000000   0.0000000   0.0000000   0.0000000
 NQMom=    0.0000000   0.0000000   0.0000000   0.0000000   0.0000000   0.0000000   0.0000000   0.0000000   0.0000000   0.0000000
 NMagM=    2.7928460   0.0000000   2.7928460   2.7928460   0.0000000   2.7928460   2.7928460   0.0000000   2.7928460   2.7928460
 AtZNuc=   1.0000000   8.0000000   1.0000000   1.0000000   8.0000000   1.0000000   1.0000000   8.0000000   1.0000000   1.0000000

  Atom        71          72          73          74          75          76          77          78          79          80
 IAtWgt=          16           1           1          16           1           1          16           1           1          16
 AtmWgt=  15.9949146   1.0078250   1.0078250  15.9949146   1.0078250   1.0078250  15.9949146   1.0078250   1.0078250  15.9949146
 NucSpn=           0           1           1           0           1           1           0           1           1           0
 AtZEff=   0.0000000   0.0000000   0.0000000   0.0000000   0.0000000   0.0000000   0.0000000   0.0000000   0.0000000   0.0000000
 NQMom=    0.0000000   0.0000000   0.0000000   0.0000000   0.0000000   0.0000000   0.0000000   0.0000000   0.0000000   0.0000000
 NMagM=    0.0000000   2.7928460   2.7928460   0.0000000   2.7928460   2.7928460   0.0000000   2.7928460   2.7928460   0.0000000
 AtZNuc=   8.0000000   1.0000000   1.0000000   8.0000000   1.0000000   1.0000000   8.0000000   1.0000000   1.0000000   8.0000000

  Atom        81          82          83          84          85          86          87          88          89          90
 IAtWgt=           1           1          16           1           1          16           1           1          16           1
 AtmWgt=   1.0078250   1.0078250  15.9949146   1.0078250   1.0078250  15.9949146   1.0078250   1.0078250  15.9949146   1.0078250
 NucSpn=           1           1           0           1           1           0           1           1           0           1
 AtZEff=   0.0000000   0.0000000   0.0000000   0.0000000   0.0000000   0.0000000   0.0000000   0.0000000   0.0000000   0.0000000
 NQMom=    0.0000000   0.0000000   0.0000000   0.0000000   0.0000000   0.0000000   0.0000000   0.0000000   0.0000000   0.0000000
 NMagM=    2.7928460   2.7928460   0.0000000   2.7928460   2.7928460   0.0000000   2.7928460   2.7928460   0.0000000   2.7928460
 AtZNuc=   1.0000000   1.0000000   8.0000000   1.0000000   1.0000000   8.0000000   1.0000000   1.0000000   8.0000000   1.0000000

  Atom        91          92          93          94          95          96          97
 IAtWgt=           1          16           1           1          16           1           1
 AtmWgt=   1.0078250  15.9949146   1.0078250   1.0078250  15.9949146   1.0078250   1.0078250
 NucSpn=           1           0           1           1           0           1           1
 AtZEff=   0.0000000   0.0000000   0.0000000   0.0000000   0.0000000   0.0000000   0.0000000
 NQMom=    0.0000000   0.0000000   0.0000000   0.0000000   0.0000000   0.0000000   0.0000000
 NMagM=    2.7928460   0.0000000   2.7928460   2.7928460   0.0000000   2.7928460   2.7928460
 AtZNuc=   1.0000000   8.0000000   1.0000000   1.0000000   8.0000000   1.0000000   1.0000000
 Leave Link  101 at Wed May  2 18:40:57 2018, MaxMem= 14763950080 cpu:        12.6
 (Enter /cm/shared/gaussian/g09.e01/intel64-sandybridge/g09/l103.exe)

 GradGradGradGradGradGradGradGradGradGradGradGradGradGradGradGradGradGrad
 Berny optimization.
 Initialization pass.
 Trust Radius=3.00D-01 FncErr=1.00D-07 GrdErr=1.00D-07
 Number of steps in this run=      2 maximum allowed number of steps=      2.
 GradGradGradGradGradGradGradGradGradGradGradGradGradGradGradGradGradGrad

 Leave Link  103 at Wed May  2 18:40:57 2018, MaxMem= 14763950080 cpu:         1.7
 (Enter /cm/shared/gaussian/g09.e01/intel64-sandybridge/g09/l202.exe)
 Symmetry turned off by external request.
 Stoichiometry    BrH64O32(1-)
 Framework group  C1[X(BrH64O32)]
 Deg. of freedom   285
 Full point group                 C1      NOp   1
                          Input orientation:                          
 ---------------------------------------------------------------------
 Center     Atomic      Atomic             Coordinates (Angstroms)
 Number     Number       Type             X           Y           Z
 ---------------------------------------------------------------------
      1         35           0       20.000000   20.000000   20.000000
      2          8           0       17.720000   18.090000   19.940000
      3          1           0       18.350000   18.730000   20.250000
      4          1           0       17.120000   17.970000   20.660000
      5          8           0       22.600000   18.750000   18.580000
      6          1           0       21.740000   19.120000   18.760000
      7          1           0       23.170000   19.510000   18.470000
      8          8           0       19.180000   20.010000   23.170000
      9          1           0       19.540000   19.830000   22.300000
     10          1           0       19.940000   20.110000   23.730000
     11          8           0       18.620000   21.990000   17.860000
     12          1           0       18.790000   21.700000   18.760000
     13          1           0       17.670000   22.060000   17.810000
     14          8           0       22.210000   22.590000   19.250000
     15          1           0       21.640000   21.830000   19.340000
     16          1           0       23.090000   22.250000   19.440000
     17          8           0       23.370000   20.290000   21.750000
     18          1           0       22.530000   19.930000   21.460000
     19          1           0       23.130000   21.060000   22.270000
     20          8           0       19.610000   17.080000   17.430000
     21          1           0       19.940000   17.620000   16.700000
     22          1           0       19.170000   17.700000   18.010000
     23          8           0       22.490000   22.890000   22.180000
     24          1           0       22.030000   22.600000   21.400000
     25          1           0       22.210000   23.800000   22.300000
     26          8           0       16.390000   18.800000   17.560000
     27          1           0       17.090000   18.890000   16.910000
     28          1           0       16.850000   18.690000   18.390000
     29          8           0       17.470000   22.150000   23.190000
     30          1           0       18.040000   21.380000   23.090000
     31          1           0       17.370000   22.250000   24.140000
     32          8           0       16.490000   18.140000   22.410000
     33          1           0       16.840000   18.980000   22.710000
     34          1           0       15.670000   18.040000   22.900000
     35          8           0       24.420000   21.260000   19.440000
     36          1           0       24.250000   20.770000   20.240000
     37          1           0       25.180000   20.830000   19.050000
     38          8           0       20.650000   23.630000   16.770000
     39          1           0       21.300000   23.220000   17.350000
     40          1           0       19.820000   23.230000   17.020000
     41          8           0       23.190000   16.100000   20.250000
     42          1           0       22.910000   16.230000   21.160000
     43          1           0       23.160000   16.970000   19.860000
     44          8           0       22.700000   20.200000   15.760000
     45          1           0       22.840000   19.880000   14.870000
     46          1           0       21.980000   19.680000   16.100000
     47          8           0       20.050000   19.160000   15.590000
     48          1           0       19.880000   20.110000   15.610000
     49          1           0       20.090000   18.950000   14.660000
     50          8           0       18.580000   14.860000   19.540000
     51          1           0       18.710000   15.810000   19.640000
     52          1           0       17.640000   14.770000   19.370000
     53          8           0       17.830000   24.000000   21.480000
     54          1           0       17.950000   23.320000   22.130000
     55          1           0       16.950000   24.340000   21.640000
     56          8           0       20.980000   25.080000   19.460000
     57          1           0       21.450000   24.290000   19.190000
     58          1           0       20.180000   25.070000   18.940000
     59          8           0       15.870000   21.620000   17.900000
     60          1           0       15.060000   21.790000   18.380000
     61          1           0       15.950000   20.660000   17.890000
     62          8           0       18.140000   21.370000   15.090000
     63          1           0       17.980000   21.390000   16.040000
     64          1           0       17.310000   21.660000   14.710000
     65          8           0       23.260000   17.150000   16.580000
     66          1           0       23.050000   17.660000   17.360000
     67          1           0       22.460000   16.640000   16.410000
     68          8           0       21.620000   19.780000   24.420000
     69          1           0       21.400000   18.860000   24.540000
     70          1           0       22.050000   20.030000   25.240000
     71          8           0       21.400000   15.090000   17.480000
     72          1           0       21.300000   14.610000   18.300000
     73          1           0       20.760000   15.800000   17.540000
     74          8           0       18.240000   25.170000   18.900000
     75          1           0       17.600000   24.850000   18.260000
     76          1           0       18.130000   24.600000   19.660000
     77          8           0       18.150000   15.330000   22.970000
     78          1           0       18.210000   15.720000   23.840000
     79          1           0       18.040000   16.080000   22.380000
     80          8           0       15.130000   20.920000   22.420000
     81          1           0       15.940000   21.360000   22.670000
     82          1           0       14.500000   21.630000   22.280000
     83          8           0       25.540000   19.450000   22.970000
     84          1           0       25.960000   20.280000   23.220000
     85          1           0       24.790000   19.720000   22.440000
     86          8           0       24.590000   22.120000   16.490000
     87          1           0       24.060000   22.900000   16.330000
     88          1           0       23.960000   21.400000   16.490000
     89          8           0       22.280000   15.510000   22.750000
     90          1           0       22.840000   15.080000   23.400000
     91          1           0       21.910000   14.790000   22.250000
     92          8           0       21.580000   25.610000   22.310000
     93          1           0       20.970000   26.350000   22.320000
     94          1           0       21.610000   25.330000   21.400000
     95          8           0       14.200000   19.650000   19.770000
     96          1           0       14.370000   18.750000   19.480000
     97          1           0       14.310000   19.620000   20.720000
 ---------------------------------------------------------------------
 Rotational constants (GHZ):      0.0573561      0.0559718      0.0504824
 Leave Link  202 at Wed May  2 18:40:57 2018, MaxMem= 14763950080 cpu:         0.6
 (Enter /cm/shared/gaussian/g09.e01/intel64-sandybridge/g09/l122.exe)
 Counterpoise: doing full dimer calculation.
 Leave Link  122 at Wed May  2 18:40:57 2018, MaxMem= 14763950080 cpu:         0.1
 (Enter /cm/shared/gaussian/g09.e01/intel64-sandybridge/g09/l301.exe)
 Standard basis: CC-pVDZ (5D, 7F)
 Ernie: Thresh=  0.10000D-02 Tol=  0.10000D-05 Strict=F.
 Ernie:  87 primitive shells out of 1114 were deleted.
   795 basis functions,  1651 primitive gaussians,   829 cartesian basis functions
   178 alpha electrons      178 beta electrons
       nuclear repulsion energy      6084.5206182456 Hartrees.
 IExCor= 1009 DFT=T Ex+Corr=PBE1PBE ExCW=0 ScaHFX=  0.250000
 ScaDFX=  0.750000  0.750000  1.000000  1.000000 ScalE2=  1.000000  1.000000
 IRadAn=      0 IRanWt=     -1 IRanGd=            0 ICorTp=0 IEmpDi=  4
 NAtoms=   97 NActive=   97 NUniq=   97 SFac= 1.00D+00 NAtFMM=   60 NAOKFM=T Big=T
 Integral buffers will be    131072 words long.
 Raffenetti 2 integral format.
 Two-electron integral symmetry is turned off.
 Leave Link  301 at Wed May  2 18:40:57 2018, MaxMem= 14763950080 cpu:         4.3
 (Enter /cm/shared/gaussian/g09.e01/intel64-sandybridge/g09/l302.exe)
 NPDir=0 NMtPBC=     1 NCelOv=     1 NCel=       1 NClECP=     1 NCelD=      1
         NCelK=      1 NCelE2=     1 NClLst=     1 CellRange=     0.0.
 One-electron integrals computed using PRISM.
 NBasis=   795 RedAO= T EigKep=  1.74D-02  NBF=   795
 NBsUse=   795 1.00D-06 EigRej= -1.00D+00 NBFU=   795
 Precomputing XC quadrature grid using
 IXCGrd= 4 IRadAn=           0 IRanWt=          -1 IRanGd=           0 AccXCQ= 0.00D+00.
 Generated NRdTot=       0 NPtTot=           0 NUsed=           0 NTot=          32
 NSgBfM=   759   759   759   759   759 MxSgAt=    97 MxSgA2=    97.
 Leave Link  302 at Wed May  2 18:41:04 2018, MaxMem= 14763950080 cpu:       418.3
 (Enter /cm/shared/gaussian/g09.e01/intel64-sandybridge/g09/l303.exe)
 DipDrv:  MaxL=1.
 Leave Link  303 at Wed May  2 18:41:04 2018, MaxMem= 14763950080 cpu:        29.1
 (Enter /cm/shared/gaussian/g09.e01/intel64-sandybridge/g09/l401.exe)
 ExpMin= 1.22D-01 ExpMax= 6.40D+05 ExpMxC= 6.18D+03 IAcc=2 IRadAn=         4 AccDes= 0.00D+00
 Harris functional with IExCor= 1009 and IRadAn=       4 diagonalized for initial guess.
 HarFok:  IExCor= 1009 AccDes= 0.00D+00 IRadAn=         4 IDoV= 1 UseB2=F ITyADJ=14
 ICtDFT=  3500011 ScaDFX=  1.000000  1.000000  1.000000  1.000000
 FoFCou: FMM=F IPFlag=           0 FMFlag=      100000 FMFlg1=        2001
         NFxFlg=           0 DoJE=T BraDBF=F KetDBF=T FulRan=T
         wScrn=  0.000000 ICntrl=     500 IOpCl=  0 I1Cent=   200000004 NGrid=           0
         NMat0=    1 NMatS0=      1 NMatT0=    0 NMatD0=    1 NMtDS0=    0 NMtDT0=    0
 Symmetry not used in FoFCou.
 Harris En= -5018.44888809683    
 JPrj=0 DoOrth=F DoCkMO=F.
 Leave Link  401 at Wed May  2 18:41:09 2018, MaxMem= 14763950080 cpu:       309.4
 (Enter /cm/shared/gaussian/g09.e01/intel64-sandybridge/g09/l502.exe)
 Closed shell SCF:
 Using DIIS extrapolation, IDIIS=  1040.
 Two-electron integral symmetry not used.
 IVT=     2138497 IEndB=     2138497 NGot= 14763950080 MDV= 14762516294
 LenX= 14762516294 LenY= 14761828224
 Requested convergence on RMS density matrix=1.00D-08 within 128 cycles.
 Requested convergence on MAX density matrix=1.00D-06.
 Requested convergence on             energy=1.00D-06.
 No special actions if energy rises.
 Fock matrices will be formed incrementally for  20 cycles.
 Integral accuracy reduced to 1.0D-05 until final iterations.

 Cycle   1  Pass 0  IDiag  1:
 FoFJK:  IHMeth= 1 ICntrl=       0 DoSepK=F KAlg= 0 I1Cent=   0 FoldK=F
 IRaf= 820000000 NMat=   1 IRICut=       1 DoRegI=T DoRafI=F ISym2E= 0.
 FoFCou: FMM=T IPFlag=           0 FMFlag=      100000 FMFlg1=        2001
         NFxFlg=           0 DoJE=F BraDBF=F KetDBF=F FulRan=T
         wScrn=  0.000000 ICntrl=       0 IOpCl=  0 I1Cent=           0 NGrid=           0
         NMat0=    1 NMatS0=      1 NMatT0=    0 NMatD0=    1 NMtDS0=    0 NMtDT0=    0
 Symmetry not used in FoFCou.
 FMM levels:  10  Number of levels for PrismC:   9
 E= -5015.35890246096    
 DIIS: error= 3.64D-02 at cycle   1 NSaved=   1.
 NSaved= 1 IEnMin= 1 EnMin= -5015.35890246096     IErMin= 1 ErrMin= 3.64D-02
 ErrMax= 3.64D-02  0.00D+00 EMaxC= 1.00D-01 BMatC= 2.68D+00 BMatP= 2.68D+00
 IDIUse=3 WtCom= 6.36D-01 WtEn= 3.64D-01
 Coeff-Com:  0.100D+01
 Coeff-En:   0.100D+01
 Coeff:      0.100D+01
 Gap=     0.317 Goal=   None    Shift=    0.000
 GapD=    0.317 DampG=1.000 DampE=0.500 DampFc=0.5000 IDamp=-1.
 Damping current iteration by 5.00D-01
 RMSDP=2.80D-03 MaxDP=1.57D-01              OVMax= 1.76D-01

 Cycle   2  Pass 0  IDiag  1:
 RMSU=  1.39D-03    CP:  9.85D-01
 E= -5016.15149005769     Delta-E=       -0.792587596732 Rises=F Damp=T
 DIIS: error= 7.49D-03 at cycle   2 NSaved=   2.
 NSaved= 2 IEnMin= 2 EnMin= -5016.15149005769     IErMin= 2 ErrMin= 7.49D-03
 ErrMax= 7.49D-03  0.00D+00 EMaxC= 1.00D-01 BMatC= 8.07D-02 BMatP= 2.68D+00
 IDIUse=3 WtCom= 9.25D-01 WtEn= 7.49D-02
 Coeff-Com:  0.114D+00 0.886D+00
 Coeff-En:   0.205D+00 0.795D+00
 Coeff:      0.121D+00 0.879D+00
 Gap=     0.202 Goal=   None    Shift=    0.000
 RMSDP=3.31D-04 MaxDP=2.18D-02 DE=-7.93D-01 OVMax= 9.81D-02

 Cycle   3  Pass 0  IDiag  1:
 RMSU=  2.66D-04    CP:  9.87D-01  8.59D-01
 E= -5017.27409424425     Delta-E=       -1.122604186558 Rises=F Damp=F
 DIIS: error= 8.66D-04 at cycle   3 NSaved=   3.
 NSaved= 3 IEnMin= 3 EnMin= -5017.27409424425     IErMin= 3 ErrMin= 8.66D-04
 ErrMax= 8.66D-04  0.00D+00 EMaxC= 1.00D-01 BMatC= 1.40D-03 BMatP= 8.07D-02
 IDIUse=3 WtCom= 9.91D-01 WtEn= 8.66D-03
 Coeff-Com:  0.757D-02 0.575D-01 0.935D+00
 Coeff-En:   0.000D+00 0.000D+00 0.100D+01
 Coeff:      0.751D-02 0.570D-01 0.935D+00
 Gap=     0.210 Goal=   None    Shift=    0.000
 RMSDP=8.35D-05 MaxDP=1.29D-02 DE=-1.12D+00 OVMax= 1.49D-02

 Cycle   4  Pass 0  IDiag  1:
 RMSU=  7.50D-05    CP:  9.87D-01  8.60D-01  8.62D-01
 E= -5017.27445130554     Delta-E=       -0.000357061286 Rises=F Damp=F
 DIIS: error= 9.81D-04 at cycle   4 NSaved=   4.
 NSaved= 4 IEnMin= 4 EnMin= -5017.27445130554     IErMin= 3 ErrMin= 8.66D-04
 ErrMax= 9.81D-04  0.00D+00 EMaxC= 1.00D-01 BMatC= 1.33D-03 BMatP= 1.40D-03
 IDIUse=3 WtCom= 9.90D-01 WtEn= 9.81D-03
 Coeff-Com:  0.182D-02 0.671D-02 0.492D+00 0.500D+00
 Coeff-En:   0.000D+00 0.000D+00 0.423D+00 0.577D+00
 Coeff:      0.180D-02 0.664D-02 0.491D+00 0.501D+00
 Gap=     0.212 Goal=   None    Shift=    0.000
 RMSDP=3.62D-05 MaxDP=4.93D-03 DE=-3.57D-04 OVMax= 5.53D-03

 Cycle   5  Pass 0  IDiag  1:
 RMSU=  1.48D-05    CP:  9.87D-01  8.59D-01  9.13D-01  6.00D-01
 E= -5017.27549426198     Delta-E=       -0.001042956443 Rises=F Damp=F
 DIIS: error= 1.96D-04 at cycle   5 NSaved=   5.
 NSaved= 5 IEnMin= 5 EnMin= -5017.27549426198     IErMin= 5 ErrMin= 1.96D-04
 ErrMax= 1.96D-04  0.00D+00 EMaxC= 1.00D-01 BMatC= 2.93D-05 BMatP= 1.33D-03
 IDIUse=3 WtCom= 9.98D-01 WtEn= 1.96D-03
 Coeff-Com:  0.594D-03-0.154D-02 0.133D+00 0.179D+00 0.689D+00
 Coeff-En:   0.000D+00 0.000D+00 0.000D+00 0.000D+00 0.100D+01
 Coeff:      0.593D-03-0.154D-02 0.133D+00 0.178D+00 0.690D+00
 Gap=     0.212 Goal=   None    Shift=    0.000
 RMSDP=7.19D-06 MaxDP=1.01D-03 DE=-1.04D-03 OVMax= 1.17D-03

 Cycle   6  Pass 0  IDiag  1:
 RMSU=  5.03D-06    CP:  9.87D-01  8.59D-01  9.23D-01  5.83D-01  7.11D-01
 E= -5017.27551536266     Delta-E=       -0.000021100683 Rises=F Damp=F
 DIIS: error= 8.33D-05 at cycle   6 NSaved=   6.
 NSaved= 6 IEnMin= 6 EnMin= -5017.27551536266     IErMin= 6 ErrMin= 8.33D-05
 ErrMax= 8.33D-05  0.00D+00 EMaxC= 1.00D-01 BMatC= 3.62D-06 BMatP= 2.93D-05
 IDIUse=1 WtCom= 1.00D+00 WtEn= 0.00D+00
 Coeff-Com:  0.127D-03-0.182D-02 0.316D-01 0.455D-01 0.299D+00 0.626D+00
 Coeff:      0.127D-03-0.182D-02 0.316D-01 0.455D-01 0.299D+00 0.626D+00
 Gap=     0.212 Goal=   None    Shift=    0.000
 RMSDP=2.26D-06 MaxDP=4.25D-04 DE=-2.11D-05 OVMax= 3.94D-04

 Initial convergence to 1.0D-05 achieved.  Increase integral accuracy.
 Cycle   7  Pass 1  IDiag  1:
 E= -5017.27628974899     Delta-E=       -0.000774386330 Rises=F Damp=F
 DIIS: error= 2.86D-05 at cycle   1 NSaved=   1.
 NSaved= 1 IEnMin= 1 EnMin= -5017.27628974899     IErMin= 1 ErrMin= 2.86D-05
 ErrMax= 2.86D-05  0.00D+00 EMaxC= 1.00D-01 BMatC= 1.31D-06 BMatP= 1.31D-06
 IDIUse=1 WtCom= 1.00D+00 WtEn= 0.00D+00
 Coeff-Com:  0.100D+01
 Coeff:      0.100D+01
 Gap=     0.212 Goal=   None    Shift=    0.000
 RMSDP=2.26D-06 MaxDP=4.25D-04 DE=-7.74D-04 OVMax= 2.03D-04

 Cycle   8  Pass 1  IDiag  1:
 RMSU=  4.11D-06    CP:  1.00D+00
 E= -5017.27629101106     Delta-E=       -0.000001262069 Rises=F Damp=F
 DIIS: error= 2.13D-05 at cycle   2 NSaved=   2.
 NSaved= 2 IEnMin= 2 EnMin= -5017.27629101106     IErMin= 2 ErrMin= 2.13D-05
 ErrMax= 2.13D-05  0.00D+00 EMaxC= 1.00D-01 BMatC= 2.46D-07 BMatP= 1.31D-06
 IDIUse=1 WtCom= 1.00D+00 WtEn= 0.00D+00
 Coeff-Com:  0.216D+00 0.784D+00
 Coeff:      0.216D+00 0.784D+00
 Gap=     0.212 Goal=   None    Shift=    0.000
 RMSDP=7.37D-07 MaxDP=9.50D-05 DE=-1.26D-06 OVMax= 8.90D-05

 Cycle   9  Pass 1  IDiag  1:
 RMSU=  7.35D-07    CP:  1.00D+00  9.89D-01
 E= -5017.27629106172     Delta-E=       -0.000000050655 Rises=F Damp=F
 DIIS: error= 2.00D-05 at cycle   3 NSaved=   3.
 NSaved= 3 IEnMin= 3 EnMin= -5017.27629106172     IErMin= 3 ErrMin= 2.00D-05
 ErrMax= 2.00D-05  0.00D+00 EMaxC= 1.00D-01 BMatC= 1.81D-07 BMatP= 2.46D-07
 IDIUse=1 WtCom= 1.00D+00 WtEn= 0.00D+00
 Coeff-Com: -0.678D-02 0.462D+00 0.544D+00
 Coeff:     -0.678D-02 0.462D+00 0.544D+00
 Gap=     0.212 Goal=   None    Shift=    0.000
 RMSDP=3.37D-07 MaxDP=4.99D-05 DE=-5.07D-08 OVMax= 4.55D-05

 Cycle  10  Pass 1  IDiag  1:
 RMSU=  9.94D-08    CP:  1.00D+00  1.01D+00  5.78D-01
 E= -5017.27629119050     Delta-E=       -0.000000128784 Rises=F Damp=F
 DIIS: error= 1.44D-06 at cycle   4 NSaved=   4.
 NSaved= 4 IEnMin= 4 EnMin= -5017.27629119050     IErMin= 4 ErrMin= 1.44D-06
 ErrMax= 1.44D-06  0.00D+00 EMaxC= 1.00D-01 BMatC= 1.10D-09 BMatP= 1.81D-07
 IDIUse=1 WtCom= 1.00D+00 WtEn= 0.00D+00
 Coeff-Com: -0.528D-02 0.200D+00 0.245D+00 0.560D+00
 Coeff:     -0.528D-02 0.200D+00 0.245D+00 0.560D+00
 Gap=     0.212 Goal=   None    Shift=    0.000
 RMSDP=4.31D-08 MaxDP=8.63D-06 DE=-1.29D-07 OVMax= 8.47D-06

 Cycle  11  Pass 1  IDiag  1:
 RMSU=  2.71D-08    CP:  1.00D+00  1.01D+00  5.74D-01  6.68D-01
 E= -5017.27629119152     Delta-E=       -0.000000001022 Rises=F Damp=F
 DIIS: error= 2.41D-07 at cycle   5 NSaved=   5.
 NSaved= 5 IEnMin= 5 EnMin= -5017.27629119152     IErMin= 5 ErrMin= 2.41D-07
 ErrMax= 2.41D-07  0.00D+00 EMaxC= 1.00D-01 BMatC= 4.91D-11 BMatP= 1.10D-09
 IDIUse=1 WtCom= 1.00D+00 WtEn= 0.00D+00
 Coeff-Com: -0.170D-02 0.527D-01 0.659D-01 0.221D+00 0.662D+00
 Coeff:     -0.170D-02 0.527D-01 0.659D-01 0.221D+00 0.662D+00
 Gap=     0.212 Goal=   None    Shift=    0.000
 RMSDP=7.55D-09 MaxDP=8.79D-07 DE=-1.02D-09 OVMax= 8.60D-07

 SCF Done:  E(RPBE1PBE) =  -5017.27629119     A.U. after   11 cycles
            NFock= 11  Conv=0.75D-08     -V/T= 2.0028
 KE= 5.003370753963D+03 PE=-2.413928342816D+04 EE= 8.034115764757D+03
 Leave Link  502 at Wed May  2 18:43:03 2018, MaxMem= 14763950080 cpu:      7162.0
 (Enter /cm/shared/gaussian/g09.e01/intel64-sandybridge/g09/l601.exe)
 Copying SCF densities to generalized density rwf, IOpCl= 0 IROHF=0.

 **********************************************************************

            Population analysis using the SCF density.

 **********************************************************************

 Alpha  occ. eigenvalues -- -483.14071 -62.54377 -56.31626 -56.31606 -56.31593
 Alpha  occ. eigenvalues --  -19.18933 -19.18159 -19.17753 -19.15232 -19.14805
 Alpha  occ. eigenvalues --  -19.14776 -19.14770 -19.14548 -19.13192 -19.12525
 Alpha  occ. eigenvalues --  -19.12513 -19.12474 -19.12425 -19.12360 -19.11780
 Alpha  occ. eigenvalues --  -19.11578 -19.11571 -19.11324 -19.10850 -19.10720
 Alpha  occ. eigenvalues --  -19.10463 -19.10347 -19.10250 -19.10130 -19.09831
 Alpha  occ. eigenvalues --  -19.08024 -19.06657 -19.05639 -19.05622 -19.05085
 Alpha  occ. eigenvalues --  -19.04395 -19.03094  -8.64700  -6.45098  -6.44990
 Alpha  occ. eigenvalues --   -6.44940  -2.53364  -2.53344  -2.53305  -2.53215
 Alpha  occ. eigenvalues --   -2.53210  -1.02018  -1.00701  -0.99974  -0.97789
 Alpha  occ. eigenvalues --   -0.97548  -0.97519  -0.97311  -0.97172  -0.96060
 Alpha  occ. eigenvalues --   -0.95663  -0.95565  -0.95358  -0.94863  -0.94740
 Alpha  occ. eigenvalues --   -0.94452  -0.94434  -0.94263  -0.93723  -0.93620
 Alpha  occ. eigenvalues --   -0.93343  -0.93174  -0.92988  -0.92697  -0.92268
 Alpha  occ. eigenvalues --   -0.91960  -0.90790  -0.89266  -0.88522  -0.87946
 Alpha  occ. eigenvalues --   -0.87858  -0.87322  -0.85739  -0.64300  -0.52033
 Alpha  occ. eigenvalues --   -0.51075  -0.50288  -0.48736  -0.48005  -0.47938
 Alpha  occ. eigenvalues --   -0.47798  -0.47487  -0.47041  -0.46981  -0.46805
 Alpha  occ. eigenvalues --   -0.46721  -0.46196  -0.45404  -0.45337  -0.45318
 Alpha  occ. eigenvalues --   -0.44868  -0.44715  -0.44264  -0.44102  -0.43944
 Alpha  occ. eigenvalues --   -0.43635  -0.43404  -0.43005  -0.42434  -0.42022
 Alpha  occ. eigenvalues --   -0.40513  -0.40299  -0.39739  -0.39585  -0.39304
 Alpha  occ. eigenvalues --   -0.39035  -0.37869  -0.37509  -0.37386  -0.35167
 Alpha  occ. eigenvalues --   -0.35034  -0.34904  -0.33937  -0.33835  -0.33188
 Alpha  occ. eigenvalues --   -0.33048  -0.32763  -0.31910  -0.31469  -0.31234
 Alpha  occ. eigenvalues --   -0.31132  -0.30870  -0.30750  -0.30626  -0.30219
 Alpha  occ. eigenvalues --   -0.29948  -0.29692  -0.29156  -0.29017  -0.28925
 Alpha  occ. eigenvalues --   -0.28592  -0.28315  -0.27939  -0.27566  -0.27039
 Alpha  occ. eigenvalues --   -0.26400  -0.26175  -0.25946  -0.25668  -0.25111
 Alpha  occ. eigenvalues --   -0.24818  -0.24678  -0.24491  -0.24356  -0.24252
 Alpha  occ. eigenvalues --   -0.23995  -0.23852  -0.23649  -0.23521  -0.23332
 Alpha  occ. eigenvalues --   -0.23145  -0.22943  -0.22923  -0.22652  -0.22423
 Alpha  occ. eigenvalues --   -0.22207  -0.21692  -0.21551  -0.21178  -0.20917
 Alpha  occ. eigenvalues --   -0.20763  -0.20632  -0.20184  -0.19310  -0.19263
 Alpha  occ. eigenvalues --   -0.18573  -0.18316  -0.17695  -0.17397  -0.16569
 Alpha  occ. eigenvalues --   -0.16354  -0.15711  -0.13994
 Alpha virt. eigenvalues --    0.07176   0.09700   0.10295   0.10901   0.12634
 Alpha virt. eigenvalues --    0.13156   0.13410   0.14194   0.14960   0.15371
 Alpha virt. eigenvalues --    0.16314   0.16579   0.16745   0.17221   0.17650
 Alpha virt. eigenvalues --    0.18285   0.18822   0.19025   0.19311   0.19443
 Alpha virt. eigenvalues --    0.20105   0.20427   0.21199   0.21356   0.21982
 Alpha virt. eigenvalues --    0.22361   0.22535   0.23442   0.23707   0.24585
 Alpha virt. eigenvalues --    0.24978   0.25390   0.25846   0.26549   0.27335
 Alpha virt. eigenvalues --    0.28039   0.28364   0.28858   0.29066   0.29354
 Alpha virt. eigenvalues --    0.29866   0.30244   0.30593   0.31154   0.31946
 Alpha virt. eigenvalues --    0.32373   0.32837   0.33116   0.33863   0.34130
 Alpha virt. eigenvalues --    0.35006   0.35379   0.36504   0.36671   0.37055
 Alpha virt. eigenvalues --    0.37184   0.37687   0.38555   0.38850   0.39299
 Alpha virt. eigenvalues --    0.40105   0.41557   0.42292   0.42769   0.55239
 Alpha virt. eigenvalues --    0.57038   0.57460   0.59510   0.59880   0.61397
 Alpha virt. eigenvalues --    0.61630   0.62297   0.62495   0.62740   0.63224
 Alpha virt. eigenvalues --    0.63577   0.64269   0.64642   0.64996   0.65558
 Alpha virt. eigenvalues --    0.65797   0.65997   0.66149   0.66484   0.66657
 Alpha virt. eigenvalues --    0.67020   0.67069   0.67593   0.67708   0.67939
 Alpha virt. eigenvalues --    0.68426   0.68720   0.68959   0.69482   0.69888
 Alpha virt. eigenvalues --    0.70056   0.70166   0.70606   0.71078   0.71207
 Alpha virt. eigenvalues --    0.71326   0.71983   0.72843   0.72879   0.73091
 Alpha virt. eigenvalues --    0.73465   0.73569   0.73791   0.74181   0.74375
 Alpha virt. eigenvalues --    0.74709   0.75201   0.75641   0.75963   0.76296
 Alpha virt. eigenvalues --    0.76595   0.76952   0.77109   0.77660   0.78221
 Alpha virt. eigenvalues --    0.78652   0.78723   0.79739   0.80091   0.80546
 Alpha virt. eigenvalues --    0.81108   0.81953   0.82338   0.83954   0.84729
 Alpha virt. eigenvalues --    0.84984   0.85366   0.86575   0.87464   0.88124
 Alpha virt. eigenvalues --    0.89755   0.91437   0.94813   0.95130   0.95845
 Alpha virt. eigenvalues --    0.96159   0.97384   0.97696   0.98215   0.98511
 Alpha virt. eigenvalues --    0.98791   0.99181   0.99534   1.00154   1.00514
 Alpha virt. eigenvalues --    1.00683   1.00858   1.01304   1.01342   1.01723
 Alpha virt. eigenvalues --    1.01842   1.02260   1.02624   1.02988   1.03297
 Alpha virt. eigenvalues --    1.03489   1.03751   1.04448   1.05014   1.05212
 Alpha virt. eigenvalues --    1.05466   1.05610   1.06090   1.06236   1.06430
 Alpha virt. eigenvalues --    1.06476   1.06784   1.07016   1.07466   1.07603
 Alpha virt. eigenvalues --    1.07772   1.08474   1.08780   1.08816   1.08918
 Alpha virt. eigenvalues --    1.09349   1.09418   1.09699   1.10150   1.10329
 Alpha virt. eigenvalues --    1.10705   1.11028   1.11662   1.11958   1.12089
 Alpha virt. eigenvalues --    1.12394   1.12572   1.12957   1.13124   1.13595
 Alpha virt. eigenvalues --    1.13982   1.14069   1.14621   1.14807   1.15090
 Alpha virt. eigenvalues --    1.15733   1.15909   1.16333   1.16533   1.16943
 Alpha virt. eigenvalues --    1.17449   1.17709   1.18168   1.18308   1.18460
 Alpha virt. eigenvalues --    1.19098   1.19354   1.19616   1.20109   1.20188
 Alpha virt. eigenvalues --    1.21028   1.21261   1.21714   1.21815   1.22026
 Alpha virt. eigenvalues --    1.22772   1.22947   1.23528   1.23823   1.24497
 Alpha virt. eigenvalues --    1.25074   1.26036   1.26189   1.27079   1.27196
 Alpha virt. eigenvalues --    1.27563   1.28338   1.28506   1.29086   1.29268
 Alpha virt. eigenvalues --    1.29643   1.29798   1.30528   1.30705   1.30788
 Alpha virt. eigenvalues --    1.31184   1.31301   1.31560   1.32235   1.32321
 Alpha virt. eigenvalues --    1.32523   1.32991   1.33366   1.33602   1.33893
 Alpha virt. eigenvalues --    1.34064   1.34532   1.34646   1.34872   1.35102
 Alpha virt. eigenvalues --    1.35338   1.35571   1.35878   1.35983   1.36493
 Alpha virt. eigenvalues --    1.36606   1.37083   1.37234   1.37330   1.37741
 Alpha virt. eigenvalues --    1.37924   1.38085   1.38444   1.39051   1.39256
 Alpha virt. eigenvalues --    1.39931   1.40057   1.40668   1.40794   1.41151
 Alpha virt. eigenvalues --    1.41955   1.42338   1.42577   1.42962   1.44069
 Alpha virt. eigenvalues --    1.44373   1.44916   1.45111   1.45211   1.45495
 Alpha virt. eigenvalues --    1.46038   1.46566   1.47199   1.47851   1.48211
 Alpha virt. eigenvalues --    1.49026   1.49516   1.49722   1.50558   1.50847
 Alpha virt. eigenvalues --    1.51508   1.51861   1.52248   1.52817   1.53246
 Alpha virt. eigenvalues --    1.53477   1.53931   1.54172   1.54352   1.54726
 Alpha virt. eigenvalues --    1.55001   1.55364   1.55803   1.55931   1.56399
 Alpha virt. eigenvalues --    1.56901   1.56941   1.58266   1.58603   1.58868
 Alpha virt. eigenvalues --    1.59306   1.59984   1.60147   1.60548   1.61251
 Alpha virt. eigenvalues --    1.61753   1.63227   1.63676   1.64105   1.64514
 Alpha virt. eigenvalues --    1.65727   1.66875   1.67554   1.68238   1.68456
 Alpha virt. eigenvalues --    1.69879   1.70304   1.71388   1.71823   1.72273
 Alpha virt. eigenvalues --    1.72915   1.73566   1.73931   1.74425   1.75525
 Alpha virt. eigenvalues --    1.75879   1.76302   1.76663   1.76887   1.77094
 Alpha virt. eigenvalues --    1.77648   1.77840   1.77911   1.78311   1.78713
 Alpha virt. eigenvalues --    1.78939   1.79511   1.79748   1.79993   1.80601
 Alpha virt. eigenvalues --    1.81192   1.82349   1.82802   1.83202   1.83415
 Alpha virt. eigenvalues --    1.83970   1.84251   1.84501   1.85124   1.85780
 Alpha virt. eigenvalues --    1.86521   1.87006   1.87350   1.88209   1.89436
 Alpha virt. eigenvalues --    1.89681   1.90576   1.90833   1.91182   1.91492
 Alpha virt. eigenvalues --    1.91885   1.92029   1.92360   1.93601   1.93822
 Alpha virt. eigenvalues --    1.94268   1.94987   1.95281   1.96072   1.96740
 Alpha virt. eigenvalues --    1.97136   1.97763   1.98687   1.99792   2.00864
 Alpha virt. eigenvalues --    2.02157   2.03607   2.06636   2.16277   2.17165
 Alpha virt. eigenvalues --    2.18220   2.20107   2.20274   2.21385   2.21975
 Alpha virt. eigenvalues --    2.22566   2.22802   2.22973   2.23213   2.23396
 Alpha virt. eigenvalues --    2.23920   2.24058   2.24249   2.24266   2.24566
 Alpha virt. eigenvalues --    2.24778   2.24865   2.25100   2.25228   2.25391
 Alpha virt. eigenvalues --    2.26016   2.26340   2.26697   2.27110   2.27254
 Alpha virt. eigenvalues --    2.28328   2.28660   2.29067   2.30804   2.31260
 Alpha virt. eigenvalues --    2.31978   2.32206   2.32913   2.33688   2.34851
 Alpha virt. eigenvalues --    2.35132   2.35356   2.36094   2.37623   2.38620
 Alpha virt. eigenvalues --    2.39159   2.43783   2.43954   2.44351   2.45578
 Alpha virt. eigenvalues --    2.46625   2.47020   2.47628   2.48456   2.49207
 Alpha virt. eigenvalues --    2.49336   2.51469   2.52152   2.52650   2.53590
 Alpha virt. eigenvalues --    2.55118   2.56206   2.62255   2.63064   2.63929
 Alpha virt. eigenvalues --    2.64332   2.71047   2.95484   2.96263   2.97617
 Alpha virt. eigenvalues --    2.97875   2.98887   2.99015   2.99502   2.99592
 Alpha virt. eigenvalues --    2.99617   2.99727   3.00061   3.00416   3.00579
 Alpha virt. eigenvalues --    3.01063   3.01236   3.01561   3.01848   3.02411
 Alpha virt. eigenvalues --    3.02443   3.02574   3.02690   3.02851   3.03040
 Alpha virt. eigenvalues --    3.03594   3.03619   3.03859   3.03941   3.04067
 Alpha virt. eigenvalues --    3.04434   3.04659   3.04900   3.05213   3.05215
 Alpha virt. eigenvalues --    3.05880   3.06047   3.06400   3.06561   3.07003
 Alpha virt. eigenvalues --    3.07061   3.07350   3.07434   3.07794   3.08073
 Alpha virt. eigenvalues --    3.08192   3.08375   3.08455   3.08566   3.08986
 Alpha virt. eigenvalues --    3.09191   3.09910   3.09948   3.10592   3.10938
 Alpha virt. eigenvalues --    3.11724   3.11943   3.12056   3.12809   3.13118
 Alpha virt. eigenvalues --    3.13475   3.13886   3.14072   3.14736   3.16397
 Alpha virt. eigenvalues --    3.17568   3.17953   3.18040   3.18561   3.20706
 Alpha virt. eigenvalues --    3.20728   3.21718   3.22169   3.22407   3.23019
 Alpha virt. eigenvalues --    3.23237   3.23297   3.24170   3.24457   3.24879
 Alpha virt. eigenvalues --    3.25251   3.25383   3.25606   3.25808   3.26550
 Alpha virt. eigenvalues --    3.26796   3.27325   3.28007   3.28244   3.28741
 Alpha virt. eigenvalues --    3.29679   3.29941   3.30864   3.30995   3.31680
 Alpha virt. eigenvalues --    3.32479   3.33181   3.33261   3.52851   3.54650
 Alpha virt. eigenvalues --    3.55801   3.55999   3.56678   3.58403   3.58559
 Alpha virt. eigenvalues --    3.58850   3.59614   3.59717   3.60241   3.60306
 Alpha virt. eigenvalues --    3.60619   3.61623   3.62069   3.62681   3.62911
 Alpha virt. eigenvalues --    3.63964   3.64331   3.65399   3.65535   3.66083
 Alpha virt. eigenvalues --    3.66613   3.67330   3.67561   3.68182   3.68468
 Alpha virt. eigenvalues --    3.69014   3.69976   3.70100   3.70423   3.76863
 Alpha virt. eigenvalues --    3.81613   3.82797   3.83254   3.83712   3.84663
 Alpha virt. eigenvalues --    3.85297   3.85898   3.86938   3.87502   3.88228
 Alpha virt. eigenvalues --    3.88476   3.88738   3.88950   3.89794   3.90214
 Alpha virt. eigenvalues --    3.91079   3.91469   3.92071   3.92611   3.93315
 Alpha virt. eigenvalues --    3.93775   3.94449   3.95098   3.96075   3.97111
 Alpha virt. eigenvalues --    3.97128   3.98553   3.99036   3.99592   4.00234
 Alpha virt. eigenvalues --    4.00609   4.03247
          Condensed to atoms (all electrons):
 Mulliken charges:
               1
     1  Br  -0.706172
     2  O   -0.269981
     3  H    0.150525
     4  H    0.124652
     5  O   -0.249330
     6  H    0.153675
     7  H    0.118016
     8  O   -0.292649
     9  H    0.155083
    10  H    0.127627
    11  O   -0.278245
    12  H    0.153581
    13  H    0.123079
    14  O   -0.269537
    15  H    0.133343
    16  H    0.151350
    17  O   -0.255301
    18  H    0.148631
    19  H    0.153708
    20  O   -0.275337
    21  H    0.143091
    22  H    0.130334
    23  O   -0.291957
    24  H    0.102648
    25  H    0.141151
    26  O   -0.284111
    27  H    0.138839
    28  H    0.135897
    29  O   -0.261451
    30  H    0.165351
    31  H    0.149597
    32  O   -0.246488
    33  H    0.144787
    34  H    0.146153
    35  O   -0.234601
    36  H    0.124937
    37  H    0.145904
    38  O   -0.317290
    39  H    0.120258
    40  H    0.124846
    41  O   -0.320789
    42  H    0.110893
    43  H    0.124301
    44  O   -0.252092
    45  H    0.129944
    46  H    0.114618
    47  O   -0.246960
    48  H    0.163052
    49  H    0.144811
    50  O   -0.279254
    51  H    0.141101
    52  H    0.126074
    53  O   -0.261232
    54  H    0.138234
    55  H    0.113647
    56  O   -0.319444
    57  H    0.135456
    58  H    0.126384
    59  O   -0.294175
    60  H    0.139379
    61  H    0.128496
    62  O   -0.280611
    63  H    0.134124
    64  H    0.133213
    65  O   -0.331622
    66  H    0.137172
    67  H    0.117658
    68  O   -0.220412
    69  H    0.147489
    70  H    0.150532
    71  O   -0.308680
    72  H    0.123728
    73  H    0.132342
    74  O   -0.269407
    75  H    0.129853
    76  H    0.128088
    77  O   -0.277356
    78  H    0.118690
    79  H    0.128647
    80  O   -0.295107
    81  H    0.118159
    82  H    0.136769
    83  O   -0.321992
    84  H    0.112517
    85  H    0.148235
    86  O   -0.312769
    87  H    0.132170
    88  H    0.136681
    89  O   -0.236807
    90  H    0.139419
    91  H    0.153557
    92  O   -0.287059
    93  H    0.136878
    94  H    0.130323
    95  O   -0.285668
    96  H    0.144208
    97  H    0.119976
 Sum of Mulliken charges =  -1.00000
 Mulliken charges with hydrogens summed into heavy atoms:
               1
     1  Br  -0.706172
     2  O    0.005195
     5  O    0.022361
     8  O   -0.009938
    11  O   -0.001586
    14  O    0.015156
    17  O    0.047039
    20  O   -0.001912
    23  O   -0.048158
    26  O   -0.009374
    29  O    0.053498
    32  O    0.044453
    35  O    0.036241
    38  O   -0.072185
    41  O   -0.085595
    44  O   -0.007530
    47  O    0.060903
    50  O   -0.012080
    53  O   -0.009351
    56  O   -0.057603
    59  O   -0.026299
    62  O   -0.013274
    65  O   -0.076791
    68  O    0.077609
    71  O   -0.052610
    74  O   -0.011466
    77  O   -0.030020
    80  O   -0.040179
    83  O   -0.061240
    86  O   -0.043918
    89  O    0.056170
    92  O   -0.019857
    95  O   -0.021484
         Mulliken charges condensed to fragments:
      1     -0.706172
      2     -0.293828
 Electronic spatial extent (au):  <R**2>=        1553850.7650
 Charge=             -1.0000 electrons
 Dipole moment (field-independent basis, Debye):
    X=           -111.4548    Y=            -94.7542    Z=            -81.3685  Tot=            167.3958
 Quadrupole moment (field-independent basis, Debye-Ang):
   XX=          -2809.4773   YY=          -2202.1662   ZZ=          -1536.3755
   XY=          -2210.2677   XZ=          -1925.4956   YZ=          -1607.5805
 Traceless Quadrupole moment (field-independent basis, Debye-Ang):
   XX=           -626.8043   YY=            -19.4933   ZZ=            646.2975
   XY=          -2210.2677   XZ=          -1925.4956   YZ=          -1607.5805
 Octapole moment (field-independent basis, Debye-Ang**2):
  XXX=         -73650.3133  YYY=         -56932.5178  ZZZ=         -32605.9337  XYY=         -50707.7271
  XXY=         -55874.2220  XXZ=         -49711.4174  XZZ=         -36666.9798  YZZ=         -30516.3866
  YYZ=         -38144.8075  XYZ=         -38334.7549
 Hexadecapole moment (field-independent basis, Debye-Ang**3):
 XXXX=       -1959169.1376 YYYY=       -1546384.5832 ZZZZ=        -763207.5344 XXXY=       -1465949.0108
 XXXZ=       -1330905.0822 YYYX=       -1283791.8194 YYYZ=       -1012355.1587 ZZZX=        -773298.5018
 ZZZY=        -652674.2185 XXYY=       -1256845.3486 XXZZ=        -956129.4844 YYZZ=        -731993.5249
 XXYZ=        -993414.1866 YYXZ=        -894750.3424 ZZXY=        -735210.3043
 N-N= 6.084520618246D+03 E-N=-2.413928339940D+04  KE= 5.003370753963D+03
 No NMR shielding tensors so no spin-rotation constants.
 Leave Link  601 at Wed May  2 18:43:06 2018, MaxMem= 14763950080 cpu:        69.8
 (Enter /cm/shared/gaussian/g09.e01/intel64-sandybridge/g09/l701.exe)
 Compute integral first derivatives.
 ... and contract with generalized density number  0.
 Leave Link  701 at Wed May  2 18:43:08 2018, MaxMem= 14763950080 cpu:       124.6
 (Enter /cm/shared/gaussian/g09.e01/intel64-sandybridge/g09/l702.exe)
 L702 exits ... SP integral derivatives will be done elsewhere.
 Leave Link  702 at Wed May  2 18:43:08 2018, MaxMem= 14763950080 cpu:         1.7
 (Enter /cm/shared/gaussian/g09.e01/intel64-sandybridge/g09/l703.exe)
 Compute integral first derivatives, UseDBF=F ICtDFT=           0.
 Integral derivatives from FoFJK, PRISM(SPDF).
 Calling FoFJK, ICntrl=      2127 FMM=T ISym2X=0 I1Cent= 0 IOpClX= 0 NMat=1 NMatS=1 NMatT=0.
 FoFJK:  IHMeth= 1 ICntrl=    2127 DoSepK=F KAlg= 0 I1Cent=   0 FoldK=F
 IRaf=         0 NMat=   1 IRICut=       1 DoRegI=T DoRafI=F ISym2E= 0.
 FoFCou: FMM=T IPFlag=           0 FMFlag=      100000 FMFlg1=        2001
         NFxFlg=           0 DoJE=F BraDBF=F KetDBF=F FulRan=T
         wScrn=  0.000000 ICntrl=    2127 IOpCl=  0 I1Cent=           0 NGrid=           0
         NMat0=    1 NMatS0=      1 NMatT0=    0 NMatD0=    1 NMtDS0=    0 NMtDT0=    0
 Symmetry not used in FoFCou.
 FMM levels:  10  Number of levels for PrismC:   9
 Leave Link  703 at Wed May  2 18:43:23 2018, MaxMem= 14763950080 cpu:       967.2
 (Enter /cm/shared/gaussian/g09.e01/intel64-sandybridge/g09/l716.exe)
 Dipole        =-4.38496871D+01-3.72791804D+01-3.20128410D+01
 Cartesian Forces:  Max     0.038362354 RMS     0.010535240
 Leave Link  716 at Wed May  2 18:43:23 2018, MaxMem= 14763950080 cpu:         3.5
 (Enter /cm/shared/gaussian/g09.e01/intel64-sandybridge/g09/l122.exe)
 CPIOFr:  IOpCl= 0 IRwI=-1 IRwCP=  731 ICalc= -1 LCPTot=     1005244 Len1MO=     2550559 IndFrg=     1005244
 CPIOFr:  IOpCl= 0 IRwI=-1 IRwCP=  731 ICalc=  0 LCPTot=     1005244 Len1MO=     2550559 IndFrg=     3555803
 Counterpoise: doing DCBS calculation for fragment   1 NewBq=T
 Leave Link  122 at Wed May  2 18:43:23 2018, MaxMem= 14763950080 cpu:         7.3
 (Enter /cm/shared/gaussian/g09.e01/intel64-sandybridge/g09/l301.exe)
 Basis read from rwf:  (5D, 7F)
 No pseudopotential information found on rwf file.
   795 basis functions,  1651 primitive gaussians,   829 cartesian basis functions
    18 alpha electrons       18 beta electrons
       nuclear repulsion energy         0.0000000000 Hartrees.
 IExCor= 1009 DFT=T Ex+Corr=PBE1PBE ExCW=0 ScaHFX=  0.250000
 ScaDFX=  0.750000  0.750000  1.000000  1.000000 ScalE2=  1.000000  1.000000
 IRadAn=      0 IRanWt=     -1 IRanGd=            0 ICorTp=0 IEmpDi=  4
 NAtoms=   97 NActive=   97 NUniq=   97 SFac= 1.00D+00 NAtFMM=   60 NAOKFM=T Big=T
 Integral buffers will be    131072 words long.
 Raffenetti 2 integral format.
 Two-electron integral symmetry is turned off.
 No density basis found on file   718.
 Leave Link  301 at Wed May  2 18:43:23 2018, MaxMem= 14763950080 cpu:         4.6
 (Enter /cm/shared/gaussian/g09.e01/intel64-sandybridge/g09/l302.exe)
 NPDir=0 NMtPBC=     1 NCelOv=     1 NCel=       1 NClECP=     1 NCelD=      1
         NCelK=      1 NCelE2=     1 NClLst=     1 CellRange=     0.0.
 One-electron integrals computed using PRISM.
 NBasis=   795 RedAO= T EigKep=  1.74D-02  NBF=   795
 NBsUse=   795 1.00D-06 EigRej= -1.00D+00 NBFU=   795
 Precomputing XC quadrature grid using
 IXCGrd= 4 IRadAn=           0 IRanWt=          -1 IRanGd=           0 AccXCQ= 0.00D+00.
 Generated NRdTot=       0 NPtTot=           0 NUsed=           0 NTot=          32
 NSgBfM=   759   759   759   759   759 MxSgAt=    97 MxSgA2=    97.
 Leave Link  302 at Wed May  2 18:43:27 2018, MaxMem= 14763950080 cpu:       244.9
 (Enter /cm/shared/gaussian/g09.e01/intel64-sandybridge/g09/l303.exe)
 DipDrv:  MaxL=1.
 Leave Link  303 at Wed May  2 18:43:28 2018, MaxMem= 14763950080 cpu:        28.5
 (Enter /cm/shared/gaussian/g09.e01/intel64-sandybridge/g09/l401.exe)
 ExpMin= 1.22D-01 ExpMax= 6.40D+05 ExpMxC= 6.18D+03 IAcc=2 IRadAn=         4 AccDes= 0.00D+00
 Harris functional with IExCor= 1009 and IRadAn=       4 diagonalized for initial guess.
 HarFok:  IExCor= 1009 AccDes= 0.00D+00 IRadAn=         4 IDoV= 1 UseB2=F ITyADJ=14
 ICtDFT=  3500011 ScaDFX=  1.000000  1.000000  1.000000  1.000000
 FoFCou: FMM=F IPFlag=           0 FMFlag=      100000 FMFlg1=        2001
         NFxFlg=           0 DoJE=T BraDBF=F KetDBF=T FulRan=T
         wScrn=  0.000000 ICntrl=     500 IOpCl=  0 I1Cent=   200000004 NGrid=           0
         NMat0=    1 NMatS0=      1 NMatT0=    0 NMatD0=    1 NMtDS0=    0 NMtDT0=    0
 Symmetry not used in FoFCou.
 Harris En= -2574.01952346660    
 JPrj=0 DoOrth=F DoCkMO=F.
 Leave Link  401 at Wed May  2 18:43:33 2018, MaxMem= 14763950080 cpu:       310.4
 (Enter /cm/shared/gaussian/g09.e01/intel64-sandybridge/g09/l502.exe)
 Closed shell SCF:
 Using DIIS extrapolation, IDIIS=  1040.
 Two-electron integral symmetry not used.
 IVT=     2138497 IEndB=     2138497 NGot= 14763950080 MDV= 14762516294
 LenX= 14762516294 LenY= 14761828224
 Requested convergence on RMS density matrix=1.00D-08 within 128 cycles.
 Requested convergence on MAX density matrix=1.00D-06.
 Requested convergence on             energy=1.00D-06.
 No special actions if energy rises.
 Fock matrices will be formed incrementally for  20 cycles.
 Integral accuracy reduced to 1.0D-05 until final iterations.

 Cycle   1  Pass 0  IDiag  1:
 FoFJK:  IHMeth= 1 ICntrl=       0 DoSepK=F KAlg= 0 I1Cent=   0 FoldK=F
 IRaf= 820000000 NMat=   1 IRICut=       1 DoRegI=T DoRafI=F ISym2E= 0.
 FoFCou: FMM=T IPFlag=           0 FMFlag=      100000 FMFlg1=        2001
         NFxFlg=           0 DoJE=F BraDBF=F KetDBF=F FulRan=T
         wScrn=  0.000000 ICntrl=       0 IOpCl=  0 I1Cent=           0 NGrid=           0
         NMat0=    1 NMatS0=      1 NMatT0=    0 NMatD0=    1 NMtDS0=    0 NMtDT0=    0
 Symmetry not used in FoFCou.
 FMM levels:  10  Number of levels for PrismC:   9
 E= -2573.87842928017    
 DIIS: error= 1.18D-02 at cycle   1 NSaved=   1.
 NSaved= 1 IEnMin= 1 EnMin= -2573.87842928017     IErMin= 1 ErrMin= 1.18D-02
 ErrMax= 1.18D-02  0.00D+00 EMaxC= 1.00D-01 BMatC= 3.75D-02 BMatP= 3.75D-02
 IDIUse=3 WtCom= 8.82D-01 WtEn= 1.18D-01
 Coeff-Com:  0.100D+01
 Coeff-En:   0.100D+01
 Coeff:      0.100D+01
 Gap=     0.183 Goal=   None    Shift=    0.000
 GapD=    0.183 DampG=1.000 DampE=0.500 DampFc=0.5000 IDamp=-1.
 Damping current iteration by 5.00D-01
 RMSDP=4.60D-04 MaxDP=6.69D-02              OVMax= 1.48D-01

 Cycle   2  Pass 0  IDiag  1:
 RMSU=  2.29D-04    CP:  9.95D-01
 E= -2573.89455520636     Delta-E=       -0.016125926186 Rises=F Damp=T
 DIIS: error= 6.88D-03 at cycle   2 NSaved=   2.
 NSaved= 2 IEnMin= 2 EnMin= -2573.89455520636     IErMin= 2 ErrMin= 6.88D-03
 ErrMax= 6.88D-03  0.00D+00 EMaxC= 1.00D-01 BMatC= 8.80D-03 BMatP= 3.75D-02
 IDIUse=3 WtCom= 9.31D-01 WtEn= 6.88D-02
 Coeff-Com: -0.592D+00 0.159D+01
 Coeff-En:   0.000D+00 0.100D+01
 Coeff:     -0.551D+00 0.155D+01
 Gap=     0.187 Goal=   None    Shift=    0.000
 RMSDP=1.62D-04 MaxDP=3.73D-02 DE=-1.61D-02 OVMax= 6.30D-02

 Cycle   3  Pass 0  IDiag  1:
 RMSU=  1.41D-04    CP:  9.95D-01  1.35D+00
 E= -2573.90762148291     Delta-E=       -0.013066276550 Rises=F Damp=F
 DIIS: error= 2.82D-03 at cycle   3 NSaved=   3.
 NSaved= 3 IEnMin= 3 EnMin= -2573.90762148291     IErMin= 3 ErrMin= 2.82D-03
 ErrMax= 2.82D-03  0.00D+00 EMaxC= 1.00D-01 BMatC= 2.18D-03 BMatP= 8.80D-03
 IDIUse=3 WtCom= 9.72D-01 WtEn= 2.82D-02
 Coeff-Com: -0.303D+00 0.713D+00 0.590D+00
 Coeff-En:   0.000D+00 0.000D+00 0.100D+01
 Coeff:     -0.294D+00 0.693D+00 0.602D+00
 Gap=     0.171 Goal=   None    Shift=    0.000
 RMSDP=6.77D-05 MaxDP=1.64D-02 DE=-1.31D-02 OVMax= 1.98D-02

 Cycle   4  Pass 0  IDiag  1:
 RMSU=  8.24D-06    CP:  9.93D-01  1.54D+00  6.40D-01
 E= -2573.90995658017     Delta-E=       -0.002335097258 Rises=F Damp=F
 DIIS: error= 8.61D-05 at cycle   4 NSaved=   4.
 NSaved= 4 IEnMin= 4 EnMin= -2573.90995658017     IErMin= 4 ErrMin= 8.61D-05
 ErrMax= 8.61D-05  0.00D+00 EMaxC= 1.00D-01 BMatC= 1.39D-06 BMatP= 2.18D-03
 IDIUse=1 WtCom= 1.00D+00 WtEn= 0.00D+00
 Coeff-Com: -0.123D-01 0.229D-01 0.370D-01 0.952D+00
 Coeff:     -0.123D-01 0.229D-01 0.370D-01 0.952D+00
 Gap=     0.173 Goal=   None    Shift=    0.000
 RMSDP=2.27D-06 MaxDP=4.18D-04 DE=-2.34D-03 OVMax= 7.08D-04

 Initial convergence to 1.0D-05 achieved.  Increase integral accuracy.
 Cycle   5  Pass 1  IDiag  1:
 E= -2573.91085219522     Delta-E=       -0.000895615052 Rises=F Damp=F
 DIIS: error= 1.35D-05 at cycle   1 NSaved=   1.
 NSaved= 1 IEnMin= 1 EnMin= -2573.91085219522     IErMin= 1 ErrMin= 1.35D-05
 ErrMax= 1.35D-05  0.00D+00 EMaxC= 1.00D-01 BMatC= 7.74D-08 BMatP= 7.74D-08
 IDIUse=1 WtCom= 1.00D+00 WtEn= 0.00D+00
 Coeff-Com:  0.100D+01
 Coeff:      0.100D+01
 Gap=     0.173 Goal=   None    Shift=    0.000
 RMSDP=2.27D-06 MaxDP=4.18D-04 DE=-8.96D-04 OVMax= 2.24D-04

 Cycle   6  Pass 1  IDiag  1:
 RMSU=  1.08D-06    CP:  1.00D+00
 E= -2573.91085232604     Delta-E=       -0.000000130818 Rises=F Damp=F
 DIIS: error= 6.92D-06 at cycle   2 NSaved=   2.
 NSaved= 2 IEnMin= 2 EnMin= -2573.91085232604     IErMin= 2 ErrMin= 6.92D-06
 ErrMax= 6.92D-06  0.00D+00 EMaxC= 1.00D-01 BMatC= 1.34D-08 BMatP= 7.74D-08
 IDIUse=1 WtCom= 1.00D+00 WtEn= 0.00D+00
 Coeff-Com:  0.225D+00 0.775D+00
 Coeff:      0.225D+00 0.775D+00
 Gap=     0.173 Goal=   None    Shift=    0.000
 RMSDP=2.55D-07 MaxDP=5.84D-05 DE=-1.31D-07 OVMax= 8.16D-05

 Cycle   7  Pass 1  IDiag  1:
 RMSU=  2.53D-07    CP:  1.00D+00  9.76D-01
 E= -2573.91085233974     Delta-E=       -0.000000013706 Rises=F Damp=F
 DIIS: error= 3.09D-06 at cycle   3 NSaved=   3.
 NSaved= 3 IEnMin= 3 EnMin= -2573.91085233974     IErMin= 3 ErrMin= 3.09D-06
 ErrMax= 3.09D-06  0.00D+00 EMaxC= 1.00D-01 BMatC= 3.13D-09 BMatP= 1.34D-08
 IDIUse=1 WtCom= 1.00D+00 WtEn= 0.00D+00
 Coeff-Com: -0.356D-01 0.306D+00 0.730D+00
 Coeff:     -0.356D-01 0.306D+00 0.730D+00
 Gap=     0.173 Goal=   None    Shift=    0.000
 RMSDP=8.95D-08 MaxDP=2.20D-05 DE=-1.37D-08 OVMax= 2.54D-05

 Cycle   8  Pass 1  IDiag  1:
 RMSU=  2.81D-08    CP:  1.00D+00  1.03D+00  7.41D-01
 E= -2573.91085234343     Delta-E=       -0.000000003682 Rises=F Damp=F
 DIIS: error= 3.15D-07 at cycle   4 NSaved=   4.
 NSaved= 4 IEnMin= 4 EnMin= -2573.91085234343     IErMin= 4 ErrMin= 3.15D-07
 ErrMax= 3.15D-07  0.00D+00 EMaxC= 1.00D-01 BMatC= 1.94D-11 BMatP= 3.13D-09
 IDIUse=1 WtCom= 1.00D+00 WtEn= 0.00D+00
 Coeff-Com: -0.124D-01 0.884D-01 0.224D+00 0.700D+00
 Coeff:     -0.124D-01 0.884D-01 0.224D+00 0.700D+00
 Gap=     0.173 Goal=   None    Shift=    0.000
 RMSDP=8.14D-09 MaxDP=1.03D-06 DE=-3.68D-09 OVMax= 2.61D-06

 Cycle   9  Pass 1  IDiag  1:
 RMSU=  7.59D-09    CP:  1.00D+00  1.03D+00  7.49D-01  9.42D-01
 E= -2573.91085234342     Delta-E=        0.000000000001 Rises=F Damp=F
 DIIS: error= 7.23D-08 at cycle   5 NSaved=   5.
 NSaved= 5 IEnMin= 4 EnMin= -2573.91085234343     IErMin= 5 ErrMin= 7.23D-08
 ErrMax= 7.23D-08  0.00D+00 EMaxC= 1.00D-01 BMatC= 9.95D-13 BMatP= 1.94D-11
 IDIUse=1 WtCom= 1.00D+00 WtEn= 0.00D+00
 Coeff-Com:  0.112D-02-0.137D-01-0.307D-01 0.139D+00 0.904D+00
 Coeff:      0.112D-02-0.137D-01-0.307D-01 0.139D+00 0.904D+00
 Gap=     0.173 Goal=   None    Shift=    0.000
 RMSDP=2.13D-09 MaxDP=3.72D-07 DE= 1.36D-12 OVMax= 8.37D-07

 SCF Done:  E(RPBE1PBE) =  -2573.91085234     A.U. after    9 cycles
            NFock=  9  Conv=0.21D-08     -V/T= 2.0013
 KE= 2.570521151716D+03 PE=-6.163029105982D+03 EE= 1.018597101923D+03
 Leave Link  502 at Wed May  2 18:44:57 2018, MaxMem= 14763950080 cpu:      5291.5
 (Enter /cm/shared/gaussian/g09.e01/intel64-sandybridge/g09/l601.exe)
 Copying SCF densities to generalized density rwf, IOpCl= 0 IROHF=0.

 **********************************************************************

            Population analysis using the SCF density.

 **********************************************************************

 Alpha  occ. eigenvalues -- -482.98638 -62.38791 -56.16048 -56.16044 -56.16037
 Alpha  occ. eigenvalues --   -8.48929  -6.29249  -6.29237  -6.29211  -2.37516
 Alpha  occ. eigenvalues --   -2.37516  -2.37495  -2.37485  -2.37480  -0.47010
 Alpha  occ. eigenvalues --   -0.02899  -0.02897  -0.02855
 Alpha virt. eigenvalues --    0.14462   0.16034   0.16544   0.17050   0.18248
 Alpha virt. eigenvalues --    0.18582   0.19015   0.19824   0.19914   0.20975
 Alpha virt. eigenvalues --    0.21881   0.22104   0.22619   0.22901   0.23631
 Alpha virt. eigenvalues --    0.24695   0.24966   0.25428   0.26090   0.26395
 Alpha virt. eigenvalues --    0.26855   0.27265   0.27809   0.28330   0.28576
 Alpha virt. eigenvalues --    0.29214   0.29545   0.30205   0.30426   0.31253
 Alpha virt. eigenvalues --    0.32143   0.32464   0.32876   0.33584   0.34354
 Alpha virt. eigenvalues --    0.35024   0.35271   0.35645   0.35682   0.36505
 Alpha virt. eigenvalues --    0.36878   0.37198   0.37860   0.38172   0.38524
 Alpha virt. eigenvalues --    0.39043   0.40020   0.40406   0.41253   0.41961
 Alpha virt. eigenvalues --    0.42249   0.42878   0.43456   0.43687   0.44156
 Alpha virt. eigenvalues --    0.44410   0.45707   0.46133   0.46365   0.46742
 Alpha virt. eigenvalues --    0.48030   0.48729   0.49556   0.50093   0.61557
 Alpha virt. eigenvalues --    0.61593   0.62489   0.63728   0.64480   0.64577
 Alpha virt. eigenvalues --    0.64894   0.65737   0.66035   0.66378   0.66600
 Alpha virt. eigenvalues --    0.67133   0.68004   0.68087   0.68872   0.69637
 Alpha virt. eigenvalues --    0.70073   0.70462   0.70639   0.70753   0.71746
 Alpha virt. eigenvalues --    0.71877   0.72249   0.72798   0.72899   0.73245
 Alpha virt. eigenvalues --    0.73875   0.74336   0.74635   0.74996   0.75142
 Alpha virt. eigenvalues --    0.75594   0.75894   0.76336   0.76770   0.76946
 Alpha virt. eigenvalues --    0.77142   0.77190   0.77595   0.77805   0.78208
 Alpha virt. eigenvalues --    0.78308   0.78450   0.78637   0.78937   0.79906
 Alpha virt. eigenvalues --    0.79977   0.80442   0.80518   0.81036   0.81404
 Alpha virt. eigenvalues --    0.81840   0.82000   0.82241   0.82397   0.83292
 Alpha virt. eigenvalues --    0.83772   0.84266   0.84563   0.85125   0.85695
 Alpha virt. eigenvalues --    0.85939   0.86560   0.86869   0.87328   0.87653
 Alpha virt. eigenvalues --    0.87831   0.88068   0.88382   0.88516   0.89142
 Alpha virt. eigenvalues --    0.89892   0.90425   0.91113   0.91385   0.91560
 Alpha virt. eigenvalues --    0.92473   0.92656   0.93071   0.93148   0.93720
 Alpha virt. eigenvalues --    0.93954   0.94051   0.94504   0.94868   0.95300
 Alpha virt. eigenvalues --    0.95600   0.95752   0.96050   0.96882   0.97223
 Alpha virt. eigenvalues --    0.97419   0.97762   0.98471   0.98821   0.99817
 Alpha virt. eigenvalues --    1.00168   1.00384   1.00502   1.01003   1.01492
 Alpha virt. eigenvalues --    1.01774   1.02449   1.02608   1.03087   1.03431
 Alpha virt. eigenvalues --    1.04179   1.04336   1.05273   1.05500   1.06055
 Alpha virt. eigenvalues --    1.06374   1.06704   1.07438   1.07651   1.08379
 Alpha virt. eigenvalues --    1.08893   1.10014   1.10817   1.11450   1.11903
 Alpha virt. eigenvalues --    1.12149   1.13232   1.13772   1.14149   1.14431
 Alpha virt. eigenvalues --    1.15545   1.16152   1.16642   1.17590   1.18061
 Alpha virt. eigenvalues --    1.18920   1.19639   1.20976   1.21803   1.24636
 Alpha virt. eigenvalues --    1.27423   1.63311   1.65688   1.66888   1.67281
 Alpha virt. eigenvalues --    1.67559   1.68628   1.68879   1.69136   1.69494
 Alpha virt. eigenvalues --    1.69945   1.70604   1.70756   1.71502   1.72024
 Alpha virt. eigenvalues --    1.72135   1.72397   1.72490   1.73274   1.73424
 Alpha virt. eigenvalues --    1.73737   1.74413   1.74710   1.74751   1.74872
 Alpha virt. eigenvalues --    1.75233   1.75409   1.75871   1.76111   1.76241
 Alpha virt. eigenvalues --    1.76688   1.76816   1.77227   1.77476   1.78122
 Alpha virt. eigenvalues --    1.78365   1.78701   1.79242   1.79536   1.79927
 Alpha virt. eigenvalues --    1.80213   1.80709   1.80966   1.81309   1.81810
 Alpha virt. eigenvalues --    1.82040   1.82425   1.82741   1.83007   1.83491
 Alpha virt. eigenvalues --    1.83723   1.84424   1.84754   1.84979   1.86070
 Alpha virt. eigenvalues --    1.86813   1.87149   1.87419   1.89334   1.90063
 Alpha virt. eigenvalues --    1.90216   1.90980   1.93468   1.94664   1.95800
 Alpha virt. eigenvalues --    1.97620   1.98353   1.99240   1.99582   1.99640
 Alpha virt. eigenvalues --    2.00042   2.00337   2.00509   2.00809   2.00878
 Alpha virt. eigenvalues --    2.01164   2.01473   2.01944   2.02281   2.02411
 Alpha virt. eigenvalues --    2.02613   2.02747   2.03001   2.03301   2.03438
 Alpha virt. eigenvalues --    2.03598   2.03755   2.03991   2.04080   2.04603
 Alpha virt. eigenvalues --    2.04699   2.05086   2.05436   2.05608   2.05743
 Alpha virt. eigenvalues --    2.05938   2.06048   2.06299   2.06842   2.07127
 Alpha virt. eigenvalues --    2.07507   2.07544   2.08385   2.08694   2.09063
 Alpha virt. eigenvalues --    2.09165   2.09847   2.10086   2.10878   2.11212
 Alpha virt. eigenvalues --    2.11716   2.11992   2.12335   2.12764   2.13526
 Alpha virt. eigenvalues --    2.14118   2.14441   2.15138   2.15577   2.16045
 Alpha virt. eigenvalues --    2.16306   2.16429   2.17025   2.17475   2.17912
 Alpha virt. eigenvalues --    2.18671   2.18816   2.19360   2.19607   2.19986
 Alpha virt. eigenvalues --    2.20265   2.20669   2.21161   2.21641   2.21940
 Alpha virt. eigenvalues --    2.22807   2.23018   2.23596   2.23631   2.24056
 Alpha virt. eigenvalues --    2.24800   2.25260   2.25949   2.27461   2.28423
 Alpha virt. eigenvalues --    2.28896   2.29152   2.29643   2.29866   2.30266
 Alpha virt. eigenvalues --    2.31095   2.31643   2.32718   2.33696   2.33831
 Alpha virt. eigenvalues --    2.35428   2.36601   2.37488   2.37782   2.39039
 Alpha virt. eigenvalues --    2.40049   2.40889   2.41566   2.41867   2.42092
 Alpha virt. eigenvalues --    2.42524   2.42954   2.43086   2.43297   2.44100
 Alpha virt. eigenvalues --    2.44398   2.44445   2.45390   2.45958   2.46623
 Alpha virt. eigenvalues --    2.47427   2.47701   2.47957   2.48498   2.48867
 Alpha virt. eigenvalues --    2.49482   2.50066   2.51002   2.52748   2.53110
 Alpha virt. eigenvalues --    2.54107   2.54273   2.54813   2.55764   2.55831
 Alpha virt. eigenvalues --    2.56395   2.57336   2.59303   2.67980   2.69852
 Alpha virt. eigenvalues --    2.70079   2.70359   2.70832   2.71415   2.71562
 Alpha virt. eigenvalues --    2.71929   2.72022   2.72144   2.72474   2.72705
 Alpha virt. eigenvalues --    2.74122   2.74468   2.74711   2.75209   2.75431
 Alpha virt. eigenvalues --    2.75863   2.77481   2.78081   2.78395   2.79586
 Alpha virt. eigenvalues --    2.80091   2.81350   2.82220   2.83538   2.84093
 Alpha virt. eigenvalues --    2.84946   2.85035   2.85628   2.86640   2.86931
 Alpha virt. eigenvalues --    2.87431   2.87556   2.88204   2.88466   2.88765
 Alpha virt. eigenvalues --    2.89287   2.89642   2.90061   2.90547   2.91264
 Alpha virt. eigenvalues --    2.91542   2.91801   2.92529   2.93199   2.94638
 Alpha virt. eigenvalues --    2.94806   2.94997   2.96045   2.96300   2.97724
 Alpha virt. eigenvalues --    2.98437   2.99331   3.00319   3.01363   3.01753
 Alpha virt. eigenvalues --    3.02503   3.03309   3.05965   3.06955   3.07647
 Alpha virt. eigenvalues --    3.10086   3.10921   3.14117   3.14681   3.15897
 Alpha virt. eigenvalues --    3.16351   3.16925   3.18314   3.18626   3.20113
 Alpha virt. eigenvalues --    3.20566   3.24009   3.24078   3.26873   3.27519
 Alpha virt. eigenvalues --    3.29244   3.30200   3.32265   3.32905   3.33618
 Alpha virt. eigenvalues --    3.38532   3.41231   3.41484   3.44578   3.45569
 Alpha virt. eigenvalues --    3.46648   3.48563   3.51178   3.51870   3.52866
 Alpha virt. eigenvalues --    3.54398   3.55723   3.58305   3.69788   4.51898
 Alpha virt. eigenvalues --    4.52126   4.52186   4.52277   4.52472   4.52632
 Alpha virt. eigenvalues --    4.52689   4.52909   4.52948   4.53016   4.53111
 Alpha virt. eigenvalues --    4.53156   4.53214   4.53610   4.53805   4.54002
 Alpha virt. eigenvalues --    4.54144   4.54169   4.54245   4.54277   4.54409
 Alpha virt. eigenvalues --    4.54536   4.54820   4.55353   4.56089   4.56411
 Alpha virt. eigenvalues --    4.56538   4.57362   4.57671   4.58010   4.58677
 Alpha virt. eigenvalues --    4.59565   4.60098   4.60210   4.60279   4.60306
 Alpha virt. eigenvalues --    4.60357   4.60542   4.60556   4.60594   4.60745
 Alpha virt. eigenvalues --    4.61163   4.61365   4.61388   4.61507   4.61771
 Alpha virt. eigenvalues --    4.61860   4.62043   4.62071   4.62246   4.62460
 Alpha virt. eigenvalues --    4.62859   4.62977   4.63242   4.63905   4.64055
 Alpha virt. eigenvalues --    4.64344   4.65111   4.65271   4.65493   4.66194
 Alpha virt. eigenvalues --    4.66517   4.67087   4.67424   4.75592   4.76025
 Alpha virt. eigenvalues --    4.76445   4.76667   4.76953   4.76987   4.77141
 Alpha virt. eigenvalues --    4.77363   4.77496   4.77659   4.78254   4.78451
 Alpha virt. eigenvalues --    4.78890   4.79026   4.79216   4.79507   4.80020
 Alpha virt. eigenvalues --    4.80476   4.81441   4.82032   4.82235   4.82427
 Alpha virt. eigenvalues --    4.83272   4.83434   4.83522   4.84160   4.84561
 Alpha virt. eigenvalues --    4.85197   4.85845   4.86018   4.86337   4.86825
 Alpha virt. eigenvalues --    4.86962   4.87371   4.87517   4.87692   4.87829
 Alpha virt. eigenvalues --    4.87949   4.88152   4.88554   4.88742   4.89546
 Alpha virt. eigenvalues --    4.89942   4.90239   4.90473   4.90957   4.91666
 Alpha virt. eigenvalues --    4.92398   4.92439   4.93151   4.93952   4.94726
 Alpha virt. eigenvalues --    4.95324   4.95742   4.97258   4.97998   4.98718
 Alpha virt. eigenvalues --    5.00006   5.00521   5.00731   5.01422   5.02189
 Alpha virt. eigenvalues --    5.02769   5.04413   5.04643   5.05407   5.07122
 Alpha virt. eigenvalues --    5.07558   5.08524   5.08991   5.09633   5.10112
 Alpha virt. eigenvalues --    5.10523   5.11368   5.11822   5.12586   5.13121
 Alpha virt. eigenvalues --    5.13662   5.14397   5.14525   5.15154   5.15455
 Alpha virt. eigenvalues --    5.15935   5.16568   5.17196   5.18325   5.19855
 Alpha virt. eigenvalues --    5.19984   5.20154   5.20902   5.21493   5.23254
 Alpha virt. eigenvalues --    5.25554   5.27526   5.28579   5.29558   5.35215
 Alpha virt. eigenvalues --    5.36357   5.37333   5.38311   5.38658   5.40283
 Alpha virt. eigenvalues --    5.40748   5.41698   5.41988   5.44262   5.44417
[...]
   X22       36.22605  -0.00175   0.00000   0.00727   0.00715  36.23320
   Y22       33.44815   0.00642   0.00000   0.00299   0.00397  33.45212
   Z22       34.03397   0.00780   0.00000   0.02075   0.01933  34.05330
   X23       42.49994   0.01198   0.00000   0.00292   0.00148  42.50142
   Y23       43.25583  -0.01216   0.00000  -0.02298  -0.02391  43.23192
   Z23       41.91413   0.01593   0.00000   0.01408   0.01608  41.93021
   X24       41.63067  -0.00834   0.00000  -0.00088  -0.00200  41.62866
   Y24       42.70781   0.00215   0.00000   0.02589   0.02532  42.73313
   Z24       40.44014  -0.01905   0.00000  -0.03353  -0.03182  40.40832
   X25       41.97082  -0.00440   0.00000  -0.00035  -0.00177  41.96904
   Y25       44.97548   0.00857   0.00000  -0.00626  -0.00721  44.96827
   Z25       42.14089   0.00701   0.00000   0.03341   0.03566  42.17656
   X26       30.97261  -0.01834   0.00000  -0.01056  -0.01040  30.96221
   Y26       35.52685   0.01050   0.00000   0.04052   0.04189  35.56874
   Z26       33.18359  -0.01496   0.00000   0.00159  -0.00053  33.18306
   X27       32.29542   0.00639   0.00000   0.00623   0.00667  32.30209
   Y27       35.69693  -0.00132   0.00000  -0.00957  -0.00799  35.68894
   Z27       31.95527  -0.00438   0.00000  -0.00341  -0.00521  31.95006
   X28       31.84189   0.01382   0.00000   0.01423   0.01404  31.85592
   Y28       35.31898  -0.00740   0.00000  -0.02516  -0.02416  35.29482
   Z28       34.75206   0.02197   0.00000   0.02198   0.01999  34.77206
   X29       33.01352  -0.01955   0.00000  -0.03450  -0.03641  32.97711
   Y29       41.85743   0.00627   0.00000  -0.04419  -0.04513  41.81230
   Z29       43.82275   0.00627   0.00000   0.02125   0.02087  43.84362
   X30       34.09066   0.02342   0.00000   0.05674   0.05481  34.14547
   Y30       40.40234  -0.02121   0.00000  -0.02279  -0.02374  40.37860
   Z30       43.63378   0.00003   0.00000   0.01449   0.01407  43.64785
   X31       32.82454   0.00216   0.00000   0.01469   0.01240  32.83694
   Y31       42.04641   0.00124   0.00000   0.00405   0.00274  42.04915
   Z31       45.61799   0.00518   0.00000   0.02272   0.02236  45.64035
   X32       31.16158   0.00124   0.00000   0.01228   0.01039  31.17197
   Y32       34.27963  -0.01062   0.00000  -0.01532  -0.01587  34.26376
   Z32       42.34876  -0.00278   0.00000   0.01216   0.00982  42.35858
   X33       31.82299   0.00461   0.00000   0.01120   0.00925  31.83223
   Y33       35.86700   0.00791   0.00000   0.00465   0.00395  35.87095
   Z33       42.91568   0.00319   0.00000   0.00352   0.00166  42.91734
   X34       29.61201  -0.00356   0.00000  -0.00503  -0.00713  29.60488
   Y34       34.09066   0.00136   0.00000   0.00702   0.00634  34.09700
   Z34       43.27473   0.00057   0.00000  -0.00281  -0.00553  43.26920
   X35       46.14711   0.00406   0.00000   0.00580   0.00537  46.15249
   Y35       40.17558   0.00238   0.00000  -0.02213  -0.02212  40.15346
   Z35       36.73628  -0.01258   0.00000  -0.00435  -0.00219  36.73408
   X36       45.82586  -0.00548   0.00000   0.00022  -0.00058  45.82528
   Y36       39.24961  -0.01053   0.00000  -0.01411  -0.01441  39.23520
   Z36       38.24806   0.02340   0.00000   0.03702   0.03891  38.28697
   X37       47.58330   0.00600   0.00000   0.01915   0.01886  47.60216
   Y37       39.36300   0.00285   0.00000   0.01155   0.01167  39.37466
   Z37       35.99928  -0.00870   0.00000  -0.02784  -0.02553  35.97375
   X38       39.02284   0.01338   0.00000   0.01234   0.01320  39.03604
   Y38       44.65423   0.01264   0.00000   0.00863   0.01000  44.66423
   Z38       31.69071  -0.01153   0.00000  -0.01470  -0.01315  31.67756
   X39       40.25117   0.00083   0.00000  -0.00004   0.00055  40.25171
   Y39       43.87944  -0.00403   0.00000  -0.00540  -0.00432  43.87512
   Z39       32.78675   0.00379   0.00000   0.00102   0.00267  32.78942
   X40       37.45437  -0.01088   0.00000   0.00291   0.00362  37.45800
   Y40       43.89834  -0.01063   0.00000  -0.01592  -0.01460  43.88374
   Z40       32.16314   0.00836   0.00000   0.01324   0.01428  32.17741
   X41       43.82275   0.00331   0.00000   0.00858   0.00742  43.83017
   Y41       30.42459  -0.01313   0.00000  -0.00708  -0.00729  30.41730
   Z41       38.26695  -0.00209   0.00000  -0.00426  -0.00465  38.26230
   X42       43.29363   0.00037   0.00000   0.01141   0.00988  43.30351
   Y42       30.67026   0.00193   0.00000   0.00514   0.00459  30.67484
   Z42       39.98660   0.00652   0.00000   0.00588   0.00542  39.99203
   X43       43.76606  -0.00281   0.00000  -0.01084  -0.01176  43.75429
   Y43       32.06865   0.01162   0.00000   0.00592   0.00587  32.07452
   Z43       37.52996  -0.00914   0.00000  -0.02276  -0.02282  37.50714
   X44       42.89678   0.01210   0.00000  -0.00377  -0.00276  42.89402
   Y44       38.17247   0.02046   0.00000   0.03265   0.03426  38.20672
   Z44       29.78208   0.00326   0.00000   0.00348   0.00451  29.78659
   X45       43.16134   0.00210   0.00000   0.01417   0.01552  43.17687
   Y45       37.56776  -0.00597   0.00000  -0.01189  -0.00995  37.55780
   Z45       28.10023  -0.00345   0.00000   0.01021   0.01117  28.11140
   X46       41.53618  -0.01120   0.00000   0.00231   0.00314  41.53932
   Y46       37.18981  -0.01510   0.00000  -0.02764  -0.02611  37.16370
   Z46       30.42459   0.00309   0.00000  -0.00126  -0.00074  30.42385
   X47       37.88901   0.00328   0.00000   0.01164   0.01264  37.90164
   Y47       36.20715  -0.00372   0.00000  -0.00135   0.00052  36.20767
   Z47       29.46083   0.01159   0.00000   0.00863   0.00816  29.46899
   X48       37.56776  -0.00520   0.00000  -0.02170  -0.02063  37.54712
   Y48       38.00239   0.00550   0.00000   0.00216   0.00404  38.00643
   Z48       29.49862  -0.00202   0.00000  -0.00449  -0.00466  29.49396
   X49       37.96460  -0.00084   0.00000  -0.00564  -0.00427  37.96033
   Y49       35.81031  -0.00016   0.00000   0.00234   0.00458  35.81489
   Z49       27.70339  -0.01109   0.00000  -0.00932  -0.00986  27.69353
   X50       35.11111   0.00709   0.00000   0.00959   0.00862  35.11973
   Y50       28.08133  -0.00441   0.00000  -0.00286  -0.00244  28.07889
   Z50       36.92525   0.00477   0.00000   0.02567   0.02289  36.94814
   X51       35.35678  -0.00271   0.00000  -0.00638  -0.00730  35.34947
   Y51       29.87657   0.00421   0.00000   0.00767   0.00804  29.88461
   Z51       37.11422  -0.00247   0.00000  -0.01044  -0.01280  37.10142
   X52       33.33477  -0.00340   0.00000   0.00569   0.00479  33.33956
   Y52       27.91125   0.00307   0.00000   0.00908   0.00965  27.92090
   Z52       36.60400  -0.00170   0.00000  -0.00287  -0.00607  36.59793
   X53       33.69382   0.00496   0.00000   0.00744   0.00640  33.70021
   Y53       45.35343   0.02680   0.00000   0.04434   0.04406  45.39749
   Z53       40.59132  -0.03093   0.00000  -0.04687  -0.04633  40.54498
   X54       33.92058   0.00021   0.00000   0.00276   0.00138  33.92197
   Y54       44.06841  -0.01416   0.00000   0.01489   0.01434  44.08275
   Z54       41.81964   0.01515   0.00000  -0.01480  -0.01449  41.80515
   X55       32.03086  -0.00528   0.00000  -0.00600  -0.00710  32.02376
   Y55       45.99593   0.00032   0.00000   0.00654   0.00626  46.00219
   Z55       40.89367   0.00319   0.00000  -0.00036  -0.00006  40.89361
   X56       39.64645   0.01491   0.00000   0.02157   0.02142  39.66788
   Y56       47.39433   0.01273   0.00000   0.01488   0.01515  47.40948
   Z56       36.77407   0.01858   0.00000   0.01948   0.02174  36.79581
   X57       40.53463   0.00526   0.00000   0.00633   0.00623  40.54086
   Y57       45.90145  -0.01072   0.00000  -0.01072  -0.01038  45.89106
   Z57       36.26384  -0.00248   0.00000   0.00424   0.00637  36.27021
   X58       38.13467  -0.01666   0.00000  -0.00919  -0.00912  38.12555
   Y58       47.37543   0.00138   0.00000   0.01260   0.01313  47.38857
   Z58       35.79141  -0.00837   0.00000   0.00861   0.01053  35.80194
   X59       29.98995   0.00801   0.00000   0.00781   0.00804  29.99800
   Y59       40.85588   0.01537   0.00000   0.00398   0.00526  40.86114
   Z59       33.82610  -0.00826   0.00000  -0.01586  -0.01709  33.80901
   X60       28.45928  -0.00459   0.00000   0.00677   0.00681  28.46609
   Y60       41.17713  -0.00335   0.00000  -0.01325  -0.01211  41.16503
   Z60       34.73317   0.00584   0.00000   0.01219   0.01070  34.74387
   X61       30.14113  -0.00198   0.00000  -0.00685  -0.00668  30.13445
   Y61       39.04174  -0.01784   0.00000  -0.02189  -0.02062  39.02113
   Z61       33.80720  -0.00050   0.00000  -0.00549  -0.00707  33.80013
   X62       34.27963   0.00519   0.00000  -0.00040   0.00097  34.28060
   Y62       40.38345  -0.00639   0.00000  -0.02701  -0.02480  40.35865
   Z62       28.51597  -0.00289   0.00000  -0.00135  -0.00174  28.51422
   X63       33.97728   0.00361   0.00000   0.02037   0.02135  33.99862
   Y63       40.42124   0.00183   0.00000   0.00781   0.00966  40.43090
   Z63       30.31121   0.00636   0.00000   0.00978   0.00934  30.32054
   X64       32.71116  -0.00478   0.00000  -0.00313  -0.00157  32.70959
   Y64       40.93147   0.00176   0.00000  -0.00002   0.00241  40.93388
   Z64       27.79787  -0.00170   0.00000   0.00261   0.00200  27.79987
   X65       43.95503   0.00749   0.00000   0.00221   0.00266  43.95769
   Y65       32.40880  -0.00500   0.00000   0.01706   0.01831  32.42711
   Z65       31.33166  -0.02826   0.00000  -0.06219  -0.06213  31.26953
   X66       43.55819  -0.00725   0.00000  -0.00483  -0.00467  43.55351
   Y66       33.37256   0.00479   0.00000  -0.01220  -0.01126  33.36131
   Z66       32.80565   0.01080   0.00000  -0.01065  -0.01048  32.79516
   X67       42.44325   0.00329   0.00000   0.02000   0.02046  42.46371
   Y67       31.44504  -0.00635   0.00000  -0.03950  -0.03814  31.40690
   Z67       31.01041   0.00855   0.00000   0.03017   0.02969  31.04009
   X68       40.85588  -0.00438   0.00000  -0.01756  -0.02015  40.83573
   Y68       37.37878   0.01066   0.00000   0.00936   0.00762  37.38640
   Z68       46.14711  -0.00560   0.00000   0.00077   0.00118  46.14829
   X69       40.44014   0.00126   0.00000   0.01996   0.01724  40.45738
   Y69       35.64023  -0.01492   0.00000  -0.02029  -0.02206  35.61817
   Z69       46.37388   0.00045   0.00000  -0.00553  -0.00557  46.36831
   X70       41.66846   0.00343   0.00000   0.00862   0.00571  41.67417
   Y70       37.85121   0.00231   0.00000   0.00805   0.00595  37.85716
   Z70       47.69669   0.00370   0.00000  -0.00255  -0.00185  47.69483
   X71       40.44014   0.01222   0.00000  -0.00164  -0.00173  40.43841
   Y71       28.51597  -0.01241   0.00000  -0.02379  -0.02276  28.49320
   Z71       33.03241  -0.01537   0.00000  -0.02360  -0.02513  33.00728
   X72       40.25117   0.00023   0.00000   0.01513   0.01466  40.26583
   Y72       27.60890   0.00072   0.00000   0.01046   0.01116  27.62006
   Z72       34.58199   0.00861   0.00000   0.01199   0.01024  34.59223
   X73       39.23071  -0.01345   0.00000  -0.01672  -0.01679  39.21392
   Y73       29.85767   0.00770   0.00000  -0.00799  -0.00695  29.85073
   Z73       33.14580   0.00740   0.00000   0.02054   0.01902  33.16482
   X74       34.46860   0.00080   0.00000  -0.01061  -0.01051  34.45809
   Y74       47.56441   0.01381   0.00000   0.01636   0.01706  47.58147
   Z74       35.71582  -0.01164   0.00000  -0.00058   0.00058  35.71641
   X75       33.25918   0.00056   0.00000   0.00852   0.00886  33.26804
   Y75       46.95969  -0.00407   0.00000  -0.01736  -0.01636  46.94334
   Z75       34.50640  -0.00260   0.00000  -0.00752  -0.00676  34.49964
   X76       34.26073   0.00046   0.00000   0.01205   0.01178  34.27252
   Y76       46.48726  -0.01181   0.00000  -0.01012  -0.00972  46.47755
   Z76       37.15202   0.01696   0.00000   0.01934   0.02023  37.17224
   X77       34.29853  -0.00051   0.00000   0.00116  -0.00118  34.29735
   Y77       28.96950  -0.01147   0.00000  -0.00989  -0.01079  28.95871
   Z77       43.40701  -0.00452   0.00000   0.00108  -0.00170  43.40531
   X78       34.41191   0.00043   0.00000   0.00278   0.00012  34.41203
   Y78       29.70649   0.00727   0.00000   0.01636   0.01511  29.72161
   Z78       45.05107   0.00550   0.00000   0.00214  -0.00045  45.05062
   X79       34.09066  -0.00093   0.00000  -0.00052  -0.00256  34.08810
   Y79       30.38680   0.00521   0.00000   0.00245   0.00179  30.38859
   Z79       42.29207  -0.00168   0.00000   0.00250  -0.00002  42.29205
   X80       28.59156  -0.02049   0.00000  -0.02206  -0.02375  28.56780
   Y80       39.53307  -0.01958   0.00000  -0.02233  -0.02278  39.51029
   Z80       42.36766  -0.00230   0.00000   0.01723   0.01541  42.38307
   X81       30.12223   0.01765   0.00000   0.01035   0.00860  30.13083
   Y81       40.36455   0.01327   0.00000   0.01185   0.01124  40.37579
   Z81       42.84009   0.00190   0.00000  -0.01423  -0.01552  42.82457
   X82       27.40103  -0.00101   0.00000  -0.00076  -0.00233  27.39870
   Y82       40.87478   0.00364   0.00000  -0.00005  -0.00040  40.87438
   Z82       42.10310  -0.00119   0.00000  -0.00461  -0.00640  42.09670
   X83       48.26361   0.02023   0.00000   0.03846   0.03644  48.30004
   Y83       36.75517  -0.00627   0.00000  -0.00757  -0.00905  36.74613
   Z83       43.40701   0.01277   0.00000   0.01390   0.01581  43.42282
   X84       49.05729  -0.00078   0.00000   0.00415   0.00209  49.05938
   Y84       38.32365   0.00101   0.00000   0.01157   0.00997  38.33362
   Z84       43.87944  -0.00143   0.00000  -0.00418  -0.00177  43.87767
   X85       46.84631  -0.01286   0.00000  -0.00298  -0.00477  46.84155
   Y85       37.26540   0.00004   0.00000  -0.02402  -0.02523  37.24017
   Z85       42.40545  -0.00544   0.00000   0.01413   0.01582  42.42128
   X86       46.46837   0.02068   0.00000   0.02008   0.02094  46.48930
   Y86       41.80074   0.00538   0.00000   0.00204   0.00321  41.80395
   Z86       31.16158   0.00327   0.00000   0.00404   0.00661  31.16820
   X87       45.46681  -0.00727   0.00000  -0.00830  -0.00732  45.45949
   Y87       43.27473   0.00353   0.00000  -0.00262  -0.00135  43.27338
   Z87       30.85923   0.00026   0.00000   0.00568   0.00834  30.86756
   X88       45.27784  -0.01293   0.00000  -0.01088  -0.01008  45.26776
   Y88       40.44014  -0.00912   0.00000  -0.00297  -0.00174  40.43840
   Z88       31.16158  -0.00485   0.00000  -0.02280  -0.02078  31.14080
   X89       42.10310  -0.00132   0.00000  -0.02190  -0.02414  42.07896
   Y89       29.30965   0.01415   0.00000   0.01111   0.00997  29.31962
   Z89       42.99127   0.01248   0.00000   0.03477   0.03377  43.02504
   X90       43.16134   0.00455   0.00000   0.01742   0.01489  43.17623
   Y90       28.49707  -0.00224   0.00000  -0.00328  -0.00471  28.49236
   Z90       44.21959   0.00101   0.00000  -0.00203  -0.00297  44.21662
   X91       41.40390  -0.00726   0.00000  -0.00710  -0.00918  41.39472
   Y91       27.94905  -0.01104   0.00000   0.00112   0.00022  27.94927
   Z91       42.04641  -0.00967   0.00000  -0.00977  -0.01121  42.03520
   X92       40.78029   0.01041   0.00000   0.02824   0.02696  40.80725
   Y92       48.39589  -0.00158   0.00000  -0.00526  -0.00616  48.38972
   Z92       42.15979   0.02407   0.00000  -0.00216   0.00056  42.16035
   X93       39.62756  -0.00389   0.00000  -0.00224  -0.00347  39.62409
   Y93       49.79428  -0.00154   0.00000  -0.02064  -0.02150  49.77278
   Z93       42.17869  -0.00391   0.00000  -0.00121   0.00153  42.18022
   X94       40.83698  -0.00959   0.00000  -0.03617  -0.03708  40.79990
   Y94       47.86676   0.00303   0.00000   0.02912   0.02859  47.89535
   Z94       40.44014  -0.02971   0.00000  -0.05070  -0.04809  40.39205
   X95       26.83411  -0.00606   0.00000  -0.01919  -0.01987  26.81424
   Y95       37.13312   0.00487   0.00000   0.00447   0.00514  37.13826
   Z95       37.35989  -0.00941   0.00000  -0.00065  -0.00334  37.35654
   X96       27.15536   0.00279   0.00000   0.01108   0.01044  27.16581
   Y96       35.43236  -0.00240   0.00000   0.00482   0.00559  35.43796
   Z96       36.81187  -0.00255   0.00000  -0.00570  -0.00867  36.80319
   X97       27.04198   0.00798   0.00000   0.03475   0.03367  27.07565
   Y97       37.07643   0.00219   0.00000   0.01287   0.01315  37.08958
   Z97       39.15513   0.01078   0.00000   0.00990   0.00725  39.16238
         Item               Value     Threshold  Converged?
 Maximum Force            0.038496     0.000450     NO 
 RMS     Force            0.010542     0.000300     NO 
 Maximum Displacement     0.062133     0.001800     NO 
 RMS     Displacement     0.017555     0.001200     NO 
 Predicted change in Energy=-2.825869D-02
 GradGradGradGradGradGradGradGradGradGradGradGradGradGradGradGradGradGrad

 Leave Link  103 at Wed May  2 18:49:46 2018, MaxMem= 14763950080 cpu:        55.4
 (Enter /cm/shared/gaussian/g09.e01/intel64-sandybridge/g09/l9999.exe)
 1\1\GINC-POPLE03\Force\RPBE1PBE\CC-pVDZ\Br1H64O32(1-)\M.PELUSO\02-May-
 2018\0\\#p PBE1PBE/cc-pvDZ force Counterpoise=2 noSymm\\forces on chlo
 ride comput - NWATER: 32\\-1,1\Br,20.,20.,20.\O,17.72,18.09,19.94\H,18
 .35,18.73,20.25\H,17.12,17.97,20.66\O,22.6,18.75,18.58\H,21.74,19.12,1
 8.76\H,23.17,19.51,18.47\O,19.18,20.01,23.17\H,19.54,19.83,22.3\H,19.9
 4,20.11,23.73\O,18.62,21.99,17.86\H,18.79,21.7,18.76\H,17.67,22.06,17.
 81\O,22.21,22.59,19.25\H,21.64,21.83,19.34\H,23.09,22.25,19.44\O,23.37
 ,20.29,21.75\H,22.53,19.93,21.46\H,23.13,21.06,22.27\O,19.61,17.08,17.
 43\H,19.94,17.62,16.7\H,19.17,17.7,18.01\O,22.49,22.89,22.18\H,22.03,2
 2.6,21.4\H,22.21,23.8,22.3\O,16.39,18.8,17.56\H,17.09,18.89,16.91\H,16
 .85,18.69,18.39\O,17.47,22.15,23.19\H,18.04,21.38,23.09\H,17.37,22.25,
 24.14\O,16.49,18.14,22.41\H,16.84,18.98,22.71\H,15.67,18.04,22.9\O,24.
 42,21.26,19.44\H,24.25,20.77,20.24\H,25.18,20.83,19.05\O,20.65,23.63,1
 6.77\H,21.3,23.22,17.35\H,19.82,23.23,17.02\O,23.19,16.1,20.25\H,22.91
 ,16.23,21.16\H,23.16,16.97,19.86\O,22.7,20.2,15.76\H,22.84,19.88,14.87
 \H,21.98,19.68,16.1\O,20.05,19.16,15.59\H,19.88,20.11,15.61\H,20.09,18
 .95,14.66\O,18.58,14.86,19.54\H,18.71,15.81,19.64\H,17.64,14.77,19.37\
 O,17.83,24.,21.48\H,17.95,23.32,22.13\H,16.95,24.34,21.64\O,20.98,25.0
 8,19.46\H,21.45,24.29,19.19\H,20.18,25.07,18.94\O,15.87,21.62,17.9\H,1
 5.06,21.79,18.38\H,15.95,20.66,17.89\O,18.14,21.37,15.09\H,17.98,21.39
 ,16.04\H,17.31,21.66,14.71\O,23.26,17.15,16.58\H,23.05,17.66,17.36\H,2
 2.46,16.64,16.41\O,21.62,19.78,24.42\H,21.4,18.86,24.54\H,22.05,20.03,
 25.24\O,21.4,15.09,17.48\H,21.3,14.61,18.3\H,20.76,15.8,17.54\O,18.24,
 25.17,18.9\H,17.6,24.85,18.26\H,18.13,24.6,19.66\O,18.15,15.33,22.97\H
 ,18.21,15.72,23.84\H,18.04,16.08,22.38\O,15.13,20.92,22.42\H,15.94,21.
 36,22.67\H,14.5,21.63,22.28\O,25.54,19.45,22.97\H,25.96,20.28,23.22\H,
 24.79,19.72,22.44\O,24.59,22.12,16.49\H,24.06,22.9,16.33\H,23.96,21.4,
 16.49\O,22.28,15.51,22.75\H,22.84,15.08,23.4\H,21.91,14.79,22.25\O,21.
 58,25.61,22.31\H,20.97,26.35,22.32\H,21.61,25.33,21.4\O,14.2,19.65,19.
 77\H,14.37,18.75,19.48\H,14.31,19.62,20.72\\Version=ES64L-G09RevE.01\H
 F=-2443.2377551\RMSD=3.010e-09\RMSF=1.054e-02\Dipole=-5.8069675,0.7402
 009,5.3490677\Quadrupole=-463.0248924,-14.589238,477.6141304,-1640.603
 0852,-1430.6258632,-1195.5809477\PG=C01 [X(Br1H64O32)]\\@


 ACTORS ARE SO FORTUNATE.  THEY CAN CHOOSE WHETHER
 THEY WILL APPEAR IN A TRAGEDY OR IN COMEDY,
 WHETHER THEY WILL SUFFER OF MAKE MERRY,
 LAUGH OR SHED TEARS.  BUT IN REAL LIFE IT IS DIFFERENT.
 MOST MEN AND WOMEN ARE FORCED TO PERFORM
 PARTS FOR WHICH THEY HAVE NO QUALIFICATIONS.
 THE WORLD IS A STAGE, BUT THE PLAY IS BADLY CAST.

                                   -- OSCAR WILDE
 Job cpu time:       0 days  9 hours  8 minutes 51.4 seconds.
 File lengths (MBytes):  RWF=    482 Int=      0 D2E=      0 Chk=    160 Scr=      1
 Normal termination of Gaussian 09 at Wed May  2 18:49:46 2018.
