 Entering Gaussian System, Link 0=/cm/shared/gaussian/g09.e01/intel64-sandybridge/g09/g09
 Initial command:
 /cm/shared/gaussian/g09.e01/intel64-sandybridge/g09/l1.exe "/local/scratch/m.peluso/32_wat/Gau-60717.inp" -scrdir="/local/scratch/m.peluso/32_wat/"
 Entering Link 1 = /cm/shared/gaussian/g09.e01/intel64-sandybridge/g09/l1.exe PID=     60718.
  
 Copyright (c) 1988,1990,1992,1993,1995,1998,2003,2009,2015,
            Gaussian, Inc.  All Rights Reserved.
  
 This is part of the Gaussian(R) 09 program.  It is based on
 the Gaussian(R) 03 system (copyright 2003, Gaussian, Inc.),
 the Gaussian(R) 98 system (copyright 1998, Gaussian, Inc.),
 the Gaussian(R) 94 system (copyright 1995, Gaussian, Inc.),
 the Gaussian 92(TM) system (copyright 1992, Gaussian, Inc.),
 the Gaussian 90(TM) system (copyright 1990, Gaussian, Inc.),
 the Gaussian 88(TM) system (copyright 1988, Gaussian, Inc.),
 the Gaussian 86(TM) system (copyright 1986, Carnegie Mellon
 University), and the Gaussian 82(TM) system (copyright 1983,
 Carnegie Mellon University). Gaussian is a federally registered
 trademark of Gaussian, Inc.
  
 This software contains proprietary and confidential information,
 including trade secrets, belonging to Gaussian, Inc.
  
 This software is provided under written license and may be
 used, copied, transmitted, or stored only in accord with that
 written license.
  
 The following legend is applicable only to US Government
 contracts under FAR:
  
                    RESTRICTED RIGHTS LEGEND
  
 Use, reproduction and disclosure by the US Government is
 subject to restrictions as set forth in subparagraphs (a)
 and (c) of the Commercial Computer Software - Restricted
 Rights clause in FAR 52.227-19.
  
 Gaussian, Inc.
 340 Quinnipiac St., Bldg. 40, Wallingford CT 06492
  
  
 ---------------------------------------------------------------
 Warning -- This program may not be used in any manner that
 competes with the business of Gaussian, Inc. or will provide
 assistance to any competitor of Gaussian, Inc.  The licensee
 of this program is prohibited from giving any competitor of
 Gaussian, Inc. access to this program.  By using this program,
 the user acknowledges that Gaussian, Inc. is engaged in the
 business of creating and licensing software in the field of
 computational chemistry and represents and warrants to the
 licensee that it is not a competitor of Gaussian, Inc. and that
 it will not use this program in any manner prohibited above.
 ---------------------------------------------------------------
  

 Cite this work as:
 Gaussian 09, Revision E.01,
 M. J. Frisch, G. W. Trucks, H. B. Schlegel, G. E. Scuseria, 
 M. A. Robb, J. R. Cheeseman, G. Scalmani, V. Barone, B. Mennucci, 
 G. A. Petersson, H. Nakatsuji, M. Caricato, X. Li, H. P. Hratchian, 
 A. F. Izmaylov, J. Bloino, G. Zheng, J. L. Sonnenberg, M. Hada, 
 M. Ehara, K. Toyota, R. Fukuda, J. Hasegawa, M. Ishida, T. Nakajima, 
 Y. Honda, O. Kitao, H. Nakai, T. Vreven, J. A. Montgomery, Jr., 
 J. E. Peralta, F. Ogliaro, M. Bearpark, J. J. Heyd, E. Brothers, 
 K. N. Kudin, V. N. Staroverov, T. Keith, R. Kobayashi, J. Normand, 
 K. Raghavachari, A. Rendell, J. C. Burant, S. S. Iyengar, J. Tomasi, 
 M. Cossi, N. Rega, J. M. Millam, M. Klene, J. E. Knox, J. B. Cross, 
 V. Bakken, C. Adamo, J. Jaramillo, R. Gomperts, R. E. Stratmann, 
 O. Yazyev, A. J. Austin, R. Cammi, C. Pomelli, J. W. Ochterski, 
 R. L. Martin, K. Morokuma, V. G. Zakrzewski, G. A. Voth, 
 P. Salvador, J. J. Dannenberg, S. Dapprich, A. D. Daniels, 
 O. Farkas, J. B. Foresman, J. V. Ortiz, J. Cioslowski, 
 and D. J. Fox, Gaussian, Inc., Wallingford CT, 2013.
 
 ******************************************
 Gaussian 09:  ES64L-G09RevE.01 30-Nov-2015
                 3-May-2018 
 ******************************************
 %Mem=110GB
 %NProcShared=64
 Will use up to   64 processors via shared memory.
 %chk=snap17.chk
 ----------------------------------------------
 #p PBE1PBE/cc-pvDZ force Counterpoise=2 noSymm
 ----------------------------------------------
 1/10=7,30=1,38=1,62=2/1,3;
 2/12=2,15=1,17=6,18=5,40=1/2;
 1/10=7,30=1,38=1,53=2,62=2,63=101/22;
 3/5=16,11=2,16=1,25=1,30=1,71=1,74=-13/1,2,3;
 4//1;
 5/5=2,38=5/2;
 6/7=2,8=2,9=2,10=2,28=1/1;
 7/7=1,29=1,30=1,33=-1/1,2,3,16;
 1/10=7,30=1,53=2,62=2,63=101/22;
 3/5=7,6=11,11=2,16=1,25=1,30=1,71=1,74=-13,82=7/1,2,3;
 4//1;
 5/5=2,38=5/2;
 6/7=2,8=2,9=2,10=2,28=1/1;
 7/7=1,29=1,30=1,33=-1/1,2,3,16;
 1/10=7,30=1,53=2,62=2,63=101/22(-5);
 7/9=1,29=1,44=-1/16;
 1/10=7,30=1,62=2/3;
 99//99;
 Leave Link    1 at Thu May  3 01:40:53 2018, MaxMem= 14763950080 cpu:         4.3
 (Enter /cm/shared/gaussian/g09.e01/intel64-sandybridge/g09/l101.exe)
 --------------------------------------
 forces on chloride comput - NWATER: 32
 --------------------------------------
 Symbolic Z-matrix:
 Charge = -1 Multiplicity = 1 in supermolecule
 Charge = -1 Multiplicity = 1 in fragment      1.
 Charge =  0 Multiplicity = 1 in fragment      2.
 Br(Fragment=1)        20.       20.       20. 
 O(Fragment=2)         22.32     18.47     21.33 
 H(Fragment=2)         21.53     18.86     20.94 
 H(Fragment=2)         22.88     19.21     21.55 
 O(Fragment=2)         20.88     16.96     19.09 
 H(Fragment=2)         20.99     17.91     19.02 
 H(Fragment=2)         20.5      16.82     19.96 
 O(Fragment=2)         16.98     21.98     20.65 
 H(Fragment=2)         17.77     21.47     20.45 
 H(Fragment=2)         16.28     21.54     20.17 
 O(Fragment=2)         16.81     18.04     18.98 
 H(Fragment=2)         17.52     18.59     19.32 
 H(Fragment=2)         17.04     17.15     19.25 
 O(Fragment=2)         21.76     19.66     16.55 
 H(Fragment=2)         22.43     18.99     16.44 
 H(Fragment=2)         21.51     19.61     17.47 
 O(Fragment=2)         20.71     21.91     23.08 
 H(Fragment=2)         19.81     21.61     23.14 
 H(Fragment=2)         21.13     21.29     22.48 
 O(Fragment=2)         23.24     22.02     19.1 
 H(Fragment=2)         22.85     21.19     19.39 
 H(Fragment=2)         23.51     21.86     18.2 
 O(Fragment=2)         19.61     23.93     18.92 
 H(Fragment=2)         19.9      24.82     18.7 
 H(Fragment=2)         20.42     23.41     18.94 
 O(Fragment=2)         21.84     23.68     21.07 
 H(Fragment=2)         22.29     23.08     20.47 
 H(Fragment=2)         21.78     23.2      21.89 
 O(Fragment=2)         18.38     20.89     23.57 
 H(Fragment=2)         17.74     20.33     23.13 
 H(Fragment=2)         18.98     20.28     23.99 
 O(Fragment=2)         19.12     18.19     15.88 
 H(Fragment=2)         19.42     17.43     15.38 
 H(Fragment=2)         19.92     18.58     16.23 
 O(Fragment=2)         20.4      16.26     22.11 
 H(Fragment=2)         19.72     16.58     22.71 
 H(Fragment=2)         21.14     16.84     22.27 
 O(Fragment=2)         19.61     21.79     15.41 
 H(Fragment=2)         18.91     21.31     14.98 
 H(Fragment=2)         20.17     21.11     15.79 
 O(Fragment=2)         15.42     20.32     22.41 
 H(Fragment=2)         14.63     20.79     22.66 
 H(Fragment=2)         15.99     20.99     22.03 
 O(Fragment=2)         23.74     18.26     17.8 
 H(Fragment=2)         24.16     18.62     18.58 
 H(Fragment=2)         24.42     17.71     17.4 
 O(Fragment=2)         23.26     15.65     20.14 
 H(Fragment=2)         22.73     14.9      19.86 
 H(Fragment=2)         22.89     16.4      19.67 
 O(Fragment=2)         23.63     20.49     22.85 
 H(Fragment=2)         24.49     20.13     22.6 
 H(Fragment=2)         23.68     20.59     23.8 
 O(Fragment=2)         17.76     23.85     16.58 
 H(Fragment=2)         18.28     23.46     15.87 
 H(Fragment=2)         18.26     23.65     17.37 
 O(Fragment=2)         17.27     24.95     20.46 
 H(Fragment=2)         17.23     24.45     21.28 
 H(Fragment=2)         17.94     24.5      19.94 
 O(Fragment=2)         16.6      18.31     23.6 
 H(Fragment=2)         15.9      17.73     23.88 
 H(Fragment=2)         16.19     18.9      22.97 
 O(Fragment=2)         18.98     17.7      24.61 
 H(Fragment=2)         18.13     17.87     24.2 
 H(Fragment=2)         18.78     17.2      25.4 
 O(Fragment=2)         16.34     23.67     23.05 
 H(Fragment=2)         16.88     23.       22.64 
 H(Fragment=2)         16.97     24.27     23.47 
 O(Fragment=2)         19.19     14.37     20.6 
 H(Fragment=2)         19.5      15.07     21.17 
 H(Fragment=2)         19.65     13.59     20.89 
 O(Fragment=2)         17.2      19.87     15.07 
 H(Fragment=2)         17.92     19.29     15.32 
 H(Fragment=2)         16.95     20.31     15.89 
 O(Fragment=2)         21.34     14.83     17.11 
 H(Fragment=2)         20.74     14.88     16.37 
 H(Fragment=2)         21.52     15.75     17.33 
 O(Fragment=2)         21.72     17.49     24.78 
 H(Fragment=2)         21.56     16.55     24.76 
 H(Fragment=2)         20.85     17.88     24.79 
 O(Fragment=2)         20.4      25.99     20.63 
 H(Fragment=2)         21.18     26.46     20.33 
 H(Fragment=2)         20.74     25.18     21.01 
 O(Fragment=2)         16.83     16.29     16.31 
 H(Fragment=2)         16.22     16.61     16.97 
 H(Fragment=2)         17.58     16.89     16.37 
 O(Fragment=2)         14.32     17.92     18.25 
 H(Fragment=2)         13.75     18.24     18.95 
 H(Fragment=2)         15.2      17.94     18.62 
 O(Fragment=2)         14.73     21.22     19.5 
 H(Fragment=2)         13.86     21.62     19.53 
 H(Fragment=2)         14.81     20.88     18.61 
 O(Fragment=2)         23.7      16.47     23.31 
 H(Fragment=2)         23.18     17.08     23.83 
 H(Fragment=2)         23.69     16.83     22.42 
 O(Fragment=2)         15.01     20.35     16.81 
 H(Fragment=2)         14.41     19.94     16.18 
 H(Fragment=2)         15.22     19.64     17.42 
 
 NAtoms=     97 NQM=       97 NQMF=       0 NMMI=      0 NMMIF=      0
                NMic=       0 NMicF=      0.
                    Isotopes and Nuclear Properties:
 (Nuclear quadrupole moments (NQMom) in fm**2, nuclear magnetic moments (NMagM)
  in nuclear magnetons)

  Atom         1           2           3           4           5           6           7           8           9          10
 IAtWgt=          79          16           1           1          16           1           1          16           1           1
 AtmWgt=  78.9183361  15.9949146   1.0078250   1.0078250  15.9949146   1.0078250   1.0078250  15.9949146   1.0078250   1.0078250
 NucSpn=           3           0           1           1           0           1           1           0           1           1
 AtZEff=   0.0000000   0.0000000   0.0000000   0.0000000   0.0000000   0.0000000   0.0000000   0.0000000   0.0000000   0.0000000
 NQMom=   31.3000000   0.0000000   0.0000000   0.0000000   0.0000000   0.0000000   0.0000000   0.0000000   0.0000000   0.0000000
 NMagM=    2.1063990   0.0000000   2.7928460   2.7928460   0.0000000   2.7928460   2.7928460   0.0000000   2.7928460   2.7928460
 AtZNuc=  35.0000000   8.0000000   1.0000000   1.0000000   8.0000000   1.0000000   1.0000000   8.0000000   1.0000000   1.0000000

  Atom        11          12          13          14          15          16          17          18          19          20
 IAtWgt=          16           1           1          16           1           1          16           1           1          16
 AtmWgt=  15.9949146   1.0078250   1.0078250  15.9949146   1.0078250   1.0078250  15.9949146   1.0078250   1.0078250  15.9949146
 NucSpn=           0           1           1           0           1           1           0           1           1           0
 AtZEff=   0.0000000   0.0000000   0.0000000   0.0000000   0.0000000   0.0000000   0.0000000   0.0000000   0.0000000   0.0000000
 NQMom=    0.0000000   0.0000000   0.0000000   0.0000000   0.0000000   0.0000000   0.0000000   0.0000000   0.0000000   0.0000000
 NMagM=    0.0000000   2.7928460   2.7928460   0.0000000   2.7928460   2.7928460   0.0000000   2.7928460   2.7928460   0.0000000
 AtZNuc=   8.0000000   1.0000000   1.0000000   8.0000000   1.0000000   1.0000000   8.0000000   1.0000000   1.0000000   8.0000000

  Atom        21          22          23          24          25          26          27          28          29          30
 IAtWgt=           1           1          16           1           1          16           1           1          16           1
 AtmWgt=   1.0078250   1.0078250  15.9949146   1.0078250   1.0078250  15.9949146   1.0078250   1.0078250  15.9949146   1.0078250
 NucSpn=           1           1           0           1           1           0           1           1           0           1
 AtZEff=   0.0000000   0.0000000   0.0000000   0.0000000   0.0000000   0.0000000   0.0000000   0.0000000   0.0000000   0.0000000
 NQMom=    0.0000000   0.0000000   0.0000000   0.0000000   0.0000000   0.0000000   0.0000000   0.0000000   0.0000000   0.0000000
 NMagM=    2.7928460   2.7928460   0.0000000   2.7928460   2.7928460   0.0000000   2.7928460   2.7928460   0.0000000   2.7928460
 AtZNuc=   1.0000000   1.0000000   8.0000000   1.0000000   1.0000000   8.0000000   1.0000000   1.0000000   8.0000000   1.0000000

  Atom        31          32          33          34          35          36          37          38          39          40
 IAtWgt=           1          16           1           1          16           1           1          16           1           1
 AtmWgt=   1.0078250  15.9949146   1.0078250   1.0078250  15.9949146   1.0078250   1.0078250  15.9949146   1.0078250   1.0078250
 NucSpn=           1           0           1           1           0           1           1           0           1           1
 AtZEff=   0.0000000   0.0000000   0.0000000   0.0000000   0.0000000   0.0000000   0.0000000   0.0000000   0.0000000   0.0000000
 NQMom=    0.0000000   0.0000000   0.0000000   0.0000000   0.0000000   0.0000000   0.0000000   0.0000000   0.0000000   0.0000000
 NMagM=    2.7928460   0.0000000   2.7928460   2.7928460   0.0000000   2.7928460   2.7928460   0.0000000   2.7928460   2.7928460
 AtZNuc=   1.0000000   8.0000000   1.0000000   1.0000000   8.0000000   1.0000000   1.0000000   8.0000000   1.0000000   1.0000000

  Atom        41          42          43          44          45          46          47          48          49          50
 IAtWgt=          16           1           1          16           1           1          16           1           1          16
 AtmWgt=  15.9949146   1.0078250   1.0078250  15.9949146   1.0078250   1.0078250  15.9949146   1.0078250   1.0078250  15.9949146
 NucSpn=           0           1           1           0           1           1           0           1           1           0
 AtZEff=   0.0000000   0.0000000   0.0000000   0.0000000   0.0000000   0.0000000   0.0000000   0.0000000   0.0000000   0.0000000
 NQMom=    0.0000000   0.0000000   0.0000000   0.0000000   0.0000000   0.0000000   0.0000000   0.0000000   0.0000000   0.0000000
 NMagM=    0.0000000   2.7928460   2.7928460   0.0000000   2.7928460   2.7928460   0.0000000   2.7928460   2.7928460   0.0000000
 AtZNuc=   8.0000000   1.0000000   1.0000000   8.0000000   1.0000000   1.0000000   8.0000000   1.0000000   1.0000000   8.0000000

  Atom        51          52          53          54          55          56          57          58          59          60
 IAtWgt=           1           1          16           1           1          16           1           1          16           1
 AtmWgt=   1.0078250   1.0078250  15.9949146   1.0078250   1.0078250  15.9949146   1.0078250   1.0078250  15.9949146   1.0078250
 NucSpn=           1           1           0           1           1           0           1           1           0           1
 AtZEff=   0.0000000   0.0000000   0.0000000   0.0000000   0.0000000   0.0000000   0.0000000   0.0000000   0.0000000   0.0000000
 NQMom=    0.0000000   0.0000000   0.0000000   0.0000000   0.0000000   0.0000000   0.0000000   0.0000000   0.0000000   0.0000000
 NMagM=    2.7928460   2.7928460   0.0000000   2.7928460   2.7928460   0.0000000   2.7928460   2.7928460   0.0000000   2.7928460
 AtZNuc=   1.0000000   1.0000000   8.0000000   1.0000000   1.0000000   8.0000000   1.0000000   1.0000000   8.0000000   1.0000000

  Atom        61          62          63          64          65          66          67          68          69          70
 IAtWgt=           1          16           1           1          16           1           1          16           1           1
 AtmWgt=   1.0078250  15.9949146   1.0078250   1.0078250  15.9949146   1.0078250   1.0078250  15.9949146   1.0078250   1.0078250
 NucSpn=           1           0           1           1           0           1           1           0           1           1
 AtZEff=   0.0000000   0.0000000   0.0000000   0.0000000   0.0000000   0.0000000   0.0000000   0.0000000   0.0000000   0.0000000
 NQMom=    0.0000000   0.0000000   0.0000000   0.0000000   0.0000000   0.0000000   0.0000000   0.0000000   0.0000000   0.0000000
 NMagM=    2.7928460   0.0000000   2.7928460   2.7928460   0.0000000   2.7928460   2.7928460   0.0000000   2.7928460   2.7928460
 AtZNuc=   1.0000000   8.0000000   1.0000000   1.0000000   8.0000000   1.0000000   1.0000000   8.0000000   1.0000000   1.0000000

  Atom        71          72          73          74          75          76          77          78          79          80
 IAtWgt=          16           1           1          16           1           1          16           1           1          16
 AtmWgt=  15.9949146   1.0078250   1.0078250  15.9949146   1.0078250   1.0078250  15.9949146   1.0078250   1.0078250  15.9949146
 NucSpn=           0           1           1           0           1           1           0           1           1           0
 AtZEff=   0.0000000   0.0000000   0.0000000   0.0000000   0.0000000   0.0000000   0.0000000   0.0000000   0.0000000   0.0000000
 NQMom=    0.0000000   0.0000000   0.0000000   0.0000000   0.0000000   0.0000000   0.0000000   0.0000000   0.0000000   0.0000000
 NMagM=    0.0000000   2.7928460   2.7928460   0.0000000   2.7928460   2.7928460   0.0000000   2.7928460   2.7928460   0.0000000
 AtZNuc=   8.0000000   1.0000000   1.0000000   8.0000000   1.0000000   1.0000000   8.0000000   1.0000000   1.0000000   8.0000000

  Atom        81          82          83          84          85          86          87          88          89          90
 IAtWgt=           1           1          16           1           1          16           1           1          16           1
 AtmWgt=   1.0078250   1.0078250  15.9949146   1.0078250   1.0078250  15.9949146   1.0078250   1.0078250  15.9949146   1.0078250
 NucSpn=           1           1           0           1           1           0           1           1           0           1
 AtZEff=   0.0000000   0.0000000   0.0000000   0.0000000   0.0000000   0.0000000   0.0000000   0.0000000   0.0000000   0.0000000
 NQMom=    0.0000000   0.0000000   0.0000000   0.0000000   0.0000000   0.0000000   0.0000000   0.0000000   0.0000000   0.0000000
 NMagM=    2.7928460   2.7928460   0.0000000   2.7928460   2.7928460   0.0000000   2.7928460   2.7928460   0.0000000   2.7928460
 AtZNuc=   1.0000000   1.0000000   8.0000000   1.0000000   1.0000000   8.0000000   1.0000000   1.0000000   8.0000000   1.0000000

  Atom        91          92          93          94          95          96          97
 IAtWgt=           1          16           1           1          16           1           1
 AtmWgt=   1.0078250  15.9949146   1.0078250   1.0078250  15.9949146   1.0078250   1.0078250
 NucSpn=           1           0           1           1           0           1           1
 AtZEff=   0.0000000   0.0000000   0.0000000   0.0000000   0.0000000   0.0000000   0.0000000
 NQMom=    0.0000000   0.0000000   0.0000000   0.0000000   0.0000000   0.0000000   0.0000000
 NMagM=    2.7928460   0.0000000   2.7928460   2.7928460   0.0000000   2.7928460   2.7928460
 AtZNuc=   1.0000000   8.0000000   1.0000000   1.0000000   8.0000000   1.0000000   1.0000000
 Leave Link  101 at Thu May  3 01:40:53 2018, MaxMem= 14763950080 cpu:        12.6
 (Enter /cm/shared/gaussian/g09.e01/intel64-sandybridge/g09/l103.exe)

 GradGradGradGradGradGradGradGradGradGradGradGradGradGradGradGradGradGrad
 Berny optimization.
 Initialization pass.
 Trust Radius=3.00D-01 FncErr=1.00D-07 GrdErr=1.00D-07
 Number of steps in this run=      2 maximum allowed number of steps=      2.
 GradGradGradGradGradGradGradGradGradGradGradGradGradGradGradGradGradGrad

 Leave Link  103 at Thu May  3 01:40:53 2018, MaxMem= 14763950080 cpu:         1.7
 (Enter /cm/shared/gaussian/g09.e01/intel64-sandybridge/g09/l202.exe)
 Symmetry turned off by external request.
 Stoichiometry    BrH64O32(1-)
 Framework group  C1[X(BrH64O32)]
 Deg. of freedom   285
 Full point group                 C1      NOp   1
                          Input orientation:                          
 ---------------------------------------------------------------------
 Center     Atomic      Atomic             Coordinates (Angstroms)
 Number     Number       Type             X           Y           Z
 ---------------------------------------------------------------------
      1         35           0       20.000000   20.000000   20.000000
      2          8           0       22.320000   18.470000   21.330000
      3          1           0       21.530000   18.860000   20.940000
      4          1           0       22.880000   19.210000   21.550000
      5          8           0       20.880000   16.960000   19.090000
      6          1           0       20.990000   17.910000   19.020000
      7          1           0       20.500000   16.820000   19.960000
      8          8           0       16.980000   21.980000   20.650000
      9          1           0       17.770000   21.470000   20.450000
     10          1           0       16.280000   21.540000   20.170000
     11          8           0       16.810000   18.040000   18.980000
     12          1           0       17.520000   18.590000   19.320000
     13          1           0       17.040000   17.150000   19.250000
     14          8           0       21.760000   19.660000   16.550000
     15          1           0       22.430000   18.990000   16.440000
     16          1           0       21.510000   19.610000   17.470000
     17          8           0       20.710000   21.910000   23.080000
     18          1           0       19.810000   21.610000   23.140000
     19          1           0       21.130000   21.290000   22.480000
     20          8           0       23.240000   22.020000   19.100000
     21          1           0       22.850000   21.190000   19.390000
     22          1           0       23.510000   21.860000   18.200000
     23          8           0       19.610000   23.930000   18.920000
     24          1           0       19.900000   24.820000   18.700000
     25          1           0       20.420000   23.410000   18.940000
     26          8           0       21.840000   23.680000   21.070000
     27          1           0       22.290000   23.080000   20.470000
     28          1           0       21.780000   23.200000   21.890000
     29          8           0       18.380000   20.890000   23.570000
     30          1           0       17.740000   20.330000   23.130000
     31          1           0       18.980000   20.280000   23.990000
     32          8           0       19.120000   18.190000   15.880000
     33          1           0       19.420000   17.430000   15.380000
     34          1           0       19.920000   18.580000   16.230000
     35          8           0       20.400000   16.260000   22.110000
     36          1           0       19.720000   16.580000   22.710000
     37          1           0       21.140000   16.840000   22.270000
     38          8           0       19.610000   21.790000   15.410000
     39          1           0       18.910000   21.310000   14.980000
     40          1           0       20.170000   21.110000   15.790000
     41          8           0       15.420000   20.320000   22.410000
     42          1           0       14.630000   20.790000   22.660000
     43          1           0       15.990000   20.990000   22.030000
     44          8           0       23.740000   18.260000   17.800000
     45          1           0       24.160000   18.620000   18.580000
     46          1           0       24.420000   17.710000   17.400000
     47          8           0       23.260000   15.650000   20.140000
     48          1           0       22.730000   14.900000   19.860000
     49          1           0       22.890000   16.400000   19.670000
     50          8           0       23.630000   20.490000   22.850000
     51          1           0       24.490000   20.130000   22.600000
     52          1           0       23.680000   20.590000   23.800000
     53          8           0       17.760000   23.850000   16.580000
     54          1           0       18.280000   23.460000   15.870000
     55          1           0       18.260000   23.650000   17.370000
     56          8           0       17.270000   24.950000   20.460000
     57          1           0       17.230000   24.450000   21.280000
     58          1           0       17.940000   24.500000   19.940000
     59          8           0       16.600000   18.310000   23.600000
     60          1           0       15.900000   17.730000   23.880000
     61          1           0       16.190000   18.900000   22.970000
     62          8           0       18.980000   17.700000   24.610000
     63          1           0       18.130000   17.870000   24.200000
     64          1           0       18.780000   17.200000   25.400000
     65          8           0       16.340000   23.670000   23.050000
     66          1           0       16.880000   23.000000   22.640000
     67          1           0       16.970000   24.270000   23.470000
     68          8           0       19.190000   14.370000   20.600000
     69          1           0       19.500000   15.070000   21.170000
     70          1           0       19.650000   13.590000   20.890000
     71          8           0       17.200000   19.870000   15.070000
     72          1           0       17.920000   19.290000   15.320000
     73          1           0       16.950000   20.310000   15.890000
     74          8           0       21.340000   14.830000   17.110000
     75          1           0       20.740000   14.880000   16.370000
     76          1           0       21.520000   15.750000   17.330000
     77          8           0       21.720000   17.490000   24.780000
     78          1           0       21.560000   16.550000   24.760000
     79          1           0       20.850000   17.880000   24.790000
     80          8           0       20.400000   25.990000   20.630000
     81          1           0       21.180000   26.460000   20.330000
     82          1           0       20.740000   25.180000   21.010000
     83          8           0       16.830000   16.290000   16.310000
     84          1           0       16.220000   16.610000   16.970000
     85          1           0       17.580000   16.890000   16.370000
     86          8           0       14.320000   17.920000   18.250000
     87          1           0       13.750000   18.240000   18.950000
     88          1           0       15.200000   17.940000   18.620000
     89          8           0       14.730000   21.220000   19.500000
     90          1           0       13.860000   21.620000   19.530000
     91          1           0       14.810000   20.880000   18.610000
     92          8           0       23.700000   16.470000   23.310000
     93          1           0       23.180000   17.080000   23.830000
     94          1           0       23.690000   16.830000   22.420000
     95          8           0       15.010000   20.350000   16.810000
     96          1           0       14.410000   19.940000   16.180000
     97          1           0       15.220000   19.640000   17.420000
 ---------------------------------------------------------------------
 Rotational constants (GHZ):      0.0602150      0.0528996      0.0471545
 Leave Link  202 at Thu May  3 01:40:53 2018, MaxMem= 14763950080 cpu:         0.5
 (Enter /cm/shared/gaussian/g09.e01/intel64-sandybridge/g09/l122.exe)
 Counterpoise: doing full dimer calculation.
 Leave Link  122 at Thu May  3 01:40:53 2018, MaxMem= 14763950080 cpu:         0.0
 (Enter /cm/shared/gaussian/g09.e01/intel64-sandybridge/g09/l301.exe)
 Standard basis: CC-pVDZ (5D, 7F)
 Ernie: Thresh=  0.10000D-02 Tol=  0.10000D-05 Strict=F.
 Ernie:  87 primitive shells out of 1114 were deleted.
   795 basis functions,  1651 primitive gaussians,   829 cartesian basis functions
   178 alpha electrons      178 beta electrons
       nuclear repulsion energy      6011.5334209874 Hartrees.
 IExCor= 1009 DFT=T Ex+Corr=PBE1PBE ExCW=0 ScaHFX=  0.250000
 ScaDFX=  0.750000  0.750000  1.000000  1.000000 ScalE2=  1.000000  1.000000
 IRadAn=      0 IRanWt=     -1 IRanGd=            0 ICorTp=0 IEmpDi=  4
 NAtoms=   97 NActive=   97 NUniq=   97 SFac= 1.00D+00 NAtFMM=   60 NAOKFM=T Big=T
 Integral buffers will be    131072 words long.
 Raffenetti 2 integral format.
 Two-electron integral symmetry is turned off.
 Leave Link  301 at Thu May  3 01:40:53 2018, MaxMem= 14763950080 cpu:         4.3
 (Enter /cm/shared/gaussian/g09.e01/intel64-sandybridge/g09/l302.exe)
 NPDir=0 NMtPBC=     1 NCelOv=     1 NCel=       1 NClECP=     1 NCelD=      1
         NCelK=      1 NCelE2=     1 NClLst=     1 CellRange=     0.0.
 One-electron integrals computed using PRISM.
 NBasis=   795 RedAO= T EigKep=  1.65D-02  NBF=   795
 NBsUse=   795 1.00D-06 EigRej= -1.00D+00 NBFU=   795
 Precomputing XC quadrature grid using
 IXCGrd= 4 IRadAn=           0 IRanWt=          -1 IRanGd=           0 AccXCQ= 0.00D+00.
 Generated NRdTot=       0 NPtTot=           0 NUsed=           0 NTot=          32
 NSgBfM=   721   732   746   752   752 MxSgAt=    97 MxSgA2=    97.
 Leave Link  302 at Thu May  3 01:41:00 2018, MaxMem= 14763950080 cpu:       409.3
 (Enter /cm/shared/gaussian/g09.e01/intel64-sandybridge/g09/l303.exe)
 DipDrv:  MaxL=1.
 Leave Link  303 at Thu May  3 01:41:00 2018, MaxMem= 14763950080 cpu:        28.8
 (Enter /cm/shared/gaussian/g09.e01/intel64-sandybridge/g09/l401.exe)
 ExpMin= 1.22D-01 ExpMax= 6.40D+05 ExpMxC= 6.18D+03 IAcc=2 IRadAn=         4 AccDes= 0.00D+00
 Harris functional with IExCor= 1009 and IRadAn=       4 diagonalized for initial guess.
 HarFok:  IExCor= 1009 AccDes= 0.00D+00 IRadAn=         4 IDoV= 1 UseB2=F ITyADJ=14
 ICtDFT=  3500011 ScaDFX=  1.000000  1.000000  1.000000  1.000000
 FoFCou: FMM=F IPFlag=           0 FMFlag=      100000 FMFlg1=        2001
         NFxFlg=           0 DoJE=T BraDBF=F KetDBF=T FulRan=T
         wScrn=  0.000000 ICntrl=     500 IOpCl=  0 I1Cent=   200000004 NGrid=           0
         NMat0=    1 NMatS0=      1 NMatT0=    0 NMatD0=    1 NMtDS0=    0 NMtDT0=    0
 Symmetry not used in FoFCou.
 Harris En= -5018.43458251126    
 JPrj=0 DoOrth=F DoCkMO=F.
 Leave Link  401 at Thu May  3 01:41:05 2018, MaxMem= 14763950080 cpu:       315.3
 (Enter /cm/shared/gaussian/g09.e01/intel64-sandybridge/g09/l502.exe)
 Closed shell SCF:
 Using DIIS extrapolation, IDIIS=  1040.
 Two-electron integral symmetry not used.
 IVT=     2138497 IEndB=     2138497 NGot= 14763950080 MDV= 14762516294
 LenX= 14762516294 LenY= 14761828224
 Requested convergence on RMS density matrix=1.00D-08 within 128 cycles.
 Requested convergence on MAX density matrix=1.00D-06.
 Requested convergence on             energy=1.00D-06.
 No special actions if energy rises.
 Fock matrices will be formed incrementally for  20 cycles.
 Integral accuracy reduced to 1.0D-05 until final iterations.

 Cycle   1  Pass 0  IDiag  1:
 FoFJK:  IHMeth= 1 ICntrl=       0 DoSepK=F KAlg= 0 I1Cent=   0 FoldK=F
 IRaf= 810000000 NMat=   1 IRICut=       1 DoRegI=T DoRafI=F ISym2E= 0.
 FoFCou: FMM=T IPFlag=           0 FMFlag=      100000 FMFlg1=        2001
         NFxFlg=           0 DoJE=F BraDBF=F KetDBF=F FulRan=T
         wScrn=  0.000000 ICntrl=       0 IOpCl=  0 I1Cent=           0 NGrid=           0
         NMat0=    1 NMatS0=      1 NMatT0=    0 NMatD0=    1 NMtDS0=    0 NMtDT0=    0
 Symmetry not used in FoFCou.
 FMM levels:  10  Number of levels for PrismC:   9
 E= -5015.29902388991    
 DIIS: error= 3.25D-02 at cycle   1 NSaved=   1.
 NSaved= 1 IEnMin= 1 EnMin= -5015.29902388991     IErMin= 1 ErrMin= 3.25D-02
 ErrMax= 3.25D-02  0.00D+00 EMaxC= 1.00D-01 BMatC= 2.70D+00 BMatP= 2.70D+00
 IDIUse=3 WtCom= 6.75D-01 WtEn= 3.25D-01
 Coeff-Com:  0.100D+01
 Coeff-En:   0.100D+01
 Coeff:      0.100D+01
 Gap=     0.274 Goal=   None    Shift=    0.000
 GapD=    0.274 DampG=1.000 DampE=0.500 DampFc=0.5000 IDamp=-1.
 Damping current iteration by 5.00D-01
 RMSDP=2.85D-03 MaxDP=1.53D-01              OVMax= 1.78D-01

 Cycle   2  Pass 0  IDiag  1:
 RMSU=  1.41D-03    CP:  9.85D-01
 E= -5016.09277100424     Delta-E=       -0.793747114323 Rises=F Damp=T
 DIIS: error= 7.67D-03 at cycle   2 NSaved=   2.
 NSaved= 2 IEnMin= 2 EnMin= -5016.09277100424     IErMin= 2 ErrMin= 7.67D-03
 ErrMax= 7.67D-03  0.00D+00 EMaxC= 1.00D-01 BMatC= 8.48D-02 BMatP= 2.70D+00
 IDIUse=3 WtCom= 9.23D-01 WtEn= 7.67D-02
 Coeff-Com:  0.118D+00 0.882D+00
 Coeff-En:   0.210D+00 0.790D+00
 Coeff:      0.125D+00 0.875D+00
 Gap=     0.188 Goal=   None    Shift=    0.000
 RMSDP=3.52D-04 MaxDP=1.85D-02 DE=-7.94D-01 OVMax= 9.27D-02

 Cycle   3  Pass 0  IDiag  1:
 RMSU=  2.83D-04    CP:  9.87D-01  8.54D-01
 E= -5017.23306783720     Delta-E=       -1.140296832958 Rises=F Damp=F
 DIIS: error= 1.60D-03 at cycle   3 NSaved=   3.
 NSaved= 3 IEnMin= 3 EnMin= -5017.23306783720     IErMin= 3 ErrMin= 1.60D-03
 ErrMax= 1.60D-03  0.00D+00 EMaxC= 1.00D-01 BMatC= 2.03D-03 BMatP= 8.48D-02
 IDIUse=3 WtCom= 9.84D-01 WtEn= 1.60D-02
 Coeff-Com:  0.102D-01 0.739D-01 0.916D+00
 Coeff-En:   0.000D+00 0.000D+00 0.100D+01
 Coeff:      0.100D-01 0.727D-01 0.917D+00
 Gap=     0.201 Goal=   None    Shift=    0.000
 RMSDP=1.02D-04 MaxDP=1.59D-02 DE=-1.14D+00 OVMax= 1.93D-02

 Cycle   4  Pass 0  IDiag  1:
 RMSU=  9.03D-05    CP:  9.88D-01  8.55D-01  8.29D-01
 E= -5017.23331821264     Delta-E=       -0.000250375448 Rises=F Damp=F
 DIIS: error= 1.27D-03 at cycle   4 NSaved=   4.
 NSaved= 4 IEnMin= 4 EnMin= -5017.23331821264     IErMin= 4 ErrMin= 1.27D-03
 ErrMax= 1.27D-03  0.00D+00 EMaxC= 1.00D-01 BMatC= 2.23D-03 BMatP= 2.03D-03
 IDIUse=3 WtCom= 9.87D-01 WtEn= 1.27D-02
 Coeff-Com:  0.221D-02 0.857D-02 0.509D+00 0.480D+00
 Coeff-En:   0.000D+00 0.000D+00 0.467D+00 0.533D+00
 Coeff:      0.218D-02 0.846D-02 0.509D+00 0.481D+00
 Gap=     0.199 Goal=   None    Shift=    0.000
 RMSDP=4.56D-05 MaxDP=5.85D-03 DE=-2.50D-04 OVMax= 7.75D-03

 Cycle   5  Pass 0  IDiag  1:
 RMSU=  1.70D-05    CP:  9.87D-01  8.53D-01  8.96D-01  5.80D-01
 E= -5017.23506845746     Delta-E=       -0.001750244821 Rises=F Damp=F
 DIIS: error= 1.21D-04 at cycle   5 NSaved=   5.
 NSaved= 5 IEnMin= 5 EnMin= -5017.23506845746     IErMin= 5 ErrMin= 1.21D-04
 ErrMax= 1.21D-04  0.00D+00 EMaxC= 1.00D-01 BMatC= 3.27D-05 BMatP= 2.03D-03
 IDIUse=3 WtCom= 9.99D-01 WtEn= 1.21D-03
 Coeff-Com:  0.727D-03-0.108D-02 0.142D+00 0.163D+00 0.695D+00
 Coeff-En:   0.000D+00 0.000D+00 0.000D+00 0.000D+00 0.100D+01
 Coeff:      0.726D-03-0.108D-02 0.142D+00 0.163D+00 0.696D+00
 Gap=     0.200 Goal=   None    Shift=    0.000
 RMSDP=8.58D-06 MaxDP=1.43D-03 DE=-1.75D-03 OVMax= 1.75D-03

 Cycle   6  Pass 0  IDiag  1:
 RMSU=  5.65D-06    CP:  9.87D-01  8.52D-01  9.07D-01  5.59D-01  6.96D-01
 E= -5017.23509398643     Delta-E=       -0.000025528961 Rises=F Damp=F
 DIIS: error= 9.18D-05 at cycle   6 NSaved=   6.
 NSaved= 6 IEnMin= 6 EnMin= -5017.23509398643     IErMin= 6 ErrMin= 9.18D-05
 ErrMax= 9.18D-05  0.00D+00 EMaxC= 1.00D-01 BMatC= 4.57D-06 BMatP= 3.27D-05
 IDIUse=1 WtCom= 1.00D+00 WtEn= 0.00D+00
 Coeff-Com:  0.145D-03-0.191D-02 0.328D-01 0.400D-01 0.301D+00 0.628D+00
 Coeff:      0.145D-03-0.191D-02 0.328D-01 0.400D-01 0.301D+00 0.628D+00
 Gap=     0.200 Goal=   None    Shift=    0.000
 RMSDP=2.61D-06 MaxDP=5.03D-04 DE=-2.55D-05 OVMax= 4.88D-04

 Initial convergence to 1.0D-05 achieved.  Increase integral accuracy.
 Cycle   7  Pass 1  IDiag  1:
 E= -5017.23566668920     Delta-E=       -0.000572702775 Rises=F Damp=F
 DIIS: error= 2.42D-05 at cycle   1 NSaved=   1.
 NSaved= 1 IEnMin= 1 EnMin= -5017.23566668920     IErMin= 1 ErrMin= 2.42D-05
 ErrMax= 2.42D-05  0.00D+00 EMaxC= 1.00D-01 BMatC= 1.28D-06 BMatP= 1.28D-06
 IDIUse=1 WtCom= 1.00D+00 WtEn= 0.00D+00
 Coeff-Com:  0.100D+01
 Coeff:      0.100D+01
 Gap=     0.200 Goal=   None    Shift=    0.000
 RMSDP=2.61D-06 MaxDP=5.03D-04 DE=-5.73D-04 OVMax= 2.63D-04

 Cycle   8  Pass 1  IDiag  1:
 RMSU=  4.08D-06    CP:  1.00D+00
 E= -5017.23566785553     Delta-E=       -0.000001166327 Rises=F Damp=F
 DIIS: error= 1.24D-05 at cycle   2 NSaved=   2.
 NSaved= 2 IEnMin= 2 EnMin= -5017.23566785553     IErMin= 2 ErrMin= 1.24D-05
 ErrMax= 1.24D-05  0.00D+00 EMaxC= 1.00D-01 BMatC= 3.08D-07 BMatP= 1.28D-06
 IDIUse=1 WtCom= 1.00D+00 WtEn= 0.00D+00
 Coeff-Com:  0.259D+00 0.741D+00
 Coeff:      0.259D+00 0.741D+00
 Gap=     0.200 Goal=   None    Shift=    0.000
 RMSDP=7.47D-07 MaxDP=9.02D-05 DE=-1.17D-06 OVMax= 7.70D-05

 Cycle   9  Pass 1  IDiag  1:
 RMSU=  7.45D-07    CP:  1.00D+00  9.86D-01
 E= -5017.23566795902     Delta-E=       -0.000000103488 Rises=F Damp=F
 DIIS: error= 9.21D-06 at cycle   3 NSaved=   3.
 NSaved= 3 IEnMin= 3 EnMin= -5017.23566795902     IErMin= 3 ErrMin= 9.21D-06
 ErrMax= 9.21D-06  0.00D+00 EMaxC= 1.00D-01 BMatC= 1.67D-07 BMatP= 3.08D-07
 IDIUse=1 WtCom= 1.00D+00 WtEn= 0.00D+00
 Coeff-Com: -0.706D-02 0.424D+00 0.583D+00
 Coeff:     -0.706D-02 0.424D+00 0.583D+00
 Gap=     0.200 Goal=   None    Shift=    0.000
 RMSDP=3.24D-07 MaxDP=4.43D-05 DE=-1.03D-07 OVMax= 3.84D-05

 Cycle  10  Pass 1  IDiag  1:
 RMSU=  8.94D-08    CP:  1.00D+00  1.01D+00  6.03D-01
 E= -5017.23566807734     Delta-E=       -0.000000118329 Rises=F Damp=F
 DIIS: error= 7.72D-07 at cycle   4 NSaved=   4.
 NSaved= 4 IEnMin= 4 EnMin= -5017.23566807734     IErMin= 4 ErrMin= 7.72D-07
 ErrMax= 7.72D-07  0.00D+00 EMaxC= 1.00D-01 BMatC= 9.68D-10 BMatP= 1.67D-07
 IDIUse=1 WtCom= 1.00D+00 WtEn= 0.00D+00
 Coeff-Com: -0.509D-02 0.184D+00 0.262D+00 0.559D+00
 Coeff:     -0.509D-02 0.184D+00 0.262D+00 0.559D+00
 Gap=     0.200 Goal=   None    Shift=    0.000
 RMSDP=3.43D-08 MaxDP=4.09D-06 DE=-1.18D-07 OVMax= 5.01D-06

 Cycle  11  Pass 1  IDiag  1:
 RMSU=  2.78D-08    CP:  1.00D+00  1.01D+00  6.06D-01  7.79D-01
 E= -5017.23566807809     Delta-E=       -0.000000000742 Rises=F Damp=F
 DIIS: error= 2.28D-07 at cycle   5 NSaved=   5.
 NSaved= 5 IEnMin= 5 EnMin= -5017.23566807809     IErMin= 5 ErrMin= 2.28D-07
 ErrMax= 2.28D-07  0.00D+00 EMaxC= 1.00D-01 BMatC= 7.46D-11 BMatP= 9.68D-10
 IDIUse=1 WtCom= 1.00D+00 WtEn= 0.00D+00
 Coeff-Com: -0.162D-02 0.454D-01 0.659D-01 0.251D+00 0.640D+00
 Coeff:     -0.162D-02 0.454D-01 0.659D-01 0.251D+00 0.640D+00
 Gap=     0.200 Goal=   None    Shift=    0.000
 RMSDP=8.84D-09 MaxDP=1.11D-06 DE=-7.42D-10 OVMax= 9.96D-07

 Cycle  12  Pass 1  IDiag  1:
 RMSU=  7.48D-09    CP:  1.00D+00  1.01D+00  6.06D-01  8.18D-01  8.96D-01
 E= -5017.23566807821     Delta-E=       -0.000000000127 Rises=F Damp=F
 DIIS: error= 7.65D-08 at cycle   6 NSaved=   6.
 NSaved= 6 IEnMin= 6 EnMin= -5017.23566807821     IErMin= 6 ErrMin= 7.65D-08
 ErrMax= 7.65D-08  0.00D+00 EMaxC= 1.00D-01 BMatC= 3.91D-12 BMatP= 7.46D-11
 IDIUse=1 WtCom= 1.00D+00 WtEn= 0.00D+00
 Coeff-Com:  0.747D-04-0.662D-02-0.894D-02 0.169D-01 0.209D+00 0.790D+00
 Coeff:      0.747D-04-0.662D-02-0.894D-02 0.169D-01 0.209D+00 0.790D+00
 Gap=     0.200 Goal=   None    Shift=    0.000
 RMSDP=2.92D-09 MaxDP=3.24D-07 DE=-1.27D-10 OVMax= 5.62D-07

 SCF Done:  E(RPBE1PBE) =  -5017.23566808     A.U. after   12 cycles
            NFock= 12  Conv=0.29D-08     -V/T= 2.0028
 KE= 5.003116983926D+03 PE=-2.399288210900D+04 EE= 7.960996036008D+03
 Leave Link  502 at Thu May  3 01:42:59 2018, MaxMem= 14763950080 cpu:      7146.0
 (Enter /cm/shared/gaussian/g09.e01/intel64-sandybridge/g09/l601.exe)
 Copying SCF densities to generalized density rwf, IOpCl= 0 IROHF=0.

 **********************************************************************

            Population analysis using the SCF density.

 **********************************************************************

 Alpha  occ. eigenvalues -- -483.12464 -62.52720 -56.29980 -56.29952 -56.29942
 Alpha  occ. eigenvalues --  -19.18028 -19.16618 -19.16356 -19.16298 -19.16113
 Alpha  occ. eigenvalues --  -19.16107 -19.15333 -19.15279 -19.15272 -19.14634
 Alpha  occ. eigenvalues --  -19.13679 -19.13569 -19.13525 -19.13515 -19.12639
 Alpha  occ. eigenvalues --  -19.10766 -19.10657 -19.10640 -19.10294 -19.10271
 Alpha  occ. eigenvalues --  -19.09768 -19.09519 -19.09322 -19.09034 -19.08818
 Alpha  occ. eigenvalues --  -19.08679 -19.08673 -19.07752 -19.07361 -19.07202
 Alpha  occ. eigenvalues --  -19.03916 -19.02489  -8.62978  -6.43380  -6.43255
 Alpha  occ. eigenvalues --   -6.43223  -2.51635  -2.51610  -2.51586  -2.51481
 Alpha  occ. eigenvalues --   -2.51480  -1.00343  -1.00238  -0.98951  -0.98938
 Alpha  occ. eigenvalues --   -0.98739  -0.98556  -0.97737  -0.97625  -0.97579
 Alpha  occ. eigenvalues --   -0.97518  -0.96941  -0.96508  -0.96027  -0.95775
 Alpha  occ. eigenvalues --   -0.95090  -0.93430  -0.93221  -0.93087  -0.92685
 Alpha  occ. eigenvalues --   -0.92600  -0.92542  -0.91848  -0.91836  -0.91751
 Alpha  occ. eigenvalues --   -0.91644  -0.91395  -0.90891  -0.90210  -0.89955
 Alpha  occ. eigenvalues --   -0.89695  -0.86432  -0.84943  -0.61982  -0.51385
 Alpha  occ. eigenvalues --   -0.50658  -0.50502  -0.49507  -0.49356  -0.49240
 Alpha  occ. eigenvalues --   -0.48860  -0.48600  -0.48256  -0.48103  -0.47893
 Alpha  occ. eigenvalues --   -0.47606  -0.46778  -0.46621  -0.45116  -0.44234
 Alpha  occ. eigenvalues --   -0.44065  -0.43911  -0.43716  -0.43686  -0.43512
 Alpha  occ. eigenvalues --   -0.42959  -0.42573  -0.42391  -0.42367  -0.42098
 Alpha  occ. eigenvalues --   -0.42009  -0.41826  -0.40870  -0.40753  -0.39134
 Alpha  occ. eigenvalues --   -0.38128  -0.37324  -0.36577  -0.36117  -0.36012
 Alpha  occ. eigenvalues --   -0.35241  -0.35178  -0.34075  -0.33907  -0.33741
 Alpha  occ. eigenvalues --   -0.33623  -0.33061  -0.32782  -0.32486  -0.31263
 Alpha  occ. eigenvalues --   -0.30707  -0.30596  -0.30210  -0.30114  -0.29668
 Alpha  occ. eigenvalues --   -0.29154  -0.29079  -0.28916  -0.28740  -0.28628
 Alpha  occ. eigenvalues --   -0.28451  -0.28428  -0.28200  -0.27577  -0.27404
 Alpha  occ. eigenvalues --   -0.27364  -0.26939  -0.26505  -0.26360  -0.26227
 Alpha  occ. eigenvalues --   -0.26135  -0.26103  -0.25874  -0.25437  -0.24746
 Alpha  occ. eigenvalues --   -0.24710  -0.24632  -0.24388  -0.24212  -0.23879
 Alpha  occ. eigenvalues --   -0.23563  -0.23361  -0.22444  -0.22264  -0.21665
 Alpha  occ. eigenvalues --   -0.21401  -0.21366  -0.20908  -0.20606  -0.20231
 Alpha  occ. eigenvalues --   -0.20101  -0.19946  -0.19827  -0.19516  -0.19505
 Alpha  occ. eigenvalues --   -0.18809  -0.18567  -0.17558  -0.17506  -0.16761
 Alpha  occ. eigenvalues --   -0.16552  -0.15031  -0.13348
 Alpha virt. eigenvalues --    0.06623   0.08526   0.09605   0.10570   0.11230
 Alpha virt. eigenvalues --    0.12568   0.12985   0.14061   0.14296   0.15365
 Alpha virt. eigenvalues --    0.16062   0.16543   0.16908   0.17313   0.17710
 Alpha virt. eigenvalues --    0.18007   0.18275   0.18601   0.18968   0.19538
 Alpha virt. eigenvalues --    0.19838   0.20192   0.20712   0.20881   0.21530
 Alpha virt. eigenvalues --    0.21696   0.22399   0.23094   0.23349   0.23652
 Alpha virt. eigenvalues --    0.24220   0.24917   0.25272   0.25799   0.26311
 Alpha virt. eigenvalues --    0.27116   0.27466   0.28122   0.28435   0.28645
 Alpha virt. eigenvalues --    0.29109   0.29718   0.29893   0.30238   0.30727
 Alpha virt. eigenvalues --    0.31366   0.31687   0.32049   0.32594   0.33649
 Alpha virt. eigenvalues --    0.33984   0.34405   0.34578   0.35103   0.35523
 Alpha virt. eigenvalues --    0.36211   0.36593   0.36742   0.37063   0.37598
 Alpha virt. eigenvalues --    0.39030   0.39399   0.40291   0.42188   0.58024
 Alpha virt. eigenvalues --    0.59742   0.59849   0.60526   0.61229   0.61407
 Alpha virt. eigenvalues --    0.62030   0.62558   0.63137   0.63324   0.63607
 Alpha virt. eigenvalues --    0.64011   0.64303   0.64809   0.65141   0.65629
 Alpha virt. eigenvalues --    0.65773   0.66340   0.66586   0.66968   0.67223
 Alpha virt. eigenvalues --    0.67424   0.67804   0.68080   0.68238   0.68725
 Alpha virt. eigenvalues --    0.68932   0.69087   0.69312   0.69622   0.69951
 Alpha virt. eigenvalues --    0.70079   0.70334   0.70583   0.71111   0.71248
 Alpha virt. eigenvalues --    0.71374   0.71764   0.72101   0.72694   0.72966
 Alpha virt. eigenvalues --    0.73027   0.73385   0.73914   0.74020   0.74543
 Alpha virt. eigenvalues --    0.74968   0.75114   0.75310   0.75554   0.76402
 Alpha virt. eigenvalues --    0.76686   0.77110   0.77439   0.78007   0.78377
 Alpha virt. eigenvalues --    0.78545   0.79151   0.79393   0.79781   0.79925
 Alpha virt. eigenvalues --    0.80778   0.81294   0.81648   0.82765   0.82907
 Alpha virt. eigenvalues --    0.83590   0.83806   0.84691   0.85649   0.86524
 Alpha virt. eigenvalues --    0.86871   0.93397   0.94072   0.95016   0.95258
 Alpha virt. eigenvalues --    0.95569   0.96479   0.96623   0.96828   0.97666
 Alpha virt. eigenvalues --    0.97854   0.98382   0.98798   0.98993   0.99464
 Alpha virt. eigenvalues --    0.99740   1.00092   1.00439   1.00649   1.01050
 Alpha virt. eigenvalues --    1.01340   1.01594   1.01918   1.02190   1.02382
 Alpha virt. eigenvalues --    1.02967   1.03063   1.03578   1.03671   1.04013
 Alpha virt. eigenvalues --    1.04261   1.04715   1.04906   1.05557   1.05894
 Alpha virt. eigenvalues --    1.06098   1.06397   1.06493   1.06725   1.07297
 Alpha virt. eigenvalues --    1.07542   1.07886   1.08145   1.08362   1.08874
 Alpha virt. eigenvalues --    1.09107   1.09158   1.09471   1.09723   1.09909
 Alpha virt. eigenvalues --    1.10526   1.10780   1.11151   1.11274   1.11724
 Alpha virt. eigenvalues --    1.11824   1.12418   1.12491   1.12615   1.12783
 Alpha virt. eigenvalues --    1.13179   1.13436   1.13856   1.14155   1.14441
 Alpha virt. eigenvalues --    1.14895   1.15200   1.15726   1.16330   1.16552
 Alpha virt. eigenvalues --    1.16630   1.17099   1.17427   1.17736   1.18031
 Alpha virt. eigenvalues --    1.18822   1.19026   1.19417   1.19610   1.19991
 Alpha virt. eigenvalues --    1.20216   1.20635   1.21206   1.21676   1.22074
 Alpha virt. eigenvalues --    1.22522   1.22817   1.23310   1.23680   1.24027
 Alpha virt. eigenvalues --    1.24488   1.24634   1.24950   1.25570   1.26279
 Alpha virt. eigenvalues --    1.26833   1.27500   1.27814   1.28020   1.28158
 Alpha virt. eigenvalues --    1.28696   1.28956   1.29189   1.29401   1.30185
 Alpha virt. eigenvalues --    1.30588   1.30754   1.30893   1.31250   1.31774
 Alpha virt. eigenvalues --    1.31993   1.32231   1.32285   1.32629   1.32877
 Alpha virt. eigenvalues --    1.33311   1.33771   1.33997   1.34154   1.34481
 Alpha virt. eigenvalues --    1.34626   1.35203   1.35362   1.35741   1.36357
 Alpha virt. eigenvalues --    1.36683   1.37079   1.37252   1.37896   1.38060
 Alpha virt. eigenvalues --    1.38221   1.38828   1.39256   1.39609   1.39825
 Alpha virt. eigenvalues --    1.39963   1.40321   1.40554   1.41491   1.41794
 Alpha virt. eigenvalues --    1.42282   1.42532   1.42833   1.43052   1.43561
 Alpha virt. eigenvalues --    1.43795   1.44283   1.44611   1.44864   1.45260
 Alpha virt. eigenvalues --    1.45362   1.46450   1.46628   1.46898   1.47424
 Alpha virt. eigenvalues --    1.48679   1.49085   1.49683   1.50096   1.50182
 Alpha virt. eigenvalues --    1.50657   1.50712   1.51563   1.51816   1.51960
 Alpha virt. eigenvalues --    1.52835   1.53644   1.54207   1.54270   1.54775
 Alpha virt. eigenvalues --    1.55200   1.56201   1.56730   1.57140   1.57262
 Alpha virt. eigenvalues --    1.58019   1.58070   1.58671   1.59195   1.59591
 Alpha virt. eigenvalues --    1.59871   1.60267   1.60599   1.61384   1.61967
 Alpha virt. eigenvalues --    1.62259   1.63145   1.63754   1.63974   1.65163
 Alpha virt. eigenvalues --    1.65877   1.66693   1.67137   1.67523   1.68720
 Alpha virt. eigenvalues --    1.69475   1.70417   1.70824   1.71753   1.72331
 Alpha virt. eigenvalues --    1.73462   1.73622   1.74316   1.74396   1.74633
 Alpha virt. eigenvalues --    1.75394   1.75484   1.75823   1.76225   1.76569
 Alpha virt. eigenvalues --    1.77482   1.78051   1.78152   1.78743   1.79212
 Alpha virt. eigenvalues --    1.79440   1.80087   1.80266   1.80567   1.80964
 Alpha virt. eigenvalues --    1.81612   1.81672   1.81906   1.82246   1.82983
 Alpha virt. eigenvalues --    1.83417   1.83842   1.84123   1.84557   1.85334
 Alpha virt. eigenvalues --    1.85527   1.86187   1.86558   1.87071   1.87624
 Alpha virt. eigenvalues --    1.87851   1.88283   1.89041   1.89624   1.90007
 Alpha virt. eigenvalues --    1.90370   1.90915   1.91419   1.91722   1.91991
 Alpha virt. eigenvalues --    1.92643   1.92949   1.93754   1.94712   1.96072
 Alpha virt. eigenvalues --    1.96482   1.98253   2.00186   2.00654   2.01181
 Alpha virt. eigenvalues --    2.03174   2.04114   2.11906   2.17410   2.18340
 Alpha virt. eigenvalues --    2.20280   2.20423   2.21013   2.21288   2.21328
 Alpha virt. eigenvalues --    2.21598   2.21913   2.22129   2.22168   2.22331
 Alpha virt. eigenvalues --    2.22874   2.23327   2.23524   2.24481   2.24704
 Alpha virt. eigenvalues --    2.24797   2.25323   2.25555   2.26151   2.26366
 Alpha virt. eigenvalues --    2.26957   2.27048   2.27172   2.27265   2.27714
 Alpha virt. eigenvalues --    2.28074   2.28543   2.28853   2.29093   2.29275
 Alpha virt. eigenvalues --    2.29411   2.29915   2.30277   2.30771   2.31319
 Alpha virt. eigenvalues --    2.31593   2.32456   2.32896   2.34102   2.34530
 Alpha virt. eigenvalues --    2.34797   2.35689   2.36672   2.37335   2.38137
 Alpha virt. eigenvalues --    2.39108   2.41119   2.42181   2.42363   2.44780
 Alpha virt. eigenvalues --    2.47583   2.48292   2.48811   2.50812   2.52101
 Alpha virt. eigenvalues --    2.52675   2.54294   2.57131   2.58062   2.60889
 Alpha virt. eigenvalues --    2.61634   2.66547   2.94726   2.95736   2.96789
 Alpha virt. eigenvalues --    2.96974   2.98161   2.98331   2.98987   2.99292
 Alpha virt. eigenvalues --    2.99471   2.99664   2.99905   2.99929   3.00726
 Alpha virt. eigenvalues --    3.00906   3.01388   3.01661   3.01768   3.02173
 Alpha virt. eigenvalues --    3.02366   3.02688   3.03020   3.03131   3.03136
 Alpha virt. eigenvalues --    3.03155   3.03244   3.03335   3.03699   3.03876
 Alpha virt. eigenvalues --    3.03895   3.04061   3.04270   3.04362   3.04516
 Alpha virt. eigenvalues --    3.04706   3.04960   3.05279   3.05349   3.06181
 Alpha virt. eigenvalues --    3.06340   3.06437   3.07081   3.07462   3.07658
 Alpha virt. eigenvalues --    3.07821   3.07918   3.08035   3.08075   3.08895
 Alpha virt. eigenvalues --    3.08935   3.09336   3.09836   3.10008   3.10239
 Alpha virt. eigenvalues --    3.10681   3.10759   3.10972   3.11142   3.11472
 Alpha virt. eigenvalues --    3.12154   3.12498   3.15143   3.15741   3.17077
 Alpha virt. eigenvalues --    3.17875   3.18831   3.19501   3.19838   3.19873
 Alpha virt. eigenvalues --    3.20248   3.20592   3.20861   3.21678   3.22263
 Alpha virt. eigenvalues --    3.22968   3.23706   3.23739   3.24335   3.24405
 Alpha virt. eigenvalues --    3.25095   3.25231   3.25475   3.25897   3.25993
 Alpha virt. eigenvalues --    3.26179   3.26622   3.26913   3.27393   3.27553
 Alpha virt. eigenvalues --    3.28504   3.28934   3.29184   3.29571   3.30335
 Alpha virt. eigenvalues --    3.31195   3.31986   3.32692   3.53545   3.54239
 Alpha virt. eigenvalues --    3.54314   3.56444   3.57246   3.58000   3.58103
 Alpha virt. eigenvalues --    3.58812   3.59581   3.60221   3.60393   3.60672
 Alpha virt. eigenvalues --    3.61656   3.61885   3.62408   3.62637   3.63082
 Alpha virt. eigenvalues --    3.63813   3.64139   3.64838   3.65358   3.65541
 Alpha virt. eigenvalues --    3.65810   3.66272   3.67140   3.67239   3.67804
 Alpha virt. eigenvalues --    3.69064   3.69433   3.70305   3.71756   3.72131
 Alpha virt. eigenvalues --    3.81304   3.83086   3.84488   3.84630   3.85557
 Alpha virt. eigenvalues --    3.86033   3.86389   3.86596   3.86959   3.87498
 Alpha virt. eigenvalues --    3.89043   3.89494   3.89738   3.90020   3.91149
 Alpha virt. eigenvalues --    3.91399   3.91849   3.92555   3.92991   3.93313
 Alpha virt. eigenvalues --    3.93500   3.94054   3.95056   3.95218   3.95586
 Alpha virt. eigenvalues --    3.95867   3.96704   3.96861   3.97497   4.00293
 Alpha virt. eigenvalues --    4.00894   4.02942
          Condensed to atoms (all electrons):
 Mulliken charges:
               1
     1  Br  -0.717713
     2  O   -0.299001
     3  H    0.136647
     4  H    0.103252
     5  O   -0.274188
     6  H    0.118553
     7  H    0.128672
     8  O   -0.269832
     9  H    0.147004
    10  H    0.144704
    11  O   -0.247816
    12  H    0.149630
    13  H    0.157639
    14  O   -0.256474
    15  H    0.136927
    16  H    0.149662
    17  O   -0.307781
    18  H    0.142809
    19  H    0.122910
    20  O   -0.251262
    21  H    0.138105
    22  H    0.138683
    23  O   -0.228730
    24  H    0.131201
    25  H    0.129375
    26  O   -0.283707
    27  H    0.125040
    28  H    0.128969
    29  O   -0.234301
    30  H    0.132020
    31  H    0.126977
    32  O   -0.224978
    33  H    0.147146
    34  H    0.118817
    35  O   -0.265029
    36  H    0.123135
    37  H    0.131622
    38  O   -0.286790
    39  H    0.108055
    40  H    0.124388
    41  O   -0.275381
    42  H    0.146624
    43  H    0.133137
    44  O   -0.245347
    45  H    0.144895
    46  H    0.150900
    47  O   -0.299118
    48  H    0.135938
    49  H    0.120627
    50  O   -0.233280
    51  H    0.142501
    52  H    0.152456
    53  O   -0.322485
    54  H    0.124962
    55  H    0.122241
    56  O   -0.320407
    57  H    0.090900
    58  H    0.132446
    59  O   -0.265422
    60  H    0.135262
    61  H    0.147776
    62  O   -0.274904
    63  H    0.150740
    64  H    0.136654
    65  O   -0.272692
    66  H    0.143462
    67  H    0.146843
    68  O   -0.301205
    69  H    0.137487
    70  H    0.118740
    71  O   -0.313896
    72  H    0.132951
    73  H    0.134549
    74  O   -0.279642
    75  H    0.120665
    76  H    0.126475
    77  O   -0.255934
    78  H    0.128709
    79  H    0.136068
    80  O   -0.276297
    81  H    0.108347
    82  H    0.140061
    83  O   -0.303903
    84  H    0.126625
    85  H    0.117691
    86  O   -0.292459
    87  H    0.128166
    88  H    0.145640
    89  O   -0.254793
    90  H    0.140502
    91  H    0.118703
    92  O   -0.326643
    93  H    0.121990
    94  H    0.139078
    95  O   -0.242128
    96  H    0.154657
    97  H    0.126127
 Sum of Mulliken charges =  -1.00000
 Mulliken charges with hydrogens summed into heavy atoms:
               1
     1  Br  -0.717713
     2  O   -0.059102
     5  O   -0.026963
     8  O    0.021876
    11  O    0.059454
    14  O    0.030115
    17  O   -0.042062
    20  O    0.025525
    23  O    0.031846
    26  O   -0.029698
    29  O    0.024695
    32  O    0.040985
    35  O   -0.010272
    38  O   -0.054347
    41  O    0.004380
    44  O    0.050447
    47  O   -0.042553
    50  O    0.061677
    53  O   -0.075282
    56  O   -0.097060
    59  O    0.017616
    62  O    0.012489
    65  O    0.017613
    68  O   -0.044978
    71  O   -0.046396
    74  O   -0.032502
    77  O    0.008843
    80  O   -0.027889
    83  O   -0.059587
    86  O   -0.018653
    89  O    0.004413
    92  O   -0.065575
    95  O    0.038656
         Mulliken charges condensed to fragments:
      1     -0.717713
      2     -0.282287
 Electronic spatial extent (au):  <R**2>=        1513074.3755
 Charge=             -1.0000 electrons
 Dipole moment (field-independent basis, Debye):
    X=            -90.2143    Y=           -103.1393    Z=            -89.0400  Tot=            163.4150
 Quadrupole moment (field-independent basis, Debye-Ang):
   XX=          -1902.0878   YY=          -2559.1301   ZZ=          -1892.1069
   XY=          -1892.1747   XZ=          -1725.7675   YZ=          -1927.7559
 Traceless Quadrupole moment (field-independent basis, Debye-Ang):
   XX=            215.6871   YY=           -441.3551   ZZ=            225.6680
   XY=          -1892.1747   XZ=          -1725.7675   YZ=          -1927.7559
 Octapole moment (field-independent basis, Debye-Ang**2):
  XXX=         -43985.2020  YYY=         -68137.6638  ZZZ=         -44854.3682  XYY=         -46437.1287
  XXY=         -38647.5005  XXZ=         -37651.5607  XZZ=         -37762.4249  YZZ=         -40948.1343
  YYZ=         -48490.7913  XYZ=         -36235.9599
 Hexadecapole moment (field-independent basis, Debye-Ang**3):
 XXXX=       -1080443.7326 YYYY=       -1855242.2944 ZZZZ=       -1138365.1944 XXXY=        -866018.1448
 XXXZ=        -895773.0857 YYYX=       -1233805.8729 YYYZ=       -1307631.9512 ZZZX=        -913331.4981
 ZZZY=        -963675.5699 XXYY=        -921468.5294 XXZZ=        -840791.5610 YYZZ=       -1022802.5627
 XXYZ=        -761486.2321 YYXZ=        -894856.2276 ZZXY=        -789474.6449
 N-N= 6.011533420987D+03 E-N=-2.399288214084D+04  KE= 5.003116983926D+03
 No NMR shielding tensors so no spin-rotation constants.
 Leave Link  601 at Thu May  3 01:43:01 2018, MaxMem= 14763950080 cpu:        69.4
 (Enter /cm/shared/gaussian/g09.e01/intel64-sandybridge/g09/l701.exe)
 Compute integral first derivatives.
 ... and contract with generalized density number  0.
 Leave Link  701 at Thu May  3 01:43:04 2018, MaxMem= 14763950080 cpu:       137.4
 (Enter /cm/shared/gaussian/g09.e01/intel64-sandybridge/g09/l702.exe)
 L702 exits ... SP integral derivatives will be done elsewhere.
 Leave Link  702 at Thu May  3 01:43:04 2018, MaxMem= 14763950080 cpu:         4.2
 (Enter /cm/shared/gaussian/g09.e01/intel64-sandybridge/g09/l703.exe)
 Compute integral first derivatives, UseDBF=F ICtDFT=           0.
 Integral derivatives from FoFJK, PRISM(SPDF).
 Calling FoFJK, ICntrl=      2127 FMM=T ISym2X=0 I1Cent= 0 IOpClX= 0 NMat=1 NMatS=1 NMatT=0.
 FoFJK:  IHMeth= 1 ICntrl=    2127 DoSepK=F KAlg= 0 I1Cent=   0 FoldK=F
 IRaf=         0 NMat=   1 IRICut=       1 DoRegI=T DoRafI=F ISym2E= 0.
 FoFCou: FMM=T IPFlag=           0 FMFlag=      100000 FMFlg1=        2001
         NFxFlg=           0 DoJE=F BraDBF=F KetDBF=F FulRan=T
         wScrn=  0.000000 ICntrl=    2127 IOpCl=  0 I1Cent=           0 NGrid=           0
         NMat0=    1 NMatS0=      1 NMatT0=    0 NMatD0=    1 NMtDS0=    0 NMtDT0=    0
 Symmetry not used in FoFCou.
 FMM levels:  10  Number of levels for PrismC:   9
 Leave Link  703 at Thu May  3 01:43:19 2018, MaxMem= 14763950080 cpu:       951.0
 (Enter /cm/shared/gaussian/g09.e01/intel64-sandybridge/g09/l716.exe)
 Dipole        =-3.54930352D+01-4.05781288D+01-3.50310364D+01
 Cartesian Forces:  Max     0.036286292 RMS     0.009721437
 Leave Link  716 at Thu May  3 01:43:19 2018, MaxMem= 14763950080 cpu:         3.5
 (Enter /cm/shared/gaussian/g09.e01/intel64-sandybridge/g09/l122.exe)
 CPIOFr:  IOpCl= 0 IRwI=-1 IRwCP=  731 ICalc= -1 LCPTot=     1005244 Len1MO=     2550559 IndFrg=     1005244
 CPIOFr:  IOpCl= 0 IRwI=-1 IRwCP=  731 ICalc=  0 LCPTot=     1005244 Len1MO=     2550559 IndFrg=     3555803
 Counterpoise: doing DCBS calculation for fragment   1 NewBq=T
 Leave Link  122 at Thu May  3 01:43:19 2018, MaxMem= 14763950080 cpu:         7.0
 (Enter /cm/shared/gaussian/g09.e01/intel64-sandybridge/g09/l301.exe)
 Basis read from rwf:  (5D, 7F)
 No pseudopotential information found on rwf file.
   795 basis functions,  1651 primitive gaussians,   829 cartesian basis functions
    18 alpha electrons       18 beta electrons
       nuclear repulsion energy         0.0000000000 Hartrees.
 IExCor= 1009 DFT=T Ex+Corr=PBE1PBE ExCW=0 ScaHFX=  0.250000
 ScaDFX=  0.750000  0.750000  1.000000  1.000000 ScalE2=  1.000000  1.000000
 IRadAn=      0 IRanWt=     -1 IRanGd=            0 ICorTp=0 IEmpDi=  4
 NAtoms=   97 NActive=   97 NUniq=   97 SFac= 1.00D+00 NAtFMM=   60 NAOKFM=T Big=T
 Integral buffers will be    131072 words long.
 Raffenetti 2 integral format.
 Two-electron integral symmetry is turned off.
 No density basis found on file   718.
 Leave Link  301 at Thu May  3 01:43:19 2018, MaxMem= 14763950080 cpu:         4.7
 (Enter /cm/shared/gaussian/g09.e01/intel64-sandybridge/g09/l302.exe)
 NPDir=0 NMtPBC=     1 NCelOv=     1 NCel=       1 NClECP=     1 NCelD=      1
         NCelK=      1 NCelE2=     1 NClLst=     1 CellRange=     0.0.
 One-electron integrals computed using PRISM.
 NBasis=   795 RedAO= T EigKep=  1.65D-02  NBF=   795
 NBsUse=   795 1.00D-06 EigRej= -1.00D+00 NBFU=   795
 Precomputing XC quadrature grid using
 IXCGrd= 4 IRadAn=           0 IRanWt=          -1 IRanGd=           0 AccXCQ= 0.00D+00.
 Generated NRdTot=       0 NPtTot=           0 NUsed=           0 NTot=          32
 NSgBfM=   721   732   746   752   752 MxSgAt=    97 MxSgA2=    97.
 Leave Link  302 at Thu May  3 01:43:23 2018, MaxMem= 14763950080 cpu:       257.0
 (Enter /cm/shared/gaussian/g09.e01/intel64-sandybridge/g09/l303.exe)
 DipDrv:  MaxL=1.
 Leave Link  303 at Thu May  3 01:43:24 2018, MaxMem= 14763950080 cpu:        28.3
 (Enter /cm/shared/gaussian/g09.e01/intel64-sandybridge/g09/l401.exe)
 ExpMin= 1.22D-01 ExpMax= 6.40D+05 ExpMxC= 6.18D+03 IAcc=2 IRadAn=         4 AccDes= 0.00D+00
 Harris functional with IExCor= 1009 and IRadAn=       4 diagonalized for initial guess.
 HarFok:  IExCor= 1009 AccDes= 0.00D+00 IRadAn=         4 IDoV= 1 UseB2=F ITyADJ=14
 ICtDFT=  3500011 ScaDFX=  1.000000  1.000000  1.000000  1.000000
 FoFCou: FMM=F IPFlag=           0 FMFlag=      100000 FMFlg1=        2001
         NFxFlg=           0 DoJE=T BraDBF=F KetDBF=T FulRan=T
         wScrn=  0.000000 ICntrl=     500 IOpCl=  0 I1Cent=   200000004 NGrid=           0
         NMat0=    1 NMatS0=      1 NMatT0=    0 NMatD0=    1 NMtDS0=    0 NMtDT0=    0
 Symmetry not used in FoFCou.
 Harris En= -2574.01911955603    
 JPrj=0 DoOrth=F DoCkMO=F.
 Leave Link  401 at Thu May  3 01:43:30 2018, MaxMem= 14763950080 cpu:       388.7
 (Enter /cm/shared/gaussian/g09.e01/intel64-sandybridge/g09/l502.exe)
 Closed shell SCF:
 Using DIIS extrapolation, IDIIS=  1040.
 Two-electron integral symmetry not used.
 IVT=     2138497 IEndB=     2138497 NGot= 14763950080 MDV= 14762516294
 LenX= 14762516294 LenY= 14761828224
 Requested convergence on RMS density matrix=1.00D-08 within 128 cycles.
 Requested convergence on MAX density matrix=1.00D-06.
 Requested convergence on             energy=1.00D-06.
 No special actions if energy rises.
 Fock matrices will be formed incrementally for  20 cycles.
 Integral accuracy reduced to 1.0D-05 until final iterations.

 Cycle   1  Pass 0  IDiag  1:
 FoFJK:  IHMeth= 1 ICntrl=       0 DoSepK=F KAlg= 0 I1Cent=   0 FoldK=F
 IRaf= 810000000 NMat=   1 IRICut=       1 DoRegI=T DoRafI=F ISym2E= 0.
 FoFCou: FMM=T IPFlag=           0 FMFlag=      100000 FMFlg1=        2001
         NFxFlg=           0 DoJE=F BraDBF=F KetDBF=F FulRan=T
         wScrn=  0.000000 ICntrl=       0 IOpCl=  0 I1Cent=           0 NGrid=           0
         NMat0=    1 NMatS0=      1 NMatT0=    0 NMatD0=    1 NMtDS0=    0 NMtDT0=    0
 Symmetry not used in FoFCou.
 FMM levels:  10  Number of levels for PrismC:   9
 E= -2573.87927971714    
 DIIS: error= 9.52D-03 at cycle   1 NSaved=   1.
 NSaved= 1 IEnMin= 1 EnMin= -2573.87927971714     IErMin= 1 ErrMin= 9.52D-03
 ErrMax= 9.52D-03  0.00D+00 EMaxC= 1.00D-01 BMatC= 3.65D-02 BMatP= 3.65D-02
 IDIUse=3 WtCom= 9.05D-01 WtEn= 9.52D-02
 Coeff-Com:  0.100D+01
 Coeff-En:   0.100D+01
 Coeff:      0.100D+01
 Gap=     0.178 Goal=   None    Shift=    0.000
 GapD=    0.178 DampG=1.000 DampE=1.000 DampFc=1.0000 IDamp=-1.
 RMSDP=4.37D-04 MaxDP=7.09D-02              OVMax= 1.48D-01

 Cycle   2  Pass 0  IDiag  1:
 RMSU=  4.34D-04    CP:  9.93D-01
 E= -2573.90016160441     Delta-E=       -0.020881887274 Rises=F Damp=F
 DIIS: error= 3.52D-03 at cycle   2 NSaved=   2.
 NSaved= 2 IEnMin= 2 EnMin= -2573.90016160441     IErMin= 2 ErrMin= 3.52D-03
 ErrMax= 3.52D-03  0.00D+00 EMaxC= 1.00D-01 BMatC= 6.69D-03 BMatP= 3.65D-02
 IDIUse=3 WtCom= 9.65D-01 WtEn= 3.52D-02
 Coeff-Com:  0.218D+00 0.782D+00
 Coeff-En:   0.244D-02 0.998D+00
 Coeff:      0.211D+00 0.789D+00
 Gap=     0.191 Goal=   None    Shift=    0.000
 RMSDP=2.15D-04 MaxDP=5.14D-02 DE=-2.09D-02 OVMax= 6.50D-02

 Cycle   3  Pass 0  IDiag  1:
 RMSU=  1.35D-04    CP:  9.97D-01  6.19D-01
 E= -2573.90731227221     Delta-E=       -0.007150667797 Rises=F Damp=F
 DIIS: error= 2.87D-03 at cycle   3 NSaved=   3.
 NSaved= 3 IEnMin= 3 EnMin= -2573.90731227221     IErMin= 3 ErrMin= 2.87D-03
 ErrMax= 2.87D-03  0.00D+00 EMaxC= 1.00D-01 BMatC= 2.42D-03 BMatP= 6.69D-03
 IDIUse=3 WtCom= 9.71D-01 WtEn= 2.87D-02
 Coeff-Com:  0.572D-01 0.364D+00 0.578D+00
 Coeff-En:   0.000D+00 0.174D+00 0.826D+00
 Coeff:      0.556D-01 0.359D+00 0.585D+00
 Gap=     0.171 Goal=   None    Shift=    0.000
 RMSDP=7.43D-05 MaxDP=1.77D-02 DE=-7.15D-03 OVMax= 2.20D-02

 Cycle   4  Pass 0  IDiag  1:
 RMSU=  7.76D-06    CP:  9.95D-01  7.41D-01  6.24D-01
 E= -2573.91003488572     Delta-E=       -0.002722613518 Rises=F Damp=F
 DIIS: error= 7.83D-05 at cycle   4 NSaved=   4.
 NSaved= 4 IEnMin= 4 EnMin= -2573.91003488572     IErMin= 4 ErrMin= 7.83D-05
 ErrMax= 7.83D-05  0.00D+00 EMaxC= 1.00D-01 BMatC= 1.22D-06 BMatP= 2.42D-03
 IDIUse=1 WtCom= 1.00D+00 WtEn= 0.00D+00
 Coeff-Com: -0.823D-03 0.101D-01 0.328D-01 0.958D+00
 Coeff:     -0.823D-03 0.101D-01 0.328D-01 0.958D+00
 Gap=     0.171 Goal=   None    Shift=    0.000
 RMSDP=2.20D-06 MaxDP=4.88D-04 DE=-2.72D-03 OVMax= 6.57D-04

 Initial convergence to 1.0D-05 achieved.  Increase integral accuracy.
 Cycle   5  Pass 1  IDiag  1:
 E= -2573.91075136347     Delta-E=       -0.000716477746 Rises=F Damp=F
 DIIS: error= 1.27D-05 at cycle   1 NSaved=   1.
 NSaved= 1 IEnMin= 1 EnMin= -2573.91075136347     IErMin= 1 ErrMin= 1.27D-05
 ErrMax= 1.27D-05  0.00D+00 EMaxC= 1.00D-01 BMatC= 9.43D-08 BMatP= 9.43D-08
 IDIUse=1 WtCom= 1.00D+00 WtEn= 0.00D+00
 Coeff-Com:  0.100D+01
 Coeff:      0.100D+01
 Gap=     0.172 Goal=   None    Shift=    0.000
 RMSDP=2.20D-06 MaxDP=4.88D-04 DE=-7.16D-04 OVMax= 3.52D-04

 Cycle   6  Pass 1  IDiag  1:
 RMSU=  1.34D-06    CP:  1.00D+00
 E= -2573.91075150183     Delta-E=       -0.000000138361 Rises=F Damp=F
 DIIS: error= 1.10D-05 at cycle   2 NSaved=   2.
 NSaved= 2 IEnMin= 2 EnMin= -2573.91075150183     IErMin= 2 ErrMin= 1.10D-05
 ErrMax= 1.10D-05  0.00D+00 EMaxC= 1.00D-01 BMatC= 4.60D-08 BMatP= 9.43D-08
 IDIUse=1 WtCom= 1.00D+00 WtEn= 0.00D+00
 Coeff-Com:  0.391D+00 0.609D+00
 Coeff:      0.391D+00 0.609D+00
 Gap=     0.171 Goal=   None    Shift=    0.000
 RMSDP=3.96D-07 MaxDP=9.63D-05 DE=-1.38D-07 OVMax= 1.29D-04

 Cycle   7  Pass 1  IDiag  1:
 RMSU=  3.53D-07    CP:  1.00D+00  8.68D-01
 E= -2573.91075155754     Delta-E=       -0.000000055707 Rises=F Damp=F
 DIIS: error= 2.40D-06 at cycle   3 NSaved=   3.
 NSaved= 3 IEnMin= 3 EnMin= -2573.91075155754     IErMin= 3 ErrMin= 2.40D-06
 ErrMax= 2.40D-06  0.00D+00 EMaxC= 1.00D-01 BMatC= 1.75D-09 BMatP= 4.60D-08
 IDIUse=1 WtCom= 1.00D+00 WtEn= 0.00D+00
 Coeff-Com: -0.190D-01 0.145D+00 0.874D+00
 Coeff:     -0.190D-01 0.145D+00 0.874D+00
 Gap=     0.171 Goal=   None    Shift=    0.000
 RMSDP=7.66D-08 MaxDP=1.70D-05 DE=-5.57D-08 OVMax= 2.74D-05

 Cycle   8  Pass 1  IDiag  1:
 RMSU=  3.56D-08    CP:  1.00D+00  9.17D-01  9.48D-01
 E= -2573.91075155970     Delta-E=       -0.000000002157 Rises=F Damp=F
 DIIS: error= 4.44D-07 at cycle   4 NSaved=   4.
 NSaved= 4 IEnMin= 4 EnMin= -2573.91075155970     IErMin= 4 ErrMin= 4.44D-07
 ErrMax= 4.44D-07  0.00D+00 EMaxC= 1.00D-01 BMatC= 2.79D-11 BMatP= 1.75D-09
 IDIUse=1 WtCom= 1.00D+00 WtEn= 0.00D+00
 Coeff-Com: -0.950D-02 0.320D-01 0.178D+00 0.800D+00
 Coeff:     -0.950D-02 0.320D-01 0.178D+00 0.800D+00
 Gap=     0.171 Goal=   None    Shift=    0.000
 RMSDP=1.04D-08 MaxDP=1.12D-06 DE=-2.16D-09 OVMax= 4.22D-06

 Cycle   9  Pass 1  IDiag  1:
 RMSU=  8.98D-09    CP:  1.00D+00  9.21D-01  9.47D-01  1.01D+00
 E= -2573.91075155978     Delta-E=       -0.000000000080 Rises=F Damp=F
 DIIS: error= 1.28D-07 at cycle   5 NSaved=   5.
 NSaved= 5 IEnMin= 5 EnMin= -2573.91075155978     IErMin= 5 ErrMin= 1.28D-07
 ErrMax= 1.28D-07  0.00D+00 EMaxC= 1.00D-01 BMatC= 2.70D-12 BMatP= 2.79D-11
 IDIUse=1 WtCom= 1.00D+00 WtEn= 0.00D+00
 Coeff-Com: -0.828D-03-0.182D-02-0.262D-01 0.216D+00 0.813D+00
 Coeff:     -0.828D-03-0.182D-02-0.262D-01 0.216D+00 0.813D+00
 Gap=     0.171 Goal=   None    Shift=    0.000
 RMSDP=3.44D-09 MaxDP=4.72D-07 DE=-8.00D-11 OVMax= 1.48D-06

 SCF Done:  E(RPBE1PBE) =  -2573.91075156     A.U. after    9 cycles
            NFock=  9  Conv=0.34D-08     -V/T= 2.0013
 KE= 2.570522326423D+03 PE=-6.163027986964D+03 EE= 1.018594908981D+03
 Leave Link  502 at Thu May  3 01:44:54 2018, MaxMem= 14763950080 cpu:      5317.0
 (Enter /cm/shared/gaussian/g09.e01/intel64-sandybridge/g09/l601.exe)
 Copying SCF densities to generalized density rwf, IOpCl= 0 IROHF=0.

 **********************************************************************

            Population analysis using the SCF density.

 **********************************************************************

 Alpha  occ. eigenvalues -- -482.98646 -62.38803 -56.16059 -56.16056 -56.16047
 Alpha  occ. eigenvalues --   -8.48938  -6.29260  -6.29250  -6.29218  -2.37528
 Alpha  occ. eigenvalues --   -2.37527  -2.37502  -2.37493  -2.37486  -0.46998
 Alpha  occ. eigenvalues --   -0.02894  -0.02884  -0.02841
 Alpha virt. eigenvalues --    0.14301   0.15609   0.16182   0.16770   0.18059
 Alpha virt. eigenvalues --    0.18435   0.19011   0.19680   0.20139   0.21303
 Alpha virt. eigenvalues --    0.21835   0.22224   0.22545   0.22987   0.24123
 Alpha virt. eigenvalues --    0.24388   0.24686   0.25410   0.25750   0.26234
 Alpha virt. eigenvalues --    0.26646   0.26991   0.27594   0.28087   0.29214
 Alpha virt. eigenvalues --    0.29281   0.29715   0.30289   0.30936   0.31098
 Alpha virt. eigenvalues --    0.31968   0.32127   0.32753   0.33608   0.34805
 Alpha virt. eigenvalues --    0.35038   0.35618   0.35761   0.36284   0.36584
 Alpha virt. eigenvalues --    0.36722   0.37207   0.37648   0.38242   0.38771
 Alpha virt. eigenvalues --    0.39357   0.39725   0.39906   0.40551   0.41101
 Alpha virt. eigenvalues --    0.41653   0.42075   0.42775   0.43536   0.44046
 Alpha virt. eigenvalues --    0.44831   0.45421   0.46090   0.46584   0.47175
 Alpha virt. eigenvalues --    0.47765   0.49096   0.49739   0.50601   0.61026
 Alpha virt. eigenvalues --    0.62194   0.62578   0.62947   0.63348   0.63423
 Alpha virt. eigenvalues --    0.64167   0.64826   0.65521   0.65566   0.66177
 Alpha virt. eigenvalues --    0.66283   0.66744   0.67951   0.68209   0.68763
 Alpha virt. eigenvalues --    0.69016   0.69876   0.70388   0.71096   0.71325
 Alpha virt. eigenvalues --    0.71876   0.72006   0.72398   0.73176   0.73453
 Alpha virt. eigenvalues --    0.73567   0.74124   0.74261   0.74684   0.74762
 Alpha virt. eigenvalues --    0.75223   0.75549   0.75762   0.76250   0.76791
 Alpha virt. eigenvalues --    0.77236   0.77290   0.77670   0.78008   0.78149
 Alpha virt. eigenvalues --    0.78864   0.79276   0.79765   0.80095   0.80119
 Alpha virt. eigenvalues --    0.80545   0.80886   0.81025   0.81090   0.81142
 Alpha virt. eigenvalues --    0.81704   0.81927   0.82142   0.82674   0.83093
 Alpha virt. eigenvalues --    0.83302   0.83474   0.83765   0.83914   0.84304
 Alpha virt. eigenvalues --    0.84627   0.85047   0.85775   0.86322   0.86386
 Alpha virt. eigenvalues --    0.86689   0.87064   0.87702   0.88221   0.88475
 Alpha virt. eigenvalues --    0.89078   0.89384   0.89658   0.90043   0.90755
 Alpha virt. eigenvalues --    0.90887   0.91178   0.91863   0.92184   0.92499
 Alpha virt. eigenvalues --    0.92719   0.93234   0.93450   0.93670   0.94076
 Alpha virt. eigenvalues --    0.94458   0.94858   0.95837   0.96251   0.96631
 Alpha virt. eigenvalues --    0.96836   0.97180   0.97309   0.97560   0.97808
 Alpha virt. eigenvalues --    0.98115   0.98796   0.98892   0.99377   1.00198
 Alpha virt. eigenvalues --    1.00706   1.00810   1.01353   1.01786   1.02670
 Alpha virt. eigenvalues --    1.03239   1.03998   1.04864   1.05669   1.06312
 Alpha virt. eigenvalues --    1.06617   1.07481   1.07783   1.08205   1.08393
 Alpha virt. eigenvalues --    1.08976   1.09679   1.10133   1.10309   1.10562
 Alpha virt. eigenvalues --    1.11174   1.11744   1.11966   1.12580   1.13637
 Alpha virt. eigenvalues --    1.14379   1.14925   1.15675   1.16495   1.17714
 Alpha virt. eigenvalues --    1.18734   1.20399   1.22008   1.22338   1.25328
 Alpha virt. eigenvalues --    1.27208   1.64197   1.65704   1.66905   1.67448
 Alpha virt. eigenvalues --    1.68155   1.69257   1.69300   1.69937   1.70784
 Alpha virt. eigenvalues --    1.70911   1.71349   1.71771   1.71927   1.72141
 Alpha virt. eigenvalues --    1.72596   1.72853   1.73123   1.73328   1.73485
 Alpha virt. eigenvalues --    1.74054   1.74479   1.74740   1.75010   1.75222
 Alpha virt. eigenvalues --    1.75522   1.75704   1.75963   1.76120   1.76387
 Alpha virt. eigenvalues --    1.76575   1.77343   1.77870   1.78247   1.78476
 Alpha virt. eigenvalues --    1.78644   1.78895   1.79115   1.79443   1.79916
 Alpha virt. eigenvalues --    1.80399   1.80517   1.80921   1.81449   1.81859
 Alpha virt. eigenvalues --    1.82331   1.83158   1.83572   1.83761   1.84335
 Alpha virt. eigenvalues --    1.84639   1.85111   1.85957   1.86241   1.86462
 Alpha virt. eigenvalues --    1.87183   1.88072   1.88639   1.88960   1.89864
 Alpha virt. eigenvalues --    1.90543   1.91084   1.91279   1.91540   1.95167
 Alpha virt. eigenvalues --    1.95608   1.96341   1.97016   1.98354   1.98692
 Alpha virt. eigenvalues --    1.99055   1.99418   1.99615   1.99841   2.00333
 Alpha virt. eigenvalues --    2.01108   2.01487   2.01762   2.02013   2.02089
 Alpha virt. eigenvalues --    2.02449   2.02614   2.02718   2.02947   2.03011
 Alpha virt. eigenvalues --    2.03133   2.03219   2.03504   2.03958   2.04173
 Alpha virt. eigenvalues --    2.04597   2.04642   2.05047   2.05123   2.05784
 Alpha virt. eigenvalues --    2.05978   2.06504   2.06766   2.07407   2.08016
 Alpha virt. eigenvalues --    2.08081   2.08205   2.08333   2.09027   2.09225
 Alpha virt. eigenvalues --    2.10286   2.10716   2.11282   2.11965   2.12427
 Alpha virt. eigenvalues --    2.12461   2.12784   2.13133   2.13394   2.13979
 Alpha virt. eigenvalues --    2.14462   2.14953   2.15458   2.15670   2.16212
 Alpha virt. eigenvalues --    2.16611   2.16836   2.17268   2.17681   2.18098
 Alpha virt. eigenvalues --    2.18202   2.18374   2.18979   2.19671   2.19794
 Alpha virt. eigenvalues --    2.20060   2.20626   2.21029   2.21380   2.22077
 Alpha virt. eigenvalues --    2.22569   2.22979   2.23131   2.23602   2.24107
 Alpha virt. eigenvalues --    2.24598   2.25295   2.25684   2.25966   2.26373
 Alpha virt. eigenvalues --    2.27695   2.28389   2.28882   2.29269   2.30661
 Alpha virt. eigenvalues --    2.32649   2.33083   2.33525   2.33698   2.34281
 Alpha virt. eigenvalues --    2.35664   2.35866   2.36395   2.36431   2.37673
 Alpha virt. eigenvalues --    2.39068   2.39893   2.40677   2.41538   2.42461
 Alpha virt. eigenvalues --    2.42536   2.43174   2.43338   2.43645   2.43831
 Alpha virt. eigenvalues --    2.44231   2.44829   2.44968   2.45069   2.45719
 Alpha virt. eigenvalues --    2.46250   2.46927   2.47341   2.48813   2.48953
 Alpha virt. eigenvalues --    2.49118   2.49644   2.49900   2.50819   2.50956
 Alpha virt. eigenvalues --    2.51134   2.52351   2.53165   2.54303   2.54491
 Alpha virt. eigenvalues --    2.55555   2.56291   2.58073   2.66696   2.68513
 Alpha virt. eigenvalues --    2.68698   2.69245   2.69315   2.69839   2.70133
 Alpha virt. eigenvalues --    2.71071   2.71508   2.72354   2.72372   2.72794
 Alpha virt. eigenvalues --    2.73515   2.73946   2.74571   2.75635   2.76268
 Alpha virt. eigenvalues --    2.76634   2.78067   2.78630   2.79735   2.80240
 Alpha virt. eigenvalues --    2.80470   2.80942   2.82003   2.82215   2.83259
 Alpha virt. eigenvalues --    2.83476   2.83965   2.84700   2.85246   2.85520
 Alpha virt. eigenvalues --    2.85922   2.86387   2.86704   2.86709   2.87601
 Alpha virt. eigenvalues --    2.88790   2.89524   2.89568   2.89878   2.90866
 Alpha virt. eigenvalues --    2.91178   2.91760   2.92408   2.93257   2.93963
 Alpha virt. eigenvalues --    2.94334   2.94509   2.95497   2.95915   2.97208
 Alpha virt. eigenvalues --    2.97503   2.98358   2.99206   2.99902   3.00198
 Alpha virt. eigenvalues --    3.01753   3.02042   3.02856   3.04270   3.04858
 Alpha virt. eigenvalues --    3.07414   3.09543   3.14157   3.14851   3.16553
 Alpha virt. eigenvalues --    3.17424   3.17584   3.18937   3.19564   3.21051
 Alpha virt. eigenvalues --    3.21591   3.23350   3.23638   3.24701   3.26284
 Alpha virt. eigenvalues --    3.27428   3.29076   3.30628   3.31116   3.32172
 Alpha virt. eigenvalues --    3.35831   3.36359   3.38370   3.41075   3.41480
 Alpha virt. eigenvalues --    3.46640   3.47806   3.49585   3.49859   3.52337
 Alpha virt. eigenvalues --    3.54766   3.55382   3.56572   3.63900   4.50551
 Alpha virt. eigenvalues --    4.51528   4.51836   4.52150   4.52324   4.52356
 Alpha virt. eigenvalues --    4.52604   4.52751   4.52794   4.52940   4.53132
 Alpha virt. eigenvalues --    4.53351   4.53614   4.53659   4.53907   4.54237
 Alpha virt. eigenvalues --    4.54271   4.54300   4.54442   4.54609   4.54813
 Alpha virt. eigenvalues --    4.55092   4.55359   4.55420   4.55823   4.55964
 Alpha virt. eigenvalues --    4.55997   4.56328   4.56430   4.56529   4.56987
 Alpha virt. eigenvalues --    4.57007   4.59321   4.59544   4.59773   4.60138
 Alpha virt. eigenvalues --    4.60244   4.60332   4.60469   4.60737   4.60829
 Alpha virt. eigenvalues --    4.60849   4.61113   4.61312   4.61470   4.61494
 Alpha virt. eigenvalues --    4.61639   4.61923   4.61938   4.62130   4.62407
 Alpha virt. eigenvalues --    4.62796   4.63021   4.63281   4.63411   4.63652
 Alpha virt. eigenvalues --    4.63819   4.64008   4.64154   4.64464   4.65115
 Alpha virt. eigenvalues --    4.65668   4.66866   4.71563   4.75151   4.75202
 Alpha virt. eigenvalues --    4.75478   4.75817   4.76140   4.76319   4.76931
 Alpha virt. eigenvalues --    4.77345   4.77429   4.77736   4.77948   4.79176
 Alpha virt. eigenvalues --    4.79565   4.79691   4.79944   4.80017   4.80592
 Alpha virt. eigenvalues --    4.80716   4.80852   4.81286   4.81473   4.81931
 Alpha virt. eigenvalues --    4.82143   4.82350   4.82629   4.82926   4.83183
 Alpha virt. eigenvalues --    4.83205   4.83467   4.83675   4.85162   4.85862
 Alpha virt. eigenvalues --    4.86779   4.86953   4.87270   4.87522   4.87646
 Alpha virt. eigenvalues --    4.87856   4.88485   4.88765   4.89035   4.89482
 Alpha virt. eigenvalues --    4.90225   4.90293   4.90736   4.91127   4.91359
 Alpha virt. eigenvalues --    4.91807   4.92260   4.92523   4.92716   4.94052
 Alpha virt. eigenvalues --    4.94633   4.95185   4.95618   4.96748   4.96846
 Alpha virt. eigenvalues --    4.98517   4.99069   4.99358   4.99751   4.99829
 Alpha virt. eigenvalues --    5.01408   5.02831   5.03870   5.05808   5.06197
[...]
   Z21       36.64179  -0.00086   0.00000  -0.00462  -0.00633  36.63546
   X22       44.42746  -0.00081   0.00000  -0.01501  -0.01545  44.41202
   Y22       41.30941  -0.00259   0.00000  -0.00047   0.00050  41.30992
   Z22       34.39302  -0.01190   0.00000  -0.00781  -0.00971  34.38330
   X23       37.05753  -0.00912   0.00000  -0.01992  -0.02068  37.03685
   Y23       45.22115  -0.00840   0.00000  -0.01895  -0.01952  45.20163
   Z23       35.75362  -0.01063   0.00000  -0.05350  -0.05264  35.70098
   X24       37.60555   0.00186   0.00000  -0.00042  -0.00159  37.60396
   Y24       46.90300   0.00586   0.00000   0.00624   0.00582  46.90882
   Z24       35.33788   0.00690   0.00000   0.03402   0.03497  35.37284
   X25       38.58821   0.00090   0.00000  -0.00579  -0.00634  38.58186
   Y25       44.23849  -0.00134   0.00000  -0.00208  -0.00238  44.23611
   Z25       35.79141   0.00416   0.00000   0.01789   0.01816  35.80957
   X26       41.27162   0.00455   0.00000   0.02485   0.02540  41.29702
   Y26       44.74871   0.01410   0.00000   0.01743   0.01703  44.76575
   Z26       39.81653  -0.00708   0.00000   0.00727   0.00681  39.82334
   X27       42.12200   0.00508   0.00000   0.00914   0.00955  42.13154
   Y27       43.61488  -0.00130   0.00000   0.00898   0.00891  43.62379
   Z27       38.68269  -0.00770   0.00000  -0.01394  -0.01483  38.66787
   X28       41.15824  -0.00928   0.00000  -0.03535  -0.03417  41.12407
   Y28       43.84165  -0.01074   0.00000  -0.01592  -0.01658  43.82507
   Z28       41.36611   0.01633   0.00000   0.01364   0.01309  41.37919
   X29       34.73317  -0.00902   0.00000  -0.02363  -0.02071  34.71245
   Y29       39.47638   0.01036   0.00000   0.00336   0.00106  39.47744
   Z29       44.54084   0.00284   0.00000   0.02494   0.02565  44.56650
   X30       33.52374  -0.00363   0.00000  -0.00884  -0.00598  33.51776
   Y30       38.41813  -0.00313   0.00000  -0.00051  -0.00290  38.41523
   Z30       43.70937  -0.00245   0.00000  -0.00541  -0.00450  43.70487
   X31       35.86700   0.00500   0.00000  -0.01010  -0.00673  35.86027
   Y31       38.32365  -0.01305   0.00000  -0.02085  -0.02306  38.30059
   Z31       45.33453   0.00861   0.00000   0.01609   0.01629  45.35082
   X32       36.13156  -0.01027   0.00000   0.00593   0.00547  36.13703
   Y32       34.37412  -0.00764   0.00000  -0.02089  -0.02078  34.35334
   Z32       30.00885   0.00083   0.00000   0.01670   0.01623  30.02508
   X33       36.69848   0.00316   0.00000   0.01056   0.01007  36.70855
   Y33       32.93793  -0.00434   0.00000  -0.00599  -0.00564  32.93229
   Z33       29.06399  -0.00566   0.00000  -0.01560  -0.01644  29.04754
   X34       37.64334   0.01626   0.00000   0.02327   0.02287  37.66621
   Y34       35.11111   0.00823   0.00000   0.01077   0.01105  35.12217
   Z34       30.67026   0.00646   0.00000   0.00626   0.00545  30.67570
   X35       38.55041  -0.01455   0.00000  -0.02050  -0.01680  38.53361
   Y35       30.72695  -0.00943   0.00000   0.00721   0.00602  30.73296
   Z35       41.78184  -0.00255   0.00000   0.00792   0.00621  41.78805
   X36       37.26540  -0.00210   0.00000  -0.00289   0.00103  37.26643
   Y36       31.33166   0.00667   0.00000   0.02770   0.02610  31.35776
   Z36       42.91568   0.00686   0.00000   0.02409   0.02284  42.93852
   X37       39.94881   0.01986   0.00000   0.02553   0.02912  39.97793
   Y37       31.82299   0.01056   0.00000   0.00277   0.00180  31.82479
   Z37       42.08420  -0.00027   0.00000  -0.01120  -0.01318  42.07102
   X38       37.05753   0.00992   0.00000   0.00867   0.00669  37.06422
   Y38       41.17713   0.01617   0.00000   0.00895   0.00937  41.18650
   Z38       29.12068   0.00173   0.00000  -0.01521  -0.01494  29.10574
   X39       35.73472  -0.01714   0.00000  -0.02257  -0.02462  35.71010
   Y39       40.27006  -0.01364   0.00000  -0.02009  -0.01981  40.25025
   Z39       28.30810  -0.00584   0.00000   0.00499   0.00552  28.31362
   X40       38.11578   0.00497   0.00000   0.00863   0.00710  38.12288
   Y40       39.89212  -0.00457   0.00000   0.00186   0.00236  39.89448
   Z40       29.83878   0.00234   0.00000   0.00058   0.00034  29.83912
   X41       29.13958  -0.00012   0.00000   0.00561   0.00807  29.14765
   Y41       38.39924  -0.01909   0.00000  -0.00293  -0.00592  38.39331
   Z41       42.34876   0.00459   0.00000  -0.00407  -0.00187  42.34690
   X42       27.64669  -0.00734   0.00000  -0.00242   0.00002  27.64671
   Y42       39.28741   0.00663   0.00000   0.00957   0.00623  39.29363
   Z42       42.82119   0.00412   0.00000   0.00660   0.00938  42.83058
   X43       30.21672   0.01112   0.00000   0.00477   0.00677  30.22349
   Y43       39.66535   0.01600   0.00000   0.01785   0.01516  39.68051
   Z43       41.63067  -0.01678   0.00000  -0.04530  -0.04322  41.58744
   X44       44.86210  -0.00409   0.00000   0.00162   0.00220  44.86430
   Y44       34.50640  -0.00270   0.00000  -0.00282  -0.00165  34.50475
   Z44       33.63713  -0.01013   0.00000  -0.01156  -0.01460  33.62253
   X45       45.65578   0.00219   0.00000  -0.00802  -0.00711  45.64867
   Y45       35.18670   0.00200   0.00000  -0.00487  -0.00378  35.18292
   Z45       35.11111   0.00931   0.00000   0.01270   0.00953  35.12064
   X46       46.14711   0.00287   0.00000   0.00772   0.00828  46.15539
   Y46       33.46705  -0.00408   0.00000  -0.01588  -0.01437  33.45268
   Z46       32.88123   0.00206   0.00000   0.01189   0.00831  32.88955
   X47       43.95503   0.01778   0.00000   0.02943   0.03223  43.98726
   Y47       29.57421  -0.00324   0.00000  -0.00221  -0.00185  29.57237
   Z47       38.05908   0.00665   0.00000  -0.00383  -0.00733  38.05175
   X48       42.95348  -0.00672   0.00000  -0.01213  -0.00922  42.94425
   Y48       28.15692   0.00165   0.00000   0.01444   0.01468  28.17160
   Z48       37.52996  -0.00337   0.00000   0.00128  -0.00212  37.52784
   X49       43.25583  -0.01290   0.00000  -0.03403  -0.03175  43.22408
   Y49       30.99151   0.00347   0.00000  -0.00451  -0.00416  30.98735
   Z49       37.17091  -0.00297   0.00000   0.01218   0.00911  37.18003
   X50       44.65423   0.00264   0.00000   0.00715   0.00980  44.66402
   Y50       38.72049   0.00188   0.00000   0.01365   0.01338  38.73387
   Z50       43.18024  -0.01429   0.00000  -0.01802  -0.02037  43.15987
   X51       46.27939   0.00161   0.00000   0.00939   0.01203  46.29142
   Y51       38.04019   0.00115   0.00000   0.00280   0.00289  38.04307
   Z51       42.70781   0.00420   0.00000   0.01488   0.01194  42.71975
   X52       44.74871  -0.00243   0.00000  -0.01760  -0.01446  44.73426
   Y52       38.90946  -0.00120   0.00000  -0.00730  -0.00783  38.90163
   Z52       44.97548   0.00813   0.00000   0.00045  -0.00190  44.97359
   X53       33.56154  -0.01398   0.00000  -0.00929  -0.01133  33.55020
   Y53       45.06997   0.00694   0.00000   0.00810   0.00755  45.07751
   Z53       31.33166  -0.01239   0.00000  -0.01391  -0.01203  31.31963
   X54       34.54419   0.00636   0.00000   0.01773   0.01544  34.55963
   Y54       44.33298  -0.00459   0.00000  -0.01336  -0.01354  44.31943
   Z54       29.98995   0.00375   0.00000   0.01351   0.01498  30.00493
   X55       34.50640   0.01035   0.00000   0.00802   0.00650  34.51290
   Y55       44.69202  -0.00365   0.00000   0.00168   0.00108  44.69310
   Z55       32.82454   0.01053   0.00000   0.00227   0.00381  32.82835
   X56       32.63557  -0.00605   0.00000   0.00033   0.00009  32.63566
   Y56       47.14867   0.01194   0.00000   0.02559   0.02378  47.17245
   Z56       38.66380   0.00058   0.00000  -0.00598  -0.00351  38.66029
   X57       32.55998  -0.00323   0.00000  -0.01942  -0.01903  32.54096
   Y57       46.20380  -0.00301   0.00000  -0.00123  -0.00329  46.20052
   Z57       40.21337  -0.00227   0.00000  -0.01798  -0.01563  40.19774
   X58       33.90169   0.00662   0.00000   0.00706   0.00670  33.90838
   Y58       46.29829  -0.00581   0.00000  -0.00523  -0.00666  46.29163
   Z58       37.68114  -0.00045   0.00000   0.00672   0.00868  37.68982
   X59       31.36945   0.02152   0.00000   0.01196   0.01579  31.38524
   Y59       34.60089  -0.01722   0.00000  -0.02899  -0.03191  34.56898
   Z59       44.59754   0.01266   0.00000  -0.00479  -0.00382  44.59372
   X60       30.04665  -0.01009   0.00000  -0.01868  -0.01449  30.03216
   Y60       33.50484  -0.00650   0.00000  -0.00855  -0.01180  33.49305
   Z60       45.12666   0.00311   0.00000   0.00598   0.00720  45.13386
   X61       30.59467  -0.01453   0.00000  -0.01849  -0.01523  30.57944
   Y61       35.71582   0.01900   0.00000   0.02631   0.02342  35.73925
   Z61       43.40701  -0.01297   0.00000   0.00629   0.00768  43.41469
   X62       35.86700   0.02522   0.00000   0.01375   0.01835  35.88535
   Y62       33.44815  -0.00277   0.00000  -0.00771  -0.01009  33.43807
   Z62       46.50616   0.00193   0.00000  -0.00485  -0.00538  46.50078
   X63       34.26073  -0.02158   0.00000  -0.01749  -0.01319  34.24755
   Y63       33.76941   0.00869   0.00000   0.02498   0.02243  33.79183
   Z63       45.73137  -0.01070   0.00000  -0.01123  -0.01121  45.72016
   X64       35.48906  -0.00316   0.00000  -0.00860  -0.00338  35.48567
   Y64       32.50329  -0.00368   0.00000  -0.00002  -0.00269  32.50060
   Z64       47.99904   0.00694   0.00000   0.00798   0.00743  48.00648
   X65       30.87813  -0.01027   0.00000  -0.01042  -0.00876  30.86937
   Y65       44.72982   0.01082   0.00000   0.00444   0.00158  44.73140
   Z65       43.55819   0.01024   0.00000   0.00998   0.01261  43.57080
   X66       31.89858   0.01059   0.00000   0.00623   0.00789  31.90647
   Y66       43.46370  -0.00998   0.00000  -0.00127  -0.00382  43.45988
   Z66       42.78340  -0.00895   0.00000  -0.01586  -0.01372  42.76968
   X67       32.06865   0.00092   0.00000   0.00376   0.00545  32.07410
   Y67       45.86365  -0.00353   0.00000  -0.00629  -0.00904  45.85461
   Z67       44.35187  -0.00140   0.00000  -0.00304  -0.00060  44.35127
   X68       36.26384  -0.02190   0.00000  -0.04383  -0.04032  36.22352
   Y68       27.15536  -0.00315   0.00000  -0.00676  -0.00795  27.14741
   Z68       38.92836  -0.01674   0.00000  -0.00341  -0.00496  38.92340
   X69       36.84966   0.01317   0.00000   0.02650   0.03008  36.87974
   Y69       28.47817   0.00741   0.00000  -0.00233  -0.00356  28.47461
   Z69       40.00550   0.00847   0.00000  -0.00570  -0.00726  39.99825
   X70       37.13312   0.00908   0.00000   0.00738   0.01131  37.14443
   Y70       25.68138  -0.00706   0.00000   0.00098  -0.00013  25.68125
   Z70       39.47638   0.00490   0.00000  -0.00214  -0.00418  39.47220
   X71       32.50329  -0.00455   0.00000   0.01727   0.01575  32.51904
   Y71       37.54886   0.01455   0.00000   0.04022   0.03990  37.58875
   Z71       28.47817  -0.01195   0.00000  -0.02430  -0.02322  28.45496
   X72       33.86389   0.00675   0.00000  -0.00803  -0.00919  33.85470
   Y72       36.45282  -0.01029   0.00000  -0.01438  -0.01453  36.43828
   Z72       28.95060   0.00403   0.00000   0.00167   0.00219  28.95279
   X73       32.03086  -0.00518   0.00000  -0.01916  -0.02036  32.01050
   Y73       38.38034   0.00217   0.00000   0.00361   0.00296  38.38330
   Z73       30.02775   0.00188   0.00000  -0.00773  -0.00638  30.02137
   X74       40.32676   0.01279   0.00000   0.03257   0.03395  40.36071
   Y74       28.02464  -0.00594   0.00000  -0.00752  -0.00698  28.01766
   Z74       32.33321   0.00085   0.00000  -0.01698  -0.01964  32.31358
   X75       39.19292  -0.00844   0.00000  -0.01547  -0.01452  39.17840
   Y75       28.11912   0.00133   0.00000   0.00232   0.00285  28.12198
   Z75       30.93482  -0.00544   0.00000   0.00441   0.00212  30.93694
   X76       40.66691  -0.00523   0.00000  -0.02557  -0.02437  40.64254
   Y76       29.76319   0.00321   0.00000  -0.00178  -0.00126  29.76193
   Z76       32.74895   0.00860   0.00000   0.03572   0.03323  32.78219
   X77       41.04485   0.01738   0.00000   0.00372   0.00850  41.05335
   Y77       33.05131   0.00661   0.00000   0.00781   0.00632  33.05763
   Z77       46.82741   0.00902   0.00000   0.04126   0.03914  46.86655
   X78       40.74250  -0.00326   0.00000  -0.00577  -0.00069  40.74181
   Y78       31.27497  -0.01154   0.00000  -0.00723  -0.00875  31.26621
   Z78       46.78962  -0.00295   0.00000  -0.01076  -0.01305  46.77657
   X79       39.40079  -0.01631   0.00000  -0.02225  -0.01761  39.38318
   Y79       33.78830   0.00504   0.00000   0.00485   0.00307  33.79137
   Z79       46.84631  -0.00478   0.00000  -0.00386  -0.00537  46.84094
   X80       38.55041  -0.01344   0.00000  -0.01026  -0.01077  38.53964
   Y80       49.11398   0.02051   0.00000   0.03213   0.03135  49.14534
   Z80       38.98505  -0.00486   0.00000   0.00191   0.00291  38.98796
   X81       40.02440   0.00680   0.00000   0.01608   0.01525  40.03965
   Y81       50.00215  -0.00111   0.00000  -0.00138  -0.00180  50.00035
   Z81       38.41813   0.00150   0.00000   0.00537   0.00605  38.42418
   X82       39.19292   0.00865   0.00000   0.00326   0.00325  39.19617
   Y82       47.58330  -0.01522   0.00000  -0.01018  -0.01094  47.57236
   Z82       39.70315  -0.00086   0.00000  -0.02922  -0.02864  39.67450
   X83       31.80409   0.00409   0.00000   0.00790   0.00833  31.81242
   Y83       30.78364  -0.01170   0.00000  -0.01335  -0.01416  30.76948
   Z83       30.82143  -0.00870   0.00000  -0.00260  -0.00231  30.81912
   X84       30.65136  -0.00570   0.00000  -0.00653  -0.00584  30.64552
   Y84       31.38835   0.00714   0.00000   0.01228   0.01108  31.39943
   Z84       32.06865   0.00546   0.00000  -0.00580  -0.00507  32.06358
   X85       33.22139   0.00072   0.00000  -0.00753  -0.00727  33.21412
   Y85       31.91747   0.00750   0.00000   0.01683   0.01627  31.93374
   Z85       30.93482   0.00492   0.00000   0.01327   0.01332  30.94813
   X86       27.06088  -0.02110   0.00000  -0.01971  -0.01876  27.04212
   Y86       33.86389  -0.00294   0.00000   0.00421   0.00199  33.86588
   Z86       34.48750  -0.01819   0.00000  -0.02060  -0.01844  34.46906
   X87       25.98373  -0.00141   0.00000  -0.00388  -0.00264  25.98109
   Y87       34.46860   0.00314   0.00000   0.00784   0.00523  34.47383
   Z87       35.81031   0.00530   0.00000   0.00128   0.00385  35.81416
   X88       28.72384   0.01922   0.00000   0.00532   0.00648  28.73032
   Y88       33.90169   0.00420   0.00000   0.01404   0.01203  33.91371
   Z88       35.18670   0.01284   0.00000   0.01158   0.01324  35.19995
   X89       27.83567  -0.00133   0.00000  -0.01980  -0.01927  27.81639
   Y89       40.09999  -0.00842   0.00000  -0.04421  -0.04664  40.05335
   Z89       36.84966   0.01585   0.00000   0.01019   0.01304  36.86270
   X90       26.19160  -0.00178   0.00000   0.00394   0.00433  26.19594
   Y90       40.85588   0.00529   0.00000   0.02075   0.01802  40.87390
   Z90       36.90635  -0.00121   0.00000  -0.00296   0.00049  36.90684
   X91       27.98684  -0.00373   0.00000  -0.01581  -0.01569  27.97115
   Y91       39.45748   0.00307   0.00000   0.03081   0.02867  39.48615
   Z91       35.16780  -0.02006   0.00000  -0.04039  -0.03768  35.13013
   X92       44.78651   0.01583   0.00000   0.02603   0.03033  44.81684
   Y92       31.12379  -0.01295   0.00000  -0.00177  -0.00215  31.12164
   Z92       44.04952   0.00017   0.00000   0.00720   0.00368  44.05319
   X93       43.80385  -0.00769   0.00000  -0.00712  -0.00275  43.80110
   Y93       32.27652   0.01318   0.00000   0.01995   0.01925  32.29577
   Z93       45.03217   0.00108   0.00000  -0.01348  -0.01653  45.01564
   X94       44.76761  -0.00675   0.00000  -0.02594  -0.02227  44.74535
   Y94       31.80409  -0.00092   0.00000  -0.01953  -0.01967  31.78442
   Z94       42.36766  -0.00690   0.00000  -0.00974  -0.01315  42.35451
   X95       28.36479   0.00291   0.00000  -0.00072  -0.00141  28.36338
   Y95       38.45593   0.01732   0.00000   0.01861   0.01704  38.47296
   Z95       31.76630   0.00492   0.00000   0.02444   0.02689  31.79319
   X96       27.23095   0.00024   0.00000   0.01435   0.01344  27.24439
   Y96       37.68114  -0.00394   0.00000   0.00674   0.00513  37.68627
   Z96       30.57577  -0.00051   0.00000   0.00332   0.00598  30.58175
   X97       28.76163  -0.00156   0.00000  -0.00603  -0.00613  28.75550
   Y97       37.11422  -0.01978   0.00000  -0.04769  -0.04936  37.06486
   Z97       32.91903  -0.00227   0.00000  -0.02685  -0.02473  32.89430
         Item               Value     Threshold  Converged?
 Maximum Force            0.036485     0.000450     NO 
 RMS     Force            0.009749     0.000300     NO 
 Maximum Displacement     0.070498     0.001800     NO 
 RMS     Displacement     0.017482     0.001200     NO 
 Predicted change in Energy=-2.847127D-02
 GradGradGradGradGradGradGradGradGradGradGradGradGradGradGradGradGradGrad

 Leave Link  103 at Thu May  3 01:49:36 2018, MaxMem= 14763950080 cpu:        60.7
 (Enter /cm/shared/gaussian/g09.e01/intel64-sandybridge/g09/l9999.exe)
 1\1\GINC-POPLE03\Force\RPBE1PBE\CC-pVDZ\Br1H64O32(1-)\M.PELUSO\03-May-
 2018\0\\#p PBE1PBE/cc-pvDZ force Counterpoise=2 noSymm\\forces on chlo
 ride comput - NWATER: 32\\-1,1\Br,20.,20.,20.\O,22.32,18.47,21.33\H,21
 .53,18.86,20.94\H,22.88,19.21,21.55\O,20.88,16.96,19.09\H,20.99,17.91,
 19.02\H,20.5,16.82,19.96\O,16.98,21.98,20.65\H,17.77,21.47,20.45\H,16.
 28,21.54,20.17\O,16.81,18.04,18.98\H,17.52,18.59,19.32\H,17.04,17.15,1
 9.25\O,21.76,19.66,16.55\H,22.43,18.99,16.44\H,21.51,19.61,17.47\O,20.
 71,21.91,23.08\H,19.81,21.61,23.14\H,21.13,21.29,22.48\O,23.24,22.02,1
 9.1\H,22.85,21.19,19.39\H,23.51,21.86,18.2\O,19.61,23.93,18.92\H,19.9,
 24.82,18.7\H,20.42,23.41,18.94\O,21.84,23.68,21.07\H,22.29,23.08,20.47
 \H,21.78,23.2,21.89\O,18.38,20.89,23.57\H,17.74,20.33,23.13\H,18.98,20
 .28,23.99\O,19.12,18.19,15.88\H,19.42,17.43,15.38\H,19.92,18.58,16.23\
 O,20.4,16.26,22.11\H,19.72,16.58,22.71\H,21.14,16.84,22.27\O,19.61,21.
 79,15.41\H,18.91,21.31,14.98\H,20.17,21.11,15.79\O,15.42,20.32,22.41\H
 ,14.63,20.79,22.66\H,15.99,20.99,22.03\O,23.74,18.26,17.8\H,24.16,18.6
 2,18.58\H,24.42,17.71,17.4\O,23.26,15.65,20.14\H,22.73,14.9,19.86\H,22
 .89,16.4,19.67\O,23.63,20.49,22.85\H,24.49,20.13,22.6\H,23.68,20.59,23
 .8\O,17.76,23.85,16.58\H,18.28,23.46,15.87\H,18.26,23.65,17.37\O,17.27
 ,24.95,20.46\H,17.23,24.45,21.28\H,17.94,24.5,19.94\O,16.6,18.31,23.6\
 H,15.9,17.73,23.88\H,16.19,18.9,22.97\O,18.98,17.7,24.61\H,18.13,17.87
 ,24.2\H,18.78,17.2,25.4\O,16.34,23.67,23.05\H,16.88,23.,22.64\H,16.97,
 24.27,23.47\O,19.19,14.37,20.6\H,19.5,15.07,21.17\H,19.65,13.59,20.89\
 O,17.2,19.87,15.07\H,17.92,19.29,15.32\H,16.95,20.31,15.89\O,21.34,14.
 83,17.11\H,20.74,14.88,16.37\H,21.52,15.75,17.33\O,21.72,17.49,24.78\H
 ,21.56,16.55,24.76\H,20.85,17.88,24.79\O,20.4,25.99,20.63\H,21.18,26.4
 6,20.33\H,20.74,25.18,21.01\O,16.83,16.29,16.31\H,16.22,16.61,16.97\H,
 17.58,16.89,16.37\O,14.32,17.92,18.25\H,13.75,18.24,18.95\H,15.2,17.94
 ,18.62\O,14.73,21.22,19.5\H,13.86,21.62,19.53\H,14.81,20.88,18.61\O,23
 .7,16.47,23.31\H,23.18,17.08,23.83\H,23.69,16.83,22.42\O,15.01,20.35,1
 6.81\H,14.41,19.94,16.18\H,15.22,19.64,17.42\\Version=ES64L-G09RevE.01
 \HF=-2443.2053519\RMSD=2.883e-09\RMSF=9.749e-03\Dipole=1.2936634,-3.26
 92839,2.7758522\Quadrupole=164.9804212,-331.8436071,166.8631858,-1404.
 5568619,-1279.4105617,-1433.4000515\PG=C01 [X(Br1H64O32)]\\@


 TIME IS IN FACT THE HERO OF THE PLOT. THE TIME
 WITH WHICH WE HAVE TO DEAL IS OF THE ORDER OF TWO
 BILLION YEARS...GIVEN SO MUCH TIME, THE "IMPOSSIBLE"
 BECOMES POSSIBLE, THE POSSIBLE PROBABLE, THE PROBABLE
 VIRTUALLY CERTAIN.  ONE HAS ONLY TO WAIT, TIME
 ITSELF PERFORMS THE MIRACLES.
 "ORIGIN OF LIFE" LECTURES, GEORGE WALD, 1954
 Job cpu time:       0 days  9 hours  4 minutes 19.8 seconds.
 File lengths (MBytes):  RWF=    482 Int=      0 D2E=      0 Chk=    160 Scr=      1
 Normal termination of Gaussian 09 at Thu May  3 01:49:37 2018.
