 Entering Gaussian System, Link 0=/cm/shared/gaussian/g09.e01/intel64-sandybridge/g09/g09
 Initial command:
 /cm/shared/gaussian/g09.e01/intel64-sandybridge/g09/l1.exe "/local/scratch/m.peluso/32_wat/Gau-4818.inp" -scrdir="/local/scratch/m.peluso/32_wat/"
 Entering Link 1 = /cm/shared/gaussian/g09.e01/intel64-sandybridge/g09/l1.exe PID=      4819.
  
 Copyright (c) 1988,1990,1992,1993,1995,1998,2003,2009,2015,
            Gaussian, Inc.  All Rights Reserved.
  
 This is part of the Gaussian(R) 09 program.  It is based on
 the Gaussian(R) 03 system (copyright 2003, Gaussian, Inc.),
 the Gaussian(R) 98 system (copyright 1998, Gaussian, Inc.),
 the Gaussian(R) 94 system (copyright 1995, Gaussian, Inc.),
 the Gaussian 92(TM) system (copyright 1992, Gaussian, Inc.),
 the Gaussian 90(TM) system (copyright 1990, Gaussian, Inc.),
 the Gaussian 88(TM) system (copyright 1988, Gaussian, Inc.),
 the Gaussian 86(TM) system (copyright 1986, Carnegie Mellon
 University), and the Gaussian 82(TM) system (copyright 1983,
 Carnegie Mellon University). Gaussian is a federally registered
 trademark of Gaussian, Inc.
  
 This software contains proprietary and confidential information,
 including trade secrets, belonging to Gaussian, Inc.
  
 This software is provided under written license and may be
 used, copied, transmitted, or stored only in accord with that
 written license.
  
 The following legend is applicable only to US Government
 contracts under FAR:
  
                    RESTRICTED RIGHTS LEGEND
  
 Use, reproduction and disclosure by the US Government is
 subject to restrictions as set forth in subparagraphs (a)
 and (c) of the Commercial Computer Software - Restricted
 Rights clause in FAR 52.227-19.
  
 Gaussian, Inc.
 340 Quinnipiac St., Bldg. 40, Wallingford CT 06492
  
  
 ---------------------------------------------------------------
 Warning -- This program may not be used in any manner that
 competes with the business of Gaussian, Inc. or will provide
 assistance to any competitor of Gaussian, Inc.  The licensee
 of this program is prohibited from giving any competitor of
 Gaussian, Inc. access to this program.  By using this program,
 the user acknowledges that Gaussian, Inc. is engaged in the
 business of creating and licensing software in the field of
 computational chemistry and represents and warrants to the
 licensee that it is not a competitor of Gaussian, Inc. and that
 it will not use this program in any manner prohibited above.
 ---------------------------------------------------------------
  

 Cite this work as:
 Gaussian 09, Revision E.01,
 M. J. Frisch, G. W. Trucks, H. B. Schlegel, G. E. Scuseria, 
 M. A. Robb, J. R. Cheeseman, G. Scalmani, V. Barone, B. Mennucci, 
 G. A. Petersson, H. Nakatsuji, M. Caricato, X. Li, H. P. Hratchian, 
 A. F. Izmaylov, J. Bloino, G. Zheng, J. L. Sonnenberg, M. Hada, 
 M. Ehara, K. Toyota, R. Fukuda, J. Hasegawa, M. Ishida, T. Nakajima, 
 Y. Honda, O. Kitao, H. Nakai, T. Vreven, J. A. Montgomery, Jr., 
 J. E. Peralta, F. Ogliaro, M. Bearpark, J. J. Heyd, E. Brothers, 
 K. N. Kudin, V. N. Staroverov, T. Keith, R. Kobayashi, J. Normand, 
 K. Raghavachari, A. Rendell, J. C. Burant, S. S. Iyengar, J. Tomasi, 
 M. Cossi, N. Rega, J. M. Millam, M. Klene, J. E. Knox, J. B. Cross, 
 V. Bakken, C. Adamo, J. Jaramillo, R. Gomperts, R. E. Stratmann, 
 O. Yazyev, A. J. Austin, R. Cammi, C. Pomelli, J. W. Ochterski, 
 R. L. Martin, K. Morokuma, V. G. Zakrzewski, G. A. Voth, 
 P. Salvador, J. J. Dannenberg, S. Dapprich, A. D. Daniels, 
 O. Farkas, J. B. Foresman, J. V. Ortiz, J. Cioslowski, 
 and D. J. Fox, Gaussian, Inc., Wallingford CT, 2013.
 
 ******************************************
 Gaussian 09:  ES64L-G09RevE.01 30-Nov-2015
                 3-May-2018 
 ******************************************
 %Mem=110GB
 %NProcShared=64
 Will use up to   64 processors via shared memory.
 %chk=snap13.chk
 ----------------------------------------------
 #p PBE1PBE/cc-pvDZ force Counterpoise=2 noSymm
 ----------------------------------------------
 1/10=7,30=1,38=1,62=2/1,3;
 2/12=2,15=1,17=6,18=5,40=1/2;
 1/10=7,30=1,38=1,53=2,62=2,63=101/22;
 3/5=16,11=2,16=1,25=1,30=1,71=1,74=-13/1,2,3;
 4//1;
 5/5=2,38=5/2;
 6/7=2,8=2,9=2,10=2,28=1/1;
 7/7=1,29=1,30=1,33=-1/1,2,3,16;
 1/10=7,30=1,53=2,62=2,63=101/22;
 3/5=7,6=11,11=2,16=1,25=1,30=1,71=1,74=-13,82=7/1,2,3;
 4//1;
 5/5=2,38=5/2;
 6/7=2,8=2,9=2,10=2,28=1/1;
 7/7=1,29=1,30=1,33=-1/1,2,3,16;
 1/10=7,30=1,53=2,62=2,63=101/22(-5);
 7/9=1,29=1,44=-1/16;
 1/10=7,30=1,62=2/3;
 99//99;
 Leave Link    1 at Thu May  3 06:54:28 2018, MaxMem= 14763950080 cpu:         7.4
 (Enter /cm/shared/gaussian/g09.e01/intel64-sandybridge/g09/l101.exe)
 --------------------------------------
 forces on chloride comput - NWATER: 32
 --------------------------------------
 Symbolic Z-matrix:
 Charge = -1 Multiplicity = 1 in supermolecule
 Charge = -1 Multiplicity = 1 in fragment      1.
 Charge =  0 Multiplicity = 1 in fragment      2.
 Br(Fragment=1)        20.       20.       20. 
 O(Fragment=2)         18.13     17.74     18.93 
 H(Fragment=2)         18.48     18.44     19.49 
 H(Fragment=2)         17.18     17.81     19.04 
 O(Fragment=2)         21.29     22.58     21.5 
 H(Fragment=2)         21.19     21.72     21.1 
 H(Fragment=2)         21.87     23.06     20.9 
 O(Fragment=2)         18.73     21.24     17.12 
 H(Fragment=2)         19.11     20.74     17.84 
 H(Fragment=2)         18.32     22.       17.54 
 O(Fragment=2)         22.9      20.42     18.43 
 H(Fragment=2)         21.96     20.36     18.56 
 H(Fragment=2)         23.28     20.12     19.25 
 O(Fragment=2)         22.26     18.38     21.76 
 H(Fragment=2)         21.85     18.66     20.93 
 H(Fragment=2)         21.68     18.73     22.44 
 O(Fragment=2)         18.17     22.83     19.45 
 H(Fragment=2)         17.73     23.38     20.1 
 H(Fragment=2)         18.65     22.18     19.96 
 O(Fragment=2)         18.43     18.38     22.96 
 H(Fragment=2)         17.63     17.87     22.93 
 H(Fragment=2)         18.57     18.67     22.06 
 O(Fragment=2)         20.51     19.66     23.94 
 H(Fragment=2)         19.7      19.23     23.67 
 H(Fragment=2)         20.4      19.84     24.87 
 O(Fragment=2)         20.11     24.21     17.9 
 H(Fragment=2)         19.75     24.       17.03 
 H(Fragment=2)         19.62     23.66     18.5 
 O(Fragment=2)         23.07     23.46     19.4 
 H(Fragment=2)         23.62     24.08     19.89 
 H(Fragment=2)         23.37     22.6      19.68 
 O(Fragment=2)         22.38     22.6      16.61 
 H(Fragment=2)         22.28     21.67     16.8 
 H(Fragment=2)         22.57     23.       17.45 
 O(Fragment=2)         19.28     19.3      15.15 
 H(Fragment=2)         19.22     20.02     15.78 
 H(Fragment=2)         19.03     19.7      14.31 
 O(Fragment=2)         16.74     20.69     23.7 
 H(Fragment=2)         17.6      21.01     23.42 
 H(Fragment=2)         16.93     20.03     24.37 
 O(Fragment=2)         18.03     16.84     16.48 
 H(Fragment=2)         18.19     17.11     17.38 
 H(Fragment=2)         18.44     17.53     15.95 
 O(Fragment=2)         20.67     22.71     24.4 
 H(Fragment=2)         20.91     22.22     23.61 
 H(Fragment=2)         20.53     22.03     25.06 
 O(Fragment=2)         24.64     19.62     22.23 
 H(Fragment=2)         24.63     19.86     23.16 
 H(Fragment=2)         23.76     19.29     22.06 
 O(Fragment=2)         20.24     16.52     23.86 
 H(Fragment=2)         19.8      17.15     23.29 
 H(Fragment=2)         19.79     15.69     23.69 
 O(Fragment=2)         22.98     17.16     18.08 
 H(Fragment=2)         22.2      16.77     17.7 
 H(Fragment=2)         23.08     18.       17.63 
 O(Fragment=2)         19.9      24.62     22.64 
 H(Fragment=2)         19.87     24.       23.37 
 H(Fragment=2)         20.17     24.09     21.89 
 O(Fragment=2)         21.36     14.8      21.73 
 H(Fragment=2)         21.66     15.69     21.56 
 H(Fragment=2)         20.47     14.91     22.07 
 O(Fragment=2)         14.91     19.27     21.62 
 H(Fragment=2)         15.5      19.5      22.34 
 H(Fragment=2)         14.07     19.1      22.04 
 O(Fragment=2)         20.89     15.54     17.08 
 H(Fragment=2)         20.2      15.22     17.66 
 H(Fragment=2)         20.56     15.36     16.2 
 O(Fragment=2)         15.07     18.19     19.08 
 H(Fragment=2)         14.86     18.48     19.97 
 H(Fragment=2)         14.54     18.76     18.52 
 O(Fragment=2)         22.85     16.98     24.91 
 H(Fragment=2)         23.52     16.49     24.43 
 H(Fragment=2)         22.2      17.21     24.25 
 O(Fragment=2)         19.01     26.21     19.49 
 H(Fragment=2)         18.23     26.67     19.17 
 H(Fragment=2)         19.11     25.47     18.9 
 O(Fragment=2)         16.46     24.31     21.24 
 H(Fragment=2)         15.93     24.25     22.03 
 H(Fragment=2)         15.83     24.45     20.54 
 O(Fragment=2)         21.45     17.65     14.38 
 H(Fragment=2)         22.26     18.15     14.49 
 H(Fragment=2)         20.76     18.26     14.61 
 O(Fragment=2)         19.17     22.21     14. 
 H(Fragment=2)         19.58     22.54     14.8 
 H(Fragment=2)         19.41     22.85     13.33 
 O(Fragment=2)         22.16     26.12     18.51 
 H(Fragment=2)         21.28     25.78     18.66 
 H(Fragment=2)         22.74     25.4      18.77 
 O(Fragment=2)         13.96     22.21     22.2 
 H(Fragment=2)         13.89     21.26     22.12 
 H(Fragment=2)         14.66     22.45     21.6 
 O(Fragment=2)         26.37     17.48     20.13 
 H(Fragment=2)         25.66     17.65     20.74 
 H(Fragment=2)         27.15     17.84     20.56 
 O(Fragment=2)         25.74     18.63     16.59 
 H(Fragment=2)         25.15     19.28     16.21 
 H(Fragment=2)         25.5      18.61     17.52 
 
 NAtoms=     97 NQM=       97 NQMF=       0 NMMI=      0 NMMIF=      0
                NMic=       0 NMicF=      0.
                    Isotopes and Nuclear Properties:
 (Nuclear quadrupole moments (NQMom) in fm**2, nuclear magnetic moments (NMagM)
  in nuclear magnetons)

  Atom         1           2           3           4           5           6           7           8           9          10
 IAtWgt=          79          16           1           1          16           1           1          16           1           1
 AtmWgt=  78.9183361  15.9949146   1.0078250   1.0078250  15.9949146   1.0078250   1.0078250  15.9949146   1.0078250   1.0078250
 NucSpn=           3           0           1           1           0           1           1           0           1           1
 AtZEff=   0.0000000   0.0000000   0.0000000   0.0000000   0.0000000   0.0000000   0.0000000   0.0000000   0.0000000   0.0000000
 NQMom=   31.3000000   0.0000000   0.0000000   0.0000000   0.0000000   0.0000000   0.0000000   0.0000000   0.0000000   0.0000000
 NMagM=    2.1063990   0.0000000   2.7928460   2.7928460   0.0000000   2.7928460   2.7928460   0.0000000   2.7928460   2.7928460
 AtZNuc=  35.0000000   8.0000000   1.0000000   1.0000000   8.0000000   1.0000000   1.0000000   8.0000000   1.0000000   1.0000000

  Atom        11          12          13          14          15          16          17          18          19          20
 IAtWgt=          16           1           1          16           1           1          16           1           1          16
 AtmWgt=  15.9949146   1.0078250   1.0078250  15.9949146   1.0078250   1.0078250  15.9949146   1.0078250   1.0078250  15.9949146
 NucSpn=           0           1           1           0           1           1           0           1           1           0
 AtZEff=   0.0000000   0.0000000   0.0000000   0.0000000   0.0000000   0.0000000   0.0000000   0.0000000   0.0000000   0.0000000
 NQMom=    0.0000000   0.0000000   0.0000000   0.0000000   0.0000000   0.0000000   0.0000000   0.0000000   0.0000000   0.0000000
 NMagM=    0.0000000   2.7928460   2.7928460   0.0000000   2.7928460   2.7928460   0.0000000   2.7928460   2.7928460   0.0000000
 AtZNuc=   8.0000000   1.0000000   1.0000000   8.0000000   1.0000000   1.0000000   8.0000000   1.0000000   1.0000000   8.0000000

  Atom        21          22          23          24          25          26          27          28          29          30
 IAtWgt=           1           1          16           1           1          16           1           1          16           1
 AtmWgt=   1.0078250   1.0078250  15.9949146   1.0078250   1.0078250  15.9949146   1.0078250   1.0078250  15.9949146   1.0078250
 NucSpn=           1           1           0           1           1           0           1           1           0           1
 AtZEff=   0.0000000   0.0000000   0.0000000   0.0000000   0.0000000   0.0000000   0.0000000   0.0000000   0.0000000   0.0000000
 NQMom=    0.0000000   0.0000000   0.0000000   0.0000000   0.0000000   0.0000000   0.0000000   0.0000000   0.0000000   0.0000000
 NMagM=    2.7928460   2.7928460   0.0000000   2.7928460   2.7928460   0.0000000   2.7928460   2.7928460   0.0000000   2.7928460
 AtZNuc=   1.0000000   1.0000000   8.0000000   1.0000000   1.0000000   8.0000000   1.0000000   1.0000000   8.0000000   1.0000000

  Atom        31          32          33          34          35          36          37          38          39          40
 IAtWgt=           1          16           1           1          16           1           1          16           1           1
 AtmWgt=   1.0078250  15.9949146   1.0078250   1.0078250  15.9949146   1.0078250   1.0078250  15.9949146   1.0078250   1.0078250
 NucSpn=           1           0           1           1           0           1           1           0           1           1
 AtZEff=   0.0000000   0.0000000   0.0000000   0.0000000   0.0000000   0.0000000   0.0000000   0.0000000   0.0000000   0.0000000
 NQMom=    0.0000000   0.0000000   0.0000000   0.0000000   0.0000000   0.0000000   0.0000000   0.0000000   0.0000000   0.0000000
 NMagM=    2.7928460   0.0000000   2.7928460   2.7928460   0.0000000   2.7928460   2.7928460   0.0000000   2.7928460   2.7928460
 AtZNuc=   1.0000000   8.0000000   1.0000000   1.0000000   8.0000000   1.0000000   1.0000000   8.0000000   1.0000000   1.0000000

  Atom        41          42          43          44          45          46          47          48          49          50
 IAtWgt=          16           1           1          16           1           1          16           1           1          16
 AtmWgt=  15.9949146   1.0078250   1.0078250  15.9949146   1.0078250   1.0078250  15.9949146   1.0078250   1.0078250  15.9949146
 NucSpn=           0           1           1           0           1           1           0           1           1           0
 AtZEff=   0.0000000   0.0000000   0.0000000   0.0000000   0.0000000   0.0000000   0.0000000   0.0000000   0.0000000   0.0000000
 NQMom=    0.0000000   0.0000000   0.0000000   0.0000000   0.0000000   0.0000000   0.0000000   0.0000000   0.0000000   0.0000000
 NMagM=    0.0000000   2.7928460   2.7928460   0.0000000   2.7928460   2.7928460   0.0000000   2.7928460   2.7928460   0.0000000
 AtZNuc=   8.0000000   1.0000000   1.0000000   8.0000000   1.0000000   1.0000000   8.0000000   1.0000000   1.0000000   8.0000000

  Atom        51          52          53          54          55          56          57          58          59          60
 IAtWgt=           1           1          16           1           1          16           1           1          16           1
 AtmWgt=   1.0078250   1.0078250  15.9949146   1.0078250   1.0078250  15.9949146   1.0078250   1.0078250  15.9949146   1.0078250
 NucSpn=           1           1           0           1           1           0           1           1           0           1
 AtZEff=   0.0000000   0.0000000   0.0000000   0.0000000   0.0000000   0.0000000   0.0000000   0.0000000   0.0000000   0.0000000
 NQMom=    0.0000000   0.0000000   0.0000000   0.0000000   0.0000000   0.0000000   0.0000000   0.0000000   0.0000000   0.0000000
 NMagM=    2.7928460   2.7928460   0.0000000   2.7928460   2.7928460   0.0000000   2.7928460   2.7928460   0.0000000   2.7928460
 AtZNuc=   1.0000000   1.0000000   8.0000000   1.0000000   1.0000000   8.0000000   1.0000000   1.0000000   8.0000000   1.0000000

  Atom        61          62          63          64          65          66          67          68          69          70
 IAtWgt=           1          16           1           1          16           1           1          16           1           1
 AtmWgt=   1.0078250  15.9949146   1.0078250   1.0078250  15.9949146   1.0078250   1.0078250  15.9949146   1.0078250   1.0078250
 NucSpn=           1           0           1           1           0           1           1           0           1           1
 AtZEff=   0.0000000   0.0000000   0.0000000   0.0000000   0.0000000   0.0000000   0.0000000   0.0000000   0.0000000   0.0000000
 NQMom=    0.0000000   0.0000000   0.0000000   0.0000000   0.0000000   0.0000000   0.0000000   0.0000000   0.0000000   0.0000000
 NMagM=    2.7928460   0.0000000   2.7928460   2.7928460   0.0000000   2.7928460   2.7928460   0.0000000   2.7928460   2.7928460
 AtZNuc=   1.0000000   8.0000000   1.0000000   1.0000000   8.0000000   1.0000000   1.0000000   8.0000000   1.0000000   1.0000000

  Atom        71          72          73          74          75          76          77          78          79          80
 IAtWgt=          16           1           1          16           1           1          16           1           1          16
 AtmWgt=  15.9949146   1.0078250   1.0078250  15.9949146   1.0078250   1.0078250  15.9949146   1.0078250   1.0078250  15.9949146
 NucSpn=           0           1           1           0           1           1           0           1           1           0
 AtZEff=   0.0000000   0.0000000   0.0000000   0.0000000   0.0000000   0.0000000   0.0000000   0.0000000   0.0000000   0.0000000
 NQMom=    0.0000000   0.0000000   0.0000000   0.0000000   0.0000000   0.0000000   0.0000000   0.0000000   0.0000000   0.0000000
 NMagM=    0.0000000   2.7928460   2.7928460   0.0000000   2.7928460   2.7928460   0.0000000   2.7928460   2.7928460   0.0000000
 AtZNuc=   8.0000000   1.0000000   1.0000000   8.0000000   1.0000000   1.0000000   8.0000000   1.0000000   1.0000000   8.0000000

  Atom        81          82          83          84          85          86          87          88          89          90
 IAtWgt=           1           1          16           1           1          16           1           1          16           1
 AtmWgt=   1.0078250   1.0078250  15.9949146   1.0078250   1.0078250  15.9949146   1.0078250   1.0078250  15.9949146   1.0078250
 NucSpn=           1           1           0           1           1           0           1           1           0           1
 AtZEff=   0.0000000   0.0000000   0.0000000   0.0000000   0.0000000   0.0000000   0.0000000   0.0000000   0.0000000   0.0000000
 NQMom=    0.0000000   0.0000000   0.0000000   0.0000000   0.0000000   0.0000000   0.0000000   0.0000000   0.0000000   0.0000000
 NMagM=    2.7928460   2.7928460   0.0000000   2.7928460   2.7928460   0.0000000   2.7928460   2.7928460   0.0000000   2.7928460
 AtZNuc=   1.0000000   1.0000000   8.0000000   1.0000000   1.0000000   8.0000000   1.0000000   1.0000000   8.0000000   1.0000000

  Atom        91          92          93          94          95          96          97
 IAtWgt=           1          16           1           1          16           1           1
 AtmWgt=   1.0078250  15.9949146   1.0078250   1.0078250  15.9949146   1.0078250   1.0078250
 NucSpn=           1           0           1           1           0           1           1
 AtZEff=   0.0000000   0.0000000   0.0000000   0.0000000   0.0000000   0.0000000   0.0000000
 NQMom=    0.0000000   0.0000000   0.0000000   0.0000000   0.0000000   0.0000000   0.0000000
 NMagM=    2.7928460   0.0000000   2.7928460   2.7928460   0.0000000   2.7928460   2.7928460
 AtZNuc=   1.0000000   8.0000000   1.0000000   1.0000000   8.0000000   1.0000000   1.0000000
 Leave Link  101 at Thu May  3 06:54:28 2018, MaxMem= 14763950080 cpu:        15.0
 (Enter /cm/shared/gaussian/g09.e01/intel64-sandybridge/g09/l103.exe)

 GradGradGradGradGradGradGradGradGradGradGradGradGradGradGradGradGradGrad
 Berny optimization.
 Initialization pass.
 Trust Radius=3.00D-01 FncErr=1.00D-07 GrdErr=1.00D-07
 Number of steps in this run=      2 maximum allowed number of steps=      2.
 GradGradGradGradGradGradGradGradGradGradGradGradGradGradGradGradGradGrad

 Leave Link  103 at Thu May  3 06:54:28 2018, MaxMem= 14763950080 cpu:         2.2
 (Enter /cm/shared/gaussian/g09.e01/intel64-sandybridge/g09/l202.exe)
 Symmetry turned off by external request.
 Stoichiometry    BrH64O32(1-)
 Framework group  C1[X(BrH64O32)]
 Deg. of freedom   285
 Full point group                 C1      NOp   1
                          Input orientation:                          
 ---------------------------------------------------------------------
 Center     Atomic      Atomic             Coordinates (Angstroms)
 Number     Number       Type             X           Y           Z
 ---------------------------------------------------------------------
      1         35           0       20.000000   20.000000   20.000000
      2          8           0       18.130000   17.740000   18.930000
      3          1           0       18.480000   18.440000   19.490000
      4          1           0       17.180000   17.810000   19.040000
      5          8           0       21.290000   22.580000   21.500000
      6          1           0       21.190000   21.720000   21.100000
      7          1           0       21.870000   23.060000   20.900000
      8          8           0       18.730000   21.240000   17.120000
      9          1           0       19.110000   20.740000   17.840000
     10          1           0       18.320000   22.000000   17.540000
     11          8           0       22.900000   20.420000   18.430000
     12          1           0       21.960000   20.360000   18.560000
     13          1           0       23.280000   20.120000   19.250000
     14          8           0       22.260000   18.380000   21.760000
     15          1           0       21.850000   18.660000   20.930000
     16          1           0       21.680000   18.730000   22.440000
     17          8           0       18.170000   22.830000   19.450000
     18          1           0       17.730000   23.380000   20.100000
     19          1           0       18.650000   22.180000   19.960000
     20          8           0       18.430000   18.380000   22.960000
     21          1           0       17.630000   17.870000   22.930000
     22          1           0       18.570000   18.670000   22.060000
     23          8           0       20.510000   19.660000   23.940000
     24          1           0       19.700000   19.230000   23.670000
     25          1           0       20.400000   19.840000   24.870000
     26          8           0       20.110000   24.210000   17.900000
     27          1           0       19.750000   24.000000   17.030000
     28          1           0       19.620000   23.660000   18.500000
     29          8           0       23.070000   23.460000   19.400000
     30          1           0       23.620000   24.080000   19.890000
     31          1           0       23.370000   22.600000   19.680000
     32          8           0       22.380000   22.600000   16.610000
     33          1           0       22.280000   21.670000   16.800000
     34          1           0       22.570000   23.000000   17.450000
     35          8           0       19.280000   19.300000   15.150000
     36          1           0       19.220000   20.020000   15.780000
     37          1           0       19.030000   19.700000   14.310000
     38          8           0       16.740000   20.690000   23.700000
     39          1           0       17.600000   21.010000   23.420000
     40          1           0       16.930000   20.030000   24.370000
     41          8           0       18.030000   16.840000   16.480000
     42          1           0       18.190000   17.110000   17.380000
     43          1           0       18.440000   17.530000   15.950000
     44          8           0       20.670000   22.710000   24.400000
     45          1           0       20.910000   22.220000   23.610000
     46          1           0       20.530000   22.030000   25.060000
     47          8           0       24.640000   19.620000   22.230000
     48          1           0       24.630000   19.860000   23.160000
     49          1           0       23.760000   19.290000   22.060000
     50          8           0       20.240000   16.520000   23.860000
     51          1           0       19.800000   17.150000   23.290000
     52          1           0       19.790000   15.690000   23.690000
     53          8           0       22.980000   17.160000   18.080000
     54          1           0       22.200000   16.770000   17.700000
     55          1           0       23.080000   18.000000   17.630000
     56          8           0       19.900000   24.620000   22.640000
     57          1           0       19.870000   24.000000   23.370000
     58          1           0       20.170000   24.090000   21.890000
     59          8           0       21.360000   14.800000   21.730000
     60          1           0       21.660000   15.690000   21.560000
     61          1           0       20.470000   14.910000   22.070000
     62          8           0       14.910000   19.270000   21.620000
     63          1           0       15.500000   19.500000   22.340000
     64          1           0       14.070000   19.100000   22.040000
     65          8           0       20.890000   15.540000   17.080000
     66          1           0       20.200000   15.220000   17.660000
     67          1           0       20.560000   15.360000   16.200000
     68          8           0       15.070000   18.190000   19.080000
     69          1           0       14.860000   18.480000   19.970000
     70          1           0       14.540000   18.760000   18.520000
     71          8           0       22.850000   16.980000   24.910000
     72          1           0       23.520000   16.490000   24.430000
     73          1           0       22.200000   17.210000   24.250000
     74          8           0       19.010000   26.210000   19.490000
     75          1           0       18.230000   26.670000   19.170000
     76          1           0       19.110000   25.470000   18.900000
     77          8           0       16.460000   24.310000   21.240000
     78          1           0       15.930000   24.250000   22.030000
     79          1           0       15.830000   24.450000   20.540000
     80          8           0       21.450000   17.650000   14.380000
     81          1           0       22.260000   18.150000   14.490000
     82          1           0       20.760000   18.260000   14.610000
     83          8           0       19.170000   22.210000   14.000000
     84          1           0       19.580000   22.540000   14.800000
     85          1           0       19.410000   22.850000   13.330000
     86          8           0       22.160000   26.120000   18.510000
     87          1           0       21.280000   25.780000   18.660000
     88          1           0       22.740000   25.400000   18.770000
     89          8           0       13.960000   22.210000   22.200000
     90          1           0       13.890000   21.260000   22.120000
     91          1           0       14.660000   22.450000   21.600000
     92          8           0       26.370000   17.480000   20.130000
     93          1           0       25.660000   17.650000   20.740000
     94          1           0       27.150000   17.840000   20.560000
     95          8           0       25.740000   18.630000   16.590000
     96          1           0       25.150000   19.280000   16.210000
     97          1           0       25.500000   18.610000   17.520000
 ---------------------------------------------------------------------
 Rotational constants (GHZ):      0.0540964      0.0495585      0.0445964
 Leave Link  202 at Thu May  3 06:54:28 2018, MaxMem= 14763950080 cpu:         0.6
 (Enter /cm/shared/gaussian/g09.e01/intel64-sandybridge/g09/l122.exe)
 Counterpoise: doing full dimer calculation.
 Leave Link  122 at Thu May  3 06:54:28 2018, MaxMem= 14763950080 cpu:         0.0
 (Enter /cm/shared/gaussian/g09.e01/intel64-sandybridge/g09/l301.exe)
 Standard basis: CC-pVDZ (5D, 7F)
 Ernie: Thresh=  0.10000D-02 Tol=  0.10000D-05 Strict=F.
 Ernie:  87 primitive shells out of 1114 were deleted.
   795 basis functions,  1651 primitive gaussians,   829 cartesian basis functions
   178 alpha electrons      178 beta electrons
       nuclear repulsion energy      5865.3975174130 Hartrees.
 IExCor= 1009 DFT=T Ex+Corr=PBE1PBE ExCW=0 ScaHFX=  0.250000
 ScaDFX=  0.750000  0.750000  1.000000  1.000000 ScalE2=  1.000000  1.000000
 IRadAn=      0 IRanWt=     -1 IRanGd=            0 ICorTp=0 IEmpDi=  4
 NAtoms=   97 NActive=   97 NUniq=   97 SFac= 1.00D+00 NAtFMM=   60 NAOKFM=T Big=T
 Integral buffers will be    131072 words long.
 Raffenetti 2 integral format.
 Two-electron integral symmetry is turned off.
 Leave Link  301 at Thu May  3 06:54:28 2018, MaxMem= 14763950080 cpu:         6.4
 (Enter /cm/shared/gaussian/g09.e01/intel64-sandybridge/g09/l302.exe)
 NPDir=0 NMtPBC=     1 NCelOv=     1 NCel=       1 NClECP=     1 NCelD=      1
         NCelK=      1 NCelE2=     1 NClLst=     1 CellRange=     0.0.
 One-electron integrals computed using PRISM.
 NBasis=   795 RedAO= T EigKep=  1.75D-02  NBF=   795
 NBsUse=   795 1.00D-06 EigRej= -1.00D+00 NBFU=   795
 Precomputing XC quadrature grid using
 IXCGrd= 4 IRadAn=           0 IRanWt=          -1 IRanGd=           0 AccXCQ= 0.00D+00.
 Generated NRdTot=       0 NPtTot=           0 NUsed=           0 NTot=          32
 NSgBfM=   712   719   719   719   719 MxSgAt=    97 MxSgA2=    97.
 Leave Link  302 at Thu May  3 06:54:35 2018, MaxMem= 14763950080 cpu:       443.2
 (Enter /cm/shared/gaussian/g09.e01/intel64-sandybridge/g09/l303.exe)
 DipDrv:  MaxL=1.
 Leave Link  303 at Thu May  3 06:54:36 2018, MaxMem= 14763950080 cpu:        29.9
 (Enter /cm/shared/gaussian/g09.e01/intel64-sandybridge/g09/l401.exe)
 ExpMin= 1.22D-01 ExpMax= 6.40D+05 ExpMxC= 6.18D+03 IAcc=2 IRadAn=         4 AccDes= 0.00D+00
 Harris functional with IExCor= 1009 and IRadAn=       4 diagonalized for initial guess.
 HarFok:  IExCor= 1009 AccDes= 0.00D+00 IRadAn=         4 IDoV= 1 UseB2=F ITyADJ=14
 ICtDFT=  3500011 ScaDFX=  1.000000  1.000000  1.000000  1.000000
 FoFCou: FMM=F IPFlag=           0 FMFlag=      100000 FMFlg1=        2001
         NFxFlg=           0 DoJE=T BraDBF=F KetDBF=T FulRan=T
         wScrn=  0.000000 ICntrl=     500 IOpCl=  0 I1Cent=   200000004 NGrid=           0
         NMat0=    1 NMatS0=      1 NMatT0=    0 NMatD0=    1 NMtDS0=    0 NMtDT0=    0
 Symmetry not used in FoFCou.
 Harris En= -5018.42836004977    
 JPrj=0 DoOrth=F DoCkMO=F.
 Leave Link  401 at Thu May  3 06:54:41 2018, MaxMem= 14763950080 cpu:       312.4
 (Enter /cm/shared/gaussian/g09.e01/intel64-sandybridge/g09/l502.exe)
 Closed shell SCF:
 Using DIIS extrapolation, IDIIS=  1040.
 Two-electron integral symmetry not used.
 IVT=     2138497 IEndB=     2138497 NGot= 14763950080 MDV= 14762516294
 LenX= 14762516294 LenY= 14761828224
 Requested convergence on RMS density matrix=1.00D-08 within 128 cycles.
 Requested convergence on MAX density matrix=1.00D-06.
 Requested convergence on             energy=1.00D-06.
 No special actions if energy rises.
 Fock matrices will be formed incrementally for  20 cycles.
 Integral accuracy reduced to 1.0D-05 until final iterations.

 Cycle   1  Pass 0  IDiag  1:
 FoFJK:  IHMeth= 1 ICntrl=       0 DoSepK=F KAlg= 0 I1Cent=   0 FoldK=F
 IRaf= 780000000 NMat=   1 IRICut=       1 DoRegI=T DoRafI=F ISym2E= 0.
 FoFCou: FMM=T IPFlag=           0 FMFlag=      100000 FMFlg1=        2001
         NFxFlg=           0 DoJE=F BraDBF=F KetDBF=F FulRan=T
         wScrn=  0.000000 ICntrl=       0 IOpCl=  0 I1Cent=           0 NGrid=           0
         NMat0=    1 NMatS0=      1 NMatT0=    0 NMatD0=    1 NMtDS0=    0 NMtDT0=    0
 Symmetry not used in FoFCou.
 FMM levels:  10  Number of levels for PrismC:   9
 E= -5015.18255169105    
 DIIS: error= 3.70D-02 at cycle   1 NSaved=   1.
 NSaved= 1 IEnMin= 1 EnMin= -5015.18255169105     IErMin= 1 ErrMin= 3.70D-02
 ErrMax= 3.70D-02  0.00D+00 EMaxC= 1.00D-01 BMatC= 2.79D+00 BMatP= 2.79D+00
 IDIUse=3 WtCom= 6.30D-01 WtEn= 3.70D-01
 Coeff-Com:  0.100D+01
 Coeff-En:   0.100D+01
 Coeff:      0.100D+01
 Gap=     0.309 Goal=   None    Shift=    0.000
 GapD=    0.309 DampG=1.000 DampE=0.500 DampFc=0.5000 IDamp=-1.
 Damping current iteration by 5.00D-01
 RMSDP=2.90D-03 MaxDP=1.62D-01              OVMax= 1.79D-01

 Cycle   2  Pass 0  IDiag  1:
 RMSU=  1.44D-03    CP:  9.85D-01
 E= -5015.99302314478     Delta-E=       -0.810471453722 Rises=F Damp=T
 DIIS: error= 9.64D-03 at cycle   2 NSaved=   2.
 NSaved= 2 IEnMin= 2 EnMin= -5015.99302314478     IErMin= 2 ErrMin= 9.64D-03
 ErrMax= 9.64D-03  0.00D+00 EMaxC= 1.00D-01 BMatC= 9.20D-02 BMatP= 2.79D+00
 IDIUse=3 WtCom= 9.04D-01 WtEn= 9.64D-02
 Coeff-Com:  0.123D+00 0.877D+00
 Coeff-En:   0.219D+00 0.781D+00
 Coeff:      0.132D+00 0.868D+00
 Gap=     0.181 Goal=   None    Shift=    0.000
 RMSDP=3.60D-04 MaxDP=1.75D-02 DE=-8.10D-01 OVMax= 1.05D-01

 Cycle   3  Pass 0  IDiag  1:
 RMSU=  2.83D-04    CP:  9.87D-01  8.47D-01
 E= -5017.18637307590     Delta-E=       -1.193349931124 Rises=F Damp=F
 DIIS: error= 1.17D-03 at cycle   3 NSaved=   3.
 NSaved= 3 IEnMin= 3 EnMin= -5017.18637307590     IErMin= 3 ErrMin= 1.17D-03
 ErrMax= 1.17D-03  0.00D+00 EMaxC= 1.00D-01 BMatC= 1.53D-03 BMatP= 9.20D-02
 IDIUse=3 WtCom= 9.88D-01 WtEn= 1.17D-02
 Coeff-Com:  0.106D-01 0.536D-01 0.936D+00
 Coeff-En:   0.000D+00 0.000D+00 0.100D+01
 Coeff:      0.105D-01 0.530D-01 0.937D+00
 Gap=     0.195 Goal=   None    Shift=    0.000
 RMSDP=8.88D-05 MaxDP=1.41D-02 DE=-1.19D+00 OVMax= 1.64D-02

 Cycle   4  Pass 0  IDiag  1:
 RMSU=  8.06D-05    CP:  9.88D-01  8.46D-01  8.68D-01
 E= -5017.18676338590     Delta-E=       -0.000390310001 Rises=F Damp=F
 DIIS: error= 9.77D-04 at cycle   4 NSaved=   4.
 NSaved= 4 IEnMin= 4 EnMin= -5017.18676338590     IErMin= 4 ErrMin= 9.77D-04
 ErrMax= 9.77D-04  0.00D+00 EMaxC= 1.00D-01 BMatC= 1.46D-03 BMatP= 1.53D-03
 IDIUse=3 WtCom= 9.90D-01 WtEn= 9.77D-03
 Coeff-Com:  0.331D-02 0.477D-02 0.495D+00 0.497D+00
 Coeff-En:   0.000D+00 0.000D+00 0.424D+00 0.576D+00
 Coeff:      0.328D-02 0.472D-02 0.494D+00 0.498D+00
 Gap=     0.193 Goal=   None    Shift=    0.000
 RMSDP=3.88D-05 MaxDP=5.64D-03 DE=-3.90D-04 OVMax= 5.47D-03

 Cycle   5  Pass 0  IDiag  1:
 RMSU=  1.65D-05    CP:  9.87D-01  8.44D-01  9.20D-01  6.06D-01
 E= -5017.18793261114     Delta-E=       -0.001169225245 Rises=F Damp=F
 DIIS: error= 1.27D-04 at cycle   5 NSaved=   5.
 NSaved= 5 IEnMin= 5 EnMin= -5017.18793261114     IErMin= 5 ErrMin= 1.27D-04
 ErrMax= 1.27D-04  0.00D+00 EMaxC= 1.00D-01 BMatC= 3.49D-05 BMatP= 1.46D-03
 IDIUse=3 WtCom= 9.99D-01 WtEn= 1.27D-03
 Coeff-Com:  0.103D-02-0.236D-02 0.135D+00 0.181D+00 0.685D+00
 Coeff-En:   0.000D+00 0.000D+00 0.000D+00 0.000D+00 0.100D+01
 Coeff:      0.103D-02-0.236D-02 0.135D+00 0.181D+00 0.685D+00
 Gap=     0.194 Goal=   None    Shift=    0.000
 RMSDP=7.87D-06 MaxDP=1.14D-03 DE=-1.17D-03 OVMax= 1.15D-03

 Cycle   6  Pass 0  IDiag  1:
 RMSU=  5.62D-06    CP:  9.87D-01  8.44D-01  9.30D-01  5.86D-01  7.31D-01
 E= -5017.18795830112     Delta-E=       -0.000025689973 Rises=F Damp=F
 DIIS: error= 8.79D-05 at cycle   6 NSaved=   6.
 NSaved= 6 IEnMin= 6 EnMin= -5017.18795830112     IErMin= 6 ErrMin= 8.79D-05
 ErrMax= 8.79D-05  0.00D+00 EMaxC= 1.00D-01 BMatC= 4.14D-06 BMatP= 3.49D-05
 IDIUse=1 WtCom= 1.00D+00 WtEn= 0.00D+00
 Coeff-Com:  0.232D-03-0.218D-02 0.317D-01 0.458D-01 0.295D+00 0.630D+00
 Coeff:      0.232D-03-0.218D-02 0.317D-01 0.458D-01 0.295D+00 0.630D+00
 Gap=     0.194 Goal=   None    Shift=    0.000
 RMSDP=2.49D-06 MaxDP=4.99D-04 DE=-2.57D-05 OVMax= 3.95D-04

 Initial convergence to 1.0D-05 achieved.  Increase integral accuracy.
 Cycle   7  Pass 1  IDiag  1:
 E= -5017.18848962927     Delta-E=       -0.000531328151 Rises=F Damp=F
 DIIS: error= 2.26D-05 at cycle   1 NSaved=   1.
 NSaved= 1 IEnMin= 1 EnMin= -5017.18848962927     IErMin= 1 ErrMin= 2.26D-05
 ErrMax= 2.26D-05  0.00D+00 EMaxC= 1.00D-01 BMatC= 1.09D-06 BMatP= 1.09D-06
 IDIUse=1 WtCom= 1.00D+00 WtEn= 0.00D+00
 Coeff-Com:  0.100D+01
 Coeff:      0.100D+01
 Gap=     0.194 Goal=   None    Shift=    0.000
 RMSDP=2.49D-06 MaxDP=4.99D-04 DE=-5.31D-04 OVMax= 1.86D-04

 Cycle   8  Pass 1  IDiag  1:
 RMSU=  3.82D-06    CP:  1.00D+00
 E= -5017.18849080165     Delta-E=       -0.000001172382 Rises=F Damp=F
 DIIS: error= 9.65D-06 at cycle   2 NSaved=   2.
 NSaved= 2 IEnMin= 2 EnMin= -5017.18849080165     IErMin= 2 ErrMin= 9.65D-06
 ErrMax= 9.65D-06  0.00D+00 EMaxC= 1.00D-01 BMatC= 1.23D-07 BMatP= 1.09D-06
 IDIUse=1 WtCom= 1.00D+00 WtEn= 0.00D+00
 Coeff-Com:  0.147D+00 0.853D+00
 Coeff:      0.147D+00 0.853D+00
 Gap=     0.194 Goal=   None    Shift=    0.000
 RMSDP=5.60D-07 MaxDP=5.57D-05 DE=-1.17D-06 OVMax= 5.65D-05

 Cycle   9  Pass 1  IDiag  1:
 RMSU=  5.60D-07    CP:  1.00D+00  1.00D+00
 E= -5017.18849081035     Delta-E=       -0.000000008702 Rises=F Damp=F
 DIIS: error= 9.69D-06 at cycle   3 NSaved=   3.
 NSaved= 3 IEnMin= 3 EnMin= -5017.18849081035     IErMin= 2 ErrMin= 9.65D-06
 ErrMax= 9.69D-06  0.00D+00 EMaxC= 1.00D-01 BMatC= 1.16D-07 BMatP= 1.23D-07
 IDIUse=1 WtCom= 1.00D+00 WtEn= 0.00D+00
 Coeff-Com: -0.817D-02 0.494D+00 0.514D+00
 Coeff:     -0.817D-02 0.494D+00 0.514D+00
 Gap=     0.194 Goal=   None    Shift=    0.000
 RMSDP=2.68D-07 MaxDP=2.52D-05 DE=-8.70D-09 OVMax= 2.73D-05

 Cycle  10  Pass 1  IDiag  1:
 RMSU=  7.72D-08    CP:  1.00D+00  1.02D+00  5.55D-01
 E= -5017.18849089340     Delta-E=       -0.000000083046 Rises=F Damp=F
 DIIS: error= 8.38D-07 at cycle   4 NSaved=   4.
 NSaved= 4 IEnMin= 4 EnMin= -5017.18849089340     IErMin= 4 ErrMin= 8.38D-07
 ErrMax= 8.38D-07  0.00D+00 EMaxC= 1.00D-01 BMatC= 4.92D-10 BMatP= 1.16D-07
 IDIUse=1 WtCom= 1.00D+00 WtEn= 0.00D+00
 Coeff-Com: -0.467D-02 0.194D+00 0.210D+00 0.601D+00
 Coeff:     -0.467D-02 0.194D+00 0.210D+00 0.601D+00
 Gap=     0.194 Goal=   None    Shift=    0.000
 RMSDP=3.04D-08 MaxDP=5.95D-06 DE=-8.30D-08 OVMax= 5.41D-06

 Cycle  11  Pass 1  IDiag  1:
 RMSU=  2.43D-08    CP:  1.00D+00  1.02D+00  5.49D-01  7.73D-01
 E= -5017.18849089385     Delta-E=       -0.000000000453 Rises=F Damp=F
 DIIS: error= 2.01D-07 at cycle   5 NSaved=   5.
 NSaved= 5 IEnMin= 5 EnMin= -5017.18849089385     IErMin= 5 ErrMin= 2.01D-07
 ErrMax= 2.01D-07  0.00D+00 EMaxC= 1.00D-01 BMatC= 3.76D-11 BMatP= 4.92D-10
 IDIUse=1 WtCom= 1.00D+00 WtEn= 0.00D+00
 Coeff-Com: -0.119D-02 0.375D-01 0.417D-01 0.240D+00 0.682D+00
 Coeff:     -0.119D-02 0.375D-01 0.417D-01 0.240D+00 0.682D+00
 Gap=     0.194 Goal=   None    Shift=    0.000
 RMSDP=7.06D-09 MaxDP=7.70D-07 DE=-4.53D-10 OVMax= 7.43D-07

 SCF Done:  E(RPBE1PBE) =  -5017.18849089     A.U. after   11 cycles
            NFock= 11  Conv=0.71D-08     -V/T= 2.0028
 KE= 5.003216866188D+03 PE=-2.369659895634D+04 EE= 7.810796081845D+03
 Leave Link  502 at Thu May  3 06:56:42 2018, MaxMem= 14763950080 cpu:      7677.8
 (Enter /cm/shared/gaussian/g09.e01/intel64-sandybridge/g09/l601.exe)
 Copying SCF densities to generalized density rwf, IOpCl= 0 IROHF=0.

 **********************************************************************

            Population analysis using the SCF density.

 **********************************************************************

 Alpha  occ. eigenvalues -- -483.16069 -62.56348 -56.33601 -56.33582 -56.33566
 Alpha  occ. eigenvalues --  -19.22601 -19.20853 -19.19163 -19.18156 -19.18006
 Alpha  occ. eigenvalues --  -19.16573 -19.15282 -19.14862 -19.14669 -19.14206
 Alpha  occ. eigenvalues --  -19.14058 -19.13774 -19.13645 -19.13639 -19.13319
 Alpha  occ. eigenvalues --  -19.12754 -19.12538 -19.11961 -19.11214 -19.10861
 Alpha  occ. eigenvalues --  -19.10256 -19.10149 -19.10148 -19.09955 -19.09809
 Alpha  occ. eigenvalues --  -19.09456 -19.08359 -19.07645 -19.07605 -19.05761
 Alpha  occ. eigenvalues --  -19.05075 -19.04081  -8.66638  -6.47016  -6.46943
 Alpha  occ. eigenvalues --   -6.46878  -2.55289  -2.55276  -2.55227  -2.55166
 Alpha  occ. eigenvalues --   -2.55157  -1.05632  -1.03372  -1.01185  -1.00650
 Alpha  occ. eigenvalues --   -1.00609  -0.99301  -0.97983  -0.97621  -0.97418
 Alpha  occ. eigenvalues --   -0.96763  -0.96454  -0.96314  -0.96259  -0.96081
 Alpha  occ. eigenvalues --   -0.95904  -0.95357  -0.95186  -0.94003  -0.93774
 Alpha  occ. eigenvalues --   -0.93715  -0.92786  -0.92638  -0.92625  -0.92594
 Alpha  occ. eigenvalues --   -0.92370  -0.91838  -0.91142  -0.90470  -0.90183
 Alpha  occ. eigenvalues --   -0.88454  -0.87981  -0.86945  -0.65978  -0.56193
 Alpha  occ. eigenvalues --   -0.53696  -0.51718  -0.51232  -0.51170  -0.51102
 Alpha  occ. eigenvalues --   -0.48906  -0.48414  -0.47779  -0.47609  -0.47454
 Alpha  occ. eigenvalues --   -0.47005  -0.46902  -0.46733  -0.46575  -0.46480
 Alpha  occ. eigenvalues --   -0.46056  -0.44460  -0.44339  -0.44166  -0.44131
 Alpha  occ. eigenvalues --   -0.43494  -0.43314  -0.43179  -0.42930  -0.42339
 Alpha  occ. eigenvalues --   -0.42288  -0.41874  -0.41497  -0.40835  -0.39844
 Alpha  occ. eigenvalues --   -0.39805  -0.39755  -0.38912  -0.37624  -0.37082
 Alpha  occ. eigenvalues --   -0.36563  -0.35805  -0.35085  -0.34875  -0.34459
 Alpha  occ. eigenvalues --   -0.33708  -0.33411  -0.33235  -0.32963  -0.32586
 Alpha  occ. eigenvalues --   -0.32371  -0.32270  -0.32131  -0.31538  -0.31126
 Alpha  occ. eigenvalues --   -0.30491  -0.30300  -0.29638  -0.29449  -0.29418
 Alpha  occ. eigenvalues --   -0.29244  -0.29034  -0.28597  -0.28474  -0.28447
 Alpha  occ. eigenvalues --   -0.28364  -0.27904  -0.27460  -0.26972  -0.26728
 Alpha  occ. eigenvalues --   -0.26276  -0.26047  -0.25698  -0.25583  -0.25411
 Alpha  occ. eigenvalues --   -0.24933  -0.24795  -0.24606  -0.24426  -0.24224
 Alpha  occ. eigenvalues --   -0.24147  -0.24063  -0.24037  -0.23434  -0.22364
 Alpha  occ. eigenvalues --   -0.22320  -0.21640  -0.21509  -0.21419  -0.20952
 Alpha  occ. eigenvalues --   -0.20825  -0.20806  -0.20773  -0.20611  -0.20384
 Alpha  occ. eigenvalues --   -0.20094  -0.20070  -0.19228  -0.18753  -0.18481
 Alpha  occ. eigenvalues --   -0.16821  -0.16532  -0.15647
 Alpha virt. eigenvalues --    0.03733   0.07353   0.08020   0.09046   0.09901
 Alpha virt. eigenvalues --    0.10683   0.11205   0.12211   0.12955   0.13827
 Alpha virt. eigenvalues --    0.14064   0.14940   0.15031   0.16165   0.16425
 Alpha virt. eigenvalues --    0.16995   0.17191   0.17569   0.18116   0.18563
 Alpha virt. eigenvalues --    0.18880   0.19296   0.19440   0.19650   0.20309
 Alpha virt. eigenvalues --    0.20659   0.21014   0.21700   0.21915   0.22656
 Alpha virt. eigenvalues --    0.23075   0.23406   0.24392   0.24719   0.24870
 Alpha virt. eigenvalues --    0.25440   0.26028   0.26107   0.26665   0.27091
 Alpha virt. eigenvalues --    0.27255   0.27776   0.28113   0.28762   0.28996
 Alpha virt. eigenvalues --    0.29320   0.29527   0.29839   0.30777   0.31106
 Alpha virt. eigenvalues --    0.31768   0.32219   0.32466   0.33272   0.33777
 Alpha virt. eigenvalues --    0.34819   0.35153   0.35667   0.36102   0.36884
 Alpha virt. eigenvalues --    0.37217   0.37835   0.38061   0.42375   0.54897
 Alpha virt. eigenvalues --    0.57323   0.58593   0.60202   0.60720   0.61364
 Alpha virt. eigenvalues --    0.61612   0.62164   0.62263   0.62655   0.62806
 Alpha virt. eigenvalues --    0.63160   0.63515   0.63809   0.64402   0.64558
 Alpha virt. eigenvalues --    0.64989   0.65338   0.65422   0.65821   0.66210
 Alpha virt. eigenvalues --    0.66689   0.66792   0.67185   0.67514   0.67633
 Alpha virt. eigenvalues --    0.67764   0.68046   0.68322   0.68541   0.68624
 Alpha virt. eigenvalues --    0.69030   0.69190   0.69423   0.69746   0.69924
 Alpha virt. eigenvalues --    0.70301   0.70651   0.71026   0.71356   0.71492
 Alpha virt. eigenvalues --    0.71846   0.72050   0.72182   0.72624   0.72740
 Alpha virt. eigenvalues --    0.73318   0.73646   0.73952   0.74822   0.75084
 Alpha virt. eigenvalues --    0.75155   0.75882   0.75951   0.76192   0.77020
 Alpha virt. eigenvalues --    0.77050   0.77576   0.77913   0.78518   0.79202
 Alpha virt. eigenvalues --    0.79674   0.80108   0.80462   0.80799   0.81641
 Alpha virt. eigenvalues --    0.82136   0.83679   0.85681   0.85824   0.87356
 Alpha virt. eigenvalues --    0.88291   0.89908   0.90452   0.91043   0.91821
 Alpha virt. eigenvalues --    0.93754   0.94285   0.94766   0.95080   0.96105
 Alpha virt. eigenvalues --    0.96298   0.97046   0.97759   0.99123   0.99321
 Alpha virt. eigenvalues --    0.99593   0.99905   1.00136   1.00412   1.00458
 Alpha virt. eigenvalues --    1.00476   1.00877   1.01193   1.01466   1.01772
 Alpha virt. eigenvalues --    1.02121   1.02387   1.02798   1.02918   1.03180
 Alpha virt. eigenvalues --    1.03220   1.03791   1.03973   1.04232   1.04307
 Alpha virt. eigenvalues --    1.04561   1.04849   1.05102   1.05244   1.05812
 Alpha virt. eigenvalues --    1.06012   1.06242   1.06705   1.06867   1.07226
 Alpha virt. eigenvalues --    1.07515   1.07879   1.08166   1.08499   1.08834
 Alpha virt. eigenvalues --    1.08954   1.09263   1.09402   1.10165   1.10344
 Alpha virt. eigenvalues --    1.10539   1.11162   1.11306   1.11630   1.12068
 Alpha virt. eigenvalues --    1.12181   1.12647   1.12751   1.12952   1.13172
 Alpha virt. eigenvalues --    1.13872   1.14127   1.14812   1.14850   1.15087
 Alpha virt. eigenvalues --    1.15261   1.15727   1.15938   1.16034   1.16379
 Alpha virt. eigenvalues --    1.16967   1.17913   1.18176   1.18547   1.18929
 Alpha virt. eigenvalues --    1.18996   1.19221   1.19569   1.20139   1.20441
 Alpha virt. eigenvalues --    1.21251   1.21334   1.21877   1.22632   1.22884
 Alpha virt. eigenvalues --    1.23523   1.23931   1.24349   1.24960   1.25309
 Alpha virt. eigenvalues --    1.25610   1.25936   1.25991   1.26276   1.26721
 Alpha virt. eigenvalues --    1.26817   1.27141   1.27540   1.27847   1.28396
 Alpha virt. eigenvalues --    1.28710   1.28871   1.29280   1.29491   1.30021
 Alpha virt. eigenvalues --    1.30346   1.30629   1.31018   1.31167   1.31342
 Alpha virt. eigenvalues --    1.31416   1.31723   1.32120   1.32477   1.32651
 Alpha virt. eigenvalues --    1.33101   1.33194   1.33709   1.34003   1.34359
 Alpha virt. eigenvalues --    1.34506   1.34633   1.34835   1.35063   1.35272
 Alpha virt. eigenvalues --    1.35638   1.35961   1.36140   1.36599   1.36777
 Alpha virt. eigenvalues --    1.36997   1.37221   1.37827   1.38094   1.38366
 Alpha virt. eigenvalues --    1.38607   1.39953   1.40237   1.40614   1.41020
 Alpha virt. eigenvalues --    1.41096   1.41680   1.41705   1.42086   1.42356
 Alpha virt. eigenvalues --    1.43321   1.43486   1.44439   1.45038   1.45252
 Alpha virt. eigenvalues --    1.45497   1.46298   1.46958   1.47851   1.48211
 Alpha virt. eigenvalues --    1.48610   1.49228   1.49459   1.49698   1.50368
 Alpha virt. eigenvalues --    1.50947   1.51287   1.51934   1.52394   1.52818
 Alpha virt. eigenvalues --    1.53527   1.54237   1.54520   1.55037   1.55439
 Alpha virt. eigenvalues --    1.55661   1.55763   1.56298   1.56593   1.56955
 Alpha virt. eigenvalues --    1.57623   1.57714   1.58603   1.58932   1.59461
 Alpha virt. eigenvalues --    1.59694   1.60715   1.61441   1.61783   1.61959
 Alpha virt. eigenvalues --    1.62824   1.63283   1.64367   1.64735   1.65880
 Alpha virt. eigenvalues --    1.66224   1.66306   1.67145   1.68590   1.68722
 Alpha virt. eigenvalues --    1.70964   1.71824   1.72309   1.72712   1.72851
 Alpha virt. eigenvalues --    1.73563   1.73718   1.74427   1.74618   1.74739
 Alpha virt. eigenvalues --    1.75070   1.75840   1.76006   1.76323   1.77375
 Alpha virt. eigenvalues --    1.77593   1.77840   1.78064   1.78515   1.78656
 Alpha virt. eigenvalues --    1.78842   1.78940   1.79156   1.79679   1.80084
 Alpha virt. eigenvalues --    1.80580   1.80742   1.81170   1.81656   1.82619
 Alpha virt. eigenvalues --    1.83529   1.83983   1.84285   1.84362   1.85567
 Alpha virt. eigenvalues --    1.85946   1.86191   1.87032   1.87148   1.87324
 Alpha virt. eigenvalues --    1.88160   1.89296   1.89315   1.89463   1.90880
 Alpha virt. eigenvalues --    1.91705   1.92149   1.92635   1.92867   1.93334
 Alpha virt. eigenvalues --    1.94453   1.95501   1.95689   1.96512   1.97327
 Alpha virt. eigenvalues --    1.98170   1.98931   2.01228   2.13501   2.15938
 Alpha virt. eigenvalues --    2.16364   2.17758   2.18413   2.19251   2.19392
 Alpha virt. eigenvalues --    2.19772   2.20068   2.21078   2.21313   2.21624
 Alpha virt. eigenvalues --    2.22121   2.22181   2.22545   2.22729   2.22914
 Alpha virt. eigenvalues --    2.23297   2.23629   2.24004   2.24412   2.24560
 Alpha virt. eigenvalues --    2.24796   2.25046   2.25415   2.25584   2.25612
 Alpha virt. eigenvalues --    2.25631   2.26266   2.27070   2.27531   2.27708
 Alpha virt. eigenvalues --    2.28076   2.28517   2.28980   2.29337   2.29510
 Alpha virt. eigenvalues --    2.29618   2.29729   2.30825   2.31612   2.32519
 Alpha virt. eigenvalues --    2.32748   2.33279   2.33748   2.35682   2.36556
 Alpha virt. eigenvalues --    2.36859   2.38855   2.39756   2.41035   2.41246
 Alpha virt. eigenvalues --    2.41501   2.46737   2.49144   2.49324   2.50368
 Alpha virt. eigenvalues --    2.53016   2.53605   2.54620   2.58405   2.61101
 Alpha virt. eigenvalues --    2.67523   2.68889   2.92048   2.93134   2.94362
 Alpha virt. eigenvalues --    2.94687   2.96121   2.97438   2.97769   2.97824
 Alpha virt. eigenvalues --    2.97902   2.98060   2.98143   2.98157   2.98928
 Alpha virt. eigenvalues --    2.99103   2.99498   2.99615   2.99888   2.99951
 Alpha virt. eigenvalues --    3.00064   3.00229   3.00814   3.01223   3.01297
 Alpha virt. eigenvalues --    3.02824   3.02846   3.02931   3.03075   3.03254
 Alpha virt. eigenvalues --    3.03333   3.03387   3.03687   3.03730   3.03861
 Alpha virt. eigenvalues --    3.04197   3.04355   3.04536   3.04715   3.05016
 Alpha virt. eigenvalues --    3.05056   3.05402   3.05461   3.05576   3.05761
 Alpha virt. eigenvalues --    3.05799   3.06038   3.06536   3.06991   3.07619
 Alpha virt. eigenvalues --    3.07958   3.08115   3.08226   3.08312   3.09230
 Alpha virt. eigenvalues --    3.09495   3.10180   3.10298   3.10454   3.10903
 Alpha virt. eigenvalues --    3.11123   3.11343   3.12186   3.13302   3.14739
 Alpha virt. eigenvalues --    3.15350   3.16549   3.17224   3.18806   3.20392
 Alpha virt. eigenvalues --    3.20471   3.20628   3.21258   3.21319   3.21501
 Alpha virt. eigenvalues --    3.21770   3.22350   3.22960   3.23145   3.23925
 Alpha virt. eigenvalues --    3.24036   3.24068   3.24750   3.25070   3.25331
 Alpha virt. eigenvalues --    3.25461   3.25690   3.25787   3.25870   3.27344
 Alpha virt. eigenvalues --    3.27639   3.28209   3.28664   3.28819   3.29051
 Alpha virt. eigenvalues --    3.30006   3.31813   3.32497   3.49080   3.51015
 Alpha virt. eigenvalues --    3.52679   3.54290   3.56685   3.56900   3.57380
 Alpha virt. eigenvalues --    3.57735   3.58116   3.58599   3.58834   3.59329
 Alpha virt. eigenvalues --    3.59884   3.60454   3.60679   3.60871   3.61408
 Alpha virt. eigenvalues --    3.61597   3.62014   3.62592   3.63130   3.63280
 Alpha virt. eigenvalues --    3.63574   3.64003   3.64823   3.65366   3.67121
 Alpha virt. eigenvalues --    3.67459   3.67527   3.68747   3.69792   3.70671
 Alpha virt. eigenvalues --    3.77953   3.80039   3.81048   3.82314   3.84205
 Alpha virt. eigenvalues --    3.85306   3.85909   3.86622   3.86758   3.87115
 Alpha virt. eigenvalues --    3.87170   3.87491   3.87585   3.88102   3.88890
 Alpha virt. eigenvalues --    3.89503   3.89962   3.90190   3.90939   3.91360
 Alpha virt. eigenvalues --    3.92058   3.92649   3.92827   3.93166   3.93552
 Alpha virt. eigenvalues --    3.93842   3.94420   3.95226   3.95438   3.96635
 Alpha virt. eigenvalues --    3.97862   4.00366
          Condensed to atoms (all electrons):
 Mulliken charges:
               1
     1  Br  -0.708703
     2  O   -0.268306
     3  H    0.132899
     4  H    0.118325
     5  O   -0.275219
     6  H    0.131880
     7  H    0.116713
     8  O   -0.278048
     9  H    0.151729
    10  H    0.128488
    11  O   -0.261825
    12  H    0.148459
    13  H    0.143800
    14  O   -0.279007
    15  H    0.165921
    16  H    0.135477
    17  O   -0.287233
    18  H    0.137230
    19  H    0.152667
    20  O   -0.222306
    21  H    0.142377
    22  H    0.156687
    23  O   -0.260361
    24  H    0.141265
    25  H    0.130217
    26  O   -0.238501
    27  H    0.133710
    28  H    0.120717
    29  O   -0.208806
    30  H    0.153581
    31  H    0.134427
    32  O   -0.301451
    33  H    0.125653
    34  H    0.127714
    35  O   -0.261283
    36  H    0.147132
    37  H    0.148425
    38  O   -0.252133
    39  H    0.157349
    40  H    0.140628
    41  O   -0.353208
    42  H    0.129516
    43  H    0.120575
    44  O   -0.254173
    45  H    0.139335
    46  H    0.110337
    47  O   -0.317397
    48  H    0.128251
    49  H    0.128541
    50  O   -0.247913
    51  H    0.102758
    52  H    0.120040
    53  O   -0.308129
    54  H    0.129378
    55  H    0.093899
    56  O   -0.323240
    57  H    0.114781
    58  H    0.116042
    59  O   -0.268158
    60  H    0.138134
    61  H    0.100765
    62  O   -0.235830
    63  H    0.123919
    64  H    0.148298
    65  O   -0.234175
    66  H    0.136287
    67  H    0.137679
    68  O   -0.265279
    69  H    0.124514
    70  H    0.135242
    71  O   -0.300960
    72  H    0.131005
    73  H    0.130681
    74  O   -0.261420
    75  H    0.116390
    76  H    0.096745
    77  O   -0.205015
    78  H    0.150932
    79  H    0.137254
    80  O   -0.297624
    81  H    0.122222
    82  H    0.118335
    83  O   -0.270287
    84  H    0.139086
    85  H    0.132744
    86  O   -0.301959
    87  H    0.132510
    88  H    0.114730
    89  O   -0.277548
    90  H    0.108606
    91  H    0.106597
    92  O   -0.267413
    93  H    0.134055
    94  H    0.127075
    95  O   -0.278331
    96  H    0.126959
    97  H    0.143555
 Sum of Mulliken charges =  -1.00000
 Mulliken charges with hydrogens summed into heavy atoms:
               1
     1  Br  -0.708703
     2  O   -0.017081
     5  O   -0.026626
     8  O    0.002169
    11  O    0.030434
    14  O    0.022391
    17  O    0.002664
    20  O    0.076758
    23  O    0.011120
    26  O    0.015926
    29  O    0.079201
    32  O   -0.048084
    35  O    0.034274
    38  O    0.045844
    41  O   -0.103117
    44  O   -0.004502
    47  O   -0.060604
    50  O   -0.025115
    53  O   -0.084851
    56  O   -0.092417
    59  O   -0.029260
    62  O    0.036387
    65  O    0.039791
    68  O   -0.005523
    71  O   -0.039273
    74  O   -0.048285
    77  O    0.083172
    80  O   -0.057068
    83  O    0.001543
    86  O   -0.054719
    89  O   -0.062345
    92  O   -0.006283
    95  O   -0.007817
         Mulliken charges condensed to fragments:
      1     -0.708703
      2     -0.291297
 Electronic spatial extent (au):  <R**2>=        1573665.2382
 Charge=             -1.0000 electrons
 Dipole moment (field-independent basis, Debye):
    X=           -112.3280    Y=            -94.5080    Z=            -86.0885  Tot=            170.1781
 Quadrupole moment (field-independent basis, Debye-Ang):
   XX=          -2824.1042   YY=          -2212.2551   ZZ=          -1797.8694
   XY=          -2191.5250   XZ=          -2043.5902   YZ=          -1740.2021
 Traceless Quadrupole moment (field-independent basis, Debye-Ang):
   XX=           -546.0280   YY=             65.8211   ZZ=            480.2069
   XY=          -2191.5250   XZ=          -2043.5902   YZ=          -1740.2021
 Octapole moment (field-independent basis, Debye-Ang**2):
  XXX=         -73524.0157  YYY=         -58204.8126  ZZZ=         -42853.0584  XYY=         -50127.9118
  XXY=         -54788.8594  XXZ=         -52122.5062  XZZ=         -42552.1222  YZZ=         -37227.3043
  YYZ=         -42225.7959  XYZ=         -40638.5296
 Hexadecapole moment (field-independent basis, Debye-Ang**3):
 XXXX=       -1941431.6976 YYYY=       -1618262.2984 ZZZZ=       -1111275.5350 XXXY=       -1420614.6479
 XXXZ=       -1371000.9766 YYYX=       -1285196.4739 YYYZ=       -1143440.9262 ZZZX=        -996343.2773
 ZZZY=        -899282.1765 XXYY=       -1220760.2788 XXZZ=       -1078905.9504 YYZZ=        -915479.0300
 XXYZ=       -1024076.4195 YYXZ=        -955356.0466 ZZXY=        -861317.9019
 N-N= 5.865397517413D+03 E-N=-2.369659895223D+04  KE= 5.003216866188D+03
 No NMR shielding tensors so no spin-rotation constants.
 Leave Link  601 at Thu May  3 06:56:44 2018, MaxMem= 14763950080 cpu:        67.8
 (Enter /cm/shared/gaussian/g09.e01/intel64-sandybridge/g09/l701.exe)
 Compute integral first derivatives.
 ... and contract with generalized density number  0.
 Leave Link  701 at Thu May  3 06:56:46 2018, MaxMem= 14763950080 cpu:       145.8
 (Enter /cm/shared/gaussian/g09.e01/intel64-sandybridge/g09/l702.exe)
 L702 exits ... SP integral derivatives will be done elsewhere.
 Leave Link  702 at Thu May  3 06:56:48 2018, MaxMem= 14763950080 cpu:         2.6
 (Enter /cm/shared/gaussian/g09.e01/intel64-sandybridge/g09/l703.exe)
 Compute integral first derivatives, UseDBF=F ICtDFT=           0.
 Integral derivatives from FoFJK, PRISM(SPDF).
 Calling FoFJK, ICntrl=      2127 FMM=T ISym2X=0 I1Cent= 0 IOpClX= 0 NMat=1 NMatS=1 NMatT=0.
 FoFJK:  IHMeth= 1 ICntrl=    2127 DoSepK=F KAlg= 0 I1Cent=   0 FoldK=F
 IRaf=         0 NMat=   1 IRICut=       1 DoRegI=T DoRafI=F ISym2E= 0.
 FoFCou: FMM=T IPFlag=           0 FMFlag=      100000 FMFlg1=        2001
         NFxFlg=           0 DoJE=F BraDBF=F KetDBF=F FulRan=T
         wScrn=  0.000000 ICntrl=    2127 IOpCl=  0 I1Cent=           0 NGrid=           0
         NMat0=    1 NMatS0=      1 NMatT0=    0 NMatD0=    1 NMtDS0=    0 NMtDT0=    0
 Symmetry not used in FoFCou.
 FMM levels:  10  Number of levels for PrismC:   9
 Leave Link  703 at Thu May  3 06:57:03 2018, MaxMem= 14763950080 cpu:       963.2
 (Enter /cm/shared/gaussian/g09.e01/intel64-sandybridge/g09/l716.exe)
 Dipole        =-4.41932456D+01-3.71823102D+01-3.38698227D+01
 Cartesian Forces:  Max     0.027669971 RMS     0.009257613
 Leave Link  716 at Thu May  3 06:57:03 2018, MaxMem= 14763950080 cpu:         4.6
 (Enter /cm/shared/gaussian/g09.e01/intel64-sandybridge/g09/l122.exe)
 CPIOFr:  IOpCl= 0 IRwI=-1 IRwCP=  731 ICalc= -1 LCPTot=     1005244 Len1MO=     2550559 IndFrg=     1005244
 CPIOFr:  IOpCl= 0 IRwI=-1 IRwCP=  731 ICalc=  0 LCPTot=     1005244 Len1MO=     2550559 IndFrg=     3555803
 Counterpoise: doing DCBS calculation for fragment   1 NewBq=T
 Leave Link  122 at Thu May  3 06:57:03 2018, MaxMem= 14763950080 cpu:         8.8
 (Enter /cm/shared/gaussian/g09.e01/intel64-sandybridge/g09/l301.exe)
 Basis read from rwf:  (5D, 7F)
 No pseudopotential information found on rwf file.
   795 basis functions,  1651 primitive gaussians,   829 cartesian basis functions
    18 alpha electrons       18 beta electrons
       nuclear repulsion energy         0.0000000000 Hartrees.
 IExCor= 1009 DFT=T Ex+Corr=PBE1PBE ExCW=0 ScaHFX=  0.250000
 ScaDFX=  0.750000  0.750000  1.000000  1.000000 ScalE2=  1.000000  1.000000
 IRadAn=      0 IRanWt=     -1 IRanGd=            0 ICorTp=0 IEmpDi=  4
 NAtoms=   97 NActive=   97 NUniq=   97 SFac= 1.00D+00 NAtFMM=   60 NAOKFM=T Big=T
 Integral buffers will be    131072 words long.
 Raffenetti 2 integral format.
 Two-electron integral symmetry is turned off.
 No density basis found on file   718.
 Leave Link  301 at Thu May  3 06:57:03 2018, MaxMem= 14763950080 cpu:         7.0
 (Enter /cm/shared/gaussian/g09.e01/intel64-sandybridge/g09/l302.exe)
 NPDir=0 NMtPBC=     1 NCelOv=     1 NCel=       1 NClECP=     1 NCelD=      1
         NCelK=      1 NCelE2=     1 NClLst=     1 CellRange=     0.0.
 One-electron integrals computed using PRISM.
 NBasis=   795 RedAO= T EigKep=  1.75D-02  NBF=   795
 NBsUse=   795 1.00D-06 EigRej= -1.00D+00 NBFU=   795
 Precomputing XC quadrature grid using
 IXCGrd= 4 IRadAn=           0 IRanWt=          -1 IRanGd=           0 AccXCQ= 0.00D+00.
 Generated NRdTot=       0 NPtTot=           0 NUsed=           0 NTot=          32
 NSgBfM=   712   719   719   719   719 MxSgAt=    97 MxSgA2=    97.
 Leave Link  302 at Thu May  3 06:57:07 2018, MaxMem= 14763950080 cpu:       244.2
 (Enter /cm/shared/gaussian/g09.e01/intel64-sandybridge/g09/l303.exe)
 DipDrv:  MaxL=1.
 Leave Link  303 at Thu May  3 06:57:08 2018, MaxMem= 14763950080 cpu:        29.6
 (Enter /cm/shared/gaussian/g09.e01/intel64-sandybridge/g09/l401.exe)
 ExpMin= 1.22D-01 ExpMax= 6.40D+05 ExpMxC= 6.18D+03 IAcc=2 IRadAn=         4 AccDes= 0.00D+00
 Harris functional with IExCor= 1009 and IRadAn=       4 diagonalized for initial guess.
 HarFok:  IExCor= 1009 AccDes= 0.00D+00 IRadAn=         4 IDoV= 1 UseB2=F ITyADJ=14
 ICtDFT=  3500011 ScaDFX=  1.000000  1.000000  1.000000  1.000000
 FoFCou: FMM=F IPFlag=           0 FMFlag=      100000 FMFlg1=        2001
         NFxFlg=           0 DoJE=T BraDBF=F KetDBF=T FulRan=T
         wScrn=  0.000000 ICntrl=     500 IOpCl=  0 I1Cent=   200000004 NGrid=           0
         NMat0=    1 NMatS0=      1 NMatT0=    0 NMatD0=    1 NMtDS0=    0 NMtDT0=    0
 Symmetry not used in FoFCou.
 Harris En= -2574.01954127325    
 JPrj=0 DoOrth=F DoCkMO=F.
 Leave Link  401 at Thu May  3 06:57:14 2018, MaxMem= 14763950080 cpu:       383.8
 (Enter /cm/shared/gaussian/g09.e01/intel64-sandybridge/g09/l502.exe)
 Closed shell SCF:
 Using DIIS extrapolation, IDIIS=  1040.
 Two-electron integral symmetry not used.
 IVT=     2138497 IEndB=     2138497 NGot= 14763950080 MDV= 14762516294
 LenX= 14762516294 LenY= 14761828224
 Requested convergence on RMS density matrix=1.00D-08 within 128 cycles.
 Requested convergence on MAX density matrix=1.00D-06.
 Requested convergence on             energy=1.00D-06.
 No special actions if energy rises.
 Fock matrices will be formed incrementally for  20 cycles.
 Integral accuracy reduced to 1.0D-05 until final iterations.

 Cycle   1  Pass 0  IDiag  1:
 FoFJK:  IHMeth= 1 ICntrl=       0 DoSepK=F KAlg= 0 I1Cent=   0 FoldK=F
 IRaf= 780000000 NMat=   1 IRICut=       1 DoRegI=T DoRafI=F ISym2E= 0.
 FoFCou: FMM=T IPFlag=           0 FMFlag=      100000 FMFlg1=        2001
         NFxFlg=           0 DoJE=F BraDBF=F KetDBF=F FulRan=T
         wScrn=  0.000000 ICntrl=       0 IOpCl=  0 I1Cent=           0 NGrid=           0
         NMat0=    1 NMatS0=      1 NMatT0=    0 NMatD0=    1 NMtDS0=    0 NMtDT0=    0
 Symmetry not used in FoFCou.
 FMM levels:  10  Number of levels for PrismC:   9
 E= -2573.87856829802    
 DIIS: error= 1.15D-02 at cycle   1 NSaved=   1.
 NSaved= 1 IEnMin= 1 EnMin= -2573.87856829802     IErMin= 1 ErrMin= 1.15D-02
 ErrMax= 1.15D-02  0.00D+00 EMaxC= 1.00D-01 BMatC= 3.78D-02 BMatP= 3.78D-02
 IDIUse=3 WtCom= 8.85D-01 WtEn= 1.15D-01
 Coeff-Com:  0.100D+01
 Coeff-En:   0.100D+01
 Coeff:      0.100D+01
 Gap=     0.186 Goal=   None    Shift=    0.000
 GapD=    0.186 DampG=1.000 DampE=0.500 DampFc=0.5000 IDamp=-1.
 Damping current iteration by 5.00D-01
 RMSDP=4.69D-04 MaxDP=6.64D-02              OVMax= 1.44D-01

 Cycle   2  Pass 0  IDiag  1:
 RMSU=  2.33D-04    CP:  9.95D-01
 E= -2573.89495806470     Delta-E=       -0.016389766689 Rises=F Damp=T
 DIIS: error= 6.72D-03 at cycle   2 NSaved=   2.
 NSaved= 2 IEnMin= 2 EnMin= -2573.89495806470     IErMin= 2 ErrMin= 6.72D-03
 ErrMax= 6.72D-03  0.00D+00 EMaxC= 1.00D-01 BMatC= 8.88D-03 BMatP= 3.78D-02
 IDIUse=3 WtCom= 9.33D-01 WtEn= 6.72D-02
 Coeff-Com: -0.587D+00 0.159D+01
 Coeff-En:   0.000D+00 0.100D+01
 Coeff:     -0.547D+00 0.155D+01
 Gap=     0.190 Goal=   None    Shift=    0.000
 RMSDP=1.64D-04 MaxDP=3.76D-02 DE=-1.64D-02 OVMax= 6.23D-02

 Cycle   3  Pass 0  IDiag  1:
 RMSU=  1.42D-04    CP:  9.95D-01  1.35D+00
 E= -2573.90821371048     Delta-E=       -0.013255645772 Rises=F Damp=F
 DIIS: error= 2.86D-03 at cycle   3 NSaved=   3.
 NSaved= 3 IEnMin= 3 EnMin= -2573.90821371048     IErMin= 3 ErrMin= 2.86D-03
 ErrMax= 2.86D-03  0.00D+00 EMaxC= 1.00D-01 BMatC= 2.25D-03 BMatP= 8.88D-03
 IDIUse=3 WtCom= 9.71D-01 WtEn= 2.86D-02
 Coeff-Com: -0.302D+00 0.713D+00 0.589D+00
 Coeff-En:   0.000D+00 0.000D+00 0.100D+01
 Coeff:     -0.294D+00 0.692D+00 0.601D+00
 Gap=     0.173 Goal=   None    Shift=    0.000
 RMSDP=6.83D-05 MaxDP=1.66D-02 DE=-1.33D-02 OVMax= 1.98D-02

 Cycle   4  Pass 0  IDiag  1:
 RMSU=  8.05D-06    CP:  9.93D-01  1.54D+00  6.37D-01
 E= -2573.91063108122     Delta-E=       -0.002417370740 Rises=F Damp=F
 DIIS: error= 8.90D-05 at cycle   4 NSaved=   4.
 NSaved= 4 IEnMin= 4 EnMin= -2573.91063108122     IErMin= 4 ErrMin= 8.90D-05
 ErrMax= 8.90D-05  0.00D+00 EMaxC= 1.00D-01 BMatC= 1.38D-06 BMatP= 2.25D-03
 IDIUse=1 WtCom= 1.00D+00 WtEn= 0.00D+00
 Coeff-Com: -0.130D-01 0.242D-01 0.373D-01 0.951D+00
 Coeff:     -0.130D-01 0.242D-01 0.373D-01 0.951D+00
 Gap=     0.175 Goal=   None    Shift=    0.000
 RMSDP=2.19D-06 MaxDP=4.13D-04 DE=-2.42D-03 OVMax= 6.84D-04

 Initial convergence to 1.0D-05 achieved.  Increase integral accuracy.
 Cycle   5  Pass 1  IDiag  1:
 E= -2573.91129879318     Delta-E=       -0.000667711964 Rises=F Damp=F
 DIIS: error= 6.55D-06 at cycle   1 NSaved=   1.
 NSaved= 1 IEnMin= 1 EnMin= -2573.91129879318     IErMin= 1 ErrMin= 6.55D-06
 ErrMax= 6.55D-06  0.00D+00 EMaxC= 1.00D-01 BMatC= 4.51D-08 BMatP= 4.51D-08
 IDIUse=1 WtCom= 1.00D+00 WtEn= 0.00D+00
 Coeff-Com:  0.100D+01
 Coeff:      0.100D+01
 Gap=     0.175 Goal=   None    Shift=    0.000
 RMSDP=2.19D-06 MaxDP=4.13D-04 DE=-6.68D-04 OVMax= 2.23D-04

 Cycle   6  Pass 1  IDiag  1:
 RMSU=  9.72D-07    CP:  1.00D+00
 E= -2573.91129889562     Delta-E=       -0.000000102440 Rises=F Damp=F
 DIIS: error= 3.87D-06 at cycle   2 NSaved=   2.
 NSaved= 2 IEnMin= 2 EnMin= -2573.91129889562     IErMin= 2 ErrMin= 3.87D-06
 ErrMax= 3.87D-06  0.00D+00 EMaxC= 1.00D-01 BMatC= 5.02D-09 BMatP= 4.51D-08
 IDIUse=1 WtCom= 1.00D+00 WtEn= 0.00D+00
 Coeff-Com:  0.148D+00 0.852D+00
 Coeff:      0.148D+00 0.852D+00
 Gap=     0.175 Goal=   None    Shift=    0.000
 RMSDP=1.64D-07 MaxDP=3.12D-05 DE=-1.02D-07 OVMax= 5.80D-05

 Cycle   7  Pass 1  IDiag  1:
 RMSU=  1.60D-07    CP:  1.00D+00  1.04D+00
 E= -2573.91129890164     Delta-E=       -0.000000006015 Rises=F Damp=F
 DIIS: error= 1.68D-06 at cycle   3 NSaved=   3.
 NSaved= 3 IEnMin= 3 EnMin= -2573.91129890164     IErMin= 3 ErrMin= 1.68D-06
 ErrMax= 1.68D-06  0.00D+00 EMaxC= 1.00D-01 BMatC= 1.31D-09 BMatP= 5.02D-09
 IDIUse=1 WtCom= 1.00D+00 WtEn= 0.00D+00
 Coeff-Com: -0.343D-01 0.320D+00 0.714D+00
 Coeff:     -0.343D-01 0.320D+00 0.714D+00
 Gap=     0.175 Goal=   None    Shift=    0.000
 RMSDP=5.79D-08 MaxDP=1.12D-05 DE=-6.02D-09 OVMax= 1.95D-05

 Cycle   8  Pass 1  IDiag  1:
 RMSU=  2.64D-08    CP:  1.00D+00  1.07D+00  7.57D-01
 E= -2573.91129890340     Delta-E=       -0.000000001766 Rises=F Damp=F
 DIIS: error= 2.23D-07 at cycle   4 NSaved=   4.
 NSaved= 4 IEnMin= 4 EnMin= -2573.91129890340     IErMin= 4 ErrMin= 2.23D-07
 ErrMax= 2.23D-07  0.00D+00 EMaxC= 1.00D-01 BMatC= 1.84D-11 BMatP= 1.31D-09
 IDIUse=1 WtCom= 1.00D+00 WtEn= 0.00D+00
 Coeff-Com: -0.119D-01 0.850D-01 0.216D+00 0.711D+00
 Coeff:     -0.119D-01 0.850D-01 0.216D+00 0.711D+00
 Gap=     0.175 Goal=   None    Shift=    0.000
 RMSDP=8.74D-09 MaxDP=2.17D-06 DE=-1.77D-09 OVMax= 3.46D-06

 Cycle   9  Pass 1  IDiag  1:
 RMSU=  7.60D-09    CP:  1.00D+00  1.07D+00  7.77D-01  9.21D-01
 E= -2573.91129890342     Delta-E=       -0.000000000020 Rises=F Damp=F
 DIIS: error= 6.77D-08 at cycle   5 NSaved=   5.
 NSaved= 5 IEnMin= 5 EnMin= -2573.91129890342     IErMin= 5 ErrMin= 6.77D-08
 ErrMax= 6.77D-08  0.00D+00 EMaxC= 1.00D-01 BMatC= 1.82D-12 BMatP= 1.84D-11
 IDIUse=1 WtCom= 1.00D+00 WtEn= 0.00D+00
 Coeff-Com:  0.990D-03-0.179D-01-0.322D-01 0.214D+00 0.835D+00
 Coeff:      0.990D-03-0.179D-01-0.322D-01 0.214D+00 0.835D+00
 Gap=     0.175 Goal=   None    Shift=    0.000
 RMSDP=2.59D-09 MaxDP=4.76D-07 DE=-1.96D-11 OVMax= 9.55D-07

 SCF Done:  E(RPBE1PBE) =  -2573.91129890     A.U. after    9 cycles
            NFock=  9  Conv=0.26D-08     -V/T= 2.0013
 KE= 2.570522556373D+03 PE=-6.163008251794D+03 EE= 1.018574396518D+03
 Leave Link  502 at Thu May  3 06:58:46 2018, MaxMem= 14763950080 cpu:      5824.1
 (Enter /cm/shared/gaussian/g09.e01/intel64-sandybridge/g09/l601.exe)
 Copying SCF densities to generalized density rwf, IOpCl= 0 IROHF=0.

 **********************************************************************

            Population analysis using the SCF density.

 **********************************************************************

 Alpha  occ. eigenvalues -- -482.98699 -62.38854 -56.16110 -56.16107 -56.16101
 Alpha  occ. eigenvalues --   -8.48996  -6.29311  -6.29305  -6.29283  -2.37581
 Alpha  occ. eigenvalues --   -2.37580  -2.37562  -2.37557  -2.37553  -0.47082
 Alpha  occ. eigenvalues --   -0.02968  -0.02953  -0.02929
 Alpha virt. eigenvalues --    0.14540   0.15964   0.16000   0.16829   0.17905
 Alpha virt. eigenvalues --    0.18725   0.18953   0.19180   0.19976   0.21054
 Alpha virt. eigenvalues --    0.21602   0.22073   0.22520   0.22661   0.23608
 Alpha virt. eigenvalues --    0.23951   0.24755   0.25001   0.25510   0.25892
 Alpha virt. eigenvalues --    0.26255   0.27251   0.27625   0.28196   0.28490
 Alpha virt. eigenvalues --    0.28841   0.29567   0.30107   0.30442   0.31205
 Alpha virt. eigenvalues --    0.31685   0.31986   0.32545   0.33022   0.33453
 Alpha virt. eigenvalues --    0.33782   0.34201   0.35470   0.35626   0.35968
 Alpha virt. eigenvalues --    0.36626   0.37053   0.37338   0.37494   0.38408
 Alpha virt. eigenvalues --    0.39389   0.39575   0.40409   0.40471   0.41430
 Alpha virt. eigenvalues --    0.41756   0.42130   0.42959   0.43126   0.43474
 Alpha virt. eigenvalues --    0.44537   0.44790   0.45312   0.46402   0.46852
 Alpha virt. eigenvalues --    0.47293   0.48051   0.49403   0.50099   0.61611
 Alpha virt. eigenvalues --    0.62026   0.62564   0.63097   0.63668   0.63788
 Alpha virt. eigenvalues --    0.64399   0.65164   0.65543   0.65712   0.65881
 Alpha virt. eigenvalues --    0.66106   0.66310   0.67157   0.67697   0.67888
 Alpha virt. eigenvalues --    0.68569   0.69285   0.69348   0.69854   0.70375
 Alpha virt. eigenvalues --    0.71336   0.71449   0.71654   0.72349   0.72486
 Alpha virt. eigenvalues --    0.73101   0.73477   0.73674   0.73815   0.74253
 Alpha virt. eigenvalues --    0.74524   0.74710   0.74824   0.74990   0.75148
 Alpha virt. eigenvalues --    0.75666   0.75850   0.76136   0.76666   0.76985
 Alpha virt. eigenvalues --    0.77508   0.77906   0.78048   0.78482   0.78956
 Alpha virt. eigenvalues --    0.79202   0.79615   0.79825   0.79970   0.80288
 Alpha virt. eigenvalues --    0.80918   0.81327   0.81573   0.82426   0.82615
 Alpha virt. eigenvalues --    0.82958   0.83294   0.83580   0.83936   0.84215
 Alpha virt. eigenvalues --    0.84504   0.85126   0.85325   0.85709   0.85991
 Alpha virt. eigenvalues --    0.86476   0.86796   0.87040   0.87492   0.87929
 Alpha virt. eigenvalues --    0.88442   0.88912   0.89132   0.89682   0.89725
 Alpha virt. eigenvalues --    0.90356   0.90769   0.91058   0.91433   0.91657
 Alpha virt. eigenvalues --    0.91955   0.92340   0.92822   0.93280   0.93528
 Alpha virt. eigenvalues --    0.93541   0.93937   0.94775   0.94849   0.95290
 Alpha virt. eigenvalues --    0.95460   0.95767   0.96320   0.96645   0.96958
 Alpha virt. eigenvalues --    0.97595   0.97711   0.98392   0.98647   0.99495
 Alpha virt. eigenvalues --    0.99847   1.00503   1.00788   1.01248   1.01484
 Alpha virt. eigenvalues --    1.02037   1.02173   1.02839   1.03244   1.03440
 Alpha virt. eigenvalues --    1.04227   1.04702   1.04923   1.06064   1.06476
 Alpha virt. eigenvalues --    1.07446   1.08162   1.08821   1.09196   1.09440
 Alpha virt. eigenvalues --    1.10849   1.10969   1.12245   1.12496   1.13882
 Alpha virt. eigenvalues --    1.14597   1.15549   1.15769   1.17047   1.17277
 Alpha virt. eigenvalues --    1.18467   1.20169   1.21109   1.21931   1.22748
 Alpha virt. eigenvalues --    1.26125   1.65511   1.65994   1.67596   1.68051
 Alpha virt. eigenvalues --    1.68148   1.68614   1.69183   1.69463   1.69930
 Alpha virt. eigenvalues --    1.70427   1.70763   1.71091   1.71166   1.71511
 Alpha virt. eigenvalues --    1.71689   1.72439   1.72551   1.72575   1.72862
 Alpha virt. eigenvalues --    1.73406   1.73569   1.73654   1.74310   1.74849
 Alpha virt. eigenvalues --    1.75084   1.75308   1.75489   1.75957   1.76285
 Alpha virt. eigenvalues --    1.76431   1.76662   1.76972   1.77572   1.77861
 Alpha virt. eigenvalues --    1.78267   1.78435   1.78808   1.78922   1.79323
 Alpha virt. eigenvalues --    1.79991   1.80076   1.80166   1.80582   1.80966
 Alpha virt. eigenvalues --    1.81315   1.81539   1.81902   1.82385   1.82775
 Alpha virt. eigenvalues --    1.83416   1.83795   1.83890   1.85079   1.85315
 Alpha virt. eigenvalues --    1.86026   1.86151   1.86721   1.88057   1.88431
 Alpha virt. eigenvalues --    1.89490   1.90910   1.93854   1.94506   1.95448
 Alpha virt. eigenvalues --    1.96394   1.98419   1.98964   1.99153   1.99434
 Alpha virt. eigenvalues --    1.99999   2.00310   2.00439   2.00724   2.00886
 Alpha virt. eigenvalues --    2.01004   2.01323   2.01489   2.01673   2.01792
 Alpha virt. eigenvalues --    2.01829   2.02475   2.02797   2.03191   2.03344
 Alpha virt. eigenvalues --    2.03454   2.03850   2.03906   2.04384   2.04661
 Alpha virt. eigenvalues --    2.05001   2.05230   2.05368   2.05825   2.06016
 Alpha virt. eigenvalues --    2.06169   2.06383   2.06583   2.06782   2.06934
 Alpha virt. eigenvalues --    2.07124   2.07130   2.07471   2.08188   2.08273
 Alpha virt. eigenvalues --    2.08436   2.08710   2.08835   2.09037   2.09523
 Alpha virt. eigenvalues --    2.09926   2.10704   2.11377   2.11809   2.12214
 Alpha virt. eigenvalues --    2.12477   2.13086   2.13419   2.13648   2.14336
 Alpha virt. eigenvalues --    2.14632   2.14866   2.15312   2.15709   2.16779
 Alpha virt. eigenvalues --    2.16988   2.17389   2.17666   2.18300   2.18612
 Alpha virt. eigenvalues --    2.18772   2.19189   2.19328   2.19924   2.20652
 Alpha virt. eigenvalues --    2.21306   2.21644   2.22217   2.22737   2.22973
 Alpha virt. eigenvalues --    2.23613   2.23895   2.24276   2.24976   2.25198
 Alpha virt. eigenvalues --    2.25226   2.26153   2.26817   2.27783   2.28458
 Alpha virt. eigenvalues --    2.29485   2.30175   2.31016   2.31838   2.33104
 Alpha virt. eigenvalues --    2.33208   2.34558   2.34619   2.35943   2.38362
 Alpha virt. eigenvalues --    2.38443   2.40359   2.40475   2.40637   2.40793
 Alpha virt. eigenvalues --    2.41252   2.41309   2.41528   2.41899   2.42354
 Alpha virt. eigenvalues --    2.42572   2.42659   2.43228   2.43407   2.43436
 Alpha virt. eigenvalues --    2.44231   2.44733   2.45096   2.46344   2.46470
 Alpha virt. eigenvalues --    2.47530   2.48490   2.48628   2.49506   2.49913
 Alpha virt. eigenvalues --    2.50908   2.52432   2.53101   2.53548   2.53949
 Alpha virt. eigenvalues --    2.55415   2.55553   2.56133   2.66914   2.66942
 Alpha virt. eigenvalues --    2.67232   2.68278   2.68781   2.69131   2.69252
 Alpha virt. eigenvalues --    2.69400   2.70309   2.70841   2.71330   2.71516
 Alpha virt. eigenvalues --    2.71744   2.72217   2.72390   2.72915   2.73303
 Alpha virt. eigenvalues --    2.74149   2.74496   2.75837   2.78078   2.78429
 Alpha virt. eigenvalues --    2.79178   2.80170   2.80908   2.81464   2.82018
 Alpha virt. eigenvalues --    2.82375   2.82556   2.83241   2.83508   2.84206
 Alpha virt. eigenvalues --    2.84369   2.84598   2.85261   2.85980   2.86355
 Alpha virt. eigenvalues --    2.86564   2.86844   2.86949   2.87594   2.87816
 Alpha virt. eigenvalues --    2.88408   2.88676   2.89953   2.90557   2.91032
 Alpha virt. eigenvalues --    2.91364   2.92063   2.93409   2.94101   2.95615
 Alpha virt. eigenvalues --    2.95819   2.96475   2.98615   2.99653   2.99860
 Alpha virt. eigenvalues --    3.02039   3.02743   3.04564   3.05581   3.06268
 Alpha virt. eigenvalues --    3.07463   3.07704   3.12993   3.13710   3.14749
 Alpha virt. eigenvalues --    3.15185   3.16231   3.16808   3.17635   3.18109
 Alpha virt. eigenvalues --    3.18716   3.19846   3.22091   3.22530   3.22977
 Alpha virt. eigenvalues --    3.25001   3.25272   3.26672   3.27830   3.30511
 Alpha virt. eigenvalues --    3.33586   3.34408   3.36215   3.38630   3.39890
 Alpha virt. eigenvalues --    3.41109   3.44146   3.45255   3.48418   3.49114
 Alpha virt. eigenvalues --    3.51094   3.53773   3.56927   3.67253   4.51424
 Alpha virt. eigenvalues --    4.51624   4.51758   4.51813   4.51832   4.51943
 Alpha virt. eigenvalues --    4.52091   4.52171   4.52312   4.52392   4.52460
 Alpha virt. eigenvalues --    4.52746   4.52905   4.53077   4.53498   4.53632
 Alpha virt. eigenvalues --    4.53820   4.53934   4.54085   4.54160   4.54212
 Alpha virt. eigenvalues --    4.54590   4.54610   4.54678   4.55069   4.55513
 Alpha virt. eigenvalues --    4.55814   4.56260   4.56495   4.56671   4.56730
 Alpha virt. eigenvalues --    4.57967   4.59320   4.59803   4.59808   4.59897
 Alpha virt. eigenvalues --    4.59921   4.60004   4.60252   4.60285   4.60293
 Alpha virt. eigenvalues --    4.60517   4.60775   4.60952   4.61020   4.61288
 Alpha virt. eigenvalues --    4.61417   4.61555   4.61630   4.61787   4.61988
 Alpha virt. eigenvalues --    4.62233   4.62532   4.62904   4.63180   4.63550
 Alpha virt. eigenvalues --    4.63850   4.63858   4.64168   4.64246   4.64777
 Alpha virt. eigenvalues --    4.65492   4.66044   4.68850   4.74606   4.74641
 Alpha virt. eigenvalues --    4.74691   4.74817   4.75636   4.75992   4.76049
 Alpha virt. eigenvalues --    4.76123   4.76375   4.76850   4.77311   4.77504
 Alpha virt. eigenvalues --    4.77947   4.78668   4.78818   4.78980   4.79632
 Alpha virt. eigenvalues --    4.80103   4.80519   4.81183   4.81291   4.81622
 Alpha virt. eigenvalues --    4.81821   4.82107   4.82142   4.82252   4.83297
 Alpha virt. eigenvalues --    4.83608   4.84584   4.84642   4.85044   4.85684
 Alpha virt. eigenvalues --    4.85998   4.86829   4.87053   4.87153   4.87243
 Alpha virt. eigenvalues --    4.87461   4.87710   4.87942   4.88546   4.88963
 Alpha virt. eigenvalues --    4.89101   4.89319   4.89430   4.89775   4.90088
 Alpha virt. eigenvalues --    4.90117   4.90263   4.91480   4.91962   4.93017
 Alpha virt. eigenvalues --    4.94047   4.94118   4.94827   4.94962   4.95779
 Alpha virt. eigenvalues --    4.96490   4.97031   4.97841   4.98374   5.00022
 Alpha virt. eigenvalues --    5.00956   5.02523   5.03440   5.04295   5.04721
 Alpha virt. eigenvalues --    5.05281   5.05709   5.05729   5.06452   5.06684
 Alpha virt. eigenvalues --    5.07078   5.07441   5.07762   5.09309   5.10499
 Alpha virt. eigenvalues --    5.10915   5.11395   5.11705   5.11952   5.12528
 Alpha virt. eigenvalues --    5.13681   5.14475   5.16098   5.17165   5.18289
 Alpha virt. eigenvalues --    5.18364   5.20421   5.20828   5.22151   5.23531
 Alpha virt. eigenvalues --    5.23677   5.27844   5.28105   5.30396   5.34239
 Alpha virt. eigenvalues --    5.35789   5.36206   5.36420   5.36906   5.37308
 Alpha virt. eigenvalues --    5.37911   5.38532   5.39996   5.40166   5.40908
[...]
   X21       33.31587  -0.01363   0.00000  -0.02574  -0.02459  33.29129
   Y21       33.76941  -0.00911   0.00000  -0.01574  -0.01670  33.75270
   Z21       43.33142  -0.00027   0.00000  -0.00834  -0.00809  43.32333
   X22       35.09221   0.00339   0.00000  -0.00088  -0.00017  35.09204
   Y22       35.28119   0.00809   0.00000   0.01713   0.01665  35.29784
   Z22       41.68736  -0.02160   0.00000  -0.04726  -0.04704  41.64031
   X23       38.75828   0.01874   0.00000   0.01836   0.01813  38.77641
   Y23       37.15202   0.01119   0.00000   0.03203   0.03325  37.18526
   Z23       45.24004  -0.00899   0.00000  -0.01386  -0.01358  45.22647
   X24       37.22760  -0.01322   0.00000  -0.00625  -0.00614  37.22147
   Y24       36.33943  -0.00514   0.00000   0.00329   0.00390  36.34333
   Z24       44.72982   0.00268   0.00000   0.02252   0.02279  44.75261
   X25       38.55041   0.00139   0.00000   0.02831   0.02786  38.57827
   Y25       37.49217  -0.00446   0.00000  -0.02892  -0.02759  37.46458
   Z25       46.99749   0.01009   0.00000   0.01361   0.01386  47.01135
   X26       38.00239   0.00848   0.00000  -0.01435  -0.01691  37.98548
   Y26       45.75027   0.01668   0.00000   0.02138   0.02117  45.77144
   Z26       33.82610  -0.01293   0.00000   0.01042   0.00979  33.83589
   X27       37.32209   0.00411   0.00000   0.02565   0.02336  37.34545
   Y27       45.35343  -0.00205   0.00000  -0.01001  -0.01061  45.34282
   Z27       32.18204   0.00190   0.00000   0.00377   0.00314  32.18518
   X28       37.07643  -0.01483   0.00000  -0.01764  -0.01987  37.05655
   Y28       44.71092  -0.01958   0.00000  -0.03896  -0.03938  44.67154
   Z28       34.95993   0.01504   0.00000   0.01196   0.01138  34.97131
   X29       43.59598  -0.00727   0.00000  -0.01097  -0.01321  43.58277
   Y29       44.33298   0.01133   0.00000   0.00316   0.00528  44.33825
   Z29       36.66069   0.00062   0.00000   0.03013   0.03004  36.69072
   X30       44.63533   0.00458   0.00000   0.02254   0.01982  44.65515
   Y30       45.50461   0.00047   0.00000  -0.00817  -0.00557  45.49903
   Z30       37.58665   0.00325   0.00000   0.01416   0.01403  37.60068
   X31       44.16290   0.00789   0.00000   0.02482   0.02315  44.18605
   Y31       42.70781  -0.01647   0.00000  -0.02868  -0.02630  42.68151
   Z31       37.18981  -0.00147   0.00000  -0.02915  -0.02903  37.16078
   X32       42.29207  -0.00646   0.00000  -0.01719  -0.01846  42.27361
   Y32       42.70781   0.00325   0.00000   0.00673   0.00784  42.71565
   Z32       31.38835  -0.02779   0.00000  -0.03586  -0.03588  31.35247
   X33       42.10310   0.00337   0.00000   0.02124   0.02059  42.12368
   Y33       40.95037  -0.00669   0.00000  -0.00133  -0.00024  40.95013
   Z33       31.74740   0.00602   0.00000   0.00956   0.00971  31.75711
   X34       42.65112   0.00140   0.00000  -0.01076  -0.01242  42.63869
   Y34       43.46370   0.00637   0.00000   0.00847   0.00988  43.47358
   Z34       32.97572   0.01655   0.00000  -0.00321  -0.00328  32.97244
   X35       36.43392   0.00492   0.00000   0.01361   0.01480  36.44872
   Y35       36.47171  -0.01722   0.00000  -0.01032  -0.01160  36.46011
   Z35       28.62935  -0.01097   0.00000  -0.01679  -0.01660  28.61276
   X36       36.32054  -0.00545   0.00000  -0.02316  -0.02256  36.29798
   Y36       37.83232   0.01334   0.00000   0.00531   0.00410  37.83641
   Z36       29.81988   0.00854   0.00000   0.00246   0.00251  29.82239
   X37       35.96149  -0.00182   0.00000  -0.00770  -0.00668  35.95481
   Y37       37.22760   0.00610   0.00000   0.02207   0.02045  37.24806
   Z37       27.04198   0.00025   0.00000   0.00227   0.00236  27.04434
   X38       31.63402  -0.01657   0.00000  -0.02399  -0.02488  31.60914
   Y38       39.09843  -0.00231   0.00000  -0.01636  -0.01779  39.08064
   Z38       44.78651  -0.00465   0.00000  -0.01685  -0.01725  44.76926
   X39       33.25918   0.00781   0.00000  -0.00648  -0.00756  33.25162
   Y39       39.70315   0.00082   0.00000  -0.00280  -0.00368  39.69946
   Z39       44.25739  -0.00139   0.00000  -0.00200  -0.00235  44.25504
   X40       31.99306   0.00621   0.00000   0.01762   0.01709  32.01016
   Y40       37.85121  -0.00133   0.00000   0.00685   0.00569  37.85691
   Z40       46.05263   0.00325   0.00000   0.00459   0.00433  46.05696
   X41       34.07176  -0.00701   0.00000   0.00079   0.00350  34.07527
   Y41       31.82299  -0.01887   0.00000  -0.02801  -0.02991  31.79308
   Z41       31.14269  -0.02407   0.00000  -0.04020  -0.03970  31.10299
   X42       34.37412   0.00694   0.00000   0.01044   0.01284  34.38696
   Y42       32.33321   0.00854   0.00000   0.00287   0.00126  32.33448
   Z42       32.84344   0.01474   0.00000  -0.01497  -0.01450  32.82894
   X43       34.84655   0.00305   0.00000  -0.00194   0.00036  34.84691
   Y43       33.12690   0.00721   0.00000   0.01252   0.01080  33.13770
   Z43       30.14113  -0.00119   0.00000  -0.00650  -0.00608  30.13505
   X44       39.06064  -0.00353   0.00000  -0.00303  -0.00540  39.05524
   Y44       42.91568   0.00352   0.00000  -0.00884  -0.00743  42.90825
   Z44       46.10932   0.00946   0.00000   0.01086   0.01060  46.11992
   X45       39.51417   0.00642   0.00000   0.02273   0.02080  39.53497
   Y45       41.98971  -0.00326   0.00000   0.00683   0.00826  41.99798
   Z45       44.61643  -0.01156   0.00000  -0.01404  -0.01418  44.60226
   X46       38.79608  -0.00074   0.00000  -0.00114  -0.00313  38.79295
   Y46       41.63067  -0.00282   0.00000  -0.01675  -0.01530  41.61536
   Z46       47.35654   0.00228   0.00000   0.00580   0.00564  47.36218
   X47       46.56285   0.02467   0.00000   0.02122   0.02125  46.58410
   Y47       37.07643   0.00979   0.00000   0.01309   0.01682  37.09325
   Z47       42.00861  -0.00342   0.00000  -0.01320  -0.01236  41.99625
   X48       46.54395  -0.00157   0.00000   0.00084   0.00060  46.54455
   Y48       37.52996  -0.00099   0.00000  -0.00983  -0.00593  37.52403
   Z48       43.76606   0.00305   0.00000  -0.00146  -0.00066  43.76540
   X49       44.89989  -0.01974   0.00000  -0.00305  -0.00275  44.89714
   Y49       36.45282  -0.01205   0.00000  -0.03269  -0.02959  36.42323
   Z49       41.68736  -0.00223   0.00000  -0.00184  -0.00105  41.68631
   X50       38.24806   0.00730   0.00000   0.00379   0.00574  38.25380
   Y50       31.21828  -0.00363   0.00000   0.00083   0.00185  31.22013
   Z50       45.08887   0.00838   0.00000   0.01010   0.01094  45.09981
   X51       37.41658  -0.00832   0.00000  -0.02264  -0.02105  37.39553
   Y51       32.40880   0.00546   0.00000  -0.00228  -0.00168  32.40713
   Z51       44.01172  -0.00589   0.00000  -0.00096  -0.00029  44.01143
   X52       37.39768   0.00079   0.00000   0.01103   0.01357  37.41126
   Y52       29.64980  -0.00321   0.00000  -0.00874  -0.00806  29.64174
   Z52       44.76761   0.00175   0.00000   0.01420   0.01514  44.78276
   X53       43.42591   0.01858   0.00000  -0.00063   0.00164  43.42754
   Y53       32.42770   0.00871   0.00000   0.02120   0.02301  32.45071
   Z53       34.16625   0.01689   0.00000   0.02996   0.03105  34.19730
   X54       41.95192  -0.01758   0.00000  -0.00215   0.00045  41.95237
   Y54       31.69071  -0.01150   0.00000  -0.02199  -0.02079  31.66991
   Z54       33.44815  -0.01162   0.00000  -0.01510  -0.01404  33.43411
   X55       43.61488  -0.00150   0.00000  -0.00728  -0.00552  43.60935
   Y55       34.01507   0.00497   0.00000   0.00876   0.01055  34.02562
   Z55       33.31587  -0.00407   0.00000  -0.00990  -0.00896  33.30691
   X56       37.60555  -0.01126   0.00000  -0.04157  -0.04504  37.56051
   Y56       46.52506   0.02183   0.00000   0.03462   0.03516  46.56022
   Z56       42.78340  -0.00156   0.00000  -0.00515  -0.00589  42.77751
   X57       37.54886   0.00395   0.00000   0.02038   0.01725  37.56611
   Y57       45.35343  -0.00630   0.00000   0.01189   0.01257  45.36599
   Z57       44.16290   0.00414   0.00000  -0.00124  -0.00186  44.16104
   X58       38.11578   0.00118   0.00000  -0.00531  -0.00831  38.10747
   Y58       45.52350  -0.00766   0.00000  -0.00194  -0.00134  45.52216
   Z58       41.36611  -0.00150   0.00000   0.01563   0.01504  41.38114
   X59       40.36455   0.00047   0.00000   0.00230   0.00572  40.37027
   Y59       27.96795  -0.01804   0.00000  -0.01974  -0.01836  27.94959
   Z59       41.06375  -0.00068   0.00000  -0.01308  -0.01176  41.05199
   X60       40.93147   0.00268   0.00000   0.00262   0.00544  40.93691
   Y60       29.64980   0.01405   0.00000   0.00762   0.00918  29.65899
   Z60       40.74250  -0.00041   0.00000   0.00586   0.00705  40.74955
   X61       38.68269   0.00001   0.00000   0.00326   0.00655  38.68925
   Y61       28.17582   0.00465   0.00000   0.01239   0.01323  28.18905
   Z61       41.70626  -0.00225   0.00000  -0.01485  -0.01367  41.69258
   X62       28.17582  -0.00372   0.00000  -0.01376  -0.01341  28.16241
   Y62       36.41502  -0.00006   0.00000   0.01469   0.01162  36.42664
   Z62       40.85588  -0.00970   0.00000   0.01082   0.01045  40.86633
   X63       29.29076   0.01128   0.00000   0.01701   0.01710  29.30785
   Y63       36.84966   0.01053   0.00000   0.04495   0.04243  36.89208
   Z63       42.21648   0.00979   0.00000   0.00588   0.00554  42.22202
   X64       26.58845  -0.00881   0.00000  -0.01201  -0.01159  26.57686
   Y64       36.09377  -0.00468   0.00000  -0.01643  -0.01999  36.07378
   Z64       41.64956   0.00775   0.00000   0.03119   0.03073  41.68030
   X65       39.47638   0.01206   0.00000   0.01881   0.02233  39.49871
   Y65       29.36634   0.00009   0.00000  -0.02190  -0.02171  29.34463
   Z65       32.27652   0.00486   0.00000   0.00827   0.00939  32.28591
   X66       38.17247  -0.00814   0.00000  -0.02257  -0.01892  38.15355
   Y66       28.76163   0.00072   0.00000   0.01715   0.01697  28.77860
   Z66       33.37256   0.00271   0.00000  -0.00205  -0.00097  33.37160
   X67       38.85277  -0.00483   0.00000  -0.01268  -0.00894  38.84383
   Y67       29.02619   0.00534   0.00000   0.04081   0.04059  29.06679
   Z67       30.61356  -0.00724   0.00000  -0.00645  -0.00535  30.60822
   X68       28.47817   0.00448   0.00000  -0.00408  -0.00264  28.47554
   Y68       34.37412  -0.01061   0.00000  -0.02278  -0.02622  34.34790
   Z68       36.05597  -0.00594   0.00000  -0.00258  -0.00273  36.05325
   X69       28.08133   0.00239   0.00000   0.02485   0.02596  28.10729
   Y69       34.92214   0.00542   0.00000   0.01778   0.01437  34.93651
   Z69       37.73783   0.00926   0.00000   0.00784   0.00761  37.74544
   X70       27.47662   0.00061   0.00000   0.01848   0.01959  27.49621
   Y70       35.45126   0.00325   0.00000   0.00445   0.00055  35.45181
   Z70       34.99773  -0.00457   0.00000  -0.01084  -0.01116  34.98656
   X71       43.18024   0.01013   0.00000   0.02642   0.02790  43.20814
   Y71       32.08755   0.00509   0.00000   0.02532   0.02834  32.11589
   Z71       47.07308   0.01541   0.00000   0.01295   0.01405  47.08713
   X72       44.44636   0.00069   0.00000  -0.00592  -0.00402  44.44234
   Y72       31.16158  -0.00203   0.00000  -0.00420  -0.00083  31.16076
   Z72       46.16601  -0.00616   0.00000  -0.01531  -0.01403  46.15198
   X73       41.95192  -0.00987   0.00000  -0.02012  -0.01868  41.93324
   Y73       32.52219  -0.00407   0.00000  -0.03536  -0.03293  32.48926
   Z73       45.82586  -0.00779   0.00000   0.00863   0.00961  45.83547
   X74       35.92369  -0.00262   0.00000  -0.00804  -0.01217  35.91152
   Y74       49.52972   0.01411   0.00000   0.00411   0.00345  49.53317
   Z74       36.83076   0.01630   0.00000   0.02427   0.02313  36.85389
   X75       34.44971  -0.00129   0.00000   0.00143  -0.00298  34.44673
   Y75       50.39900   0.00098   0.00000   0.00664   0.00539  50.40438
   Z75       36.22605  -0.00154   0.00000  -0.00184  -0.00318  36.22287
   X76       36.11267   0.00426   0.00000   0.02020   0.01666  36.12932
   Y76       48.13132  -0.01265   0.00000   0.00614   0.00545  48.13677
   Z76       35.71582  -0.01572   0.00000  -0.02373  -0.02472  35.69110
   X77       31.10489   0.01351   0.00000   0.00389   0.00085  31.10574
   Y77       45.93924  -0.00665   0.00000  -0.03022  -0.03230  45.90694
   Z77       40.13778  -0.00527   0.00000  -0.01622  -0.01734  40.12044
   X78       30.10334  -0.00492   0.00000   0.01204   0.00892  30.11225
   Y78       45.82586  -0.00011   0.00000   0.00487   0.00258  45.82844
   Z78       41.63067   0.01214   0.00000   0.01650   0.01532  41.64598
   X79       29.91436  -0.01126   0.00000  -0.02287  -0.02594  29.88842
   Y79       46.20380   0.00500   0.00000   0.02205   0.01940  46.22320
   Z79       38.81497  -0.00864   0.00000  -0.00623  -0.00747  38.80751
   X80       40.53463   0.01390   0.00000   0.00376   0.00619  40.54082
   Y80       33.35367  -0.02102   0.00000  -0.01376  -0.01370  33.33996
   Z80       27.17426  -0.01024   0.00000  -0.02231  -0.02152  27.15275
   X81       42.06530   0.00346   0.00000   0.00205   0.00411  42.06942
   Y81       34.29853   0.00276   0.00000  -0.00348  -0.00284  34.29569
   Z81       27.38213   0.00260   0.00000   0.00983   0.01064  27.39277
   X82       39.23071  -0.01781   0.00000  -0.01558  -0.01361  39.21711
   Y82       34.50640   0.01615   0.00000   0.00482   0.00445  34.51085
   Z82       27.60890   0.01090   0.00000   0.03033   0.03092  27.63982
   X83       36.22605  -0.00847   0.00000  -0.01649  -0.01715  36.20890
   Y83       41.97082  -0.00869   0.00000  -0.00324  -0.00482  41.96599
   Z83       26.45617  -0.00237   0.00000   0.00185   0.00148  26.45765
   X84       37.00084   0.00646   0.00000   0.01697   0.01598  37.01682
   Y84       42.59443  -0.00009   0.00000  -0.01868  -0.01982  42.57460
   Z84       27.96795   0.00758   0.00000   0.00800   0.00763  27.97558
   X85       36.67958   0.00359   0.00000   0.01065   0.00963  36.68922
   Y85       43.18024   0.00464   0.00000   0.00233   0.00080  43.18104
   Z85       25.19005  -0.00363   0.00000   0.00143   0.00097  25.19102
   X86       41.87633   0.01610   0.00000   0.02227   0.01831  41.89464
   Y86       49.35965   0.01368   0.00000   0.03473   0.03607  49.39571
   Z86       34.97883  -0.00055   0.00000   0.01672   0.01601  34.99484
   X87       40.21337  -0.00967   0.00000   0.00561   0.00188  40.21525
   Y87       48.71714  -0.00616   0.00000   0.00373   0.00448  48.72162
   Z87       35.26229   0.00064   0.00000  -0.01224  -0.01300  35.24929
   X88       42.97237  -0.00669   0.00000  -0.01857  -0.02205  42.95032
   Y88       47.99904  -0.00230   0.00000  -0.01161  -0.00984  47.98920
   Z88       35.47016  -0.00502   0.00000  -0.03030  -0.03080  35.43936
   X89       26.38058  -0.01358   0.00000  -0.01412  -0.01587  26.36470
   Y89       41.97082   0.01089   0.00000   0.02201   0.01839  41.98921
   Z89       41.95192   0.01082   0.00000   0.00159   0.00053  41.95245
   X90       26.24830   0.00672   0.00000   0.02767   0.02659  26.27489
   Y90       40.17558  -0.00694   0.00000   0.00623   0.00256  40.17814
   Z90       41.80074  -0.00488   0.00000  -0.00999  -0.01088  41.78987
   X91       27.70339   0.01158   0.00000   0.01833   0.01651  27.71989
   Y91       42.42435  -0.00235   0.00000  -0.00799  -0.01123  42.41313
   Z91       40.81808  -0.00868   0.00000  -0.00359  -0.00460  40.81349
   X92       49.83208   0.00891   0.00000   0.00009   0.00188  49.83395
   Y92       33.03241  -0.00590   0.00000  -0.01198  -0.00746  33.02495
   Z92       38.04019  -0.01558   0.00000  -0.01385  -0.01238  38.02781
   X93       48.49037  -0.01056   0.00000  -0.00819  -0.00661  48.48376
   Y93       33.35367   0.00672   0.00000   0.01615   0.02030  33.37397
   Z93       39.19292   0.01206   0.00000   0.00784   0.00918  39.20210
   X94       51.30606  -0.00067   0.00000  -0.01096  -0.00948  51.29658
   Y94       33.71271   0.00319   0.00000   0.00593   0.01107  33.72379
   Z94       38.85277   0.00344   0.00000   0.00233   0.00384  38.85660
   X95       48.64155   0.00707   0.00000   0.00412   0.00558  48.64713
   Y95       35.20560  -0.00414   0.00000  -0.00304   0.00039  35.20599
   Z95       31.35056  -0.00393   0.00000  -0.00520  -0.00403  31.34653
   X96       47.52661  -0.00609   0.00000  -0.01247  -0.01141  47.51520
   Y96       36.43392   0.00614   0.00000   0.00896   0.01190  36.44582
   Z96       30.63246   0.00046   0.00000   0.01334   0.01431  30.64677
   X97       48.18802  -0.00145   0.00000   0.00111   0.00246  48.19048
   Y97       35.16780  -0.00309   0.00000  -0.02196  -0.01852  35.14928
   Z97       33.10800   0.00591   0.00000   0.00380   0.00494  33.11295
         Item               Value     Threshold  Converged?
 Maximum Force            0.027785     0.000450     NO 
 RMS     Force            0.009275     0.000300     NO 
 Maximum Displacement     0.071835     0.001800     NO 
 RMS     Displacement     0.017503     0.001200     NO 
 Predicted change in Energy=-2.362851D-02
 GradGradGradGradGradGradGradGradGradGradGradGradGradGradGradGradGradGrad

 Leave Link  103 at Thu May  3 07:04:06 2018, MaxMem= 14763950080 cpu:        66.1
 (Enter /cm/shared/gaussian/g09.e01/intel64-sandybridge/g09/l9999.exe)
 1\1\GINC-POPLE03\Force\RPBE1PBE\CC-pVDZ\Br1H64O32(1-)\M.PELUSO\03-May-
 2018\0\\#p PBE1PBE/cc-pvDZ force Counterpoise=2 noSymm\\forces on chlo
 ride comput - NWATER: 32\\-1,1\Br,20.,20.,20.\O,18.13,17.74,18.93\H,18
 .48,18.44,19.49\H,17.18,17.81,19.04\O,21.29,22.58,21.5\H,21.19,21.72,2
 1.1\H,21.87,23.06,20.9\O,18.73,21.24,17.12\H,19.11,20.74,17.84\H,18.32
 ,22.,17.54\O,22.9,20.42,18.43\H,21.96,20.36,18.56\H,23.28,20.12,19.25\
 O,22.26,18.38,21.76\H,21.85,18.66,20.93\H,21.68,18.73,22.44\O,18.17,22
 .83,19.45\H,17.73,23.38,20.1\H,18.65,22.18,19.96\O,18.43,18.38,22.96\H
 ,17.63,17.87,22.93\H,18.57,18.67,22.06\O,20.51,19.66,23.94\H,19.7,19.2
 3,23.67\H,20.4,19.84,24.87\O,20.11,24.21,17.9\H,19.75,24.,17.03\H,19.6
 2,23.66,18.5\O,23.07,23.46,19.4\H,23.62,24.08,19.89\H,23.37,22.6,19.68
 \O,22.38,22.6,16.61\H,22.28,21.67,16.8\H,22.57,23.,17.45\O,19.28,19.3,
 15.15\H,19.22,20.02,15.78\H,19.03,19.7,14.31\O,16.74,20.69,23.7\H,17.6
 ,21.01,23.42\H,16.93,20.03,24.37\O,18.03,16.84,16.48\H,18.19,17.11,17.
 38\H,18.44,17.53,15.95\O,20.67,22.71,24.4\H,20.91,22.22,23.61\H,20.53,
 22.03,25.06\O,24.64,19.62,22.23\H,24.63,19.86,23.16\H,23.76,19.29,22.0
 6\O,20.24,16.52,23.86\H,19.8,17.15,23.29\H,19.79,15.69,23.69\O,22.98,1
 7.16,18.08\H,22.2,16.77,17.7\H,23.08,18.,17.63\O,19.9,24.62,22.64\H,19
 .87,24.,23.37\H,20.17,24.09,21.89\O,21.36,14.8,21.73\H,21.66,15.69,21.
 56\H,20.47,14.91,22.07\O,14.91,19.27,21.62\H,15.5,19.5,22.34\H,14.07,1
 9.1,22.04\O,20.89,15.54,17.08\H,20.2,15.22,17.66\H,20.56,15.36,16.2\O,
 15.07,18.19,19.08\H,14.86,18.48,19.97\H,14.54,18.76,18.52\O,22.85,16.9
 8,24.91\H,23.52,16.49,24.43\H,22.2,17.21,24.25\O,19.01,26.21,19.49\H,1
 8.23,26.67,19.17\H,19.11,25.47,18.9\O,16.46,24.31,21.24\H,15.93,24.25,
 22.03\H,15.83,24.45,20.54\O,21.45,17.65,14.38\H,22.26,18.15,14.49\H,20
 .76,18.26,14.61\O,19.17,22.21,14.\H,19.58,22.54,14.8\H,19.41,22.85,13.
 33\O,22.16,26.12,18.51\H,21.28,25.78,18.66\H,22.74,25.4,18.77\O,13.96,
 22.21,22.2\H,13.89,21.26,22.12\H,14.66,22.45,21.6\O,26.37,17.48,20.13\
 H,25.66,17.65,20.74\H,27.15,17.84,20.56\O,25.74,18.63,16.59\H,25.15,19
 .28,16.21\H,25.5,18.61,17.52\\Version=ES64L-G09RevE.01\HF=-2443.129908
 3\RMSD=2.727e-09\RMSF=9.275e-03\Dipole=-5.9731763,1.1292108,3.7280069\
 Quadrupole=-405.3267488,50.101783,355.2249658,-1625.2210312,-1516.7797
 002,-1291.1780148\PG=C01 [X(Br1H64O32)]\\@


 THE WORLD OF CHEMICAL REACTIONS IS LIKE A STAGE,
 ON WHICH SCENE AFTER SCENE IS CEASELESSLY PLAYED.
 THE ACTORS ON IT ARE THE ELEMENTS.
   -- CLEMENS WINKLER   BER. 30,13(1897)
 (DISCOVERER OF GERMANIUM, FEB 6, 1886)
 Job cpu time:       0 days 10 hours  2 minutes  0.7 seconds.
 File lengths (MBytes):  RWF=    482 Int=      0 D2E=      0 Chk=    160 Scr=      1
 Normal termination of Gaussian 09 at Thu May  3 07:04:06 2018.
