 Entering Gaussian System, Link 0=/cm/shared/gaussian/g09.e01/intel64-sandybridge/g09/g09
 Initial command:
 /cm/shared/gaussian/g09.e01/intel64-sandybridge/g09/l1.exe "/local/scratch/m.peluso/32_wat/Gau-46318.inp" -scrdir="/local/scratch/m.peluso/32_wat/"
 Entering Link 1 = /cm/shared/gaussian/g09.e01/intel64-sandybridge/g09/l1.exe PID=     46319.
  
 Copyright (c) 1988,1990,1992,1993,1995,1998,2003,2009,2015,
            Gaussian, Inc.  All Rights Reserved.
  
 This is part of the Gaussian(R) 09 program.  It is based on
 the Gaussian(R) 03 system (copyright 2003, Gaussian, Inc.),
 the Gaussian(R) 98 system (copyright 1998, Gaussian, Inc.),
 the Gaussian(R) 94 system (copyright 1995, Gaussian, Inc.),
 the Gaussian 92(TM) system (copyright 1992, Gaussian, Inc.),
 the Gaussian 90(TM) system (copyright 1990, Gaussian, Inc.),
 the Gaussian 88(TM) system (copyright 1988, Gaussian, Inc.),
 the Gaussian 86(TM) system (copyright 1986, Carnegie Mellon
 University), and the Gaussian 82(TM) system (copyright 1983,
 Carnegie Mellon University). Gaussian is a federally registered
 trademark of Gaussian, Inc.
  
 This software contains proprietary and confidential information,
 including trade secrets, belonging to Gaussian, Inc.
  
 This software is provided under written license and may be
 used, copied, transmitted, or stored only in accord with that
 written license.
  
 The following legend is applicable only to US Government
 contracts under FAR:
  
                    RESTRICTED RIGHTS LEGEND
  
 Use, reproduction and disclosure by the US Government is
 subject to restrictions as set forth in subparagraphs (a)
 and (c) of the Commercial Computer Software - Restricted
 Rights clause in FAR 52.227-19.
  
 Gaussian, Inc.
 340 Quinnipiac St., Bldg. 40, Wallingford CT 06492
  
  
 ---------------------------------------------------------------
 Warning -- This program may not be used in any manner that
 competes with the business of Gaussian, Inc. or will provide
 assistance to any competitor of Gaussian, Inc.  The licensee
 of this program is prohibited from giving any competitor of
 Gaussian, Inc. access to this program.  By using this program,
 the user acknowledges that Gaussian, Inc. is engaged in the
 business of creating and licensing software in the field of
 computational chemistry and represents and warrants to the
 licensee that it is not a competitor of Gaussian, Inc. and that
 it will not use this program in any manner prohibited above.
 ---------------------------------------------------------------
  

 Cite this work as:
 Gaussian 09, Revision E.01,
 M. J. Frisch, G. W. Trucks, H. B. Schlegel, G. E. Scuseria, 
 M. A. Robb, J. R. Cheeseman, G. Scalmani, V. Barone, B. Mennucci, 
 G. A. Petersson, H. Nakatsuji, M. Caricato, X. Li, H. P. Hratchian, 
 A. F. Izmaylov, J. Bloino, G. Zheng, J. L. Sonnenberg, M. Hada, 
 M. Ehara, K. Toyota, R. Fukuda, J. Hasegawa, M. Ishida, T. Nakajima, 
 Y. Honda, O. Kitao, H. Nakai, T. Vreven, J. A. Montgomery, Jr., 
 J. E. Peralta, F. Ogliaro, M. Bearpark, J. J. Heyd, E. Brothers, 
 K. N. Kudin, V. N. Staroverov, T. Keith, R. Kobayashi, J. Normand, 
 K. Raghavachari, A. Rendell, J. C. Burant, S. S. Iyengar, J. Tomasi, 
 M. Cossi, N. Rega, J. M. Millam, M. Klene, J. E. Knox, J. B. Cross, 
 V. Bakken, C. Adamo, J. Jaramillo, R. Gomperts, R. E. Stratmann, 
 O. Yazyev, A. J. Austin, R. Cammi, C. Pomelli, J. W. Ochterski, 
 R. L. Martin, K. Morokuma, V. G. Zakrzewski, G. A. Voth, 
 P. Salvador, J. J. Dannenberg, S. Dapprich, A. D. Daniels, 
 O. Farkas, J. B. Foresman, J. V. Ortiz, J. Cioslowski, 
 and D. J. Fox, Gaussian, Inc., Wallingford CT, 2013.
 
 ******************************************
 Gaussian 09:  ES64L-G09RevE.01 30-Nov-2015
                 3-May-2018 
 ******************************************
 %Mem=110GB
 %NProcShared=64
 Will use up to   64 processors via shared memory.
 %chk=snap64.chk
 ----------------------------------------------
 #p PBE1PBE/cc-pvDZ force Counterpoise=2 noSymm
 ----------------------------------------------
 1/10=7,30=1,38=1,62=2/1,3;
 2/12=2,15=1,17=6,18=5,40=1/2;
 1/10=7,30=1,38=1,53=2,62=2,63=101/22;
 3/5=16,11=2,16=1,25=1,30=1,71=1,74=-13/1,2,3;
 4//1;
 5/5=2,38=5/2;
 6/7=2,8=2,9=2,10=2,28=1/1;
 7/7=1,29=1,30=1,33=-1/1,2,3,16;
 1/10=7,30=1,53=2,62=2,63=101/22;
 3/5=7,6=11,11=2,16=1,25=1,30=1,71=1,74=-13,82=7/1,2,3;
 4//1;
 5/5=2,38=5/2;
 6/7=2,8=2,9=2,10=2,28=1/1;
 7/7=1,29=1,30=1,33=-1/1,2,3,16;
 1/10=7,30=1,53=2,62=2,63=101/22(-5);
 7/9=1,29=1,44=-1/16;
 1/10=7,30=1,62=2/3;
 99//99;
 Leave Link    1 at Thu May  3 06:03:25 2018, MaxMem= 14763950080 cpu:         6.0
 (Enter /cm/shared/gaussian/g09.e01/intel64-sandybridge/g09/l101.exe)
 --------------------------------------
 forces on chloride comput - NWATER: 32
 --------------------------------------
 Symbolic Z-matrix:
 Charge = -1 Multiplicity = 1 in supermolecule
 Charge = -1 Multiplicity = 1 in fragment      1.
 Charge =  0 Multiplicity = 1 in fragment      2.
 Br(Fragment=1)        20.       20.       20. 
 O(Fragment=2)         18.94     16.97     20.53 
 H(Fragment=2)         19.14     17.9      20.37 
 H(Fragment=2)         18.78     16.92     21.47 
 O(Fragment=2)         22.83     19.65     21.56 
 H(Fragment=2)         23.49     19.93     20.92 
 H(Fragment=2)         22.01     19.64     21.06 
 O(Fragment=2)         21.24     22.51     18.33 
 H(Fragment=2)         20.57     22.44     17.65 
 H(Fragment=2)         21.03     21.81     18.95 
 O(Fragment=2)         19.76     18.4      23.34 
 H(Fragment=2)         20.18     18.8      24.1 
 H(Fragment=2)         19.92     19.01     22.62 
 O(Fragment=2)         17.78     21.15     23.15 
 H(Fragment=2)         18.55     21.16     23.71 
 H(Fragment=2)         18.11     20.98     22.27 
 O(Fragment=2)         16.41     19.72     18.43 
 H(Fragment=2)         16.77     19.66     17.54 
 H(Fragment=2)         17.07     20.22     18.91 
 O(Fragment=2)         22.93     17.16     20.63 
 H(Fragment=2)         23.17     18.01     21. 
 H(Fragment=2)         21.98     17.2      20.55 
 O(Fragment=2)         22.87     17.94     17.69 
 H(Fragment=2)         22.76     18.86     17.92 
 H(Fragment=2)         23.6      17.64     18.24 
 O(Fragment=2)         19.95     24.11     20.37 
 H(Fragment=2)         19.07     23.85     20.09 
 H(Fragment=2)         20.53     23.66     19.76 
 O(Fragment=2)         17.36     23.06     20.78 
 H(Fragment=2)         16.93     22.23     20.99 
 H(Fragment=2)         17.81     23.31     21.58 
 O(Fragment=2)         20.54     21.67     23.56 
 H(Fragment=2)         21.32     22.01     23.13 
 H(Fragment=2)         20.31     22.35     24.19 
 O(Fragment=2)         17.15     18.51     23.18 
 H(Fragment=2)         17.09     19.45     23.33 
 H(Fragment=2)         18.09     18.32     23.18 
 O(Fragment=2)         22.28     23.65     22.25 
 H(Fragment=2)         21.63     23.44     21.58 
 H(Fragment=2)         22.02     24.51     22.58 
 O(Fragment=2)         19.42     21.69     16.19 
 H(Fragment=2)         18.52     22.       16.24 
 H(Fragment=2)         19.36     20.84     15.75 
 O(Fragment=2)         22.86     19.69     24.23 
 H(Fragment=2)         22.08     19.3      24.63 
 H(Fragment=2)         22.74     19.56     23.29 
 O(Fragment=2)         20.84     14.84     19.39 
 H(Fragment=2)         20.36     15.55     19.83 
 H(Fragment=2)         20.73     14.09     19.97 
 O(Fragment=2)         18.56     15.48     17.41 
 H(Fragment=2)         17.66     15.15     17.47 
 H(Fragment=2)         18.59     16.21     18.02 
 O(Fragment=2)         24.52     20.34     19.26 
 H(Fragment=2)         24.83     20.36     18.36 
 H(Fragment=2)         25.3      20.15     19.78 
 O(Fragment=2)         24.3      23.26     20.04 
 H(Fragment=2)         24.04     23.37     20.95 
 H(Fragment=2)         23.91     22.42     19.78 
 O(Fragment=2)         15.14     17.19     19.38 
 H(Fragment=2)         15.61     17.93     19. 
 H(Fragment=2)         15.52     17.08     20.25 
 O(Fragment=2)         17.53     14.67     20.4 
 H(Fragment=2)         18.13     15.42     20.41 
 H(Fragment=2)         18.05     13.95     20.04 
 O(Fragment=2)         19.07     24.52     22.83 
 H(Fragment=2)         19.49     24.54     21.97 
 H(Fragment=2)         19.78     24.31     23.44 
 O(Fragment=2)         21.74     22.18     14.91 
 H(Fragment=2)         21.38     21.89     14.07 
 H(Fragment=2)         20.99     22.14     15.51 
 O(Fragment=2)         15.76     16.65     21.93 
 H(Fragment=2)         16.16     15.91     22.4 
 H(Fragment=2)         16.14     17.42     22.35 
 O(Fragment=2)         14.57     20.87     20.76 
 H(Fragment=2)         13.62     20.99     20.67 
 H(Fragment=2)         14.95     21.55     20.21 
 O(Fragment=2)         23.15     18.67     14.98 
 H(Fragment=2)         23.02     18.43     15.9 
 H(Fragment=2)         22.35     18.36     14.54 
 O(Fragment=2)         15.06     23.26     19.2 
 H(Fragment=2)         14.48     23.87     19.65 
 H(Fragment=2)         15.93     23.44     19.56 
 O(Fragment=2)         24.55     22.82     16.98 
 H(Fragment=2)         23.76     23.09     16.5 
 H(Fragment=2)         24.3      22.03     17.44 
 O(Fragment=2)         16.53     19.65     15.71 
 H(Fragment=2)         15.73     19.6      15.19 
 H(Fragment=2)         16.77     20.58     15.7 
 O(Fragment=2)         17.82     17.45     14.6 
 H(Fragment=2)         17.35     16.69     14.95 
 H(Fragment=2)         17.71     18.12     15.27 
 O(Fragment=2)         24.67     22.02     23.74 
 H(Fragment=2)         25.36     21.77     24.35 
 H(Fragment=2)         24.1      21.25     23.7 
 O(Fragment=2)         14.57     21.44     23.55 
 H(Fragment=2)         14.74     22.37     23.66 
 H(Fragment=2)         15.25     21.14     22.94 
 
 NAtoms=     97 NQM=       97 NQMF=       0 NMMI=      0 NMMIF=      0
                NMic=       0 NMicF=      0.
                    Isotopes and Nuclear Properties:
 (Nuclear quadrupole moments (NQMom) in fm**2, nuclear magnetic moments (NMagM)
  in nuclear magnetons)

  Atom         1           2           3           4           5           6           7           8           9          10
 IAtWgt=          79          16           1           1          16           1           1          16           1           1
 AtmWgt=  78.9183361  15.9949146   1.0078250   1.0078250  15.9949146   1.0078250   1.0078250  15.9949146   1.0078250   1.0078250
 NucSpn=           3           0           1           1           0           1           1           0           1           1
 AtZEff=   0.0000000   0.0000000   0.0000000   0.0000000   0.0000000   0.0000000   0.0000000   0.0000000   0.0000000   0.0000000
 NQMom=   31.3000000   0.0000000   0.0000000   0.0000000   0.0000000   0.0000000   0.0000000   0.0000000   0.0000000   0.0000000
 NMagM=    2.1063990   0.0000000   2.7928460   2.7928460   0.0000000   2.7928460   2.7928460   0.0000000   2.7928460   2.7928460
 AtZNuc=  35.0000000   8.0000000   1.0000000   1.0000000   8.0000000   1.0000000   1.0000000   8.0000000   1.0000000   1.0000000

  Atom        11          12          13          14          15          16          17          18          19          20
 IAtWgt=          16           1           1          16           1           1          16           1           1          16
 AtmWgt=  15.9949146   1.0078250   1.0078250  15.9949146   1.0078250   1.0078250  15.9949146   1.0078250   1.0078250  15.9949146
 NucSpn=           0           1           1           0           1           1           0           1           1           0
 AtZEff=   0.0000000   0.0000000   0.0000000   0.0000000   0.0000000   0.0000000   0.0000000   0.0000000   0.0000000   0.0000000
 NQMom=    0.0000000   0.0000000   0.0000000   0.0000000   0.0000000   0.0000000   0.0000000   0.0000000   0.0000000   0.0000000
 NMagM=    0.0000000   2.7928460   2.7928460   0.0000000   2.7928460   2.7928460   0.0000000   2.7928460   2.7928460   0.0000000
 AtZNuc=   8.0000000   1.0000000   1.0000000   8.0000000   1.0000000   1.0000000   8.0000000   1.0000000   1.0000000   8.0000000

  Atom        21          22          23          24          25          26          27          28          29          30
 IAtWgt=           1           1          16           1           1          16           1           1          16           1
 AtmWgt=   1.0078250   1.0078250  15.9949146   1.0078250   1.0078250  15.9949146   1.0078250   1.0078250  15.9949146   1.0078250
 NucSpn=           1           1           0           1           1           0           1           1           0           1
 AtZEff=   0.0000000   0.0000000   0.0000000   0.0000000   0.0000000   0.0000000   0.0000000   0.0000000   0.0000000   0.0000000
 NQMom=    0.0000000   0.0000000   0.0000000   0.0000000   0.0000000   0.0000000   0.0000000   0.0000000   0.0000000   0.0000000
 NMagM=    2.7928460   2.7928460   0.0000000   2.7928460   2.7928460   0.0000000   2.7928460   2.7928460   0.0000000   2.7928460
 AtZNuc=   1.0000000   1.0000000   8.0000000   1.0000000   1.0000000   8.0000000   1.0000000   1.0000000   8.0000000   1.0000000

  Atom        31          32          33          34          35          36          37          38          39          40
 IAtWgt=           1          16           1           1          16           1           1          16           1           1
 AtmWgt=   1.0078250  15.9949146   1.0078250   1.0078250  15.9949146   1.0078250   1.0078250  15.9949146   1.0078250   1.0078250
 NucSpn=           1           0           1           1           0           1           1           0           1           1
 AtZEff=   0.0000000   0.0000000   0.0000000   0.0000000   0.0000000   0.0000000   0.0000000   0.0000000   0.0000000   0.0000000
 NQMom=    0.0000000   0.0000000   0.0000000   0.0000000   0.0000000   0.0000000   0.0000000   0.0000000   0.0000000   0.0000000
 NMagM=    2.7928460   0.0000000   2.7928460   2.7928460   0.0000000   2.7928460   2.7928460   0.0000000   2.7928460   2.7928460
 AtZNuc=   1.0000000   8.0000000   1.0000000   1.0000000   8.0000000   1.0000000   1.0000000   8.0000000   1.0000000   1.0000000

  Atom        41          42          43          44          45          46          47          48          49          50
 IAtWgt=          16           1           1          16           1           1          16           1           1          16
 AtmWgt=  15.9949146   1.0078250   1.0078250  15.9949146   1.0078250   1.0078250  15.9949146   1.0078250   1.0078250  15.9949146
 NucSpn=           0           1           1           0           1           1           0           1           1           0
 AtZEff=   0.0000000   0.0000000   0.0000000   0.0000000   0.0000000   0.0000000   0.0000000   0.0000000   0.0000000   0.0000000
 NQMom=    0.0000000   0.0000000   0.0000000   0.0000000   0.0000000   0.0000000   0.0000000   0.0000000   0.0000000   0.0000000
 NMagM=    0.0000000   2.7928460   2.7928460   0.0000000   2.7928460   2.7928460   0.0000000   2.7928460   2.7928460   0.0000000
 AtZNuc=   8.0000000   1.0000000   1.0000000   8.0000000   1.0000000   1.0000000   8.0000000   1.0000000   1.0000000   8.0000000

  Atom        51          52          53          54          55          56          57          58          59          60
 IAtWgt=           1           1          16           1           1          16           1           1          16           1
 AtmWgt=   1.0078250   1.0078250  15.9949146   1.0078250   1.0078250  15.9949146   1.0078250   1.0078250  15.9949146   1.0078250
 NucSpn=           1           1           0           1           1           0           1           1           0           1
 AtZEff=   0.0000000   0.0000000   0.0000000   0.0000000   0.0000000   0.0000000   0.0000000   0.0000000   0.0000000   0.0000000
 NQMom=    0.0000000   0.0000000   0.0000000   0.0000000   0.0000000   0.0000000   0.0000000   0.0000000   0.0000000   0.0000000
 NMagM=    2.7928460   2.7928460   0.0000000   2.7928460   2.7928460   0.0000000   2.7928460   2.7928460   0.0000000   2.7928460
 AtZNuc=   1.0000000   1.0000000   8.0000000   1.0000000   1.0000000   8.0000000   1.0000000   1.0000000   8.0000000   1.0000000

  Atom        61          62          63          64          65          66          67          68          69          70
 IAtWgt=           1          16           1           1          16           1           1          16           1           1
 AtmWgt=   1.0078250  15.9949146   1.0078250   1.0078250  15.9949146   1.0078250   1.0078250  15.9949146   1.0078250   1.0078250
 NucSpn=           1           0           1           1           0           1           1           0           1           1
 AtZEff=   0.0000000   0.0000000   0.0000000   0.0000000   0.0000000   0.0000000   0.0000000   0.0000000   0.0000000   0.0000000
 NQMom=    0.0000000   0.0000000   0.0000000   0.0000000   0.0000000   0.0000000   0.0000000   0.0000000   0.0000000   0.0000000
 NMagM=    2.7928460   0.0000000   2.7928460   2.7928460   0.0000000   2.7928460   2.7928460   0.0000000   2.7928460   2.7928460
 AtZNuc=   1.0000000   8.0000000   1.0000000   1.0000000   8.0000000   1.0000000   1.0000000   8.0000000   1.0000000   1.0000000

  Atom        71          72          73          74          75          76          77          78          79          80
 IAtWgt=          16           1           1          16           1           1          16           1           1          16
 AtmWgt=  15.9949146   1.0078250   1.0078250  15.9949146   1.0078250   1.0078250  15.9949146   1.0078250   1.0078250  15.9949146
 NucSpn=           0           1           1           0           1           1           0           1           1           0
 AtZEff=   0.0000000   0.0000000   0.0000000   0.0000000   0.0000000   0.0000000   0.0000000   0.0000000   0.0000000   0.0000000
 NQMom=    0.0000000   0.0000000   0.0000000   0.0000000   0.0000000   0.0000000   0.0000000   0.0000000   0.0000000   0.0000000
 NMagM=    0.0000000   2.7928460   2.7928460   0.0000000   2.7928460   2.7928460   0.0000000   2.7928460   2.7928460   0.0000000
 AtZNuc=   8.0000000   1.0000000   1.0000000   8.0000000   1.0000000   1.0000000   8.0000000   1.0000000   1.0000000   8.0000000

  Atom        81          82          83          84          85          86          87          88          89          90
 IAtWgt=           1           1          16           1           1          16           1           1          16           1
 AtmWgt=   1.0078250   1.0078250  15.9949146   1.0078250   1.0078250  15.9949146   1.0078250   1.0078250  15.9949146   1.0078250
 NucSpn=           1           1           0           1           1           0           1           1           0           1
 AtZEff=   0.0000000   0.0000000   0.0000000   0.0000000   0.0000000   0.0000000   0.0000000   0.0000000   0.0000000   0.0000000
 NQMom=    0.0000000   0.0000000   0.0000000   0.0000000   0.0000000   0.0000000   0.0000000   0.0000000   0.0000000   0.0000000
 NMagM=    2.7928460   2.7928460   0.0000000   2.7928460   2.7928460   0.0000000   2.7928460   2.7928460   0.0000000   2.7928460
 AtZNuc=   1.0000000   1.0000000   8.0000000   1.0000000   1.0000000   8.0000000   1.0000000   1.0000000   8.0000000   1.0000000

  Atom        91          92          93          94          95          96          97
 IAtWgt=           1          16           1           1          16           1           1
 AtmWgt=   1.0078250  15.9949146   1.0078250   1.0078250  15.9949146   1.0078250   1.0078250
 NucSpn=           1           0           1           1           0           1           1
 AtZEff=   0.0000000   0.0000000   0.0000000   0.0000000   0.0000000   0.0000000   0.0000000
 NQMom=    0.0000000   0.0000000   0.0000000   0.0000000   0.0000000   0.0000000   0.0000000
 NMagM=    2.7928460   0.0000000   2.7928460   2.7928460   0.0000000   2.7928460   2.7928460
 AtZNuc=   1.0000000   8.0000000   1.0000000   1.0000000   8.0000000   1.0000000   1.0000000
 Leave Link  101 at Thu May  3 06:03:25 2018, MaxMem= 14763950080 cpu:        15.0
 (Enter /cm/shared/gaussian/g09.e01/intel64-sandybridge/g09/l103.exe)

 GradGradGradGradGradGradGradGradGradGradGradGradGradGradGradGradGradGrad
 Berny optimization.
 Initialization pass.
 Trust Radius=3.00D-01 FncErr=1.00D-07 GrdErr=1.00D-07
 Number of steps in this run=      2 maximum allowed number of steps=      2.
 GradGradGradGradGradGradGradGradGradGradGradGradGradGradGradGradGradGrad

 Leave Link  103 at Thu May  3 06:03:25 2018, MaxMem= 14763950080 cpu:         2.3
 (Enter /cm/shared/gaussian/g09.e01/intel64-sandybridge/g09/l202.exe)
 Symmetry turned off by external request.
 Stoichiometry    BrH64O32(1-)
 Framework group  C1[X(BrH64O32)]
 Deg. of freedom   285
 Full point group                 C1      NOp   1
                          Input orientation:                          
 ---------------------------------------------------------------------
 Center     Atomic      Atomic             Coordinates (Angstroms)
 Number     Number       Type             X           Y           Z
 ---------------------------------------------------------------------
      1         35           0       20.000000   20.000000   20.000000
      2          8           0       18.940000   16.970000   20.530000
      3          1           0       19.140000   17.900000   20.370000
      4          1           0       18.780000   16.920000   21.470000
      5          8           0       22.830000   19.650000   21.560000
      6          1           0       23.490000   19.930000   20.920000
      7          1           0       22.010000   19.640000   21.060000
      8          8           0       21.240000   22.510000   18.330000
      9          1           0       20.570000   22.440000   17.650000
     10          1           0       21.030000   21.810000   18.950000
     11          8           0       19.760000   18.400000   23.340000
     12          1           0       20.180000   18.800000   24.100000
     13          1           0       19.920000   19.010000   22.620000
     14          8           0       17.780000   21.150000   23.150000
     15          1           0       18.550000   21.160000   23.710000
     16          1           0       18.110000   20.980000   22.270000
     17          8           0       16.410000   19.720000   18.430000
     18          1           0       16.770000   19.660000   17.540000
     19          1           0       17.070000   20.220000   18.910000
     20          8           0       22.930000   17.160000   20.630000
     21          1           0       23.170000   18.010000   21.000000
     22          1           0       21.980000   17.200000   20.550000
     23          8           0       22.870000   17.940000   17.690000
     24          1           0       22.760000   18.860000   17.920000
     25          1           0       23.600000   17.640000   18.240000
     26          8           0       19.950000   24.110000   20.370000
     27          1           0       19.070000   23.850000   20.090000
     28          1           0       20.530000   23.660000   19.760000
     29          8           0       17.360000   23.060000   20.780000
     30          1           0       16.930000   22.230000   20.990000
     31          1           0       17.810000   23.310000   21.580000
     32          8           0       20.540000   21.670000   23.560000
     33          1           0       21.320000   22.010000   23.130000
     34          1           0       20.310000   22.350000   24.190000
     35          8           0       17.150000   18.510000   23.180000
     36          1           0       17.090000   19.450000   23.330000
     37          1           0       18.090000   18.320000   23.180000
     38          8           0       22.280000   23.650000   22.250000
     39          1           0       21.630000   23.440000   21.580000
     40          1           0       22.020000   24.510000   22.580000
     41          8           0       19.420000   21.690000   16.190000
     42          1           0       18.520000   22.000000   16.240000
     43          1           0       19.360000   20.840000   15.750000
     44          8           0       22.860000   19.690000   24.230000
     45          1           0       22.080000   19.300000   24.630000
     46          1           0       22.740000   19.560000   23.290000
     47          8           0       20.840000   14.840000   19.390000
     48          1           0       20.360000   15.550000   19.830000
     49          1           0       20.730000   14.090000   19.970000
     50          8           0       18.560000   15.480000   17.410000
     51          1           0       17.660000   15.150000   17.470000
     52          1           0       18.590000   16.210000   18.020000
     53          8           0       24.520000   20.340000   19.260000
     54          1           0       24.830000   20.360000   18.360000
     55          1           0       25.300000   20.150000   19.780000
     56          8           0       24.300000   23.260000   20.040000
     57          1           0       24.040000   23.370000   20.950000
     58          1           0       23.910000   22.420000   19.780000
     59          8           0       15.140000   17.190000   19.380000
     60          1           0       15.610000   17.930000   19.000000
     61          1           0       15.520000   17.080000   20.250000
     62          8           0       17.530000   14.670000   20.400000
     63          1           0       18.130000   15.420000   20.410000
     64          1           0       18.050000   13.950000   20.040000
     65          8           0       19.070000   24.520000   22.830000
     66          1           0       19.490000   24.540000   21.970000
     67          1           0       19.780000   24.310000   23.440000
     68          8           0       21.740000   22.180000   14.910000
     69          1           0       21.380000   21.890000   14.070000
     70          1           0       20.990000   22.140000   15.510000
     71          8           0       15.760000   16.650000   21.930000
     72          1           0       16.160000   15.910000   22.400000
     73          1           0       16.140000   17.420000   22.350000
     74          8           0       14.570000   20.870000   20.760000
     75          1           0       13.620000   20.990000   20.670000
     76          1           0       14.950000   21.550000   20.210000
     77          8           0       23.150000   18.670000   14.980000
     78          1           0       23.020000   18.430000   15.900000
     79          1           0       22.350000   18.360000   14.540000
     80          8           0       15.060000   23.260000   19.200000
     81          1           0       14.480000   23.870000   19.650000
     82          1           0       15.930000   23.440000   19.560000
     83          8           0       24.550000   22.820000   16.980000
     84          1           0       23.760000   23.090000   16.500000
     85          1           0       24.300000   22.030000   17.440000
     86          8           0       16.530000   19.650000   15.710000
     87          1           0       15.730000   19.600000   15.190000
     88          1           0       16.770000   20.580000   15.700000
     89          8           0       17.820000   17.450000   14.600000
     90          1           0       17.350000   16.690000   14.950000
     91          1           0       17.710000   18.120000   15.270000
     92          8           0       24.670000   22.020000   23.740000
     93          1           0       25.360000   21.770000   24.350000
     94          1           0       24.100000   21.250000   23.700000
     95          8           0       14.570000   21.440000   23.550000
     96          1           0       14.740000   22.370000   23.660000
     97          1           0       15.250000   21.140000   22.940000
 ---------------------------------------------------------------------
 Rotational constants (GHZ):      0.0595027      0.0526514      0.0456641
 Leave Link  202 at Thu May  3 06:03:26 2018, MaxMem= 14763950080 cpu:         0.6
 (Enter /cm/shared/gaussian/g09.e01/intel64-sandybridge/g09/l122.exe)
 Counterpoise: doing full dimer calculation.
 Leave Link  122 at Thu May  3 06:03:26 2018, MaxMem= 14763950080 cpu:         0.0
 (Enter /cm/shared/gaussian/g09.e01/intel64-sandybridge/g09/l301.exe)
 Standard basis: CC-pVDZ (5D, 7F)
 Ernie: Thresh=  0.10000D-02 Tol=  0.10000D-05 Strict=F.
 Ernie:  87 primitive shells out of 1114 were deleted.
   795 basis functions,  1651 primitive gaussians,   829 cartesian basis functions
   178 alpha electrons      178 beta electrons
       nuclear repulsion energy      5992.9551728501 Hartrees.
 IExCor= 1009 DFT=T Ex+Corr=PBE1PBE ExCW=0 ScaHFX=  0.250000
 ScaDFX=  0.750000  0.750000  1.000000  1.000000 ScalE2=  1.000000  1.000000
 IRadAn=      0 IRanWt=     -1 IRanGd=            0 ICorTp=0 IEmpDi=  4
 NAtoms=   97 NActive=   97 NUniq=   97 SFac= 1.00D+00 NAtFMM=   60 NAOKFM=T Big=T
 Integral buffers will be    131072 words long.
 Raffenetti 2 integral format.
 Two-electron integral symmetry is turned off.
 Leave Link  301 at Thu May  3 06:03:26 2018, MaxMem= 14763950080 cpu:         6.4
 (Enter /cm/shared/gaussian/g09.e01/intel64-sandybridge/g09/l302.exe)
 NPDir=0 NMtPBC=     1 NCelOv=     1 NCel=       1 NClECP=     1 NCelD=      1
         NCelK=      1 NCelE2=     1 NClLst=     1 CellRange=     0.0.
 One-electron integrals computed using PRISM.
 NBasis=   795 RedAO= T EigKep=  1.69D-02  NBF=   795
 NBsUse=   795 1.00D-06 EigRej= -1.00D+00 NBFU=   795
 Precomputing XC quadrature grid using
 IXCGrd= 4 IRadAn=           0 IRanWt=          -1 IRanGd=           0 AccXCQ= 0.00D+00.
 Generated NRdTot=       0 NPtTot=           0 NUsed=           0 NTot=          32
 NSgBfM=   733   734   734   735   735 MxSgAt=    97 MxSgA2=    97.
 Leave Link  302 at Thu May  3 06:03:32 2018, MaxMem= 14763950080 cpu:       372.5
 (Enter /cm/shared/gaussian/g09.e01/intel64-sandybridge/g09/l303.exe)
 DipDrv:  MaxL=1.
 Leave Link  303 at Thu May  3 06:03:32 2018, MaxMem= 14763950080 cpu:        30.4
 (Enter /cm/shared/gaussian/g09.e01/intel64-sandybridge/g09/l401.exe)
 ExpMin= 1.22D-01 ExpMax= 6.40D+05 ExpMxC= 6.18D+03 IAcc=2 IRadAn=         4 AccDes= 0.00D+00
 Harris functional with IExCor= 1009 and IRadAn=       4 diagonalized for initial guess.
 HarFok:  IExCor= 1009 AccDes= 0.00D+00 IRadAn=         4 IDoV= 1 UseB2=F ITyADJ=14
 ICtDFT=  3500011 ScaDFX=  1.000000  1.000000  1.000000  1.000000
 FoFCou: FMM=F IPFlag=           0 FMFlag=      100000 FMFlg1=        2001
         NFxFlg=           0 DoJE=T BraDBF=F KetDBF=T FulRan=T
         wScrn=  0.000000 ICntrl=     500 IOpCl=  0 I1Cent=   200000004 NGrid=           0
         NMat0=    1 NMatS0=      1 NMatT0=    0 NMatD0=    1 NMtDS0=    0 NMtDT0=    0
 Symmetry not used in FoFCou.
 Harris En= -5018.41913878054    
 JPrj=0 DoOrth=F DoCkMO=F.
 Leave Link  401 at Thu May  3 06:03:37 2018, MaxMem= 14763950080 cpu:       331.9
 (Enter /cm/shared/gaussian/g09.e01/intel64-sandybridge/g09/l502.exe)
 Closed shell SCF:
 Using DIIS extrapolation, IDIIS=  1040.
 Two-electron integral symmetry not used.
 IVT=     2138497 IEndB=     2138497 NGot= 14763950080 MDV= 14762516294
 LenX= 14762516294 LenY= 14761828224
 Requested convergence on RMS density matrix=1.00D-08 within 128 cycles.
 Requested convergence on MAX density matrix=1.00D-06.
 Requested convergence on             energy=1.00D-06.
 No special actions if energy rises.
 Fock matrices will be formed incrementally for  20 cycles.
 Integral accuracy reduced to 1.0D-05 until final iterations.

 Cycle   1  Pass 0  IDiag  1:
 FoFJK:  IHMeth= 1 ICntrl=       0 DoSepK=F KAlg= 0 I1Cent=   0 FoldK=F
 IRaf= 800000000 NMat=   1 IRICut=       1 DoRegI=T DoRafI=F ISym2E= 0.
 FoFCou: FMM=T IPFlag=           0 FMFlag=      100000 FMFlg1=        2001
         NFxFlg=           0 DoJE=F BraDBF=F KetDBF=F FulRan=T
         wScrn=  0.000000 ICntrl=       0 IOpCl=  0 I1Cent=           0 NGrid=           0
         NMat0=    1 NMatS0=      1 NMatT0=    0 NMatD0=    1 NMtDS0=    0 NMtDT0=    0
 Symmetry not used in FoFCou.
 FMM levels:  10  Number of levels for PrismC:   9
 E= -5015.20597329770    
 DIIS: error= 3.75D-02 at cycle   1 NSaved=   1.
 NSaved= 1 IEnMin= 1 EnMin= -5015.20597329770     IErMin= 1 ErrMin= 3.75D-02
 ErrMax= 3.75D-02  0.00D+00 EMaxC= 1.00D-01 BMatC= 2.75D+00 BMatP= 2.75D+00
 IDIUse=3 WtCom= 6.25D-01 WtEn= 3.75D-01
 Coeff-Com:  0.100D+01
 Coeff-En:   0.100D+01
 Coeff:      0.100D+01
 Gap=     0.285 Goal=   None    Shift=    0.000
 GapD=    0.285 DampG=1.000 DampE=0.500 DampFc=0.5000 IDamp=-1.
 Damping current iteration by 5.00D-01
 RMSDP=2.86D-03 MaxDP=1.56D-01              OVMax= 1.77D-01

 Cycle   2  Pass 0  IDiag  1:
 RMSU=  1.42D-03    CP:  9.85D-01
 E= -5016.01121142041     Delta-E=       -0.805238122704 Rises=F Damp=T
 DIIS: error= 8.24D-03 at cycle   2 NSaved=   2.
 NSaved= 2 IEnMin= 2 EnMin= -5016.01121142041     IErMin= 2 ErrMin= 8.24D-03
 ErrMax= 8.24D-03  0.00D+00 EMaxC= 1.00D-01 BMatC= 8.86D-02 BMatP= 2.75D+00
 IDIUse=3 WtCom= 9.18D-01 WtEn= 8.24D-02
 Coeff-Com:  0.120D+00 0.880D+00
 Coeff-En:   0.214D+00 0.786D+00
 Coeff:      0.128D+00 0.872D+00
 Gap=     0.151 Goal=   None    Shift=    0.000
 RMSDP=3.54D-04 MaxDP=1.95D-02 DE=-8.05D-01 OVMax= 9.85D-02

 Cycle   3  Pass 0  IDiag  1:
 RMSU=  2.84D-04    CP:  9.87D-01  8.51D-01
 E= -5017.18055720225     Delta-E=       -1.169345781846 Rises=F Damp=F
 DIIS: error= 1.14D-03 at cycle   3 NSaved=   3.
 NSaved= 3 IEnMin= 3 EnMin= -5017.18055720225     IErMin= 3 ErrMin= 1.14D-03
 ErrMax= 1.14D-03  0.00D+00 EMaxC= 1.00D-01 BMatC= 2.04D-03 BMatP= 8.86D-02
 IDIUse=3 WtCom= 9.89D-01 WtEn= 1.14D-02
 Coeff-Com:  0.111D-01 0.731D-01 0.916D+00
 Coeff-En:   0.000D+00 0.000D+00 0.100D+01
 Coeff:      0.110D-01 0.723D-01 0.917D+00
 Gap=     0.170 Goal=   None    Shift=    0.000
 RMSDP=9.49D-05 MaxDP=1.36D-02 DE=-1.17D+00 OVMax= 1.76D-02

 Cycle   4  Pass 0  IDiag  1:
 RMSU=  8.65D-05    CP:  9.87D-01  8.51D-01  8.63D-01
 E= -5017.18084157821     Delta-E=       -0.000284375958 Rises=F Damp=F
 DIIS: error= 1.16D-03 at cycle   4 NSaved=   4.
 NSaved= 4 IEnMin= 4 EnMin= -5017.18084157821     IErMin= 3 ErrMin= 1.14D-03
 ErrMax= 1.16D-03  0.00D+00 EMaxC= 1.00D-01 BMatC= 2.13D-03 BMatP= 2.04D-03
 IDIUse=3 WtCom= 9.88D-01 WtEn= 1.16D-02
 Coeff-Com:  0.237D-02 0.636D-02 0.505D+00 0.487D+00
 Coeff-En:   0.000D+00 0.000D+00 0.459D+00 0.541D+00
 Coeff:      0.234D-02 0.629D-02 0.504D+00 0.487D+00
 Gap=     0.167 Goal=   None    Shift=    0.000
 RMSDP=4.24D-05 MaxDP=4.76D-03 DE=-2.84D-04 OVMax= 5.55D-03

 Cycle   5  Pass 0  IDiag  1:
 RMSU=  1.77D-05    CP:  9.87D-01  8.49D-01  9.18D-01  5.94D-01
 E= -5017.18245445164     Delta-E=       -0.001612873430 Rises=F Damp=F
 DIIS: error= 1.44D-04 at cycle   5 NSaved=   5.
 NSaved= 5 IEnMin= 5 EnMin= -5017.18245445164     IErMin= 5 ErrMin= 1.44D-04
 ErrMax= 1.44D-04  0.00D+00 EMaxC= 1.00D-01 BMatC= 3.16D-05 BMatP= 2.04D-03
 IDIUse=3 WtCom= 9.99D-01 WtEn= 1.44D-03
 Coeff-Com:  0.752D-03-0.174D-02 0.136D+00 0.164D+00 0.701D+00
 Coeff-En:   0.000D+00 0.000D+00 0.000D+00 0.000D+00 0.100D+01
 Coeff:      0.751D-03-0.174D-02 0.136D+00 0.164D+00 0.701D+00
 Gap=     0.167 Goal=   None    Shift=    0.000
 RMSDP=8.52D-06 MaxDP=1.42D-03 DE=-1.61D-03 OVMax= 1.55D-03

 Cycle   6  Pass 0  IDiag  1:
 RMSU=  5.80D-06    CP:  9.87D-01  8.49D-01  9.29D-01  5.75D-01  7.07D-01
 E= -5017.18247810466     Delta-E=       -0.000023653023 Rises=F Damp=F
 DIIS: error= 1.27D-04 at cycle   6 NSaved=   6.
 NSaved= 6 IEnMin= 6 EnMin= -5017.18247810466     IErMin= 6 ErrMin= 1.27D-04
 ErrMax= 1.27D-04  0.00D+00 EMaxC= 1.00D-01 BMatC= 4.48D-06 BMatP= 3.16D-05
 IDIUse=3 WtCom= 9.99D-01 WtEn= 1.27D-03
 Coeff-Com:  0.155D-03-0.203D-02 0.311D-01 0.405D-01 0.304D+00 0.626D+00
 Coeff-En:   0.000D+00 0.000D+00 0.000D+00 0.000D+00 0.000D+00 0.100D+01
 Coeff:      0.155D-03-0.202D-02 0.311D-01 0.405D-01 0.304D+00 0.626D+00
 Gap=     0.167 Goal=   None    Shift=    0.000
 RMSDP=2.61D-06 MaxDP=4.93D-04 DE=-2.37D-05 OVMax= 4.66D-04

 Initial convergence to 1.0D-05 achieved.  Increase integral accuracy.
 Cycle   7  Pass 1  IDiag  1:
 E= -5017.18304073967     Delta-E=       -0.000562635003 Rises=F Damp=F
 DIIS: error= 2.75D-05 at cycle   1 NSaved=   1.
 NSaved= 1 IEnMin= 1 EnMin= -5017.18304073967     IErMin= 1 ErrMin= 2.75D-05
 ErrMax= 2.75D-05  0.00D+00 EMaxC= 1.00D-01 BMatC= 1.24D-06 BMatP= 1.24D-06
 IDIUse=1 WtCom= 1.00D+00 WtEn= 0.00D+00
 Coeff-Com:  0.100D+01
 Coeff:      0.100D+01
 Gap=     0.167 Goal=   None    Shift=    0.000
 RMSDP=2.61D-06 MaxDP=4.93D-04 DE=-5.63D-04 OVMax= 2.59D-04

 Cycle   8  Pass 1  IDiag  1:
 RMSU=  3.95D-06    CP:  1.00D+00
 E= -5017.18304183611     Delta-E=       -0.000001096440 Rises=F Damp=F
 DIIS: error= 1.07D-05 at cycle   2 NSaved=   2.
 NSaved= 2 IEnMin= 2 EnMin= -5017.18304183611     IErMin= 2 ErrMin= 1.07D-05
 ErrMax= 1.07D-05  0.00D+00 EMaxC= 1.00D-01 BMatC= 3.17D-07 BMatP= 1.24D-06
 IDIUse=1 WtCom= 1.00D+00 WtEn= 0.00D+00
 Coeff-Com:  0.270D+00 0.730D+00
 Coeff:      0.270D+00 0.730D+00
 Gap=     0.167 Goal=   None    Shift=    0.000
 RMSDP=7.54D-07 MaxDP=6.32D-05 DE=-1.10D-06 OVMax= 8.20D-05

 Cycle   9  Pass 1  IDiag  1:
 RMSU=  7.53D-07    CP:  1.00D+00  9.88D-01
 E= -5017.18304195078     Delta-E=       -0.000000114676 Rises=F Damp=F
 DIIS: error= 7.53D-06 at cycle   3 NSaved=   3.
 NSaved= 3 IEnMin= 3 EnMin= -5017.18304195078     IErMin= 3 ErrMin= 7.53D-06
 ErrMax= 7.53D-06  0.00D+00 EMaxC= 1.00D-01 BMatC= 1.61D-07 BMatP= 3.17D-07
 IDIUse=1 WtCom= 1.00D+00 WtEn= 0.00D+00
 Coeff-Com: -0.787D-02 0.416D+00 0.592D+00
 Coeff:     -0.787D-02 0.416D+00 0.592D+00
 Gap=     0.167 Goal=   None    Shift=    0.000
 RMSDP=3.14D-07 MaxDP=2.93D-05 DE=-1.15D-07 OVMax= 3.79D-05

 Cycle  10  Pass 1  IDiag  1:
 RMSU=  8.47D-08    CP:  1.00D+00  1.01D+00  6.18D-01
 E= -5017.18304206515     Delta-E=       -0.000000114371 Rises=F Damp=F
 DIIS: error= 8.97D-07 at cycle   4 NSaved=   4.
 NSaved= 4 IEnMin= 4 EnMin= -5017.18304206515     IErMin= 4 ErrMin= 8.97D-07
 ErrMax= 8.97D-07  0.00D+00 EMaxC= 1.00D-01 BMatC= 9.20D-10 BMatP= 1.61D-07
 IDIUse=1 WtCom= 1.00D+00 WtEn= 0.00D+00
 Coeff-Com: -0.550D-02 0.183D+00 0.268D+00 0.555D+00
 Coeff:     -0.550D-02 0.183D+00 0.268D+00 0.555D+00
 Gap=     0.167 Goal=   None    Shift=    0.000
 RMSDP=3.29D-08 MaxDP=4.19D-06 DE=-1.14D-07 OVMax= 4.71D-06

 Cycle  11  Pass 1  IDiag  1:
 RMSU=  2.73D-08    CP:  1.00D+00  1.01D+00  6.20D-01  7.87D-01
 E= -5017.18304206595     Delta-E=       -0.000000000793 Rises=F Damp=F
 DIIS: error= 1.76D-07 at cycle   5 NSaved=   5.
 NSaved= 5 IEnMin= 5 EnMin= -5017.18304206595     IErMin= 5 ErrMin= 1.76D-07
 ErrMax= 1.76D-07  0.00D+00 EMaxC= 1.00D-01 BMatC= 6.56D-11 BMatP= 9.20D-10
 IDIUse=1 WtCom= 1.00D+00 WtEn= 0.00D+00
 Coeff-Com: -0.151D-02 0.367D-01 0.547D-01 0.235D+00 0.675D+00
 Coeff:     -0.151D-02 0.367D-01 0.547D-01 0.235D+00 0.675D+00
 Gap=     0.167 Goal=   None    Shift=    0.000
 RMSDP=8.45D-09 MaxDP=7.93D-07 DE=-7.93D-10 OVMax= 9.64D-07

 SCF Done:  E(RPBE1PBE) =  -5017.18304207     A.U. after   11 cycles
            NFock= 11  Conv=0.85D-08     -V/T= 2.0028
 KE= 5.003289195209D+03 PE=-2.395236065048D+04 EE= 7.938933240353D+03
 Leave Link  502 at Thu May  3 06:05:45 2018, MaxMem= 14763950080 cpu:      8078.3
 (Enter /cm/shared/gaussian/g09.e01/intel64-sandybridge/g09/l601.exe)
 Copying SCF densities to generalized density rwf, IOpCl= 0 IROHF=0.

 **********************************************************************

            Population analysis using the SCF density.

 **********************************************************************

 Alpha  occ. eigenvalues -- -483.14630 -62.54888 -56.32140 -56.32131 -56.32106
 Alpha  occ. eigenvalues --  -19.21156 -19.20193 -19.18956 -19.17332 -19.17304
 Alpha  occ. eigenvalues --  -19.16578 -19.15951 -19.15868 -19.15705 -19.15297
 Alpha  occ. eigenvalues --  -19.15086 -19.14443 -19.13759 -19.13127 -19.12728
 Alpha  occ. eigenvalues --  -19.12706 -19.11369 -19.11316 -19.10849 -19.10330
 Alpha  occ. eigenvalues --  -19.10271 -19.09730 -19.09513 -19.09347 -19.09104
 Alpha  occ. eigenvalues --  -19.09007 -19.08928 -19.08220 -19.08215 -19.08115
 Alpha  occ. eigenvalues --  -19.06960 -19.01103  -8.65147  -6.45525  -6.45478
 Alpha  occ. eigenvalues --   -6.45361  -2.53813  -2.53801  -2.53708  -2.53669
 Alpha  occ. eigenvalues --   -2.53650  -1.03725  -1.02671  -1.01440  -1.00291
 Alpha  occ. eigenvalues --   -1.00092  -0.99319  -0.99023  -0.98758  -0.98232
 Alpha  occ. eigenvalues --   -0.97939  -0.97769  -0.96700  -0.96339  -0.95510
 Alpha  occ. eigenvalues --   -0.95370  -0.95111  -0.94003  -0.93854  -0.93415
 Alpha  occ. eigenvalues --   -0.92990  -0.92965  -0.92790  -0.92188  -0.92101
 Alpha  occ. eigenvalues --   -0.91772  -0.91619  -0.91346  -0.90797  -0.90689
 Alpha  occ. eigenvalues --   -0.90606  -0.89679  -0.84113  -0.64220  -0.54008
 Alpha  occ. eigenvalues --   -0.53207  -0.52370  -0.52141  -0.50588  -0.50351
 Alpha  occ. eigenvalues --   -0.49633  -0.49204  -0.48678  -0.47915  -0.47737
 Alpha  occ. eigenvalues --   -0.47607  -0.47324  -0.47215  -0.46587  -0.45546
 Alpha  occ. eigenvalues --   -0.45230  -0.44884  -0.44793  -0.44178  -0.43938
 Alpha  occ. eigenvalues --   -0.43692  -0.43240  -0.43138  -0.43000  -0.42647
 Alpha  occ. eigenvalues --   -0.41730  -0.41660  -0.41568  -0.41425  -0.41033
 Alpha  occ. eigenvalues --   -0.39629  -0.38379  -0.38343  -0.37623  -0.37515
 Alpha  occ. eigenvalues --   -0.37045  -0.36579  -0.35815  -0.35305  -0.34296
 Alpha  occ. eigenvalues --   -0.33949  -0.33693  -0.33462  -0.33263  -0.32195
 Alpha  occ. eigenvalues --   -0.32084  -0.31876  -0.31535  -0.31363  -0.31220
 Alpha  occ. eigenvalues --   -0.30757  -0.30021  -0.29505  -0.29445  -0.28925
 Alpha  occ. eigenvalues --   -0.28872  -0.28702  -0.28438  -0.28278  -0.27880
 Alpha  occ. eigenvalues --   -0.27775  -0.27660  -0.27314  -0.27240  -0.27146
 Alpha  occ. eigenvalues --   -0.26952  -0.26539  -0.26475  -0.26290  -0.25932
 Alpha  occ. eigenvalues --   -0.25497  -0.25073  -0.24867  -0.24582  -0.24376
 Alpha  occ. eigenvalues --   -0.23669  -0.23374  -0.23252  -0.22476  -0.22280
 Alpha  occ. eigenvalues --   -0.21942  -0.21684  -0.21396  -0.21280  -0.20534
 Alpha  occ. eigenvalues --   -0.20176  -0.20104  -0.19926  -0.19580  -0.19453
 Alpha  occ. eigenvalues --   -0.19344  -0.19271  -0.19152  -0.19004  -0.18682
 Alpha  occ. eigenvalues --   -0.18538  -0.17781  -0.12774
 Alpha virt. eigenvalues --    0.03940   0.06489   0.08305   0.09613   0.09815
 Alpha virt. eigenvalues --    0.11712   0.12453   0.12971   0.13722   0.14112
 Alpha virt. eigenvalues --    0.15110   0.15969   0.16364   0.16561   0.16713
 Alpha virt. eigenvalues --    0.17057   0.17332   0.17934   0.18108   0.18532
 Alpha virt. eigenvalues --    0.19013   0.20023   0.20537   0.20633   0.20768
 Alpha virt. eigenvalues --    0.21357   0.21824   0.22509   0.23025   0.23279
 Alpha virt. eigenvalues --    0.23587   0.23859   0.23966   0.24780   0.25077
 Alpha virt. eigenvalues --    0.25483   0.25871   0.26268   0.26421   0.27248
 Alpha virt. eigenvalues --    0.28063   0.28697   0.28750   0.29393   0.29877
 Alpha virt. eigenvalues --    0.30320   0.30938   0.31119   0.31772   0.32160
 Alpha virt. eigenvalues --    0.32714   0.33177   0.33255   0.34091   0.34502
 Alpha virt. eigenvalues --    0.34732   0.35461   0.35564   0.36286   0.37270
 Alpha virt. eigenvalues --    0.39248   0.39436   0.41690   0.45694   0.57436
 Alpha virt. eigenvalues --    0.57843   0.58956   0.59542   0.59826   0.60352
 Alpha virt. eigenvalues --    0.61202   0.61514   0.61930   0.62212   0.62448
 Alpha virt. eigenvalues --    0.63147   0.63392   0.63887   0.64112   0.64341
 Alpha virt. eigenvalues --    0.64916   0.65167   0.65557   0.66068   0.66325
 Alpha virt. eigenvalues --    0.66715   0.67171   0.67234   0.67374   0.67682
 Alpha virt. eigenvalues --    0.67906   0.68420   0.68603   0.68856   0.69232
 Alpha virt. eigenvalues --    0.69437   0.69468   0.69832   0.70034   0.70216
 Alpha virt. eigenvalues --    0.70413   0.70582   0.70864   0.71074   0.71519
 Alpha virt. eigenvalues --    0.71800   0.72072   0.72112   0.72697   0.73058
 Alpha virt. eigenvalues --    0.73185   0.73540   0.74005   0.74250   0.74748
 Alpha virt. eigenvalues --    0.75457   0.75715   0.76019   0.76406   0.76650
 Alpha virt. eigenvalues --    0.77277   0.77475   0.78745   0.79137   0.79648
 Alpha virt. eigenvalues --    0.79757   0.80758   0.80910   0.81603   0.82316
 Alpha virt. eigenvalues --    0.83111   0.83853   0.84640   0.85052   0.85768
 Alpha virt. eigenvalues --    0.89004   0.90498   0.91293   0.92435   0.94021
 Alpha virt. eigenvalues --    0.94084   0.94672   0.95098   0.95601   0.96493
 Alpha virt. eigenvalues --    0.96692   0.97605   0.97828   0.98077   0.98310
 Alpha virt. eigenvalues --    0.98734   0.99209   0.99713   1.00123   1.00472
 Alpha virt. eigenvalues --    1.00738   1.01317   1.01418   1.01939   1.02358
 Alpha virt. eigenvalues --    1.02822   1.03265   1.03321   1.03733   1.03984
 Alpha virt. eigenvalues --    1.04156   1.04516   1.04625   1.04953   1.05147
 Alpha virt. eigenvalues --    1.05328   1.05576   1.05942   1.06735   1.07017
 Alpha virt. eigenvalues --    1.07249   1.07482   1.07850   1.07968   1.08273
 Alpha virt. eigenvalues --    1.08510   1.08772   1.09188   1.09318   1.09913
 Alpha virt. eigenvalues --    1.10322   1.10708   1.10778   1.10898   1.11505
 Alpha virt. eigenvalues --    1.11703   1.11807   1.11968   1.12210   1.12424
 Alpha virt. eigenvalues --    1.13065   1.13090   1.13767   1.13852   1.14203
 Alpha virt. eigenvalues --    1.14704   1.14865   1.14944   1.15392   1.15601
 Alpha virt. eigenvalues --    1.15727   1.16522   1.16736   1.16886   1.17478
 Alpha virt. eigenvalues --    1.17701   1.17862   1.17897   1.18492   1.18754
 Alpha virt. eigenvalues --    1.19086   1.19464   1.19599   1.20294   1.20503
 Alpha virt. eigenvalues --    1.21220   1.21439   1.22014   1.22198   1.22782
 Alpha virt. eigenvalues --    1.23200   1.23858   1.24034   1.24311   1.24788
 Alpha virt. eigenvalues --    1.25090   1.25560   1.25894   1.26249   1.26915
 Alpha virt. eigenvalues --    1.27070   1.27458   1.27824   1.28493   1.28835
 Alpha virt. eigenvalues --    1.29668   1.29789   1.30392   1.31091   1.31263
 Alpha virt. eigenvalues --    1.31514   1.31980   1.32023   1.32263   1.32514
 Alpha virt. eigenvalues --    1.32598   1.32764   1.33267   1.33399   1.33584
 Alpha virt. eigenvalues --    1.33808   1.34005   1.34561   1.34899   1.35012
 Alpha virt. eigenvalues --    1.35372   1.35657   1.35846   1.36095   1.36518
 Alpha virt. eigenvalues --    1.36590   1.36728   1.36873   1.37278   1.37700
 Alpha virt. eigenvalues --    1.37786   1.38408   1.38483   1.39165   1.39404
 Alpha virt. eigenvalues --    1.39672   1.40008   1.40250   1.40430   1.40672
 Alpha virt. eigenvalues --    1.41134   1.41844   1.42046   1.42293   1.42712
 Alpha virt. eigenvalues --    1.43305   1.43801   1.44407   1.44619   1.44815
 Alpha virt. eigenvalues --    1.45870   1.46476   1.47119   1.47410   1.48036
 Alpha virt. eigenvalues --    1.48521   1.48764   1.49445   1.49711   1.50531
 Alpha virt. eigenvalues --    1.51031   1.51835   1.51986   1.53066   1.53424
 Alpha virt. eigenvalues --    1.53727   1.54274   1.54882   1.55209   1.55475
 Alpha virt. eigenvalues --    1.55731   1.56457   1.57342   1.57651   1.58485
 Alpha virt. eigenvalues --    1.58839   1.59073   1.59357   1.59888   1.61026
 Alpha virt. eigenvalues --    1.61751   1.62071   1.62465   1.62708   1.63576
 Alpha virt. eigenvalues --    1.64190   1.64566   1.65838   1.66353   1.66799
 Alpha virt. eigenvalues --    1.67143   1.68914   1.69785   1.69916   1.70552
 Alpha virt. eigenvalues --    1.70881   1.72307   1.72360   1.72910   1.73018
 Alpha virt. eigenvalues --    1.73285   1.73819   1.74290   1.74477   1.75974
 Alpha virt. eigenvalues --    1.76311   1.76683   1.77149   1.77455   1.77820
 Alpha virt. eigenvalues --    1.78142   1.78483   1.78715   1.79127   1.79427
 Alpha virt. eigenvalues --    1.79914   1.80290   1.80568   1.80773   1.81058
 Alpha virt. eigenvalues --    1.81191   1.81839   1.82494   1.82832   1.83028
 Alpha virt. eigenvalues --    1.83380   1.83625   1.84590   1.85020   1.85495
 Alpha virt. eigenvalues --    1.86321   1.86710   1.87273   1.88172   1.88568
 Alpha virt. eigenvalues --    1.88974   1.89942   1.90399   1.91361   1.91830
 Alpha virt. eigenvalues --    1.92177   1.93823   1.94480   1.94591   1.96076
 Alpha virt. eigenvalues --    1.97552   1.98569   1.99249   2.00195   2.00463
 Alpha virt. eigenvalues --    2.01738   2.03297   2.04676   2.13862   2.17320
 Alpha virt. eigenvalues --    2.18689   2.18744   2.19175   2.20001   2.20319
 Alpha virt. eigenvalues --    2.20500   2.20821   2.20885   2.22376   2.22687
 Alpha virt. eigenvalues --    2.23049   2.23154   2.23168   2.23504   2.24443
 Alpha virt. eigenvalues --    2.24601   2.24752   2.24996   2.25530   2.25714
 Alpha virt. eigenvalues --    2.25932   2.26211   2.26374   2.27064   2.27218
 Alpha virt. eigenvalues --    2.27592   2.27758   2.27825   2.28073   2.28164
 Alpha virt. eigenvalues --    2.28504   2.29206   2.29376   2.29453   2.29724
 Alpha virt. eigenvalues --    2.29865   2.30980   2.31269   2.31441   2.32147
 Alpha virt. eigenvalues --    2.32263   2.32593   2.33852   2.33990   2.36059
 Alpha virt. eigenvalues --    2.38512   2.38591   2.40989   2.42965   2.43314
 Alpha virt. eigenvalues --    2.44455   2.46831   2.52100   2.52351   2.54834
 Alpha virt. eigenvalues --    2.55043   2.56623   2.57159   2.59218   2.62446
 Alpha virt. eigenvalues --    2.64489   2.64605   2.93484   2.93723   2.95107
 Alpha virt. eigenvalues --    2.95683   2.96488   2.97628   2.97824   2.98353
 Alpha virt. eigenvalues --    2.98397   2.98742   2.98982   2.99180   2.99352
 Alpha virt. eigenvalues --    2.99980   3.00317   3.00749   3.00922   3.01331
 Alpha virt. eigenvalues --    3.01647   3.01710   3.02133   3.02493   3.02563
 Alpha virt. eigenvalues --    3.02620   3.03060   3.03264   3.03357   3.03535
 Alpha virt. eigenvalues --    3.03637   3.03736   3.03774   3.03989   3.04239
 Alpha virt. eigenvalues --    3.04485   3.04673   3.04715   3.05159   3.05228
 Alpha virt. eigenvalues --    3.05493   3.06148   3.06338   3.06503   3.07056
 Alpha virt. eigenvalues --    3.07315   3.07658   3.07858   3.08140   3.08180
 Alpha virt. eigenvalues --    3.08382   3.08858   3.08944   3.09178   3.09200
 Alpha virt. eigenvalues --    3.09280   3.09397   3.09627   3.10069   3.10350
 Alpha virt. eigenvalues --    3.10557   3.11624   3.12656   3.12790   3.13872
 Alpha virt. eigenvalues --    3.17009   3.17207   3.17750   3.18379   3.18713
 Alpha virt. eigenvalues --    3.20006   3.20078   3.20666   3.21193   3.21863
 Alpha virt. eigenvalues --    3.22380   3.23178   3.23403   3.24097   3.24544
 Alpha virt. eigenvalues --    3.24641   3.24750   3.25081   3.25145   3.25301
 Alpha virt. eigenvalues --    3.25383   3.26232   3.26552   3.26825   3.27138
 Alpha virt. eigenvalues --    3.27179   3.27459   3.27613   3.28376   3.29589
 Alpha virt. eigenvalues --    3.30509   3.33171   3.35868   3.52225   3.52620
 Alpha virt. eigenvalues --    3.53491   3.54253   3.54518   3.55063   3.57688
 Alpha virt. eigenvalues --    3.58295   3.58562   3.58613   3.59237   3.59591
 Alpha virt. eigenvalues --    3.59877   3.60533   3.61037   3.61333   3.61986
 Alpha virt. eigenvalues --    3.62228   3.62666   3.62702   3.63403   3.63862
 Alpha virt. eigenvalues --    3.64568   3.65004   3.65680   3.66605   3.66929
 Alpha virt. eigenvalues --    3.67889   3.69489   3.70665   3.72154   3.73311
 Alpha virt. eigenvalues --    3.79627   3.82208   3.82426   3.83421   3.84938
 Alpha virt. eigenvalues --    3.85029   3.86006   3.86517   3.86851   3.87211
 Alpha virt. eigenvalues --    3.87643   3.87979   3.88198   3.88767   3.89008
 Alpha virt. eigenvalues --    3.89392   3.90457   3.90670   3.90887   3.91098
 Alpha virt. eigenvalues --    3.91344   3.92891   3.93476   3.93641   3.94795
 Alpha virt. eigenvalues --    3.95327   3.95847   3.96805   3.96965   3.98656
 Alpha virt. eigenvalues --    4.00965   4.01330
          Condensed to atoms (all electrons):
 Mulliken charges:
               1
     1  Br  -0.715620
     2  O   -0.254045
     3  H    0.157555
     4  H    0.133522
     5  O   -0.259609
     6  H    0.138799
     7  H    0.149536
     8  O   -0.272421
     9  H    0.135221
    10  H    0.147581
    11  O   -0.245416
    12  H    0.137921
    13  H    0.140796
    14  O   -0.257580
    15  H    0.138425
    16  H    0.134108
    17  O   -0.248587
    18  H    0.112069
    19  H    0.120530
    20  O   -0.293934
    21  H    0.108884
    22  H    0.115953
    23  O   -0.237650
    24  H    0.131494
    25  H    0.139904
    26  O   -0.282384
    27  H    0.137418
    28  H    0.128736
    29  O   -0.273218
    30  H    0.160467
    31  H    0.128742
    32  O   -0.265385
    33  H    0.132173
    34  H    0.125657
    35  O   -0.307310
    36  H    0.129458
    37  H    0.126885
    38  O   -0.242232
    39  H    0.138894
    40  H    0.140815
    41  O   -0.222743
    42  H    0.146282
    43  H    0.159860
    44  O   -0.283595
    45  H    0.117471
    46  H    0.148699
    47  O   -0.264196
    48  H    0.128142
    49  H    0.111886
    50  O   -0.267157
    51  H    0.128782
    52  H    0.136014
    53  O   -0.228128
    54  H    0.152066
    55  H    0.158643
    56  O   -0.296062
    57  H    0.123500
    58  H    0.112821
    59  O   -0.353542
    60  H    0.102759
    61  H    0.132286
    62  O   -0.287133
    63  H    0.127511
    64  H    0.109288
    65  O   -0.283626
    66  H    0.141395
    67  H    0.109758
    68  O   -0.286544
    69  H    0.118933
    70  H    0.131872
    71  O   -0.269638
    72  H    0.118625
    73  H    0.142574
    74  O   -0.265299
    75  H    0.136416
    76  H    0.100330
    77  O   -0.316228
    78  H    0.117074
    79  H    0.125433
    80  O   -0.265704
    81  H    0.135590
    82  H    0.141642
    83  O   -0.273602
    84  H    0.145127
    85  H    0.107628
    86  O   -0.207237
    87  H    0.162660
    88  H    0.122397
    89  O   -0.298748
    90  H    0.130072
    91  H    0.124488
    92  O   -0.288815
    93  H    0.120805
    94  H    0.127989
    95  O   -0.286402
    96  H    0.109834
    97  H    0.141593
 Sum of Mulliken charges =  -1.00000
 Mulliken charges with hydrogens summed into heavy atoms:
               1
     1  Br  -0.715620
     2  O    0.037032
     5  O    0.028726
     8  O    0.010381
    11  O    0.033300
    14  O    0.014953
    17  O   -0.015988
    20  O   -0.069097
    23  O    0.033749
    26  O   -0.016230
    29  O    0.015992
    32  O   -0.007555
    35  O   -0.050967
    38  O    0.037477
    41  O    0.083399
    44  O   -0.017425
    47  O   -0.024168
    50  O   -0.002361
    53  O    0.082582
    56  O   -0.059741
    59  O   -0.118497
    62  O   -0.050335
    65  O   -0.032473
    68  O   -0.035740
    71  O   -0.008439
    74  O   -0.028553
    77  O   -0.073720
    80  O    0.011528
    83  O   -0.020847
    86  O    0.077820
    89  O   -0.044188
    92  O   -0.040021
    95  O   -0.034974
         Mulliken charges condensed to fragments:
      1     -0.715620
      2     -0.284380
 Electronic spatial extent (au):  <R**2>=        1542978.5109
 Charge=             -1.0000 electrons
 Dipole moment (field-independent basis, Debye):
    X=            -95.7950    Y=            -86.9854    Z=            -92.9260  Tot=            159.3060
 Quadrupole moment (field-independent basis, Debye-Ang):
   XX=          -2234.5912   YY=          -1846.8683   ZZ=          -2042.7103
   XY=          -1800.5255   XZ=          -1790.6505   YZ=          -1691.5712
 Traceless Quadrupole moment (field-independent basis, Debye-Ang):
   XX=           -193.2013   YY=            194.5216   ZZ=             -1.3203
   XY=          -1800.5255   XZ=          -1790.6505   YZ=          -1691.5712
 Octapole moment (field-independent basis, Debye-Ang**2):
  XXX=         -57167.4777  YYY=         -44849.5082  ZZZ=         -49362.7747  XYY=         -39521.0816
  XXY=         -43616.7636  XXZ=         -41010.6493  XZZ=         -38336.7733  YZZ=         -37710.2897
  YYZ=         -36134.4276  XYZ=         -33751.8254
 Hexadecapole moment (field-independent basis, Debye-Ang**3):
 XXXX=       -1521141.6968 YYYY=       -1180371.2659 ZZZZ=       -1261763.0592 XXXY=       -1147555.7583
 XXXZ=       -1045913.5619 YYYX=        -978316.7278 YYYZ=        -882231.9001 ZZZX=        -913870.4134
 ZZZY=        -927429.3102 XXYY=        -972756.5376 XXZZ=        -853455.9851 YYZZ=        -804993.3630
 XXYZ=        -802657.5956 YYXZ=        -747116.3137 ZZXY=        -728904.7948
 N-N= 5.992955172850D+03 E-N=-2.395236062192D+04  KE= 5.003289195209D+03
 No NMR shielding tensors so no spin-rotation constants.
 Leave Link  601 at Thu May  3 06:05:46 2018, MaxMem= 14763950080 cpu:        69.4
 (Enter /cm/shared/gaussian/g09.e01/intel64-sandybridge/g09/l701.exe)
 Compute integral first derivatives.
 ... and contract with generalized density number  0.
 Leave Link  701 at Thu May  3 06:05:49 2018, MaxMem= 14763950080 cpu:       148.1
 (Enter /cm/shared/gaussian/g09.e01/intel64-sandybridge/g09/l702.exe)
 L702 exits ... SP integral derivatives will be done elsewhere.
 Leave Link  702 at Thu May  3 06:05:49 2018, MaxMem= 14763950080 cpu:         2.5
 (Enter /cm/shared/gaussian/g09.e01/intel64-sandybridge/g09/l703.exe)
 Compute integral first derivatives, UseDBF=F ICtDFT=           0.
 Integral derivatives from FoFJK, PRISM(SPDF).
 Calling FoFJK, ICntrl=      2127 FMM=T ISym2X=0 I1Cent= 0 IOpClX= 0 NMat=1 NMatS=1 NMatT=0.
 FoFJK:  IHMeth= 1 ICntrl=    2127 DoSepK=F KAlg= 0 I1Cent=   0 FoldK=F
 IRaf=         0 NMat=   1 IRICut=       1 DoRegI=T DoRafI=F ISym2E= 0.
 FoFCou: FMM=T IPFlag=           0 FMFlag=      100000 FMFlg1=        2001
         NFxFlg=           0 DoJE=F BraDBF=F KetDBF=F FulRan=T
         wScrn=  0.000000 ICntrl=    2127 IOpCl=  0 I1Cent=           0 NGrid=           0
         NMat0=    1 NMatS0=      1 NMatT0=    0 NMatD0=    1 NMtDS0=    0 NMtDT0=    0
 Symmetry not used in FoFCou.
 FMM levels:  10  Number of levels for PrismC:   9
 Leave Link  703 at Thu May  3 06:06:07 2018, MaxMem= 14763950080 cpu:      1131.8
 (Enter /cm/shared/gaussian/g09.e01/intel64-sandybridge/g09/l716.exe)
 Dipole        =-3.76886601D+01-3.42226892D+01-3.65599157D+01
 Cartesian Forces:  Max     0.029268209 RMS     0.009174317
 Leave Link  716 at Thu May  3 06:06:07 2018, MaxMem= 14763950080 cpu:         4.6
 (Enter /cm/shared/gaussian/g09.e01/intel64-sandybridge/g09/l122.exe)
 CPIOFr:  IOpCl= 0 IRwI=-1 IRwCP=  731 ICalc= -1 LCPTot=     1005244 Len1MO=     2550559 IndFrg=     1005244
 CPIOFr:  IOpCl= 0 IRwI=-1 IRwCP=  731 ICalc=  0 LCPTot=     1005244 Len1MO=     2550559 IndFrg=     3555803
 Counterpoise: doing DCBS calculation for fragment   1 NewBq=T
 Leave Link  122 at Thu May  3 06:06:07 2018, MaxMem= 14763950080 cpu:         8.6
 (Enter /cm/shared/gaussian/g09.e01/intel64-sandybridge/g09/l301.exe)
 Basis read from rwf:  (5D, 7F)
 No pseudopotential information found on rwf file.
   795 basis functions,  1651 primitive gaussians,   829 cartesian basis functions
    18 alpha electrons       18 beta electrons
       nuclear repulsion energy         0.0000000000 Hartrees.
 IExCor= 1009 DFT=T Ex+Corr=PBE1PBE ExCW=0 ScaHFX=  0.250000
 ScaDFX=  0.750000  0.750000  1.000000  1.000000 ScalE2=  1.000000  1.000000
 IRadAn=      0 IRanWt=     -1 IRanGd=            0 ICorTp=0 IEmpDi=  4
 NAtoms=   97 NActive=   97 NUniq=   97 SFac= 1.00D+00 NAtFMM=   60 NAOKFM=T Big=T
 Integral buffers will be    131072 words long.
 Raffenetti 2 integral format.
 Two-electron integral symmetry is turned off.
 No density basis found on file   718.
 Leave Link  301 at Thu May  3 06:06:07 2018, MaxMem= 14763950080 cpu:         7.0
 (Enter /cm/shared/gaussian/g09.e01/intel64-sandybridge/g09/l302.exe)
 NPDir=0 NMtPBC=     1 NCelOv=     1 NCel=       1 NClECP=     1 NCelD=      1
         NCelK=      1 NCelE2=     1 NClLst=     1 CellRange=     0.0.
 One-electron integrals computed using PRISM.
 NBasis=   795 RedAO= T EigKep=  1.69D-02  NBF=   795
 NBsUse=   795 1.00D-06 EigRej= -1.00D+00 NBFU=   795
 Precomputing XC quadrature grid using
 IXCGrd= 4 IRadAn=           0 IRanWt=          -1 IRanGd=           0 AccXCQ= 0.00D+00.
 Generated NRdTot=       0 NPtTot=           0 NUsed=           0 NTot=          32
 NSgBfM=   733   734   734   735   735 MxSgAt=    97 MxSgA2=    97.
 Leave Link  302 at Thu May  3 06:06:12 2018, MaxMem= 14763950080 cpu:       269.7
 (Enter /cm/shared/gaussian/g09.e01/intel64-sandybridge/g09/l303.exe)
 DipDrv:  MaxL=1.
 Leave Link  303 at Thu May  3 06:06:13 2018, MaxMem= 14763950080 cpu:       111.0
 (Enter /cm/shared/gaussian/g09.e01/intel64-sandybridge/g09/l401.exe)
 ExpMin= 1.22D-01 ExpMax= 6.40D+05 ExpMxC= 6.18D+03 IAcc=2 IRadAn=         4 AccDes= 0.00D+00
 Harris functional with IExCor= 1009 and IRadAn=       4 diagonalized for initial guess.
 HarFok:  IExCor= 1009 AccDes= 0.00D+00 IRadAn=         4 IDoV= 1 UseB2=F ITyADJ=14
 ICtDFT=  3500011 ScaDFX=  1.000000  1.000000  1.000000  1.000000
 FoFCou: FMM=F IPFlag=           0 FMFlag=      100000 FMFlg1=        2001
         NFxFlg=           0 DoJE=T BraDBF=F KetDBF=T FulRan=T
         wScrn=  0.000000 ICntrl=     500 IOpCl=  0 I1Cent=   200000004 NGrid=           0
         NMat0=    1 NMatS0=      1 NMatT0=    0 NMatD0=    1 NMtDS0=    0 NMtDT0=    0
 Symmetry not used in FoFCou.
 Harris En= -2574.01935632155    
 JPrj=0 DoOrth=F DoCkMO=F.
 Leave Link  401 at Thu May  3 06:06:18 2018, MaxMem= 14763950080 cpu:       279.0
 (Enter /cm/shared/gaussian/g09.e01/intel64-sandybridge/g09/l502.exe)
 Closed shell SCF:
 Using DIIS extrapolation, IDIIS=  1040.
 Two-electron integral symmetry not used.
 IVT=     2138497 IEndB=     2138497 NGot= 14763950080 MDV= 14762516294
 LenX= 14762516294 LenY= 14761828224
 Requested convergence on RMS density matrix=1.00D-08 within 128 cycles.
 Requested convergence on MAX density matrix=1.00D-06.
 Requested convergence on             energy=1.00D-06.
 No special actions if energy rises.
 Fock matrices will be formed incrementally for  20 cycles.
 Integral accuracy reduced to 1.0D-05 until final iterations.

 Cycle   1  Pass 0  IDiag  1:
 FoFJK:  IHMeth= 1 ICntrl=       0 DoSepK=F KAlg= 0 I1Cent=   0 FoldK=F
 IRaf= 800000000 NMat=   1 IRICut=       1 DoRegI=T DoRafI=F ISym2E= 0.
 FoFCou: FMM=T IPFlag=           0 FMFlag=      100000 FMFlg1=        2001
         NFxFlg=           0 DoJE=F BraDBF=F KetDBF=F FulRan=T
         wScrn=  0.000000 ICntrl=       0 IOpCl=  0 I1Cent=           0 NGrid=           0
         NMat0=    1 NMatS0=      1 NMatT0=    0 NMatD0=    1 NMtDS0=    0 NMtDT0=    0
 Symmetry not used in FoFCou.
 FMM levels:  10  Number of levels for PrismC:   9
 E= -2573.87926267855    
 DIIS: error= 1.34D-02 at cycle   1 NSaved=   1.
 NSaved= 1 IEnMin= 1 EnMin= -2573.87926267855     IErMin= 1 ErrMin= 1.34D-02
 ErrMax= 1.34D-02  0.00D+00 EMaxC= 1.00D-01 BMatC= 3.68D-02 BMatP= 3.68D-02
 IDIUse=3 WtCom= 8.66D-01 WtEn= 1.34D-01
 Coeff-Com:  0.100D+01
 Coeff-En:   0.100D+01
 Coeff:      0.100D+01
 Gap=     0.181 Goal=   None    Shift=    0.000
 GapD=    0.181 DampG=1.000 DampE=0.500 DampFc=0.5000 IDamp=-1.
 Damping current iteration by 5.00D-01
 RMSDP=4.56D-04 MaxDP=7.00D-02              OVMax= 1.44D-01

 Cycle   2  Pass 0  IDiag  1:
 RMSU=  2.27D-04    CP:  9.96D-01
 E= -2573.89501332513     Delta-E=       -0.015750646586 Rises=F Damp=T
 DIIS: error= 8.18D-03 at cycle   2 NSaved=   2.
 NSaved= 2 IEnMin= 2 EnMin= -2573.89501332513     IErMin= 2 ErrMin= 8.18D-03
 ErrMax= 8.18D-03  0.00D+00 EMaxC= 1.00D-01 BMatC= 8.63D-03 BMatP= 3.68D-02
 IDIUse=3 WtCom= 9.18D-01 WtEn= 8.18D-02
 Coeff-Com: -0.590D+00 0.159D+01
 Coeff-En:   0.000D+00 0.100D+01
 Coeff:     -0.542D+00 0.154D+01
 Gap=     0.187 Goal=   None    Shift=    0.000
 RMSDP=1.51D-04 MaxDP=3.51D-02 DE=-1.58D-02 OVMax= 6.14D-02

 Cycle   3  Pass 0  IDiag  1:
 RMSU=  1.35D-04    CP:  9.96D-01  1.30D+00
 E= -2573.90780955781     Delta-E=       -0.012796232673 Rises=F Damp=F
 DIIS: error= 3.85D-03 at cycle   3 NSaved=   3.
 NSaved= 3 IEnMin= 3 EnMin= -2573.90780955781     IErMin= 3 ErrMin= 3.85D-03
 ErrMax= 3.85D-03  0.00D+00 EMaxC= 1.00D-01 BMatC= 2.09D-03 BMatP= 8.63D-03
 IDIUse=3 WtCom= 9.62D-01 WtEn= 3.85D-02
 Coeff-Com: -0.300D+00 0.706D+00 0.594D+00
 Coeff-En:   0.000D+00 0.000D+00 0.100D+01
 Coeff:     -0.289D+00 0.679D+00 0.610D+00
 Gap=     0.171 Goal=   None    Shift=    0.000
 RMSDP=6.85D-05 MaxDP=1.63D-02 DE=-1.28D-02 OVMax= 1.96D-02

 Cycle   4  Pass 0  IDiag  1:
 RMSU=  7.73D-06    CP:  9.95D-01  1.51D+00  6.39D-01
 E= -2573.91004587871     Delta-E=       -0.002236320904 Rises=F Damp=F
 DIIS: error= 1.49D-04 at cycle   4 NSaved=   4.
 NSaved= 4 IEnMin= 4 EnMin= -2573.91004587871     IErMin= 4 ErrMin= 1.49D-04
 ErrMax= 1.49D-04  0.00D+00 EMaxC= 1.00D-01 BMatC= 2.11D-06 BMatP= 2.09D-03
 IDIUse=3 WtCom= 9.99D-01 WtEn= 1.49D-03
 Coeff-Com: -0.135D-01 0.262D-01 0.472D-01 0.940D+00
 Coeff-En:   0.000D+00 0.000D+00 0.000D+00 0.100D+01
 Coeff:     -0.135D-01 0.261D-01 0.472D-01 0.940D+00
 Gap=     0.173 Goal=   None    Shift=    0.000
 RMSDP=2.45D-06 MaxDP=5.08D-04 DE=-2.24D-03 OVMax= 8.73D-04

 Initial convergence to 1.0D-05 achieved.  Increase integral accuracy.
 Cycle   5  Pass 1  IDiag  1:
 E= -2573.91077880148     Delta-E=       -0.000732922765 Rises=F Damp=F
 DIIS: error= 1.72D-05 at cycle   1 NSaved=   1.
 NSaved= 1 IEnMin= 1 EnMin= -2573.91077880148     IErMin= 1 ErrMin= 1.72D-05
 ErrMax= 1.72D-05  0.00D+00 EMaxC= 1.00D-01 BMatC= 9.05D-08 BMatP= 9.05D-08
 IDIUse=1 WtCom= 1.00D+00 WtEn= 0.00D+00
 Coeff-Com:  0.100D+01
 Coeff:      0.100D+01
 Gap=     0.173 Goal=   None    Shift=    0.000
 RMSDP=2.45D-06 MaxDP=5.08D-04 DE=-7.33D-04 OVMax= 2.70D-04

 Cycle   6  Pass 1  IDiag  1:
 RMSU=  1.33D-06    CP:  1.00D+00
 E= -2573.91077897426     Delta-E=       -0.000000172780 Rises=F Damp=F
 DIIS: error= 8.55D-06 at cycle   2 NSaved=   2.
 NSaved= 2 IEnMin= 2 EnMin= -2573.91077897426     IErMin= 2 ErrMin= 8.55D-06
 ErrMax= 8.55D-06  0.00D+00 EMaxC= 1.00D-01 BMatC= 1.70D-08 BMatP= 9.05D-08
 IDIUse=1 WtCom= 1.00D+00 WtEn= 0.00D+00
 Coeff-Com:  0.237D+00 0.763D+00
 Coeff:      0.237D+00 0.763D+00
 Gap=     0.173 Goal=   None    Shift=    0.000
 RMSDP=2.87D-07 MaxDP=6.47D-05 DE=-1.73D-07 OVMax= 8.92D-05

 Cycle   7  Pass 1  IDiag  1:
 RMSU=  2.86D-07    CP:  1.00D+00  9.96D-01
 E= -2573.91077899340     Delta-E=       -0.000000019146 Rises=F Damp=F
 DIIS: error= 3.88D-06 at cycle   3 NSaved=   3.
 NSaved= 3 IEnMin= 3 EnMin= -2573.91077899340     IErMin= 3 ErrMin= 3.88D-06
 ErrMax= 3.88D-06  0.00D+00 EMaxC= 1.00D-01 BMatC= 3.32D-09 BMatP= 1.70D-08
 IDIUse=1 WtCom= 1.00D+00 WtEn= 0.00D+00
 Coeff-Com: -0.341D-01 0.285D+00 0.749D+00
 Coeff:     -0.341D-01 0.285D+00 0.749D+00
 Gap=     0.173 Goal=   None    Shift=    0.000
 RMSDP=9.68D-08 MaxDP=2.34D-05 DE=-1.91D-08 OVMax= 2.73D-05

 Cycle   8  Pass 1  IDiag  1:
 RMSU=  3.81D-08    CP:  1.00D+00  1.04D+00  7.59D-01
 E= -2573.91077899747     Delta-E=       -0.000000004067 Rises=F Damp=F
 DIIS: error= 5.67D-07 at cycle   4 NSaved=   4.
 NSaved= 4 IEnMin= 4 EnMin= -2573.91077899747     IErMin= 4 ErrMin= 5.67D-07
 ErrMax= 5.67D-07  0.00D+00 EMaxC= 1.00D-01 BMatC= 4.60D-11 BMatP= 3.32D-09
 IDIUse=1 WtCom= 1.00D+00 WtEn= 0.00D+00
 Coeff-Com: -0.142D-01 0.902D-01 0.257D+00 0.667D+00
 Coeff:     -0.142D-01 0.902D-01 0.257D+00 0.667D+00
 Gap=     0.173 Goal=   None    Shift=    0.000
 RMSDP=1.19D-08 MaxDP=2.16D-06 DE=-4.07D-09 OVMax= 4.01D-06

 Cycle   9  Pass 1  IDiag  1:
 RMSU=  1.04D-08    CP:  1.00D+00  1.04D+00  7.72D-01  8.94D-01
 E= -2573.91077899751     Delta-E=       -0.000000000045 Rises=F Damp=F
 DIIS: error= 9.15D-08 at cycle   5 NSaved=   5.
 NSaved= 5 IEnMin= 5 EnMin= -2573.91077899751     IErMin= 5 ErrMin= 9.15D-08
 ErrMax= 9.15D-08  0.00D+00 EMaxC= 1.00D-01 BMatC= 1.37D-12 BMatP= 4.60D-11
 IDIUse=1 WtCom= 1.00D+00 WtEn= 0.00D+00
 Coeff-Com:  0.120D-02-0.147D-01-0.373D-01 0.902D-01 0.961D+00
 Coeff:      0.120D-02-0.147D-01-0.373D-01 0.902D-01 0.961D+00
 Gap=     0.173 Goal=   None    Shift=    0.000
 RMSDP=2.89D-09 MaxDP=3.58D-07 DE=-4.55D-11 OVMax= 1.19D-06

 SCF Done:  E(RPBE1PBE) =  -2573.91077900     A.U. after    9 cycles
            NFock=  9  Conv=0.29D-08     -V/T= 2.0013
 KE= 2.570514580256D+03 PE=-6.163022736927D+03 EE= 1.018597377674D+03
 Leave Link  502 at Thu May  3 06:07:53 2018, MaxMem= 14763950080 cpu:      6020.0
 (Enter /cm/shared/gaussian/g09.e01/intel64-sandybridge/g09/l601.exe)
 Copying SCF densities to generalized density rwf, IOpCl= 0 IROHF=0.

 **********************************************************************

            Population analysis using the SCF density.

 **********************************************************************

 Alpha  occ. eigenvalues -- -482.98658 -62.38805 -56.16061 -56.16061 -56.16052
 Alpha  occ. eigenvalues --   -8.48930  -6.29245  -6.29242  -6.29214  -2.37515
 Alpha  occ. eigenvalues --   -2.37514  -2.37491  -2.37489  -2.37482  -0.46980
 Alpha  occ. eigenvalues --   -0.02879  -0.02860  -0.02832
 Alpha virt. eigenvalues --    0.14448   0.15740   0.16258   0.16897   0.17805
 Alpha virt. eigenvalues --    0.18810   0.19131   0.19678   0.20397   0.20942
 Alpha virt. eigenvalues --    0.21323   0.22350   0.23199   0.23409   0.23715
 Alpha virt. eigenvalues --    0.24057   0.24586   0.25105   0.25756   0.26711
 Alpha virt. eigenvalues --    0.27088   0.27574   0.27888   0.28073   0.28670
 Alpha virt. eigenvalues --    0.29225   0.29395   0.30409   0.30840   0.31139
 Alpha virt. eigenvalues --    0.31498   0.31947   0.32736   0.33615   0.34321
 Alpha virt. eigenvalues --    0.34517   0.35967   0.36244   0.36623   0.36916
 Alpha virt. eigenvalues --    0.37194   0.37362   0.38235   0.38848   0.39274
 Alpha virt. eigenvalues --    0.39713   0.40408   0.40621   0.40790   0.41350
 Alpha virt. eigenvalues --    0.42026   0.42542   0.43870   0.44690   0.45153
 Alpha virt. eigenvalues --    0.45358   0.46035   0.46610   0.46858   0.47995
 Alpha virt. eigenvalues --    0.49179   0.49937   0.50642   0.51910   0.61349
 Alpha virt. eigenvalues --    0.61880   0.62395   0.62915   0.63529   0.63682
 Alpha virt. eigenvalues --    0.63878   0.64314   0.64595   0.66028   0.66210
 Alpha virt. eigenvalues --    0.66934   0.67562   0.68362   0.68532   0.68794
 Alpha virt. eigenvalues --    0.68891   0.69638   0.70129   0.70499   0.70625
 Alpha virt. eigenvalues --    0.71049   0.71825   0.72422   0.72669   0.72979
 Alpha virt. eigenvalues --    0.73258   0.73391   0.73899   0.74188   0.74336
 Alpha virt. eigenvalues --    0.75090   0.75423   0.75662   0.76001   0.76471
 Alpha virt. eigenvalues --    0.76833   0.77062   0.77274   0.77457   0.77806
 Alpha virt. eigenvalues --    0.78614   0.78986   0.79151   0.79423   0.79559
 Alpha virt. eigenvalues --    0.80027   0.80596   0.80662   0.81254   0.81394
 Alpha virt. eigenvalues --    0.81771   0.82052   0.82319   0.82795   0.82986
 Alpha virt. eigenvalues --    0.83410   0.83590   0.83619   0.84191   0.84508
 Alpha virt. eigenvalues --    0.84576   0.85047   0.85170   0.85864   0.86059
 Alpha virt. eigenvalues --    0.86852   0.87252   0.87602   0.88098   0.88344
 Alpha virt. eigenvalues --    0.88721   0.89404   0.89867   0.90159   0.90776
 Alpha virt. eigenvalues --    0.91071   0.91249   0.91563   0.91749   0.92247
 Alpha virt. eigenvalues --    0.92860   0.92912   0.93290   0.93856   0.94049
 Alpha virt. eigenvalues --    0.94345   0.94705   0.95048   0.95471   0.95763
 Alpha virt. eigenvalues --    0.96322   0.96674   0.96943   0.97362   0.97732
 Alpha virt. eigenvalues --    0.97894   0.98306   0.98635   0.99417   0.99845
 Alpha virt. eigenvalues --    1.00304   1.00544   1.00675   1.01789   1.02080
 Alpha virt. eigenvalues --    1.02530   1.03451   1.03729   1.04089   1.04560
 Alpha virt. eigenvalues --    1.05187   1.06026   1.06620   1.07240   1.07838
 Alpha virt. eigenvalues --    1.08494   1.08624   1.09438   1.09912   1.10341
 Alpha virt. eigenvalues --    1.11301   1.11548   1.11792   1.12862   1.13761
 Alpha virt. eigenvalues --    1.14673   1.15374   1.16200   1.16892   1.17069
 Alpha virt. eigenvalues --    1.17428   1.19252   1.20139   1.24091   1.25809
 Alpha virt. eigenvalues --    1.28078   1.65954   1.66718   1.67569   1.67880
 Alpha virt. eigenvalues --    1.68489   1.68656   1.69409   1.69544   1.70206
 Alpha virt. eigenvalues --    1.70622   1.70929   1.71115   1.71592   1.72081
 Alpha virt. eigenvalues --    1.72304   1.72633   1.73131   1.73483   1.73679
 Alpha virt. eigenvalues --    1.73829   1.74217   1.74710   1.74926   1.75042
 Alpha virt. eigenvalues --    1.75330   1.75579   1.75899   1.76210   1.76639
 Alpha virt. eigenvalues --    1.76695   1.77065   1.77405   1.77764   1.78031
 Alpha virt. eigenvalues --    1.78498   1.79113   1.79225   1.79570   1.79864
 Alpha virt. eigenvalues --    1.80166   1.80648   1.81171   1.81535   1.81949
 Alpha virt. eigenvalues --    1.82331   1.82679   1.82791   1.82906   1.83418
 Alpha virt. eigenvalues --    1.83688   1.84901   1.85076   1.86072   1.86853
 Alpha virt. eigenvalues --    1.87350   1.88075   1.88782   1.89985   1.90440
 Alpha virt. eigenvalues --    1.90727   1.92010   1.93321   1.94038   1.96836
 Alpha virt. eigenvalues --    1.97454   1.97947   1.98379   1.98966   1.99212
 Alpha virt. eigenvalues --    1.99347   1.99476   1.99777   2.00123   2.00383
 Alpha virt. eigenvalues --    2.00815   2.01230   2.01744   2.01909   2.02236
 Alpha virt. eigenvalues --    2.02279   2.02471   2.02661   2.02975   2.03280
 Alpha virt. eigenvalues --    2.03544   2.03692   2.04151   2.04615   2.04646
 Alpha virt. eigenvalues --    2.05013   2.05191   2.05581   2.05689   2.05870
 Alpha virt. eigenvalues --    2.06316   2.06424   2.06546   2.07189   2.07687
 Alpha virt. eigenvalues --    2.07866   2.08270   2.08732   2.09381   2.09607
 Alpha virt. eigenvalues --    2.09851   2.10277   2.10740   2.11091   2.11440
 Alpha virt. eigenvalues --    2.11556   2.12213   2.12565   2.12783   2.13268
 Alpha virt. eigenvalues --    2.13439   2.13825   2.14236   2.14634   2.15300
 Alpha virt. eigenvalues --    2.15334   2.15728   2.15872   2.16416   2.16997
 Alpha virt. eigenvalues --    2.17844   2.18332   2.18396   2.18550   2.19056
 Alpha virt. eigenvalues --    2.19448   2.20242   2.20430   2.20847   2.21256
 Alpha virt. eigenvalues --    2.21650   2.21875   2.22456   2.23278   2.24922
 Alpha virt. eigenvalues --    2.25083   2.25773   2.26629   2.27568   2.27735
 Alpha virt. eigenvalues --    2.29092   2.29275   2.29694   2.29744   2.30094
 Alpha virt. eigenvalues --    2.31036   2.31530   2.31641   2.32331   2.33246
 Alpha virt. eigenvalues --    2.34753   2.35270   2.35548   2.38049   2.38313
 Alpha virt. eigenvalues --    2.40336   2.41181   2.41354   2.41720   2.41817
 Alpha virt. eigenvalues --    2.42310   2.42430   2.42786   2.43020   2.43254
 Alpha virt. eigenvalues --    2.43494   2.44050   2.44385   2.45398   2.45441
 Alpha virt. eigenvalues --    2.46103   2.46150   2.46808   2.47689   2.47844
 Alpha virt. eigenvalues --    2.48378   2.48843   2.49484   2.50511   2.50704
 Alpha virt. eigenvalues --    2.51403   2.51749   2.52445   2.54237   2.55276
 Alpha virt. eigenvalues --    2.56009   2.56867   2.58624   2.67266   2.67908
 Alpha virt. eigenvalues --    2.68393   2.68785   2.69324   2.69882   2.70423
 Alpha virt. eigenvalues --    2.70772   2.71324   2.71458   2.71737   2.72009
 Alpha virt. eigenvalues --    2.72460   2.72581   2.73347   2.73712   2.74011
 Alpha virt. eigenvalues --    2.75022   2.75641   2.76203   2.76384   2.77600
 Alpha virt. eigenvalues --    2.79233   2.80057   2.81912   2.82271   2.82914
 Alpha virt. eigenvalues --    2.83160   2.83371   2.83592   2.84454   2.85012
 Alpha virt. eigenvalues --    2.85602   2.85870   2.86230   2.86733   2.87395
 Alpha virt. eigenvalues --    2.87908   2.88216   2.88717   2.90055   2.90218
 Alpha virt. eigenvalues --    2.90775   2.91255   2.91752   2.92481   2.92984
 Alpha virt. eigenvalues --    2.93752   2.94016   2.94301   2.95916   2.96946
 Alpha virt. eigenvalues --    2.97308   2.97733   2.98301   2.98976   2.99700
 Alpha virt. eigenvalues --    3.00441   3.02840   3.04697   3.05664   3.06927
 Alpha virt. eigenvalues --    3.12534   3.13027   3.14079   3.15252   3.15851
 Alpha virt. eigenvalues --    3.16569   3.17466   3.17785   3.19275   3.20214
 Alpha virt. eigenvalues --    3.20795   3.21475   3.21814   3.23287   3.24728
 Alpha virt. eigenvalues --    3.27552   3.29436   3.30142   3.32054   3.33391
 Alpha virt. eigenvalues --    3.34232   3.36432   3.36951   3.38751   3.39595
 Alpha virt. eigenvalues --    3.40653   3.42380   3.46718   3.50468   3.56632
 Alpha virt. eigenvalues --    3.57104   3.58506   3.59569   3.60674   4.51525
 Alpha virt. eigenvalues --    4.51898   4.51911   4.52029   4.52123   4.52307
 Alpha virt. eigenvalues --    4.52435   4.52494   4.52594   4.52725   4.52855
 Alpha virt. eigenvalues --    4.53058   4.53396   4.53719   4.53759   4.53912
 Alpha virt. eigenvalues --    4.53981   4.54186   4.54396   4.54811   4.54943
 Alpha virt. eigenvalues --    4.54988   4.55094   4.55135   4.55551   4.55853
 Alpha virt. eigenvalues --    4.56170   4.56553   4.56700   4.56721   4.57730
 Alpha virt. eigenvalues --    4.59424   4.59513   4.59593   4.60005   4.60023
 Alpha virt. eigenvalues --    4.60047   4.60108   4.60268   4.60358   4.60641
 Alpha virt. eigenvalues --    4.60871   4.60901   4.60988   4.61211   4.61306
 Alpha virt. eigenvalues --    4.61703   4.61792   4.61940   4.62273   4.62355
 Alpha virt. eigenvalues --    4.62841   4.62903   4.63505   4.63526   4.63709
 Alpha virt. eigenvalues --    4.64161   4.64236   4.64305   4.64349   4.65336
 Alpha virt. eigenvalues --    4.65684   4.67478   4.67990   4.74147   4.74247
 Alpha virt. eigenvalues --    4.74262   4.74827   4.75471   4.75559   4.75975
 Alpha virt. eigenvalues --    4.76376   4.76796   4.77015   4.77208   4.78077
 Alpha virt. eigenvalues --    4.78812   4.78902   4.79350   4.80214   4.80547
 Alpha virt. eigenvalues --    4.80860   4.81413   4.81560   4.81752   4.82089
 Alpha virt. eigenvalues --    4.82272   4.82395   4.82669   4.83042   4.83710
 Alpha virt. eigenvalues --    4.84024   4.84517   4.85579   4.86288   4.86574
 Alpha virt. eigenvalues --    4.86862   4.86943   4.87457   4.87524   4.87820
 Alpha virt. eigenvalues --    4.87899   4.88190   4.88225   4.88608   4.88713
 Alpha virt. eigenvalues --    4.88868   4.90009   4.90211   4.90357   4.90951
 Alpha virt. eigenvalues --    4.91589   4.91733   4.92156   4.92600   4.93516
 Alpha virt. eigenvalues --    4.93578   4.94430   4.94829   4.94931   4.95902
 Alpha virt. eigenvalues --    4.96195   4.97025   4.97211   4.98419   4.99470
 Alpha virt. eigenvalues --    5.00945   5.02099   5.03878   5.04989   5.05012
 Alpha virt. eigenvalues --    5.05884   5.06806   5.07193   5.07963   5.08528
 Alpha virt. eigenvalues --    5.08926   5.09511   5.09620   5.10321   5.10565
 Alpha virt. eigenvalues --    5.11484   5.12372   5.13226   5.14331   5.14345
 Alpha virt. eigenvalues --    5.14695   5.15381   5.15891   5.16628   5.18426
 Alpha virt. eigenvalues --    5.19382   5.20584   5.21690   5.21737   5.23973
 Alpha virt. eigenvalues --    5.24688   5.26825   5.30758   5.32240   5.34563
 Alpha virt. eigenvalues --    5.35307   5.35524   5.35613   5.37542   5.38177
[...]
   Y25       33.33477  -0.00228   0.00000  -0.01195  -0.01019  33.32458
   Z25       34.46860   0.00807   0.00000   0.02681   0.02512  34.49372
   X26       37.70004  -0.00073   0.00000   0.00997   0.01001  37.71004
   Y26       45.56130   0.01559   0.00000   0.01629   0.01610  45.57740
   Z26       38.49372   0.01341   0.00000  -0.01843  -0.01659  38.47713
   X27       36.03708  -0.00874   0.00000  -0.00195  -0.00184  36.03523
   Y27       45.06997  -0.00875   0.00000  -0.03036  -0.03060  45.03937
   Z27       37.96460  -0.00269   0.00000   0.00337   0.00504  37.96964
   X28       38.79608   0.01471   0.00000   0.01953   0.01968  38.81576
   Y28       44.71092  -0.00926   0.00000   0.00129   0.00157  44.71249
   Z28       37.34099  -0.02229   0.00000  -0.05188  -0.05029  37.29070
   X29       32.80565  -0.00816   0.00000  -0.00626  -0.00600  32.79965
   Y29       43.57708   0.00259   0.00000   0.00698   0.00599  43.58307
   Z29       39.26851  -0.02351   0.00000  -0.01032  -0.00910  39.25941
   X30       31.99306  -0.00230   0.00000   0.00009   0.00053  31.99360
   Y30       42.00861  -0.00699   0.00000  -0.00573  -0.00694  42.00168
   Z30       39.66535   0.00459   0.00000   0.00773   0.00849  39.67385
   X31       33.65602   0.00847   0.00000  -0.00602  -0.00582  33.65020
   Y31       44.04952   0.00584   0.00000   0.00979   0.00844  44.05796
   Z31       40.78029   0.02505   0.00000   0.03307   0.03444  40.81473
   X32       38.81497  -0.01740   0.00000  -0.01540  -0.01486  38.80012
   Y32       40.95037  -0.01633   0.00000  -0.01322  -0.01505  40.93532
   Z32       44.52195   0.00656   0.00000   0.01483   0.01532  44.53727
   X33       40.28896   0.01725   0.00000   0.01237   0.01284  40.30180
   Y33       41.59287   0.00769   0.00000  -0.00068  -0.00210  41.59077
   Z33       43.70937  -0.00649   0.00000   0.00386   0.00456  43.71392
   X34       38.38034   0.00181   0.00000   0.00992   0.01030  38.39064
   Y34       42.23538   0.00709   0.00000   0.01095   0.00873  42.24411
   Z34       45.71248   0.00623   0.00000   0.01439   0.01526  45.72774
   X35       32.40880  -0.02011   0.00000  -0.03582  -0.03458  32.37422
   Y35       34.97883  -0.01897   0.00000  -0.01703  -0.01939  34.95944
   Z35       43.80385  -0.00183   0.00000   0.00838   0.00710  43.81095
   X36       32.29542   0.00090   0.00000  -0.00760  -0.00657  32.28885
   Y36       36.75517   0.01631   0.00000   0.01196   0.00951  36.76468
   Z36       44.08731   0.00213   0.00000  -0.00081  -0.00157  44.08574
   X37       34.18515   0.01013   0.00000  -0.00988  -0.00861  34.17654
   Y37       34.61978   0.00190   0.00000   0.00781   0.00565  34.62544
   Z37       43.80385   0.00655   0.00000   0.03372   0.03235  43.83620
   X38       42.10310   0.00901   0.00000  -0.01420  -0.01408  42.08902
   Y38       44.69202  -0.01290   0.00000  -0.03228  -0.03301  44.65901
   Z38       42.04641   0.00980   0.00000   0.02207   0.02366  42.07007
   X39       40.87478  -0.01025   0.00000  -0.01371  -0.01354  40.86124
   Y39       44.29518   0.00382   0.00000   0.02260   0.02211  44.31729
   Z39       40.78029  -0.01034   0.00000  -0.02093  -0.01945  40.76084
   X40       41.61177  -0.00184   0.00000   0.01038   0.01030  41.62207
   Y40       46.31719   0.00768   0.00000   0.00427   0.00332  46.32050
   Z40       42.67002  -0.00101   0.00000  -0.01367  -0.01159  42.65843
   X41       36.69848   0.00153   0.00000  -0.01743  -0.01681  36.68168
   Y41       40.98816   0.00124   0.00000  -0.00737  -0.00539  40.98277
   Z41       30.59467   0.00299   0.00000   0.00744   0.00793  30.60259
   X42       34.99773  -0.00994   0.00000  -0.02249  -0.02194  34.97579
   Y42       41.57397   0.00673   0.00000   0.01547   0.01723  41.59120
   Z42       30.68915   0.00156   0.00000   0.00188   0.00254  30.69169
   X43       36.58510   0.00176   0.00000   0.00163   0.00245  36.58754
   Y43       39.38189  -0.00974   0.00000  -0.02361  -0.02140  39.36049
   Z43       29.76319  -0.00048   0.00000   0.01215   0.01217  29.77536
   X44       43.19914   0.00638   0.00000   0.01506   0.01602  43.21516
   Y44       37.20871   0.00276   0.00000   0.00198   0.00029  37.20900
   Z44       45.78806   0.02018   0.00000   0.01651   0.01594  45.80401
   X45       41.72515   0.00060   0.00000   0.00603   0.00707  41.73223
   Y45       36.47171   0.00155   0.00000   0.01160   0.00953  36.48124
   Z45       46.54395   0.00185   0.00000   0.01109   0.01030  46.55425
   X46       42.97237  -0.00084   0.00000   0.00854   0.00955  42.98192
   Y46       36.96304  -0.00314   0.00000  -0.00230  -0.00348  36.95956
   Z46       44.01172  -0.02004   0.00000  -0.01410  -0.01473  43.99699
   X47       39.38189   0.00547   0.00000   0.00696   0.00904  39.39094
   Y47       28.04354   0.00311   0.00000   0.00293   0.00346  28.04700
   Z47       36.64179  -0.00707   0.00000   0.00644   0.00318  36.64497
   X48       38.47482  -0.00553   0.00000  -0.01838  -0.01646  38.45837
   Y48       29.38524   0.00370   0.00000   0.00357   0.00376  29.38900
   Z48       37.47327   0.00128   0.00000  -0.00420  -0.00707  37.46620
   X49       39.17402  -0.00143   0.00000  -0.00325  -0.00100  39.17302
   Y49       26.62624  -0.00558   0.00000  -0.00103  -0.00084  26.62540
   Z49       37.73783   0.00803   0.00000   0.02040   0.01674  37.75457
   X50       35.07332   0.00270   0.00000  -0.01410  -0.01213  35.06119
   Y50       29.25296  -0.00985   0.00000   0.00209   0.00323  29.25619
   Z50       32.90013  -0.01775   0.00000  -0.03209  -0.03502  32.86511
   X51       33.37256  -0.00514   0.00000  -0.01532  -0.01328  33.35929
   Y51       28.62935   0.00233   0.00000   0.00630   0.00718  28.63653
   Z51       33.01352   0.00793   0.00000   0.03485   0.03173  33.04525
   X52       35.13001  -0.00279   0.00000  -0.00507  -0.00326  35.12675
   Y52       30.63246   0.00807   0.00000  -0.00849  -0.00770  30.62477
   Z52       34.05286   0.01146   0.00000   0.01546   0.01293  34.06580
   X53       46.33608  -0.01540   0.00000  -0.01413  -0.01324  46.32284
   Y53       38.43703  -0.00183   0.00000  -0.02142  -0.02001  38.41702
   Z53       36.39613   0.01071   0.00000   0.01114   0.01094  36.40707
   X54       46.92190   0.00544   0.00000  -0.00230  -0.00142  46.92048
   Y54       38.47482  -0.00241   0.00000  -0.01392  -0.01194  38.46288
   Z54       34.69537  -0.01342   0.00000  -0.00865  -0.00883  34.68654
   X55       47.81007   0.01159   0.00000   0.02212   0.02304  47.83311
   Y55       38.07798   0.00202   0.00000   0.01891   0.02021  38.09819
   Z55       37.37878   0.00243   0.00000  -0.00250  -0.00278  37.37601
   X56       45.92035   0.00622   0.00000   0.00588   0.00611  45.92645
   Y56       43.95503   0.00249   0.00000   0.00475   0.00568  43.96071
   Z56       37.87011  -0.01146   0.00000   0.00067   0.00209  37.87220
   X57       45.42902  -0.00606   0.00000  -0.01255  -0.01236  45.41666
   Y57       44.16290  -0.00085   0.00000  -0.00875  -0.00837  44.15453
   Z57       39.58976   0.01561   0.00000   0.01979   0.02126  39.61102
   X58       45.18335  -0.00067   0.00000   0.00259   0.00301  45.18636
   Y58       42.36766  -0.00131   0.00000   0.00334   0.00434  42.37200
   Z58       37.37878  -0.00070   0.00000  -0.00491  -0.00396  37.37482
   X59       28.61045  -0.01215   0.00000  -0.00428  -0.00271  28.60775
   Y59       32.48439  -0.00660   0.00000  -0.00670  -0.00739  32.47700
   Z59       36.62289  -0.02113   0.00000  -0.04008  -0.04211  36.58078
   X60       29.49862   0.00553   0.00000   0.00446   0.00587  29.50449
   Y60       33.88279   0.01261   0.00000   0.03319   0.03279  33.91558
   Z60       35.90480  -0.00073   0.00000   0.01138   0.00977  35.91457
   X61       29.32855   0.00435   0.00000  -0.01747  -0.01588  29.31267
   Y61       32.27652  -0.00761   0.00000  -0.03309  -0.03419  32.24233
   Z61       38.26695   0.01462   0.00000  -0.00394  -0.00604  38.26092
   X62       33.12690  -0.00966   0.00000  -0.00741  -0.00530  33.12160
   Y62       27.72228  -0.01112   0.00000  -0.03465  -0.03540  27.68688
   Z62       38.55041   0.00747   0.00000   0.03764   0.03424  38.58465
   X63       34.26073  -0.00009   0.00000  -0.03596  -0.03402  34.22672
   Y63       29.13958   0.00738   0.00000   0.00888   0.00827  29.14784
   Z63       38.56931  -0.00864   0.00000  -0.04225  -0.04522  38.52409
   X64       34.10956   0.00566   0.00000   0.01452   0.01679  34.12635
   Y64       26.36168  -0.00116   0.00000   0.00117   0.00075  26.36243
   Z64       37.87011  -0.00469   0.00000  -0.01627  -0.02005  37.85006
   X65       36.03708  -0.01709   0.00000  -0.01892  -0.01900  36.01807
   Y65       46.33608   0.00351   0.00000   0.01749   0.01574  46.35182
   Z65       43.14245   0.01777   0.00000   0.01017   0.01222  43.15467
   X66       36.83076   0.01370   0.00000   0.01965   0.01958  36.85034
   Y66       46.37388  -0.00027   0.00000   0.00010  -0.00107  46.37281
   Z66       41.51728  -0.01639   0.00000  -0.00733  -0.00527  41.51201
   X67       37.37878   0.00205   0.00000  -0.00842  -0.00845  37.37033
   Y67       45.93924  -0.00305   0.00000  -0.01157  -0.01349  45.92575
   Z67       44.29518  -0.00067   0.00000  -0.00427  -0.00234  44.29284
   X68       41.08265   0.01294   0.00000   0.02688   0.02740  41.11005
   Y68       41.91413   0.00446   0.00000   0.00691   0.01011  41.92424
   Z68       28.17582   0.00061   0.00000  -0.00313  -0.00234  28.17348
   X69       40.40234  -0.00067   0.00000   0.01193   0.01254  40.41488
   Y69       41.36611  -0.00202   0.00000  -0.00537  -0.00179  41.36432
   Z69       26.58845  -0.00313   0.00000  -0.00101  -0.00038  26.58807
   X70       39.66535  -0.00327   0.00000   0.00785   0.00838  39.67373
   Y70       41.83854   0.00177   0.00000   0.01172   0.01443  41.85297
   Z70       29.30965  -0.00023   0.00000  -0.01210  -0.01134  29.29832
   X71       29.78208  -0.01010   0.00000  -0.02372  -0.02206  29.76003
   Y71       31.46394  -0.01854   0.00000  -0.00713  -0.00911  31.45483
   Z71       41.44169  -0.00402   0.00000   0.02004   0.01771  41.45941
   X72       30.53797   0.00054   0.00000   0.00699   0.00881  30.54678
   Y72       30.06554  -0.00118   0.00000  -0.01203  -0.01416  30.05138
   Z72       42.32987  -0.00538   0.00000  -0.02112  -0.02384  42.30602
   X73       30.50018   0.00906   0.00000   0.00856   0.01004  30.51022
   Y73       32.91903   0.01819   0.00000   0.01689   0.01477  32.93380
   Z73       42.23538   0.01196   0.00000   0.02251   0.02063  42.25600
   X74       27.53331   0.00614   0.00000   0.02686   0.02761  27.56092
   Y74       39.43858  -0.01229   0.00000   0.00454   0.00295  39.44153
   Z74       39.23071   0.01353   0.00000   0.01864   0.01862  39.24934
   X75       25.73807   0.00049   0.00000   0.01862   0.01934  25.75741
   Y75       39.66535   0.00077   0.00000  -0.00974  -0.01150  39.65385
   Z75       39.06064   0.00101   0.00000   0.01745   0.01749  39.07813
   X76       28.25141  -0.00361   0.00000  -0.03181  -0.03121  28.22020
   Y76       40.72360   0.01165   0.00000   0.01039   0.00920  40.73280
   Z76       38.19137  -0.01769   0.00000  -0.05273  -0.05237  38.13900
   X77       43.74716   0.00248   0.00000  -0.00295  -0.00166  43.74550
   Y77       35.28119   0.00778   0.00000   0.01476   0.01823  35.29942
   Z77       28.30810  -0.01659   0.00000  -0.01199  -0.01310  28.29499
   X78       43.50150  -0.00108   0.00000   0.00987   0.01122  43.51271
   Y78       34.82765  -0.00951   0.00000  -0.03255  -0.02961  34.79804
   Z78       30.04665   0.01222   0.00000   0.00179   0.00052  30.04717
   X79       42.23538   0.00010   0.00000  -0.00307  -0.00170  42.23368
   Y79       34.69537  -0.00122   0.00000  -0.00820  -0.00467  34.69070
   Z79       27.47662   0.00338   0.00000   0.00931   0.00800  27.48462
   X80       28.45928  -0.00512   0.00000   0.00325   0.00349  28.46277
   Y80       43.95503  -0.01075   0.00000  -0.00170  -0.00232  43.95271
   Z80       36.28274  -0.01431   0.00000  -0.02002  -0.01872  36.26402
   X81       27.36323  -0.00413   0.00000  -0.00030  -0.00020  27.36304
   Y81       45.10776   0.00644   0.00000  -0.00046  -0.00147  45.10629
   Z81       37.13312   0.00710   0.00000   0.00843   0.01006  37.14318
   X82       30.10334   0.01176   0.00000   0.00949   0.00969  30.11303
   Y82       44.29518   0.00587   0.00000   0.01263   0.01200  44.30718
   Z82       36.96304   0.00833   0.00000   0.01413   0.01554  36.97859
   X83       46.39278   0.01421   0.00000   0.02018   0.02054  46.41332
   Y83       43.12355   0.01369   0.00000   0.00236   0.00504  43.12859
   Z83       32.08755  -0.00973   0.00000  -0.02784  -0.02666  32.06089
   X84       44.89989  -0.00540   0.00000  -0.00977  -0.00945  44.89044
   Y84       43.63378  -0.00563   0.00000  -0.02030  -0.01754  43.61624
   Z84       31.18048   0.00036   0.00000   0.00033   0.00163  31.18212
   X85       45.92035  -0.01184   0.00000  -0.02838  -0.02785  45.89249
   Y85       41.63067  -0.00735   0.00000   0.01400   0.01636  41.64703
   Z85       32.95682   0.00661   0.00000   0.01017   0.01091  32.96773
   X86       31.23717   0.01482   0.00000   0.03061   0.03168  31.26886
   Y86       37.13312   0.00226   0.00000   0.00979   0.01141  37.14453
   Z86       29.68760   0.00260   0.00000  -0.01580  -0.01646  29.67114
   X87       29.72539  -0.00886   0.00000  -0.00344  -0.00235  29.72304
   Y87       37.03863  -0.00264   0.00000  -0.01524  -0.01352  37.02512
   Z87       28.70494  -0.00444   0.00000   0.00642   0.00572  28.71066
   X88       31.69071  -0.00391   0.00000  -0.01958  -0.01871  31.67200
   Y88       38.89056   0.00451   0.00000   0.02279   0.02446  38.91502
   Z88       29.66870  -0.00236   0.00000  -0.01099  -0.01113  29.65757
   X89       33.67492   0.00410   0.00000  -0.00523  -0.00366  33.67126
   Y89       32.97572  -0.00514   0.00000  -0.00734  -0.00483  32.97089
   Z89       27.59000  -0.01647   0.00000  -0.02244  -0.02430  27.56570
   X90       32.78675   0.00174   0.00000   0.02015   0.02188  32.80863
   Y90       31.53953  -0.00350   0.00000  -0.01099  -0.00878  31.53075
   Z90       28.25141   0.00651   0.00000   0.02101   0.01873  28.27014
   X91       33.46705  -0.00436   0.00000  -0.01192  -0.01050  33.45655
   Y91       34.24184   0.00587   0.00000  -0.00378  -0.00167  34.24017
   Z91       28.85612   0.00854   0.00000   0.00007  -0.00142  28.85469
   X92       46.61954  -0.00001   0.00000   0.00469   0.00515  46.62469
   Y92       41.61177   0.01327   0.00000   0.00812   0.00711  41.61888
   Z92       44.86210  -0.01026   0.00000  -0.02092  -0.02018  44.84192
   X93       47.92345   0.00510   0.00000  -0.00135  -0.00084  47.92261
   Y93       41.13934  -0.00534   0.00000  -0.00666  -0.00786  41.13148
   Z93       46.01483   0.00625   0.00000   0.00315   0.00376  46.01859
   X94       45.54240  -0.00728   0.00000  -0.01732  -0.01669  45.52571
   Y94       40.15668  -0.00792   0.00000   0.00184   0.00072  40.15740
   Z94       44.78651   0.00598   0.00000   0.02749   0.02779  44.81430
   X95       27.53331  -0.00794   0.00000  -0.00510  -0.00451  27.52880
   Y95       40.51573  -0.01051   0.00000  -0.00326  -0.00640  40.50933
   Z95       44.50305   0.00923   0.00000   0.03168   0.03198  44.53503
   X96       27.85456   0.00611   0.00000   0.01660   0.01698  27.87155
   Y96       42.27317   0.01112   0.00000   0.01354   0.01039  42.28357
   Z96       44.71092  -0.00053   0.00000  -0.00335  -0.00254  44.70838
   X97       28.81832  -0.00140   0.00000  -0.03127  -0.03060  28.78772
   Y97       39.94881  -0.00019   0.00000   0.00095  -0.00169  39.94712
   Z97       43.35032  -0.00604   0.00000  -0.01439  -0.01425  43.33606
         Item               Value     Threshold  Converged?
 Maximum Force            0.029336     0.000450     NO 
 RMS     Force            0.009188     0.000300     NO 
 Maximum Displacement     0.052366     0.001800     NO 
 RMS     Displacement     0.017530     0.001200     NO 
 Predicted change in Energy=-2.437490D-02
 GradGradGradGradGradGradGradGradGradGradGradGradGradGradGradGradGradGrad

 Leave Link  103 at Thu May  3 06:13:28 2018, MaxMem= 14763950080 cpu:        66.5
 (Enter /cm/shared/gaussian/g09.e01/intel64-sandybridge/g09/l9999.exe)
 1\1\GINC-POPLE03\Force\RPBE1PBE\CC-pVDZ\Br1H64O32(1-)\M.PELUSO\03-May-
 2018\0\\#p PBE1PBE/cc-pvDZ force Counterpoise=2 noSymm\\forces on chlo
 ride comput - NWATER: 32\\-1,1\Br,20.,20.,20.\O,18.94,16.97,20.53\H,19
 .14,17.9,20.37\H,18.78,16.92,21.47\O,22.83,19.65,21.56\H,23.49,19.93,2
 0.92\H,22.01,19.64,21.06\O,21.24,22.51,18.33\H,20.57,22.44,17.65\H,21.
 03,21.81,18.95\O,19.76,18.4,23.34\H,20.18,18.8,24.1\H,19.92,19.01,22.6
 2\O,17.78,21.15,23.15\H,18.55,21.16,23.71\H,18.11,20.98,22.27\O,16.41,
 19.72,18.43\H,16.77,19.66,17.54\H,17.07,20.22,18.91\O,22.93,17.16,20.6
 3\H,23.17,18.01,21.\H,21.98,17.2,20.55\O,22.87,17.94,17.69\H,22.76,18.
 86,17.92\H,23.6,17.64,18.24\O,19.95,24.11,20.37\H,19.07,23.85,20.09\H,
 20.53,23.66,19.76\O,17.36,23.06,20.78\H,16.93,22.23,20.99\H,17.81,23.3
 1,21.58\O,20.54,21.67,23.56\H,21.32,22.01,23.13\H,20.31,22.35,24.19\O,
 17.15,18.51,23.18\H,17.09,19.45,23.33\H,18.09,18.32,23.18\O,22.28,23.6
 5,22.25\H,21.63,23.44,21.58\H,22.02,24.51,22.58\O,19.42,21.69,16.19\H,
 18.52,22.,16.24\H,19.36,20.84,15.75\O,22.86,19.69,24.23\H,22.08,19.3,2
 4.63\H,22.74,19.56,23.29\O,20.84,14.84,19.39\H,20.36,15.55,19.83\H,20.
 73,14.09,19.97\O,18.56,15.48,17.41\H,17.66,15.15,17.47\H,18.59,16.21,1
 8.02\O,24.52,20.34,19.26\H,24.83,20.36,18.36\H,25.3,20.15,19.78\O,24.3
 ,23.26,20.04\H,24.04,23.37,20.95\H,23.91,22.42,19.78\O,15.14,17.19,19.
 38\H,15.61,17.93,19.\H,15.52,17.08,20.25\O,17.53,14.67,20.4\H,18.13,15
 .42,20.41\H,18.05,13.95,20.04\O,19.07,24.52,22.83\H,19.49,24.54,21.97\
 H,19.78,24.31,23.44\O,21.74,22.18,14.91\H,21.38,21.89,14.07\H,20.99,22
 .14,15.51\O,15.76,16.65,21.93\H,16.16,15.91,22.4\H,16.14,17.42,22.35\O
 ,14.57,20.87,20.76\H,13.62,20.99,20.67\H,14.95,21.55,20.21\O,23.15,18.
 67,14.98\H,23.02,18.43,15.9\H,22.35,18.36,14.54\O,15.06,23.26,19.2\H,1
 4.48,23.87,19.65\H,15.93,23.44,19.56\O,24.55,22.82,16.98\H,23.76,23.09
 ,16.5\H,24.3,22.03,17.44\O,16.53,19.65,15.71\H,15.73,19.6,15.19\H,16.7
 7,20.58,15.7\O,17.82,17.45,14.6\H,17.35,16.69,14.95\H,17.71,18.12,15.2
 7\O,24.67,22.02,23.74\H,25.36,21.77,24.35\H,24.1,21.25,23.7\O,14.57,21
 .44,23.55\H,14.74,22.37,23.66\H,15.25,21.14,22.94\\Version=ES64L-G09Re
 vE.01\HF=-2443.13022\RMSD=2.975e-09\RMSF=9.188e-03\Dipole=-0.3522439,3
 .6477514,1.3543937\Quadrupole=-144.8861993,139.6310711,5.2551282,-1337
 .4015134,-1324.4129521,-1252.774577\PG=C01 [X(Br1H64O32)]\\@


 A ROPE OVER THE TOP OF A FENCE HAS THE SAME LENGTH ON EACH SIDE.
 WEIGHS 1/3 POUND PER FOOT.  ON ONE END HANGS A MONKEY HOLDING A
 BANANA, AND ON THE OTHER END A WEIGHT EQUAL TO THE WEIGHT
 OF THE MONKEY.  THE BANANA WEIGHS TWO OUNCES PER INCH.
 THE ROPE IS AS LONG AS THE AGE OF THE MONKEY, 
 AND THE WEIGHT OF THE MONKEY (IN OUNCES) IS AS MUCH
 AS THE AGE OF THE MONKEY'S MOTHER.  THE COMBINED AGES OF MONKEY
 AND MOTHER ARE THIRTY YEARS.  HALF THE WEIGHT OF THE MONKEY,
  PLUS THE WEIGHT OF THE BANANA, IS ONE FOURTH AS MUCH AS THE WEIGHT
 OF THE WEIGHT AND THE ROPE.
 THE MONKEY'S MOTHER IS HALF AS OLD AS THE MONKEY WILL BE
 WHEN IT IS 3 TIMES AS OLD AS ITS MOTHER WAS WHEN
 SHE WAS HALF AS OLD AS THE MONKEY WILL BE WHEN IT IS
 AS OLD AS ITS MOTHER WILL BE WHEN SHE IS 4 TIMES AS
 OLD AS THE MONKEY WAS WHEN IT WAS TWICE AS OLD AS 
 ITS MOTHER WAS WHEN SHE WAS ONE THIRD AS OLD AS THE
 MONKEY WAS WHEN IT WAS AS OLD AS ITS MOTHER WAS WHEN 
 SHE WAS 3 TIMES AS OLD AS THE MONKEY WAS WHEN IT WAS AS OLD AS ITS
 MOTHER WAS WHEN SHE WAS 3 TIMES AS OLD AS THE MONKEY 
 WAS WHEN IT WAS ONE FOURTH WAS OLD AS IT IS NOW.

 HOW LONG IS THE BANANA?
 Job cpu time:       0 days 10 hours 30 minutes 28.0 seconds.
 File lengths (MBytes):  RWF=    482 Int=      0 D2E=      0 Chk=    160 Scr=      1
 Normal termination of Gaussian 09 at Thu May  3 06:13:28 2018.
