 Entering Gaussian System, Link 0=/cm/shared/gaussian/g09.e01/intel64-sandybridge/g09/g09
 Initial command:
 /cm/shared/gaussian/g09.e01/intel64-sandybridge/g09/l1.exe "/local/scratch/m.peluso/32_wat/Gau-14679.inp" -scrdir="/local/scratch/m.peluso/32_wat/"
 Entering Link 1 = /cm/shared/gaussian/g09.e01/intel64-sandybridge/g09/l1.exe PID=     14680.
  
 Copyright (c) 1988,1990,1992,1993,1995,1998,2003,2009,2015,
            Gaussian, Inc.  All Rights Reserved.
  
 This is part of the Gaussian(R) 09 program.  It is based on
 the Gaussian(R) 03 system (copyright 2003, Gaussian, Inc.),
 the Gaussian(R) 98 system (copyright 1998, Gaussian, Inc.),
 the Gaussian(R) 94 system (copyright 1995, Gaussian, Inc.),
 the Gaussian 92(TM) system (copyright 1992, Gaussian, Inc.),
 the Gaussian 90(TM) system (copyright 1990, Gaussian, Inc.),
 the Gaussian 88(TM) system (copyright 1988, Gaussian, Inc.),
 the Gaussian 86(TM) system (copyright 1986, Carnegie Mellon
 University), and the Gaussian 82(TM) system (copyright 1983,
 Carnegie Mellon University). Gaussian is a federally registered
 trademark of Gaussian, Inc.
  
 This software contains proprietary and confidential information,
 including trade secrets, belonging to Gaussian, Inc.
  
 This software is provided under written license and may be
 used, copied, transmitted, or stored only in accord with that
 written license.
  
 The following legend is applicable only to US Government
 contracts under FAR:
  
                    RESTRICTED RIGHTS LEGEND
  
 Use, reproduction and disclosure by the US Government is
 subject to restrictions as set forth in subparagraphs (a)
 and (c) of the Commercial Computer Software - Restricted
 Rights clause in FAR 52.227-19.
  
 Gaussian, Inc.
 340 Quinnipiac St., Bldg. 40, Wallingford CT 06492
  
  
 ---------------------------------------------------------------
 Warning -- This program may not be used in any manner that
 competes with the business of Gaussian, Inc. or will provide
 assistance to any competitor of Gaussian, Inc.  The licensee
 of this program is prohibited from giving any competitor of
 Gaussian, Inc. access to this program.  By using this program,
 the user acknowledges that Gaussian, Inc. is engaged in the
 business of creating and licensing software in the field of
 computational chemistry and represents and warrants to the
 licensee that it is not a competitor of Gaussian, Inc. and that
 it will not use this program in any manner prohibited above.
 ---------------------------------------------------------------
  

 Cite this work as:
 Gaussian 09, Revision E.01,
 M. J. Frisch, G. W. Trucks, H. B. Schlegel, G. E. Scuseria, 
 M. A. Robb, J. R. Cheeseman, G. Scalmani, V. Barone, B. Mennucci, 
 G. A. Petersson, H. Nakatsuji, M. Caricato, X. Li, H. P. Hratchian, 
 A. F. Izmaylov, J. Bloino, G. Zheng, J. L. Sonnenberg, M. Hada, 
 M. Ehara, K. Toyota, R. Fukuda, J. Hasegawa, M. Ishida, T. Nakajima, 
 Y. Honda, O. Kitao, H. Nakai, T. Vreven, J. A. Montgomery, Jr., 
 J. E. Peralta, F. Ogliaro, M. Bearpark, J. J. Heyd, E. Brothers, 
 K. N. Kudin, V. N. Staroverov, T. Keith, R. Kobayashi, J. Normand, 
 K. Raghavachari, A. Rendell, J. C. Burant, S. S. Iyengar, J. Tomasi, 
 M. Cossi, N. Rega, J. M. Millam, M. Klene, J. E. Knox, J. B. Cross, 
 V. Bakken, C. Adamo, J. Jaramillo, R. Gomperts, R. E. Stratmann, 
 O. Yazyev, A. J. Austin, R. Cammi, C. Pomelli, J. W. Ochterski, 
 R. L. Martin, K. Morokuma, V. G. Zakrzewski, G. A. Voth, 
 P. Salvador, J. J. Dannenberg, S. Dapprich, A. D. Daniels, 
 O. Farkas, J. B. Foresman, J. V. Ortiz, J. Cioslowski, 
 and D. J. Fox, Gaussian, Inc., Wallingford CT, 2013.
 
 ******************************************
 Gaussian 09:  ES64L-G09RevE.01 30-Nov-2015
                 3-May-2018 
 ******************************************
 %Mem=110GB
 %NProcShared=64
 Will use up to   64 processors via shared memory.
 %chk=snap101.chk
 ----------------------------------------------
 #p PBE1PBE/cc-pvDZ force Counterpoise=2 noSymm
 ----------------------------------------------
 1/10=7,30=1,38=1,62=2/1,3;
 2/12=2,15=1,17=6,18=5,40=1/2;
 1/10=7,30=1,38=1,53=2,62=2,63=101/22;
 3/5=16,11=2,16=1,25=1,30=1,71=1,74=-13/1,2,3;
 4//1;
 5/5=2,38=5/2;
 6/7=2,8=2,9=2,10=2,28=1/1;
 7/7=1,29=1,30=1,33=-1/1,2,3,16;
 1/10=7,30=1,53=2,62=2,63=101/22;
 3/5=7,6=11,11=2,16=1,25=1,30=1,71=1,74=-13,82=7/1,2,3;
 4//1;
 5/5=2,38=5/2;
 6/7=2,8=2,9=2,10=2,28=1/1;
 7/7=1,29=1,30=1,33=-1/1,2,3,16;
 1/10=7,30=1,53=2,62=2,63=101/22(-5);
 7/9=1,29=1,44=-1/16;
 1/10=7,30=1,62=2/3;
 99//99;
 Leave Link    1 at Thu May  3 02:18:38 2018, MaxMem= 14763950080 cpu:         4.4
 (Enter /cm/shared/gaussian/g09.e01/intel64-sandybridge/g09/l101.exe)
 --------------------------------------
 forces on chloride comput - NWATER: 32
 --------------------------------------
 Symbolic Z-matrix:
 Charge = -1 Multiplicity = 1 in supermolecule
 Charge = -1 Multiplicity = 1 in fragment      1.
 Charge =  0 Multiplicity = 1 in fragment      2.
 Br(Fragment=1)        20.       20.       20. 
 O(Fragment=2)         22.01     17.77     20.54 
 H(Fragment=2)         21.4      18.51     20.64 
 H(Fragment=2)         22.3      17.81     19.63 
 O(Fragment=2)         17.92     21.54     18.14 
 H(Fragment=2)         17.37     20.77     18.26 
 H(Fragment=2)         18.76     21.31     18.55 
 O(Fragment=2)         22.94     21.55     20.2 
 H(Fragment=2)         22.07     21.16     20.21 
 H(Fragment=2)         23.54     20.8      20.19 
 O(Fragment=2)         18.52     22.69     21.3 
 H(Fragment=2)         18.99     21.86     21.23 
 H(Fragment=2)         17.6      22.45     21.24 
 O(Fragment=2)         19.59     20.18     23.38 
 H(Fragment=2)         19.31     20.15     22.47 
 H(Fragment=2)         20.55     20.23     23.34 
 O(Fragment=2)         18.15     17.27     20.41 
 H(Fragment=2)         18.16     18.22     20.32 
 H(Fragment=2)         19.05     17.03     20.61 
 O(Fragment=2)         19.44     17.64     17.44 
 H(Fragment=2)         19.46     18.2      18.22 
 H(Fragment=2)         18.71     17.99     16.92 
 O(Fragment=2)         21.21     21.33     16.74 
 H(Fragment=2)         20.45     20.75     16.72 
 H(Fragment=2)         20.89     22.13     17.16 
 O(Fragment=2)         20.26     24.01     18.67 
 H(Fragment=2)         20.97     24.54     19.02 
 H(Fragment=2)         20.01     23.44     19.39 
 O(Fragment=2)         23.28     19.38     17.95 
 H(Fragment=2)         22.52     19.7      17.46 
 H(Fragment=2)         23.91     20.1      17.93 
 O(Fragment=2)         21.46     17.61     24.03 
 H(Fragment=2)         22.28     17.9      24.42 
 H(Fragment=2)         21.58     17.75     23.09 
 O(Fragment=2)         15.99     19.04     21.2 
 H(Fragment=2)         16.1      18.48     21.97 
 H(Fragment=2)         15.88     19.92     21.56 
 O(Fragment=2)         23.21     19.97     23.21 
 H(Fragment=2)         23.91     20.07     23.86 
 H(Fragment=2)         22.68     20.75     23.3 
 O(Fragment=2)         15.46     19.32     18.53 
 H(Fragment=2)         15.79     19.11     19.4 
 H(Fragment=2)         15.74     18.59     17.98 
 O(Fragment=2)         21.53     22.13     23.71 
 H(Fragment=2)         21.97     22.96     23.53 
 H(Fragment=2)         20.76     22.37     24.22 
 O(Fragment=2)         17.71     19.41     16.01 
 H(Fragment=2)         17.47     18.93     15.21 
 H(Fragment=2)         17.93     20.29     15.7 
 O(Fragment=2)         19.32     24.79     22.79 
 H(Fragment=2)         19.01     24.       22.35 
 H(Fragment=2)         19.9      24.46     23.48 
 O(Fragment=2)         15.92     21.87     21.58 
 H(Fragment=2)         15.72     22.8      21.66 
 H(Fragment=2)         15.13     21.49     21.2 
 O(Fragment=2)         15.92     23.53     18.34 
 H(Fragment=2)         16.65     22.92     18.25 
 H(Fragment=2)         16.19     24.13     19.03 
 O(Fragment=2)         25.04     18.21     21.7 
 H(Fragment=2)         25.22     19.13     21.51 
 H(Fragment=2)         24.09     18.17     21.79 
 O(Fragment=2)         21.78     16.71     15.78 
 H(Fragment=2)         22.28     16.51     16.57 
 H(Fragment=2)         20.98     17.13     16.1 
 O(Fragment=2)         24.63     23.17     18.41 
 H(Fragment=2)         24.11     22.61     18.99 
 H(Fragment=2)         25.42     23.36     18.92 
 O(Fragment=2)         19.35     24.12     15.96 
 H(Fragment=2)         19.67     23.87     16.82 
 H(Fragment=2)         18.7      24.79     16.13 
 O(Fragment=2)         23.35     15.41     21.58 
 H(Fragment=2)         23.02     16.3      21.64 
 H(Fragment=2)         23.64     15.32     20.67 
 O(Fragment=2)         17.95     15.1      18.22 
 H(Fragment=2)         18.87     15.34     18.28 
 H(Fragment=2)         17.83     14.41     18.87 
 O(Fragment=2)         18.61     19.82     25.93 
 H(Fragment=2)         18.83     20.09     25.03 
 H(Fragment=2)         18.99     20.5      26.48 
 O(Fragment=2)         17.04     22.2      24.31 
 H(Fragment=2)         17.34     22.68     23.54 
 H(Fragment=2)         16.71     21.37     23.96 
 O(Fragment=2)         16.25     17.01     17.51 
 H(Fragment=2)         16.12     16.69     16.62 
 H(Fragment=2)         16.92     16.42     17.88 
 O(Fragment=2)         24.07     16.82     17.39 
 H(Fragment=2)         23.93     17.77     17.39 
 H(Fragment=2)         24.88     16.7      16.89 
 O(Fragment=2)         25.04     22.66     22.36 
 H(Fragment=2)         24.22     22.21     22.15 
 H(Fragment=2)         24.75     23.49     22.75 
 O(Fragment=2)         16.05     15.39     21.53 
 H(Fragment=2)         16.61     16.05     21.12 
 H(Fragment=2)         16.62     14.96     22.17 
 O(Fragment=2)         16.19     19.73     23.91 
 H(Fragment=2)         16.84     19.22     24.4 
 H(Fragment=2)         15.49     19.91     24.53 
 
 NAtoms=     97 NQM=       97 NQMF=       0 NMMI=      0 NMMIF=      0
                NMic=       0 NMicF=      0.
                    Isotopes and Nuclear Properties:
 (Nuclear quadrupole moments (NQMom) in fm**2, nuclear magnetic moments (NMagM)
  in nuclear magnetons)

  Atom         1           2           3           4           5           6           7           8           9          10
 IAtWgt=          79          16           1           1          16           1           1          16           1           1
 AtmWgt=  78.9183361  15.9949146   1.0078250   1.0078250  15.9949146   1.0078250   1.0078250  15.9949146   1.0078250   1.0078250
 NucSpn=           3           0           1           1           0           1           1           0           1           1
 AtZEff=   0.0000000   0.0000000   0.0000000   0.0000000   0.0000000   0.0000000   0.0000000   0.0000000   0.0000000   0.0000000
 NQMom=   31.3000000   0.0000000   0.0000000   0.0000000   0.0000000   0.0000000   0.0000000   0.0000000   0.0000000   0.0000000
 NMagM=    2.1063990   0.0000000   2.7928460   2.7928460   0.0000000   2.7928460   2.7928460   0.0000000   2.7928460   2.7928460
 AtZNuc=  35.0000000   8.0000000   1.0000000   1.0000000   8.0000000   1.0000000   1.0000000   8.0000000   1.0000000   1.0000000

  Atom        11          12          13          14          15          16          17          18          19          20
 IAtWgt=          16           1           1          16           1           1          16           1           1          16
 AtmWgt=  15.9949146   1.0078250   1.0078250  15.9949146   1.0078250   1.0078250  15.9949146   1.0078250   1.0078250  15.9949146
 NucSpn=           0           1           1           0           1           1           0           1           1           0
 AtZEff=   0.0000000   0.0000000   0.0000000   0.0000000   0.0000000   0.0000000   0.0000000   0.0000000   0.0000000   0.0000000
 NQMom=    0.0000000   0.0000000   0.0000000   0.0000000   0.0000000   0.0000000   0.0000000   0.0000000   0.0000000   0.0000000
 NMagM=    0.0000000   2.7928460   2.7928460   0.0000000   2.7928460   2.7928460   0.0000000   2.7928460   2.7928460   0.0000000
 AtZNuc=   8.0000000   1.0000000   1.0000000   8.0000000   1.0000000   1.0000000   8.0000000   1.0000000   1.0000000   8.0000000

  Atom        21          22          23          24          25          26          27          28          29          30
 IAtWgt=           1           1          16           1           1          16           1           1          16           1
 AtmWgt=   1.0078250   1.0078250  15.9949146   1.0078250   1.0078250  15.9949146   1.0078250   1.0078250  15.9949146   1.0078250
 NucSpn=           1           1           0           1           1           0           1           1           0           1
 AtZEff=   0.0000000   0.0000000   0.0000000   0.0000000   0.0000000   0.0000000   0.0000000   0.0000000   0.0000000   0.0000000
 NQMom=    0.0000000   0.0000000   0.0000000   0.0000000   0.0000000   0.0000000   0.0000000   0.0000000   0.0000000   0.0000000
 NMagM=    2.7928460   2.7928460   0.0000000   2.7928460   2.7928460   0.0000000   2.7928460   2.7928460   0.0000000   2.7928460
 AtZNuc=   1.0000000   1.0000000   8.0000000   1.0000000   1.0000000   8.0000000   1.0000000   1.0000000   8.0000000   1.0000000

  Atom        31          32          33          34          35          36          37          38          39          40
 IAtWgt=           1          16           1           1          16           1           1          16           1           1
 AtmWgt=   1.0078250  15.9949146   1.0078250   1.0078250  15.9949146   1.0078250   1.0078250  15.9949146   1.0078250   1.0078250
 NucSpn=           1           0           1           1           0           1           1           0           1           1
 AtZEff=   0.0000000   0.0000000   0.0000000   0.0000000   0.0000000   0.0000000   0.0000000   0.0000000   0.0000000   0.0000000
 NQMom=    0.0000000   0.0000000   0.0000000   0.0000000   0.0000000   0.0000000   0.0000000   0.0000000   0.0000000   0.0000000
 NMagM=    2.7928460   0.0000000   2.7928460   2.7928460   0.0000000   2.7928460   2.7928460   0.0000000   2.7928460   2.7928460
 AtZNuc=   1.0000000   8.0000000   1.0000000   1.0000000   8.0000000   1.0000000   1.0000000   8.0000000   1.0000000   1.0000000

  Atom        41          42          43          44          45          46          47          48          49          50
 IAtWgt=          16           1           1          16           1           1          16           1           1          16
 AtmWgt=  15.9949146   1.0078250   1.0078250  15.9949146   1.0078250   1.0078250  15.9949146   1.0078250   1.0078250  15.9949146
 NucSpn=           0           1           1           0           1           1           0           1           1           0
 AtZEff=   0.0000000   0.0000000   0.0000000   0.0000000   0.0000000   0.0000000   0.0000000   0.0000000   0.0000000   0.0000000
 NQMom=    0.0000000   0.0000000   0.0000000   0.0000000   0.0000000   0.0000000   0.0000000   0.0000000   0.0000000   0.0000000
 NMagM=    0.0000000   2.7928460   2.7928460   0.0000000   2.7928460   2.7928460   0.0000000   2.7928460   2.7928460   0.0000000
 AtZNuc=   8.0000000   1.0000000   1.0000000   8.0000000   1.0000000   1.0000000   8.0000000   1.0000000   1.0000000   8.0000000

  Atom        51          52          53          54          55          56          57          58          59          60
 IAtWgt=           1           1          16           1           1          16           1           1          16           1
 AtmWgt=   1.0078250   1.0078250  15.9949146   1.0078250   1.0078250  15.9949146   1.0078250   1.0078250  15.9949146   1.0078250
 NucSpn=           1           1           0           1           1           0           1           1           0           1
 AtZEff=   0.0000000   0.0000000   0.0000000   0.0000000   0.0000000   0.0000000   0.0000000   0.0000000   0.0000000   0.0000000
 NQMom=    0.0000000   0.0000000   0.0000000   0.0000000   0.0000000   0.0000000   0.0000000   0.0000000   0.0000000   0.0000000
 NMagM=    2.7928460   2.7928460   0.0000000   2.7928460   2.7928460   0.0000000   2.7928460   2.7928460   0.0000000   2.7928460
 AtZNuc=   1.0000000   1.0000000   8.0000000   1.0000000   1.0000000   8.0000000   1.0000000   1.0000000   8.0000000   1.0000000

  Atom        61          62          63          64          65          66          67          68          69          70
 IAtWgt=           1          16           1           1          16           1           1          16           1           1
 AtmWgt=   1.0078250  15.9949146   1.0078250   1.0078250  15.9949146   1.0078250   1.0078250  15.9949146   1.0078250   1.0078250
 NucSpn=           1           0           1           1           0           1           1           0           1           1
 AtZEff=   0.0000000   0.0000000   0.0000000   0.0000000   0.0000000   0.0000000   0.0000000   0.0000000   0.0000000   0.0000000
 NQMom=    0.0000000   0.0000000   0.0000000   0.0000000   0.0000000   0.0000000   0.0000000   0.0000000   0.0000000   0.0000000
 NMagM=    2.7928460   0.0000000   2.7928460   2.7928460   0.0000000   2.7928460   2.7928460   0.0000000   2.7928460   2.7928460
 AtZNuc=   1.0000000   8.0000000   1.0000000   1.0000000   8.0000000   1.0000000   1.0000000   8.0000000   1.0000000   1.0000000

  Atom        71          72          73          74          75          76          77          78          79          80
 IAtWgt=          16           1           1          16           1           1          16           1           1          16
 AtmWgt=  15.9949146   1.0078250   1.0078250  15.9949146   1.0078250   1.0078250  15.9949146   1.0078250   1.0078250  15.9949146
 NucSpn=           0           1           1           0           1           1           0           1           1           0
 AtZEff=   0.0000000   0.0000000   0.0000000   0.0000000   0.0000000   0.0000000   0.0000000   0.0000000   0.0000000   0.0000000
 NQMom=    0.0000000   0.0000000   0.0000000   0.0000000   0.0000000   0.0000000   0.0000000   0.0000000   0.0000000   0.0000000
 NMagM=    0.0000000   2.7928460   2.7928460   0.0000000   2.7928460   2.7928460   0.0000000   2.7928460   2.7928460   0.0000000
 AtZNuc=   8.0000000   1.0000000   1.0000000   8.0000000   1.0000000   1.0000000   8.0000000   1.0000000   1.0000000   8.0000000

  Atom        81          82          83          84          85          86          87          88          89          90
 IAtWgt=           1           1          16           1           1          16           1           1          16           1
 AtmWgt=   1.0078250   1.0078250  15.9949146   1.0078250   1.0078250  15.9949146   1.0078250   1.0078250  15.9949146   1.0078250
 NucSpn=           1           1           0           1           1           0           1           1           0           1
 AtZEff=   0.0000000   0.0000000   0.0000000   0.0000000   0.0000000   0.0000000   0.0000000   0.0000000   0.0000000   0.0000000
 NQMom=    0.0000000   0.0000000   0.0000000   0.0000000   0.0000000   0.0000000   0.0000000   0.0000000   0.0000000   0.0000000
 NMagM=    2.7928460   2.7928460   0.0000000   2.7928460   2.7928460   0.0000000   2.7928460   2.7928460   0.0000000   2.7928460
 AtZNuc=   1.0000000   1.0000000   8.0000000   1.0000000   1.0000000   8.0000000   1.0000000   1.0000000   8.0000000   1.0000000

  Atom        91          92          93          94          95          96          97
 IAtWgt=           1          16           1           1          16           1           1
 AtmWgt=   1.0078250  15.9949146   1.0078250   1.0078250  15.9949146   1.0078250   1.0078250
 NucSpn=           1           0           1           1           0           1           1
 AtZEff=   0.0000000   0.0000000   0.0000000   0.0000000   0.0000000   0.0000000   0.0000000
 NQMom=    0.0000000   0.0000000   0.0000000   0.0000000   0.0000000   0.0000000   0.0000000
 NMagM=    2.7928460   0.0000000   2.7928460   2.7928460   0.0000000   2.7928460   2.7928460
 AtZNuc=   1.0000000   8.0000000   1.0000000   1.0000000   8.0000000   1.0000000   1.0000000
 Leave Link  101 at Thu May  3 02:18:39 2018, MaxMem= 14763950080 cpu:        13.0
 (Enter /cm/shared/gaussian/g09.e01/intel64-sandybridge/g09/l103.exe)

 GradGradGradGradGradGradGradGradGradGradGradGradGradGradGradGradGradGrad
 Berny optimization.
 Initialization pass.
 Trust Radius=3.00D-01 FncErr=1.00D-07 GrdErr=1.00D-07
 Number of steps in this run=      2 maximum allowed number of steps=      2.
 GradGradGradGradGradGradGradGradGradGradGradGradGradGradGradGradGradGrad

 Leave Link  103 at Thu May  3 02:18:39 2018, MaxMem= 14763950080 cpu:         1.7
 (Enter /cm/shared/gaussian/g09.e01/intel64-sandybridge/g09/l202.exe)
 Symmetry turned off by external request.
 Stoichiometry    BrH64O32(1-)
 Framework group  C1[X(BrH64O32)]
 Deg. of freedom   285
 Full point group                 C1      NOp   1
                          Input orientation:                          
 ---------------------------------------------------------------------
 Center     Atomic      Atomic             Coordinates (Angstroms)
 Number     Number       Type             X           Y           Z
 ---------------------------------------------------------------------
      1         35           0       20.000000   20.000000   20.000000
      2          8           0       22.010000   17.770000   20.540000
      3          1           0       21.400000   18.510000   20.640000
      4          1           0       22.300000   17.810000   19.630000
      5          8           0       17.920000   21.540000   18.140000
      6          1           0       17.370000   20.770000   18.260000
      7          1           0       18.760000   21.310000   18.550000
      8          8           0       22.940000   21.550000   20.200000
      9          1           0       22.070000   21.160000   20.210000
     10          1           0       23.540000   20.800000   20.190000
     11          8           0       18.520000   22.690000   21.300000
     12          1           0       18.990000   21.860000   21.230000
     13          1           0       17.600000   22.450000   21.240000
     14          8           0       19.590000   20.180000   23.380000
     15          1           0       19.310000   20.150000   22.470000
     16          1           0       20.550000   20.230000   23.340000
     17          8           0       18.150000   17.270000   20.410000
     18          1           0       18.160000   18.220000   20.320000
     19          1           0       19.050000   17.030000   20.610000
     20          8           0       19.440000   17.640000   17.440000
     21          1           0       19.460000   18.200000   18.220000
     22          1           0       18.710000   17.990000   16.920000
     23          8           0       21.210000   21.330000   16.740000
     24          1           0       20.450000   20.750000   16.720000
     25          1           0       20.890000   22.130000   17.160000
     26          8           0       20.260000   24.010000   18.670000
     27          1           0       20.970000   24.540000   19.020000
     28          1           0       20.010000   23.440000   19.390000
     29          8           0       23.280000   19.380000   17.950000
     30          1           0       22.520000   19.700000   17.460000
     31          1           0       23.910000   20.100000   17.930000
     32          8           0       21.460000   17.610000   24.030000
     33          1           0       22.280000   17.900000   24.420000
     34          1           0       21.580000   17.750000   23.090000
     35          8           0       15.990000   19.040000   21.200000
     36          1           0       16.100000   18.480000   21.970000
     37          1           0       15.880000   19.920000   21.560000
     38          8           0       23.210000   19.970000   23.210000
     39          1           0       23.910000   20.070000   23.860000
     40          1           0       22.680000   20.750000   23.300000
     41          8           0       15.460000   19.320000   18.530000
     42          1           0       15.790000   19.110000   19.400000
     43          1           0       15.740000   18.590000   17.980000
     44          8           0       21.530000   22.130000   23.710000
     45          1           0       21.970000   22.960000   23.530000
     46          1           0       20.760000   22.370000   24.220000
     47          8           0       17.710000   19.410000   16.010000
     48          1           0       17.470000   18.930000   15.210000
     49          1           0       17.930000   20.290000   15.700000
     50          8           0       19.320000   24.790000   22.790000
     51          1           0       19.010000   24.000000   22.350000
     52          1           0       19.900000   24.460000   23.480000
     53          8           0       15.920000   21.870000   21.580000
     54          1           0       15.720000   22.800000   21.660000
     55          1           0       15.130000   21.490000   21.200000
     56          8           0       15.920000   23.530000   18.340000
     57          1           0       16.650000   22.920000   18.250000
     58          1           0       16.190000   24.130000   19.030000
     59          8           0       25.040000   18.210000   21.700000
     60          1           0       25.220000   19.130000   21.510000
     61          1           0       24.090000   18.170000   21.790000
     62          8           0       21.780000   16.710000   15.780000
     63          1           0       22.280000   16.510000   16.570000
     64          1           0       20.980000   17.130000   16.100000
     65          8           0       24.630000   23.170000   18.410000
     66          1           0       24.110000   22.610000   18.990000
     67          1           0       25.420000   23.360000   18.920000
     68          8           0       19.350000   24.120000   15.960000
     69          1           0       19.670000   23.870000   16.820000
     70          1           0       18.700000   24.790000   16.130000
     71          8           0       23.350000   15.410000   21.580000
     72          1           0       23.020000   16.300000   21.640000
     73          1           0       23.640000   15.320000   20.670000
     74          8           0       17.950000   15.100000   18.220000
     75          1           0       18.870000   15.340000   18.280000
     76          1           0       17.830000   14.410000   18.870000
     77          8           0       18.610000   19.820000   25.930000
     78          1           0       18.830000   20.090000   25.030000
     79          1           0       18.990000   20.500000   26.480000
     80          8           0       17.040000   22.200000   24.310000
     81          1           0       17.340000   22.680000   23.540000
     82          1           0       16.710000   21.370000   23.960000
     83          8           0       16.250000   17.010000   17.510000
     84          1           0       16.120000   16.690000   16.620000
     85          1           0       16.920000   16.420000   17.880000
     86          8           0       24.070000   16.820000   17.390000
     87          1           0       23.930000   17.770000   17.390000
     88          1           0       24.880000   16.700000   16.890000
     89          8           0       25.040000   22.660000   22.360000
     90          1           0       24.220000   22.210000   22.150000
     91          1           0       24.750000   23.490000   22.750000
     92          8           0       16.050000   15.390000   21.530000
     93          1           0       16.610000   16.050000   21.120000
     94          1           0       16.620000   14.960000   22.170000
     95          8           0       16.190000   19.730000   23.910000
     96          1           0       16.840000   19.220000   24.400000
     97          1           0       15.490000   19.910000   24.530000
 ---------------------------------------------------------------------
 Rotational constants (GHZ):      0.0582448      0.0555765      0.0509497
 Leave Link  202 at Thu May  3 02:18:39 2018, MaxMem= 14763950080 cpu:         0.5
 (Enter /cm/shared/gaussian/g09.e01/intel64-sandybridge/g09/l122.exe)
 Counterpoise: doing full dimer calculation.
 Leave Link  122 at Thu May  3 02:18:39 2018, MaxMem= 14763950080 cpu:         0.0
 (Enter /cm/shared/gaussian/g09.e01/intel64-sandybridge/g09/l301.exe)
 Standard basis: CC-pVDZ (5D, 7F)
 Ernie: Thresh=  0.10000D-02 Tol=  0.10000D-05 Strict=F.
 Ernie:  87 primitive shells out of 1114 were deleted.
   795 basis functions,  1651 primitive gaussians,   829 cartesian basis functions
   178 alpha electrons      178 beta electrons
       nuclear repulsion energy      6127.3500653153 Hartrees.
 IExCor= 1009 DFT=T Ex+Corr=PBE1PBE ExCW=0 ScaHFX=  0.250000
 ScaDFX=  0.750000  0.750000  1.000000  1.000000 ScalE2=  1.000000  1.000000
 IRadAn=      0 IRanWt=     -1 IRanGd=            0 ICorTp=0 IEmpDi=  4
 NAtoms=   97 NActive=   97 NUniq=   97 SFac= 1.00D+00 NAtFMM=   60 NAOKFM=T Big=T
 Integral buffers will be    131072 words long.
 Raffenetti 2 integral format.
 Two-electron integral symmetry is turned off.
 Leave Link  301 at Thu May  3 02:18:39 2018, MaxMem= 14763950080 cpu:         4.5
 (Enter /cm/shared/gaussian/g09.e01/intel64-sandybridge/g09/l302.exe)
 NPDir=0 NMtPBC=     1 NCelOv=     1 NCel=       1 NClECP=     1 NCelD=      1
         NCelK=      1 NCelE2=     1 NClLst=     1 CellRange=     0.0.
 One-electron integrals computed using PRISM.
 NBasis=   795 RedAO= T EigKep=  1.64D-02  NBF=   795
 NBsUse=   795 1.00D-06 EigRej= -1.00D+00 NBFU=   795
 Precomputing XC quadrature grid using
 IXCGrd= 4 IRadAn=           0 IRanWt=          -1 IRanGd=           0 AccXCQ= 0.00D+00.
 Generated NRdTot=       0 NPtTot=           0 NUsed=           0 NTot=          32
 NSgBfM=   679   683   684   695   702 MxSgAt=    97 MxSgA2=    97.
 Leave Link  302 at Thu May  3 02:18:46 2018, MaxMem= 14763950080 cpu:       429.4
 (Enter /cm/shared/gaussian/g09.e01/intel64-sandybridge/g09/l303.exe)
 DipDrv:  MaxL=1.
 Leave Link  303 at Thu May  3 02:18:46 2018, MaxMem= 14763950080 cpu:        29.4
 (Enter /cm/shared/gaussian/g09.e01/intel64-sandybridge/g09/l401.exe)
 ExpMin= 1.22D-01 ExpMax= 6.40D+05 ExpMxC= 6.18D+03 IAcc=2 IRadAn=         4 AccDes= 0.00D+00
 Harris functional with IExCor= 1009 and IRadAn=       4 diagonalized for initial guess.
 HarFok:  IExCor= 1009 AccDes= 0.00D+00 IRadAn=         4 IDoV= 1 UseB2=F ITyADJ=14
 ICtDFT=  3500011 ScaDFX=  1.000000  1.000000  1.000000  1.000000
 FoFCou: FMM=F IPFlag=           0 FMFlag=      100000 FMFlg1=        2001
         NFxFlg=           0 DoJE=T BraDBF=F KetDBF=T FulRan=T
         wScrn=  0.000000 ICntrl=     500 IOpCl=  0 I1Cent=   200000004 NGrid=           0
         NMat0=    1 NMatS0=      1 NMatT0=    0 NMatD0=    1 NMtDS0=    0 NMtDT0=    0
 Symmetry not used in FoFCou.
 Harris En= -5018.42765941423    
 JPrj=0 DoOrth=F DoCkMO=F.
 Leave Link  401 at Thu May  3 02:18:51 2018, MaxMem= 14763950080 cpu:       323.2
 (Enter /cm/shared/gaussian/g09.e01/intel64-sandybridge/g09/l502.exe)
 Closed shell SCF:
 Using DIIS extrapolation, IDIIS=  1040.
 Two-electron integral symmetry not used.
 IVT=     2138497 IEndB=     2138497 NGot= 14763950080 MDV= 14762516294
 LenX= 14762516294 LenY= 14761828224
 Requested convergence on RMS density matrix=1.00D-08 within 128 cycles.
 Requested convergence on MAX density matrix=1.00D-06.
 Requested convergence on             energy=1.00D-06.
 No special actions if energy rises.
 Fock matrices will be formed incrementally for  20 cycles.
 Integral accuracy reduced to 1.0D-05 until final iterations.

 Cycle   1  Pass 0  IDiag  1:
 FoFJK:  IHMeth= 1 ICntrl=       0 DoSepK=F KAlg= 0 I1Cent=   0 FoldK=F
 IRaf= 820000000 NMat=   1 IRICut=       1 DoRegI=T DoRafI=F ISym2E= 0.
 FoFCou: FMM=T IPFlag=           0 FMFlag=      100000 FMFlg1=        2001
         NFxFlg=           0 DoJE=F BraDBF=F KetDBF=F FulRan=T
         wScrn=  0.000000 ICntrl=       0 IOpCl=  0 I1Cent=           0 NGrid=           0
         NMat0=    1 NMatS0=      1 NMatT0=    0 NMatD0=    1 NMtDS0=    0 NMtDT0=    0
 Symmetry not used in FoFCou.
 FMM levels:  10  Number of levels for PrismC:   9
 E= -5015.24904532782    
 DIIS: error= 4.41D-02 at cycle   1 NSaved=   1.
 NSaved= 1 IEnMin= 1 EnMin= -5015.24904532782     IErMin= 1 ErrMin= 4.41D-02
 ErrMax= 4.41D-02  0.00D+00 EMaxC= 1.00D-01 BMatC= 2.76D+00 BMatP= 2.76D+00
 IDIUse=3 WtCom= 5.59D-01 WtEn= 4.41D-01
 Coeff-Com:  0.100D+01
 Coeff-En:   0.100D+01
 Coeff:      0.100D+01
 Gap=     0.314 Goal=   None    Shift=    0.000
 GapD=    0.314 DampG=1.000 DampE=0.500 DampFc=0.5000 IDamp=-1.
 Damping current iteration by 5.00D-01
 RMSDP=2.89D-03 MaxDP=1.63D-01              OVMax= 1.82D-01

 Cycle   2  Pass 0  IDiag  1:
 RMSU=  1.43D-03    CP:  9.85D-01
 E= -5016.04759649817     Delta-E=       -0.798551170348 Rises=F Damp=T
 DIIS: error= 7.61D-03 at cycle   2 NSaved=   2.
 NSaved= 2 IEnMin= 2 EnMin= -5016.04759649817     IErMin= 2 ErrMin= 7.61D-03
 ErrMax= 7.61D-03  0.00D+00 EMaxC= 1.00D-01 BMatC= 9.12D-02 BMatP= 2.76D+00
 IDIUse=3 WtCom= 9.24D-01 WtEn= 7.61D-02
 Coeff-Com:  0.123D+00 0.877D+00
 Coeff-En:   0.220D+00 0.780D+00
 Coeff:      0.130D+00 0.870D+00
 Gap=     0.206 Goal=   None    Shift=    0.000
 RMSDP=3.59D-04 MaxDP=2.08D-02 DE=-7.99D-01 OVMax= 1.12D-01

 Cycle   3  Pass 0  IDiag  1:
 RMSU=  2.76D-04    CP:  9.87D-01  8.41D-01
 E= -5017.22725357288     Delta-E=       -1.179657074710 Rises=F Damp=F
 DIIS: error= 1.12D-03 at cycle   3 NSaved=   3.
 NSaved= 3 IEnMin= 3 EnMin= -5017.22725357288     IErMin= 3 ErrMin= 1.12D-03
 ErrMax= 1.12D-03  0.00D+00 EMaxC= 1.00D-01 BMatC= 1.77D-03 BMatP= 9.12D-02
 IDIUse=3 WtCom= 9.89D-01 WtEn= 1.12D-02
 Coeff-Com:  0.880D-02 0.650D-01 0.926D+00
 Coeff-En:   0.000D+00 0.000D+00 0.100D+01
 Coeff:      0.870D-02 0.643D-01 0.927D+00
 Gap=     0.217 Goal=   None    Shift=    0.000
 RMSDP=9.65D-05 MaxDP=1.54D-02 DE=-1.18D+00 OVMax= 1.57D-02

 Cycle   4  Pass 0  IDiag  1:
 RMSU=  8.60D-05    CP:  9.87D-01  8.44D-01  8.42D-01
 E= -5017.22761701178     Delta-E=       -0.000363438900 Rises=F Damp=F
 DIIS: error= 1.24D-03 at cycle   4 NSaved=   4.
 NSaved= 4 IEnMin= 4 EnMin= -5017.22761701178     IErMin= 3 ErrMin= 1.12D-03
 ErrMax= 1.24D-03  0.00D+00 EMaxC= 1.00D-01 BMatC= 1.82D-03 BMatP= 1.77D-03
 IDIUse=3 WtCom= 9.88D-01 WtEn= 1.24D-02
 Coeff-Com:  0.191D-02 0.761D-02 0.501D+00 0.489D+00
 Coeff-En:   0.000D+00 0.000D+00 0.444D+00 0.556D+00
 Coeff:      0.189D-02 0.751D-02 0.501D+00 0.490D+00
 Gap=     0.217 Goal=   None    Shift=    0.000
 RMSDP=4.24D-05 MaxDP=6.25D-03 DE=-3.63D-04 OVMax= 6.48D-03

 Cycle   5  Pass 0  IDiag  1:
 RMSU=  1.69D-05    CP:  9.87D-01  8.42D-01  9.03D-01  5.95D-01
 E= -5017.22908515837     Delta-E=       -0.001468146595 Rises=F Damp=F
 DIIS: error= 1.33D-04 at cycle   5 NSaved=   5.
 NSaved= 5 IEnMin= 5 EnMin= -5017.22908515837     IErMin= 5 ErrMin= 1.33D-04
 ErrMax= 1.33D-04  0.00D+00 EMaxC= 1.00D-01 BMatC= 3.30D-05 BMatP= 1.77D-03
 IDIUse=3 WtCom= 9.99D-01 WtEn= 1.33D-03
 Coeff-Com:  0.630D-03-0.169D-02 0.139D+00 0.170D+00 0.691D+00
 Coeff-En:   0.000D+00 0.000D+00 0.000D+00 0.000D+00 0.100D+01
 Coeff:      0.629D-03-0.168D-02 0.139D+00 0.170D+00 0.692D+00
 Gap=     0.217 Goal=   None    Shift=    0.000
 RMSDP=7.86D-06 MaxDP=1.19D-03 DE=-1.47D-03 OVMax= 1.18D-03

 Cycle   6  Pass 0  IDiag  1:
 RMSU=  5.57D-06    CP:  9.87D-01  8.41D-01  9.13D-01  5.73D-01  7.44D-01
 E= -5017.22911101825     Delta-E=       -0.000025859877 Rises=F Damp=F
 DIIS: error= 1.14D-04 at cycle   6 NSaved=   6.
 NSaved= 6 IEnMin= 6 EnMin= -5017.22911101825     IErMin= 6 ErrMin= 1.14D-04
 ErrMax= 1.14D-04  0.00D+00 EMaxC= 1.00D-01 BMatC= 4.05D-06 BMatP= 3.30D-05
 IDIUse=3 WtCom= 9.99D-01 WtEn= 1.14D-03
 Coeff-Com:  0.139D-03-0.197D-02 0.323D-01 0.419D-01 0.294D+00 0.634D+00
 Coeff-En:   0.000D+00 0.000D+00 0.000D+00 0.000D+00 0.000D+00 0.100D+01
 Coeff:      0.139D-03-0.196D-02 0.322D-01 0.419D-01 0.293D+00 0.635D+00
 Gap=     0.217 Goal=   None    Shift=    0.000
 RMSDP=2.34D-06 MaxDP=4.52D-04 DE=-2.59D-05 OVMax= 3.48D-04

 Initial convergence to 1.0D-05 achieved.  Increase integral accuracy.
 Cycle   7  Pass 1  IDiag  1:
 E= -5017.22969411431     Delta-E=       -0.000583096060 Rises=F Damp=F
 DIIS: error= 2.61D-05 at cycle   1 NSaved=   1.
 NSaved= 1 IEnMin= 1 EnMin= -5017.22969411431     IErMin= 1 ErrMin= 2.61D-05
 ErrMax= 2.61D-05  0.00D+00 EMaxC= 1.00D-01 BMatC= 1.30D-06 BMatP= 1.30D-06
 IDIUse=1 WtCom= 1.00D+00 WtEn= 0.00D+00
 Coeff-Com:  0.100D+01
 Coeff:      0.100D+01
 Gap=     0.217 Goal=   None    Shift=    0.000
 RMSDP=2.34D-06 MaxDP=4.52D-04 DE=-5.83D-04 OVMax= 2.45D-04

 Cycle   8  Pass 1  IDiag  1:
 RMSU=  4.26D-06    CP:  1.00D+00
 E= -5017.22969545469     Delta-E=       -0.000001340377 Rises=F Damp=F
 DIIS: error= 1.17D-05 at cycle   2 NSaved=   2.
 NSaved= 2 IEnMin= 2 EnMin= -5017.22969545469     IErMin= 2 ErrMin= 1.17D-05
 ErrMax= 1.17D-05  0.00D+00 EMaxC= 1.00D-01 BMatC= 2.02D-07 BMatP= 1.30D-06
 IDIUse=1 WtCom= 1.00D+00 WtEn= 0.00D+00
 Coeff-Com:  0.188D+00 0.812D+00
 Coeff:      0.188D+00 0.812D+00
 Gap=     0.217 Goal=   None    Shift=    0.000
 RMSDP=6.55D-07 MaxDP=5.96D-05 DE=-1.34D-06 OVMax= 5.98D-05

 Cycle   9  Pass 1  IDiag  1:
 RMSU=  6.55D-07    CP:  1.00D+00  1.00D+00
 E= -5017.22969548741     Delta-E=       -0.000000032725 Rises=F Damp=F
 DIIS: error= 1.07D-05 at cycle   3 NSaved=   3.
 NSaved= 3 IEnMin= 3 EnMin= -5017.22969548741     IErMin= 3 ErrMin= 1.07D-05
 ErrMax= 1.07D-05  0.00D+00 EMaxC= 1.00D-01 BMatC= 1.60D-07 BMatP= 2.02D-07
 IDIUse=1 WtCom= 1.00D+00 WtEn= 0.00D+00
 Coeff-Com: -0.977D-02 0.472D+00 0.538D+00
 Coeff:     -0.977D-02 0.472D+00 0.538D+00
 Gap=     0.217 Goal=   None    Shift=    0.000
 RMSDP=3.10D-07 MaxDP=3.04D-05 DE=-3.27D-08 OVMax= 2.94D-05

 Cycle  10  Pass 1  IDiag  1:
 RMSU=  8.86D-08    CP:  1.00D+00  1.02D+00  5.62D-01
 E= -5017.22969560103     Delta-E=       -0.000000113616 Rises=F Damp=F
 DIIS: error= 9.71D-07 at cycle   4 NSaved=   4.
 NSaved= 4 IEnMin= 4 EnMin= -5017.22969560103     IErMin= 4 ErrMin= 9.71D-07
 ErrMax= 9.71D-07  0.00D+00 EMaxC= 1.00D-01 BMatC= 5.47D-10 BMatP= 1.60D-07
 IDIUse=1 WtCom= 1.00D+00 WtEn= 0.00D+00
 Coeff-Com: -0.517D-02 0.177D+00 0.210D+00 0.618D+00
 Coeff:     -0.517D-02 0.177D+00 0.210D+00 0.618D+00
 Gap=     0.217 Goal=   None    Shift=    0.000
 RMSDP=3.23D-08 MaxDP=5.43D-06 DE=-1.14D-07 OVMax= 5.86D-06

 Cycle  11  Pass 1  IDiag  1:
 RMSU=  2.83D-08    CP:  1.00D+00  1.02D+00  5.66D-01  8.37D-01
 E= -5017.22969560151     Delta-E=       -0.000000000480 Rises=F Damp=F
 DIIS: error= 2.24D-07 at cycle   5 NSaved=   5.
 NSaved= 5 IEnMin= 5 EnMin= -5017.22969560151     IErMin= 5 ErrMin= 2.24D-07
 ErrMax= 2.24D-07  0.00D+00 EMaxC= 1.00D-01 BMatC= 6.31D-11 BMatP= 5.47D-10
 IDIUse=1 WtCom= 1.00D+00 WtEn= 0.00D+00
 Coeff-Com: -0.123D-02 0.291D-01 0.365D-01 0.267D+00 0.669D+00
 Coeff:     -0.123D-02 0.291D-01 0.365D-01 0.267D+00 0.669D+00
 Gap=     0.217 Goal=   None    Shift=    0.000
 RMSDP=8.68D-09 MaxDP=8.42D-07 DE=-4.80D-10 OVMax= 1.00D-06

 SCF Done:  E(RPBE1PBE) =  -5017.22969560     A.U. after   11 cycles
            NFock= 11  Conv=0.87D-08     -V/T= 2.0028
 KE= 5.003162743492D+03 PE=-2.422194698451D+04 EE= 8.074204480102D+03
 Leave Link  502 at Thu May  3 02:20:56 2018, MaxMem= 14763950080 cpu:      7860.7
 (Enter /cm/shared/gaussian/g09.e01/intel64-sandybridge/g09/l601.exe)
 Copying SCF densities to generalized density rwf, IOpCl= 0 IROHF=0.

 **********************************************************************

            Population analysis using the SCF density.

 **********************************************************************

 Alpha  occ. eigenvalues -- -483.15642 -62.55952 -56.33189 -56.33182 -56.33177
 Alpha  occ. eigenvalues --  -19.19689 -19.18692 -19.16921 -19.14985 -19.14958
 Alpha  occ. eigenvalues --  -19.14864 -19.14791 -19.14774 -19.14722 -19.14491
 Alpha  occ. eigenvalues --  -19.13934 -19.13543 -19.12338 -19.12217 -19.11975
 Alpha  occ. eigenvalues --  -19.11905 -19.11582 -19.11105 -19.11056 -19.10990
 Alpha  occ. eigenvalues --  -19.10904 -19.10440 -19.10396 -19.10147 -19.10145
 Alpha  occ. eigenvalues --  -19.10067 -19.09303 -19.08563 -19.08556 -19.08244
 Alpha  occ. eigenvalues --  -19.06268 -19.04534  -8.66282  -6.46612  -6.46606
 Alpha  occ. eigenvalues --   -6.46555  -2.54905  -2.54898  -2.54858  -2.54853
 Alpha  occ. eigenvalues --   -2.54840  -1.02255  -1.01583  -0.99643  -0.97630
 Alpha  occ. eigenvalues --   -0.97579  -0.97416  -0.97316  -0.97187  -0.96899
 Alpha  occ. eigenvalues --   -0.96734  -0.96652  -0.96033  -0.94996  -0.94424
 Alpha  occ. eigenvalues --   -0.94414  -0.94302  -0.94230  -0.93598  -0.93537
 Alpha  occ. eigenvalues --   -0.93524  -0.93064  -0.92938  -0.92905  -0.92788
 Alpha  occ. eigenvalues --   -0.92598  -0.92578  -0.92074  -0.91642  -0.91296
 Alpha  occ. eigenvalues --   -0.90879  -0.88978  -0.87465  -0.65866  -0.53066
 Alpha  occ. eigenvalues --   -0.52717  -0.49961  -0.49009  -0.48327  -0.48202
 Alpha  occ. eigenvalues --   -0.47678  -0.47594  -0.47140  -0.47080  -0.46904
 Alpha  occ. eigenvalues --   -0.46226  -0.45888  -0.45465  -0.45282  -0.45027
 Alpha  occ. eigenvalues --   -0.44710  -0.44629  -0.44213  -0.44188  -0.44134
 Alpha  occ. eigenvalues --   -0.44095  -0.43896  -0.43627  -0.43534  -0.43407
 Alpha  occ. eigenvalues --   -0.43177  -0.42804  -0.42067  -0.41649  -0.40334
 Alpha  occ. eigenvalues --   -0.40125  -0.39124  -0.38359  -0.36426  -0.34588
 Alpha  occ. eigenvalues --   -0.34535  -0.34406  -0.34219  -0.34056  -0.33907
 Alpha  occ. eigenvalues --   -0.33830  -0.33487  -0.33201  -0.32284  -0.31866
 Alpha  occ. eigenvalues --   -0.31480  -0.31083  -0.30843  -0.30575  -0.30252
 Alpha  occ. eigenvalues --   -0.30145  -0.29836  -0.29644  -0.29582  -0.29268
 Alpha  occ. eigenvalues --   -0.28745  -0.28544  -0.28342  -0.28267  -0.27754
 Alpha  occ. eigenvalues --   -0.27200  -0.26954  -0.26615  -0.26461  -0.26226
 Alpha  occ. eigenvalues --   -0.25954  -0.25887  -0.25639  -0.25597  -0.25323
 Alpha  occ. eigenvalues --   -0.25025  -0.24676  -0.24573  -0.24365  -0.23679
 Alpha  occ. eigenvalues --   -0.23305  -0.22979  -0.22762  -0.22743  -0.22443
 Alpha  occ. eigenvalues --   -0.22147  -0.22058  -0.21909  -0.21648  -0.21329
 Alpha  occ. eigenvalues --   -0.21117  -0.21061  -0.20955  -0.20881  -0.20326
 Alpha  occ. eigenvalues --   -0.20230  -0.19867  -0.19835  -0.19668  -0.19640
 Alpha  occ. eigenvalues --   -0.19070  -0.17510  -0.16402
 Alpha virt. eigenvalues --    0.05337   0.08382   0.09108   0.10844   0.11379
 Alpha virt. eigenvalues --    0.11916   0.12913   0.13135   0.13234   0.14480
 Alpha virt. eigenvalues --    0.15797   0.16074   0.16340   0.16887   0.16994
 Alpha virt. eigenvalues --    0.17267   0.17663   0.18166   0.18624   0.19238
 Alpha virt. eigenvalues --    0.19466   0.20168   0.20248   0.20441   0.20625
 Alpha virt. eigenvalues --    0.21319   0.21462   0.21563   0.22534   0.22856
 Alpha virt. eigenvalues --    0.23043   0.23416   0.23790   0.24173   0.24863
 Alpha virt. eigenvalues --    0.25161   0.25801   0.25935   0.26573   0.27091
 Alpha virt. eigenvalues --    0.27760   0.28713   0.29443   0.29598   0.30234
 Alpha virt. eigenvalues --    0.30464   0.30942   0.31299   0.32225   0.32297
 Alpha virt. eigenvalues --    0.33324   0.34170   0.34578   0.34642   0.35180
 Alpha virt. eigenvalues --    0.35721   0.36275   0.36738   0.37253   0.38053
 Alpha virt. eigenvalues --    0.38528   0.39341   0.39988   0.41508   0.57932
 Alpha virt. eigenvalues --    0.58612   0.60241   0.60360   0.60742   0.61230
 Alpha virt. eigenvalues --    0.62018   0.62562   0.62750   0.63203   0.63302
 Alpha virt. eigenvalues --    0.63698   0.64101   0.64646   0.65073   0.65296
 Alpha virt. eigenvalues --    0.65782   0.66069   0.66251   0.66942   0.67336
 Alpha virt. eigenvalues --    0.67360   0.67545   0.67877   0.67961   0.68238
 Alpha virt. eigenvalues --    0.68587   0.68745   0.68916   0.69265   0.69452
 Alpha virt. eigenvalues --    0.69556   0.70066   0.70258   0.70360   0.70753
 Alpha virt. eigenvalues --    0.71063   0.71690   0.71907   0.72089   0.72396
 Alpha virt. eigenvalues --    0.72453   0.72803   0.73172   0.73412   0.73792
 Alpha virt. eigenvalues --    0.74306   0.74511   0.74767   0.75228   0.75722
 Alpha virt. eigenvalues --    0.76433   0.76756   0.77474   0.77766   0.77924
 Alpha virt. eigenvalues --    0.78615   0.78851   0.79152   0.79752   0.80290
 Alpha virt. eigenvalues --    0.80559   0.80972   0.81927   0.82243   0.82382
 Alpha virt. eigenvalues --    0.83626   0.84425   0.84976   0.85471   0.87445
 Alpha virt. eigenvalues --    0.88223   0.89859   0.91441   0.91764   0.93491
 Alpha virt. eigenvalues --    0.93689   0.94997   0.95484   0.96364   0.96609
 Alpha virt. eigenvalues --    0.97442   0.98557   0.98676   0.98966   0.99139
 Alpha virt. eigenvalues --    0.99442   0.99724   1.00134   1.00744   1.00897
 Alpha virt. eigenvalues --    1.00940   1.01304   1.01453   1.01638   1.01931
 Alpha virt. eigenvalues --    1.02325   1.02493   1.02765   1.03147   1.03924
 Alpha virt. eigenvalues --    1.04010   1.04157   1.04290   1.04991   1.05188
 Alpha virt. eigenvalues --    1.05448   1.05784   1.06088   1.06116   1.06423
 Alpha virt. eigenvalues --    1.06973   1.07134   1.07363   1.07509   1.08046
 Alpha virt. eigenvalues --    1.08262   1.08812   1.09054   1.09125   1.09719
 Alpha virt. eigenvalues --    1.09903   1.10029   1.10503   1.10700   1.10831
 Alpha virt. eigenvalues --    1.11142   1.11869   1.12237   1.12456   1.12765
 Alpha virt. eigenvalues --    1.13301   1.13639   1.13834   1.14197   1.14824
 Alpha virt. eigenvalues --    1.14861   1.14906   1.15334   1.15841   1.15943
 Alpha virt. eigenvalues --    1.16220   1.16744   1.17149   1.17180   1.17248
 Alpha virt. eigenvalues --    1.17580   1.17858   1.18042   1.18401   1.19209
 Alpha virt. eigenvalues --    1.19442   1.19948   1.20259   1.20781   1.20955
 Alpha virt. eigenvalues --    1.21832   1.21942   1.22673   1.22888   1.24307
 Alpha virt. eigenvalues --    1.24700   1.24837   1.25345   1.26026   1.26876
 Alpha virt. eigenvalues --    1.27005   1.27387   1.27808   1.28704   1.29268
 Alpha virt. eigenvalues --    1.29549   1.29789   1.30161   1.30430   1.30719
 Alpha virt. eigenvalues --    1.30989   1.31280   1.31339   1.31603   1.31831
 Alpha virt. eigenvalues --    1.32123   1.32286   1.32789   1.33122   1.33558
 Alpha virt. eigenvalues --    1.33666   1.33799   1.34118   1.34302   1.34629
 Alpha virt. eigenvalues --    1.35023   1.35167   1.35480   1.35755   1.35960
 Alpha virt. eigenvalues --    1.36056   1.36201   1.36573   1.36767   1.37115
 Alpha virt. eigenvalues --    1.37358   1.37831   1.37916   1.38151   1.38400
 Alpha virt. eigenvalues --    1.38573   1.38973   1.39224   1.39651   1.39718
 Alpha virt. eigenvalues --    1.39877   1.40074   1.41020   1.41660   1.41870
 Alpha virt. eigenvalues --    1.41987   1.42201   1.42778   1.43287   1.43634
 Alpha virt. eigenvalues --    1.44101   1.44540   1.45025   1.45847   1.46229
 Alpha virt. eigenvalues --    1.46952   1.47211   1.47334   1.47810   1.48397
 Alpha virt. eigenvalues --    1.48836   1.49491   1.50744   1.51158   1.51861
 Alpha virt. eigenvalues --    1.52454   1.53543   1.53721   1.54005   1.54289
 Alpha virt. eigenvalues --    1.54468   1.55254   1.55532   1.55716   1.55875
 Alpha virt. eigenvalues --    1.56271   1.56827   1.57104   1.57391   1.57687
 Alpha virt. eigenvalues --    1.58354   1.58611   1.58966   1.59584   1.59759
 Alpha virt. eigenvalues --    1.59988   1.60551   1.60752   1.60956   1.62010
 Alpha virt. eigenvalues --    1.62400   1.65212   1.66777   1.67200   1.67626
 Alpha virt. eigenvalues --    1.68067   1.68802   1.70114   1.72033   1.72315
 Alpha virt. eigenvalues --    1.73200   1.73257   1.73862   1.74293   1.74549
 Alpha virt. eigenvalues --    1.75242   1.75514   1.75682   1.75947   1.76155
 Alpha virt. eigenvalues --    1.76582   1.76961   1.77281   1.77828   1.78350
 Alpha virt. eigenvalues --    1.78740   1.78941   1.79269   1.79558   1.80198
 Alpha virt. eigenvalues --    1.80877   1.81054   1.81678   1.81960   1.82003
 Alpha virt. eigenvalues --    1.82594   1.83071   1.83339   1.83831   1.84758
 Alpha virt. eigenvalues --    1.85054   1.85501   1.85881   1.86002   1.86559
 Alpha virt. eigenvalues --    1.86819   1.87487   1.87908   1.88316   1.88863
 Alpha virt. eigenvalues --    1.89971   1.90414   1.90813   1.91669   1.93059
 Alpha virt. eigenvalues --    1.94008   1.94786   1.94938   1.95947   1.96878
 Alpha virt. eigenvalues --    1.98032   1.99170   2.01146   2.03049   2.04865
 Alpha virt. eigenvalues --    2.05432   2.06962   2.07585   2.17775   2.19507
 Alpha virt. eigenvalues --    2.19547   2.20178   2.20490   2.20719   2.21329
 Alpha virt. eigenvalues --    2.21663   2.22121   2.22536   2.22614   2.23059
 Alpha virt. eigenvalues --    2.23220   2.23355   2.23886   2.23978   2.24253
 Alpha virt. eigenvalues --    2.24481   2.24507   2.24851   2.25385   2.25712
 Alpha virt. eigenvalues --    2.25968   2.26115   2.26530   2.26598   2.26669
 Alpha virt. eigenvalues --    2.26793   2.26888   2.27024   2.27877   2.28212
 Alpha virt. eigenvalues --    2.28609   2.28751   2.29056   2.29538   2.29593
 Alpha virt. eigenvalues --    2.29831   2.30074   2.30574   2.30621   2.31304
 Alpha virt. eigenvalues --    2.31943   2.32324   2.34618   2.35491   2.36532
 Alpha virt. eigenvalues --    2.37626   2.39205   2.40218   2.40763   2.41797
 Alpha virt. eigenvalues --    2.44483   2.45982   2.49286   2.52455   2.52645
 Alpha virt. eigenvalues --    2.54088   2.54733   2.55032   2.56301   2.56622
 Alpha virt. eigenvalues --    2.64401   2.66593   2.94028   2.94972   2.97054
 Alpha virt. eigenvalues --    2.97678   2.98136   2.98182   2.98717   2.98742
 Alpha virt. eigenvalues --    2.99071   2.99517   2.99865   3.00009   3.00345
 Alpha virt. eigenvalues --    3.00686   3.01426   3.01711   3.01781   3.01922
 Alpha virt. eigenvalues --    3.02155   3.02193   3.02262   3.02376   3.03008
 Alpha virt. eigenvalues --    3.03199   3.03267   3.03466   3.03490   3.03502
 Alpha virt. eigenvalues --    3.03828   3.04003   3.04135   3.04255   3.04341
 Alpha virt. eigenvalues --    3.04442   3.04650   3.04797   3.04917   3.05009
 Alpha virt. eigenvalues --    3.05134   3.05170   3.05622   3.05858   3.06133
 Alpha virt. eigenvalues --    3.06383   3.06502   3.06633   3.07092   3.07203
 Alpha virt. eigenvalues --    3.07690   3.07775   3.08112   3.08215   3.08570
 Alpha virt. eigenvalues --    3.08725   3.09581   3.09608   3.09795   3.10316
 Alpha virt. eigenvalues --    3.10369   3.10405   3.10585   3.10958   3.13564
 Alpha virt. eigenvalues --    3.14383   3.17690   3.17908   3.19844   3.20365
 Alpha virt. eigenvalues --    3.21287   3.21343   3.21702   3.21850   3.21985
 Alpha virt. eigenvalues --    3.22341   3.23055   3.23315   3.23687   3.24419
 Alpha virt. eigenvalues --    3.24614   3.24776   3.24883   3.24992   3.25091
 Alpha virt. eigenvalues --    3.25966   3.26059   3.26383   3.26910   3.27135
 Alpha virt. eigenvalues --    3.27224   3.27481   3.27699   3.27782   3.28405
 Alpha virt. eigenvalues --    3.30279   3.31033   3.35078   3.54016   3.54432
 Alpha virt. eigenvalues --    3.54762   3.55297   3.56805   3.57747   3.58274
 Alpha virt. eigenvalues --    3.58634   3.59140   3.59397   3.59598   3.60197
 Alpha virt. eigenvalues --    3.60512   3.60813   3.61266   3.61366   3.62111
 Alpha virt. eigenvalues --    3.62446   3.62838   3.63322   3.64147   3.64200
 Alpha virt. eigenvalues --    3.64344   3.64686   3.65075   3.65495   3.67008
 Alpha virt. eigenvalues --    3.67676   3.67851   3.69454   3.70774   3.71638
 Alpha virt. eigenvalues --    3.82613   3.83895   3.84785   3.85045   3.85701
 Alpha virt. eigenvalues --    3.85927   3.86411   3.86489   3.86978   3.87607
 Alpha virt. eigenvalues --    3.88050   3.88234   3.89135   3.89305   3.89592
 Alpha virt. eigenvalues --    3.89629   3.90093   3.90565   3.91208   3.91350
 Alpha virt. eigenvalues --    3.91807   3.92845   3.93012   3.93294   3.93818
 Alpha virt. eigenvalues --    3.94443   3.95212   3.95599   3.96646   3.97817
 Alpha virt. eigenvalues --    3.99220   4.00622
          Condensed to atoms (all electrons):
 Mulliken charges:
               1
     1  Br  -0.718788
     2  O   -0.297013
     3  H    0.159907
     4  H    0.138467
     5  O   -0.284168
     6  H    0.123926
     7  H    0.140930
     8  O   -0.264746
     9  H    0.151923
    10  H    0.133367
    11  O   -0.266941
    12  H    0.138583
    13  H    0.125593
    14  O   -0.255530
    15  H    0.131682
    16  H    0.134949
    17  O   -0.257461
    18  H    0.147741
    19  H    0.124344
    20  O   -0.291624
    21  H    0.135556
    22  H    0.129540
    23  O   -0.268269
    24  H    0.135689
    25  H    0.140525
    26  O   -0.242901
    27  H    0.145367
    28  H    0.136464
    29  O   -0.255931
    30  H    0.153874
    31  H    0.143980
    32  O   -0.269371
    33  H    0.121634
    34  H    0.140269
    35  O   -0.250762
    36  H    0.132588
    37  H    0.134738
    38  O   -0.265331
    39  H    0.134615
    40  H    0.129525
    41  O   -0.335842
    42  H    0.127940
    43  H    0.139341
    44  O   -0.234135
    45  H    0.134745
    46  H    0.145533
    47  O   -0.225497
    48  H    0.135233
    49  H    0.147501
    50  O   -0.301499
    51  H    0.141560
    52  H    0.098062
    53  O   -0.210947
    54  H    0.143171
    55  H    0.155414
    56  O   -0.304768
    57  H    0.137367
    58  H    0.108664
    59  O   -0.284464
    60  H    0.122310
    61  H    0.116948
    62  O   -0.329518
    63  H    0.116882
    64  H    0.118614
    65  O   -0.299439
    66  H    0.124090
    67  H    0.124186
    68  O   -0.295567
    69  H    0.126310
    70  H    0.122341
    71  O   -0.294169
    72  H    0.138546
    73  H    0.128123
    74  O   -0.237542
    75  H    0.146537
    76  H    0.137801
    77  O   -0.311507
    78  H    0.145359
    79  H    0.119694
    80  O   -0.326237
    81  H    0.091969
    82  H    0.126711
    83  O   -0.271335
    84  H    0.116052
    85  H    0.155531
    86  O   -0.280313
    87  H    0.132182
    88  H    0.132260
    89  O   -0.285222
    90  H    0.117034
    91  H    0.130654
    92  O   -0.300853
    93  H    0.144102
    94  H    0.121909
    95  O   -0.233490
    96  H    0.165774
    97  H    0.148960
 Sum of Mulliken charges =  -1.00000
 Mulliken charges with hydrogens summed into heavy atoms:
               1
     1  Br  -0.718788
     2  O    0.001361
     5  O   -0.019312
     8  O    0.020544
    11  O   -0.002765
    14  O    0.011100
    17  O    0.014624
    20  O   -0.026528
    23  O    0.007945
    26  O    0.038930
    29  O    0.041922
    32  O   -0.007469
    35  O    0.016564
    38  O   -0.001191
    41  O   -0.068562
    44  O    0.046143
    47  O    0.057237
    50  O   -0.061877
    53  O    0.087637
    56  O   -0.058738
    59  O   -0.045206
    62  O   -0.094022
    65  O   -0.051163
    68  O   -0.046917
    71  O   -0.027500
    74  O    0.046797
    77  O   -0.046454
    80  O   -0.107556
    83  O    0.000248
    86  O   -0.015872
    89  O   -0.037534
    92  O   -0.034842
    95  O    0.081244
         Mulliken charges condensed to fragments:
      1     -0.718788
      2     -0.281212
 Electronic spatial extent (au):  <R**2>=        1556613.6444
 Charge=             -1.0000 electrons
 Dipole moment (field-independent basis, Debye):
    X=            -94.1569    Y=            -90.0205    Z=            -90.7862  Tot=            158.7808
 Quadrupole moment (field-independent basis, Debye-Ang):
   XX=          -2129.8849   YY=          -1963.9837   ZZ=          -1980.4656
   XY=          -1739.4654   XZ=          -1775.3837   YZ=          -1659.7362
 Traceless Quadrupole moment (field-independent basis, Debye-Ang):
   XX=           -105.1069   YY=             60.7944   ZZ=             44.3125
   XY=          -1739.4654   XZ=          -1775.3837   YZ=          -1659.7362
 Octapole moment (field-independent basis, Debye-Ang**2):
  XXX=         -53080.9291  YYY=         -48168.0812  ZZZ=         -48444.2339  XYY=         -37595.1706
  XXY=         -39110.5661  XXZ=         -40405.5385  XZZ=         -38767.9429  YZZ=         -35745.8916
  YYZ=         -35782.7686  XYZ=         -31862.2570
 Hexadecapole moment (field-independent basis, Debye-Ang**3):
 XXXX=       -1391762.6638 YYYY=       -1261990.7989 ZZZZ=       -1269347.2069 XXXY=        -976680.8447
 XXXZ=       -1018260.2880 YYYX=        -919600.9052 YYYZ=        -880418.6703 ZZZX=        -950481.7004
 ZZZY=        -875859.8931 XXYY=        -830033.8525 XXZZ=        -876098.8029 YYZZ=        -756160.9513
 XXYZ=        -721071.0475 YYXZ=        -678129.8323 ZZXY=        -685576.0623
 N-N= 6.127350065315D+03 E-N=-2.422194698626D+04  KE= 5.003162743492D+03
 No NMR shielding tensors so no spin-rotation constants.
 Leave Link  601 at Thu May  3 02:20:57 2018, MaxMem= 14763950080 cpu:        70.2
 (Enter /cm/shared/gaussian/g09.e01/intel64-sandybridge/g09/l701.exe)
 Compute integral first derivatives.
 ... and contract with generalized density number  0.
 Leave Link  701 at Thu May  3 02:20:59 2018, MaxMem= 14763950080 cpu:       149.2
 (Enter /cm/shared/gaussian/g09.e01/intel64-sandybridge/g09/l702.exe)
 L702 exits ... SP integral derivatives will be done elsewhere.
 Leave Link  702 at Thu May  3 02:21:00 2018, MaxMem= 14763950080 cpu:         1.7
 (Enter /cm/shared/gaussian/g09.e01/intel64-sandybridge/g09/l703.exe)
 Compute integral first derivatives, UseDBF=F ICtDFT=           0.
 Integral derivatives from FoFJK, PRISM(SPDF).
 Calling FoFJK, ICntrl=      2127 FMM=T ISym2X=0 I1Cent= 0 IOpClX= 0 NMat=1 NMatS=1 NMatT=0.
 FoFJK:  IHMeth= 1 ICntrl=    2127 DoSepK=F KAlg= 0 I1Cent=   0 FoldK=F
 IRaf=         0 NMat=   1 IRICut=       1 DoRegI=T DoRafI=F ISym2E= 0.
 FoFCou: FMM=T IPFlag=           0 FMFlag=      100000 FMFlg1=        2001
         NFxFlg=           0 DoJE=F BraDBF=F KetDBF=F FulRan=T
         wScrn=  0.000000 ICntrl=    2127 IOpCl=  0 I1Cent=           0 NGrid=           0
         NMat0=    1 NMatS0=      1 NMatT0=    0 NMatD0=    1 NMtDS0=    0 NMtDT0=    0
 Symmetry not used in FoFCou.
 FMM levels:  10  Number of levels for PrismC:   9
 Leave Link  703 at Thu May  3 02:21:16 2018, MaxMem= 14763950080 cpu:      1049.9
 (Enter /cm/shared/gaussian/g09.e01/intel64-sandybridge/g09/l716.exe)
 Dipole        =-3.70441704D+01-3.54168011D+01-3.57180475D+01
 Cartesian Forces:  Max     0.032666285 RMS     0.009370383
 Leave Link  716 at Thu May  3 02:21:16 2018, MaxMem= 14763950080 cpu:         3.6
 (Enter /cm/shared/gaussian/g09.e01/intel64-sandybridge/g09/l122.exe)
 CPIOFr:  IOpCl= 0 IRwI=-1 IRwCP=  731 ICalc= -1 LCPTot=     1005244 Len1MO=     2550559 IndFrg=     1005244
 CPIOFr:  IOpCl= 0 IRwI=-1 IRwCP=  731 ICalc=  0 LCPTot=     1005244 Len1MO=     2550559 IndFrg=     3555803
 Counterpoise: doing DCBS calculation for fragment   1 NewBq=T
 Leave Link  122 at Thu May  3 02:21:16 2018, MaxMem= 14763950080 cpu:         7.0
 (Enter /cm/shared/gaussian/g09.e01/intel64-sandybridge/g09/l301.exe)
 Basis read from rwf:  (5D, 7F)
 No pseudopotential information found on rwf file.
   795 basis functions,  1651 primitive gaussians,   829 cartesian basis functions
    18 alpha electrons       18 beta electrons
       nuclear repulsion energy         0.0000000000 Hartrees.
 IExCor= 1009 DFT=T Ex+Corr=PBE1PBE ExCW=0 ScaHFX=  0.250000
 ScaDFX=  0.750000  0.750000  1.000000  1.000000 ScalE2=  1.000000  1.000000
 IRadAn=      0 IRanWt=     -1 IRanGd=            0 ICorTp=0 IEmpDi=  4
 NAtoms=   97 NActive=   97 NUniq=   97 SFac= 1.00D+00 NAtFMM=   60 NAOKFM=T Big=T
 Integral buffers will be    131072 words long.
 Raffenetti 2 integral format.
 Two-electron integral symmetry is turned off.
 No density basis found on file   718.
 Leave Link  301 at Thu May  3 02:21:17 2018, MaxMem= 14763950080 cpu:         4.9
 (Enter /cm/shared/gaussian/g09.e01/intel64-sandybridge/g09/l302.exe)
 NPDir=0 NMtPBC=     1 NCelOv=     1 NCel=       1 NClECP=     1 NCelD=      1
         NCelK=      1 NCelE2=     1 NClLst=     1 CellRange=     0.0.
 One-electron integrals computed using PRISM.
 NBasis=   795 RedAO= T EigKep=  1.64D-02  NBF=   795
 NBsUse=   795 1.00D-06 EigRej= -1.00D+00 NBFU=   795
 Precomputing XC quadrature grid using
 IXCGrd= 4 IRadAn=           0 IRanWt=          -1 IRanGd=           0 AccXCQ= 0.00D+00.
 Generated NRdTot=       0 NPtTot=           0 NUsed=           0 NTot=          32
 NSgBfM=   679   683   684   695   702 MxSgAt=    97 MxSgA2=    97.
 Leave Link  302 at Thu May  3 02:21:21 2018, MaxMem= 14763950080 cpu:       265.7
 (Enter /cm/shared/gaussian/g09.e01/intel64-sandybridge/g09/l303.exe)
 DipDrv:  MaxL=1.
 Leave Link  303 at Thu May  3 02:21:23 2018, MaxMem= 14763950080 cpu:       115.5
 (Enter /cm/shared/gaussian/g09.e01/intel64-sandybridge/g09/l401.exe)
 ExpMin= 1.22D-01 ExpMax= 6.40D+05 ExpMxC= 6.18D+03 IAcc=2 IRadAn=         4 AccDes= 0.00D+00
 Harris functional with IExCor= 1009 and IRadAn=       4 diagonalized for initial guess.
 HarFok:  IExCor= 1009 AccDes= 0.00D+00 IRadAn=         4 IDoV= 1 UseB2=F ITyADJ=14
 ICtDFT=  3500011 ScaDFX=  1.000000  1.000000  1.000000  1.000000
 FoFCou: FMM=F IPFlag=           0 FMFlag=      100000 FMFlg1=        2001
         NFxFlg=           0 DoJE=T BraDBF=F KetDBF=T FulRan=T
         wScrn=  0.000000 ICntrl=     500 IOpCl=  0 I1Cent=   200000004 NGrid=           0
         NMat0=    1 NMatS0=      1 NMatT0=    0 NMatD0=    1 NMtDS0=    0 NMtDT0=    0
 Symmetry not used in FoFCou.
 Harris En= -2574.01978512994    
 JPrj=0 DoOrth=F DoCkMO=F.
 Leave Link  401 at Thu May  3 02:21:27 2018, MaxMem= 14763950080 cpu:       279.7
 (Enter /cm/shared/gaussian/g09.e01/intel64-sandybridge/g09/l502.exe)
 Closed shell SCF:
 Using DIIS extrapolation, IDIIS=  1040.
 Two-electron integral symmetry not used.
 IVT=     2138497 IEndB=     2138497 NGot= 14763950080 MDV= 14762516294
 LenX= 14762516294 LenY= 14761828224
 Requested convergence on RMS density matrix=1.00D-08 within 128 cycles.
 Requested convergence on MAX density matrix=1.00D-06.
 Requested convergence on             energy=1.00D-06.
 No special actions if energy rises.
 Fock matrices will be formed incrementally for  20 cycles.
 Integral accuracy reduced to 1.0D-05 until final iterations.

 Cycle   1  Pass 0  IDiag  1:
 FoFJK:  IHMeth= 1 ICntrl=       0 DoSepK=F KAlg= 0 I1Cent=   0 FoldK=F
 IRaf= 820000000 NMat=   1 IRICut=       1 DoRegI=T DoRafI=F ISym2E= 0.
 FoFCou: FMM=T IPFlag=           0 FMFlag=      100000 FMFlg1=        2001
         NFxFlg=           0 DoJE=F BraDBF=F KetDBF=F FulRan=T
         wScrn=  0.000000 ICntrl=       0 IOpCl=  0 I1Cent=           0 NGrid=           0
         NMat0=    1 NMatS0=      1 NMatT0=    0 NMatD0=    1 NMtDS0=    0 NMtDT0=    0
 Symmetry not used in FoFCou.
 FMM levels:  10  Number of levels for PrismC:   9
 E= -2573.87948156705    
 DIIS: error= 1.36D-02 at cycle   1 NSaved=   1.
 NSaved= 1 IEnMin= 1 EnMin= -2573.87948156705     IErMin= 1 ErrMin= 1.36D-02
 ErrMax= 1.36D-02  0.00D+00 EMaxC= 1.00D-01 BMatC= 3.82D-02 BMatP= 3.82D-02
 IDIUse=3 WtCom= 8.64D-01 WtEn= 1.36D-01
 Coeff-Com:  0.100D+01
 Coeff-En:   0.100D+01
 Coeff:      0.100D+01
 Gap=     0.177 Goal=   None    Shift=    0.000
 GapD=    0.177 DampG=1.000 DampE=0.500 DampFc=0.5000 IDamp=-1.
 Damping current iteration by 5.00D-01
 RMSDP=4.66D-04 MaxDP=6.74D-02              OVMax= 1.51D-01

 Cycle   2  Pass 0  IDiag  1:
 RMSU=  2.31D-04    CP:  9.95D-01
 E= -2573.89644778751     Delta-E=       -0.016966220467 Rises=F Damp=T
 DIIS: error= 8.08D-03 at cycle   2 NSaved=   2.
 NSaved= 2 IEnMin= 2 EnMin= -2573.89644778751     IErMin= 2 ErrMin= 8.08D-03
 ErrMax= 8.08D-03  0.00D+00 EMaxC= 1.00D-01 BMatC= 9.08D-03 BMatP= 3.82D-02
 IDIUse=3 WtCom= 9.19D-01 WtEn= 8.08D-02
 Coeff-Com: -0.556D+00 0.156D+01
 Coeff-En:   0.000D+00 0.100D+01
 Coeff:     -0.511D+00 0.151D+01
 Gap=     0.190 Goal=   None    Shift=    0.000
 RMSDP=1.64D-04 MaxDP=3.98D-02 DE=-1.70D-02 OVMax= 6.95D-02

 Cycle   3  Pass 0  IDiag  1:
 RMSU=  1.47D-04    CP:  9.94D-01  1.32D+00
 E= -2573.91016117716     Delta-E=       -0.013713389642 Rises=F Damp=F
 DIIS: error= 4.03D-03 at cycle   3 NSaved=   3.
 NSaved= 3 IEnMin= 3 EnMin= -2573.91016117716     IErMin= 3 ErrMin= 4.03D-03
 ErrMax= 4.03D-03  0.00D+00 EMaxC= 1.00D-01 BMatC= 2.58D-03 BMatP= 9.08D-03
 IDIUse=3 WtCom= 9.60D-01 WtEn= 4.03D-02
 Coeff-Com: -0.299D+00 0.711D+00 0.588D+00
 Coeff-En:   0.000D+00 0.000D+00 0.100D+01
 Coeff:     -0.287D+00 0.682D+00 0.605D+00
 Gap=     0.173 Goal=   None    Shift=    0.000
 RMSDP=7.23D-05 MaxDP=1.77D-02 DE=-1.37D-02 OVMax= 2.16D-02

 Cycle   4  Pass 0  IDiag  1:
 RMSU=  8.17D-06    CP:  9.93D-01  1.51D+00  6.27D-01
 E= -2573.91297588591     Delta-E=       -0.002814708751 Rises=F Damp=F
 DIIS: error= 1.57D-04 at cycle   4 NSaved=   4.
 NSaved= 4 IEnMin= 4 EnMin= -2573.91297588591     IErMin= 4 ErrMin= 1.57D-04
 ErrMax= 1.57D-04  0.00D+00 EMaxC= 1.00D-01 BMatC= 2.30D-06 BMatP= 2.58D-03
 IDIUse=3 WtCom= 9.98D-01 WtEn= 1.57D-03
 Coeff-Com: -0.156D-01 0.297D-01 0.467D-01 0.939D+00
 Coeff-En:   0.000D+00 0.000D+00 0.000D+00 0.100D+01
 Coeff:     -0.156D-01 0.296D-01 0.466D-01 0.939D+00
 Gap=     0.175 Goal=   None    Shift=    0.000
 RMSDP=2.52D-06 MaxDP=5.47D-04 DE=-2.81D-03 OVMax= 8.17D-04

 Initial convergence to 1.0D-05 achieved.  Increase integral accuracy.
 Cycle   5  Pass 1  IDiag  1:
 E= -2573.91365829938     Delta-E=       -0.000682413474 Rises=F Damp=F
 DIIS: error= 9.34D-06 at cycle   1 NSaved=   1.
 NSaved= 1 IEnMin= 1 EnMin= -2573.91365829938     IErMin= 1 ErrMin= 9.34D-06
 ErrMax= 9.34D-06  0.00D+00 EMaxC= 1.00D-01 BMatC= 1.13D-07 BMatP= 1.13D-07
 IDIUse=1 WtCom= 1.00D+00 WtEn= 0.00D+00
 Coeff-Com:  0.100D+01
 Coeff:      0.100D+01
 Gap=     0.175 Goal=   None    Shift=    0.000
 RMSDP=2.52D-06 MaxDP=5.47D-04 DE=-6.82D-04 OVMax= 3.36D-04

 Cycle   6  Pass 1  IDiag  1:
 RMSU=  1.64D-06    CP:  1.00D+00
 E= -2573.91365859347     Delta-E=       -0.000000294087 Rises=F Damp=F
 DIIS: error= 6.68D-06 at cycle   2 NSaved=   2.
 NSaved= 2 IEnMin= 2 EnMin= -2573.91365859347     IErMin= 2 ErrMin= 6.68D-06
 ErrMax= 6.68D-06  0.00D+00 EMaxC= 1.00D-01 BMatC= 9.32D-09 BMatP= 1.13D-07
 IDIUse=1 WtCom= 1.00D+00 WtEn= 0.00D+00
 Coeff-Com:  0.860D-01 0.914D+00
 Coeff:      0.860D-01 0.914D+00
 Gap=     0.175 Goal=   None    Shift=    0.000
 RMSDP=2.80D-07 MaxDP=6.35D-05 DE=-2.94D-07 OVMax= 1.00D-04

 Cycle   7  Pass 1  IDiag  1:
 RMSU=  2.66D-07    CP:  1.00D+00  1.05D+00
 E= -2573.91365860251     Delta-E=       -0.000000009041 Rises=F Damp=F
 DIIS: error= 5.07D-06 at cycle   3 NSaved=   3.
 NSaved= 3 IEnMin= 3 EnMin= -2573.91365860251     IErMin= 3 ErrMin= 5.07D-06
 ErrMax= 5.07D-06  0.00D+00 EMaxC= 1.00D-01 BMatC= 5.14D-09 BMatP= 9.32D-09
 IDIUse=1 WtCom= 1.00D+00 WtEn= 0.00D+00
 Coeff-Com: -0.421D-01 0.424D+00 0.618D+00
 Coeff:     -0.421D-01 0.424D+00 0.618D+00
 Gap=     0.175 Goal=   None    Shift=    0.000
 RMSDP=1.10D-07 MaxDP=2.71D-05 DE=-9.04D-09 OVMax= 3.53D-05

 Cycle   8  Pass 1  IDiag  1:
 RMSU=  4.73D-08    CP:  1.00D+00  1.08D+00  6.76D-01
 E= -2573.91365860881     Delta-E=       -0.000000006301 Rises=F Damp=F
 DIIS: error= 1.96D-07 at cycle   4 NSaved=   4.
 NSaved= 4 IEnMin= 4 EnMin= -2573.91365860881     IErMin= 4 ErrMin= 1.96D-07
 ErrMax= 1.96D-07  0.00D+00 EMaxC= 1.00D-01 BMatC= 1.95D-11 BMatP= 5.14D-09
 IDIUse=1 WtCom= 1.00D+00 WtEn= 0.00D+00
 Coeff-Com: -0.591D-02 0.373D-01 0.752D-01 0.893D+00
 Coeff:     -0.591D-02 0.373D-01 0.752D-01 0.893D+00
 Gap=     0.175 Goal=   None    Shift=    0.000
 RMSDP=1.13D-08 MaxDP=1.53D-06 DE=-6.30D-09 OVMax= 4.64D-06

 Cycle   9  Pass 1  IDiag  1:
 RMSU=  8.73D-09    CP:  1.00D+00  1.09D+00  6.93D-01  1.01D+00
 E= -2573.91365860882     Delta-E=       -0.000000000013 Rises=F Damp=F
 DIIS: error= 1.17D-07 at cycle   5 NSaved=   5.
 NSaved= 5 IEnMin= 5 EnMin= -2573.91365860882     IErMin= 5 ErrMin= 1.17D-07
 ErrMax= 1.17D-07  0.00D+00 EMaxC= 1.00D-01 BMatC= 4.64D-12 BMatP= 1.95D-11
 IDIUse=1 WtCom= 1.00D+00 WtEn= 0.00D+00
 Coeff-Com:  0.118D-02-0.229D-01-0.259D-01 0.331D+00 0.716D+00
 Coeff:      0.118D-02-0.229D-01-0.259D-01 0.331D+00 0.716D+00
 Gap=     0.175 Goal=   None    Shift=    0.000
 RMSDP=3.60D-09 MaxDP=3.81D-07 DE=-1.27D-11 OVMax= 1.47D-06

 SCF Done:  E(RPBE1PBE) =  -2573.91365861     A.U. after    9 cycles
            NFock=  9  Conv=0.36D-08     -V/T= 2.0013
 KE= 2.570510190857D+03 PE=-6.162825951710D+03 EE= 1.018402102245D+03
 Leave Link  502 at Thu May  3 02:23:01 2018, MaxMem= 14763950080 cpu:      5937.0
 (Enter /cm/shared/gaussian/g09.e01/intel64-sandybridge/g09/l601.exe)
 Copying SCF densities to generalized density rwf, IOpCl= 0 IROHF=0.

 **********************************************************************

            Population analysis using the SCF density.

 **********************************************************************

 Alpha  occ. eigenvalues -- -482.99222 -62.39374 -56.16626 -56.16625 -56.16625
 Alpha  occ. eigenvalues --   -8.49514  -6.29822  -6.29816  -6.29814  -2.38088
 Alpha  occ. eigenvalues --   -2.38087  -2.38085  -2.38080  -2.38080  -0.47521
 Alpha  occ. eigenvalues --   -0.03363  -0.03351  -0.03347
 Alpha virt. eigenvalues --    0.14155   0.15751   0.15991   0.17209   0.17940
 Alpha virt. eigenvalues --    0.18808   0.18878   0.19650   0.19927   0.21634
 Alpha virt. eigenvalues --    0.22079   0.22574   0.22762   0.23399   0.23514
 Alpha virt. eigenvalues --    0.24204   0.25307   0.25451   0.25837   0.26150
 Alpha virt. eigenvalues --    0.26474   0.27008   0.27963   0.28088   0.28855
 Alpha virt. eigenvalues --    0.29265   0.29848   0.30422   0.30717   0.31671
 Alpha virt. eigenvalues --    0.32095   0.32838   0.33191   0.33660   0.34058
 Alpha virt. eigenvalues --    0.34335   0.35337   0.35720   0.36121   0.36695
 Alpha virt. eigenvalues --    0.36847   0.37598   0.37970   0.38852   0.39048
 Alpha virt. eigenvalues --    0.39216   0.40050   0.40714   0.41002   0.42002
 Alpha virt. eigenvalues --    0.42064   0.42357   0.42881   0.43418   0.44080
 Alpha virt. eigenvalues --    0.44373   0.45948   0.46094   0.46703   0.47315
 Alpha virt. eigenvalues --    0.48270   0.49355   0.49646   0.50862   0.61474
 Alpha virt. eigenvalues --    0.61805   0.62164   0.62717   0.63188   0.63593
 Alpha virt. eigenvalues --    0.63665   0.64297   0.64857   0.65439   0.66007
 Alpha virt. eigenvalues --    0.66637   0.67298   0.67517   0.68171   0.68779
 Alpha virt. eigenvalues --    0.69117   0.69777   0.70380   0.70749   0.70896
 Alpha virt. eigenvalues --    0.71439   0.71951   0.72180   0.72525   0.73265
 Alpha virt. eigenvalues --    0.73873   0.74173   0.74312   0.74358   0.74841
 Alpha virt. eigenvalues --    0.75153   0.75463   0.75639   0.75729   0.76081
 Alpha virt. eigenvalues --    0.76428   0.76511   0.76561   0.77168   0.77572
 Alpha virt. eigenvalues --    0.78010   0.78426   0.78916   0.79315   0.79480
 Alpha virt. eigenvalues --    0.80166   0.80193   0.80428   0.80730   0.81096
 Alpha virt. eigenvalues --    0.81360   0.81792   0.82100   0.82431   0.82825
 Alpha virt. eigenvalues --    0.83204   0.83435   0.83921   0.84262   0.84329
 Alpha virt. eigenvalues --    0.84956   0.84970   0.85955   0.86120   0.86210
 Alpha virt. eigenvalues --    0.86549   0.87245   0.87806   0.88060   0.88514
 Alpha virt. eigenvalues --    0.88768   0.89253   0.89556   0.89950   0.90271
 Alpha virt. eigenvalues --    0.90782   0.91790   0.92021   0.92190   0.92493
 Alpha virt. eigenvalues --    0.92718   0.92843   0.93470   0.93500   0.94508
 Alpha virt. eigenvalues --    0.94904   0.95373   0.95413   0.95707   0.96462
 Alpha virt. eigenvalues --    0.96831   0.97067   0.97655   0.97817   0.98130
 Alpha virt. eigenvalues --    0.98772   0.99401   0.99853   0.99902   1.00714
 Alpha virt. eigenvalues --    1.01028   1.02114   1.02491   1.02990   1.03237
 Alpha virt. eigenvalues --    1.03823   1.04551   1.04795   1.05465   1.06087
 Alpha virt. eigenvalues --    1.06608   1.07524   1.08025   1.08436   1.08989
 Alpha virt. eigenvalues --    1.09918   1.10376   1.10507   1.11326   1.11500
 Alpha virt. eigenvalues --    1.12420   1.13004   1.14252   1.14387   1.15660
 Alpha virt. eigenvalues --    1.16920   1.17150   1.18514   1.19564   1.19635
 Alpha virt. eigenvalues --    1.20815   1.21965   1.23682   1.24517   1.26565
 Alpha virt. eigenvalues --    1.27508   1.66789   1.67427   1.68029   1.68493
 Alpha virt. eigenvalues --    1.68795   1.69628   1.70126   1.70407   1.70623
 Alpha virt. eigenvalues --    1.71002   1.71283   1.71585   1.71906   1.72400
 Alpha virt. eigenvalues --    1.72581   1.72827   1.73064   1.73093   1.73203
 Alpha virt. eigenvalues --    1.74032   1.74449   1.74576   1.75334   1.75450
 Alpha virt. eigenvalues --    1.75662   1.76089   1.76315   1.76397   1.76922
 Alpha virt. eigenvalues --    1.77004   1.77139   1.77469   1.77861   1.78012
 Alpha virt. eigenvalues --    1.78437   1.78568   1.78993   1.79613   1.79864
 Alpha virt. eigenvalues --    1.80335   1.80474   1.80966   1.81597   1.82098
 Alpha virt. eigenvalues --    1.82378   1.82883   1.83508   1.84030   1.84270
 Alpha virt. eigenvalues --    1.84773   1.85112   1.86274   1.86506   1.87114
 Alpha virt. eigenvalues --    1.87732   1.87768   1.88737   1.89261   1.89665
 Alpha virt. eigenvalues --    1.90344   1.91214   1.92353   1.93981   1.98133
 Alpha virt. eigenvalues --    1.98598   1.99174   1.99602   1.99962   2.00151
 Alpha virt. eigenvalues --    2.00366   2.00637   2.00867   2.00988   2.01239
 Alpha virt. eigenvalues --    2.01888   2.02184   2.02318   2.02446   2.02737
 Alpha virt. eigenvalues --    2.02949   2.03147   2.03254   2.03515   2.03659
 Alpha virt. eigenvalues --    2.03732   2.04034   2.04091   2.04198   2.04386
 Alpha virt. eigenvalues --    2.04672   2.04946   2.05186   2.05417   2.05955
 Alpha virt. eigenvalues --    2.06355   2.06522   2.07002   2.07242   2.07935
 Alpha virt. eigenvalues --    2.08369   2.08605   2.08912   2.09112   2.09493
 Alpha virt. eigenvalues --    2.09968   2.10390   2.10571   2.11073   2.11219
 Alpha virt. eigenvalues --    2.12091   2.12644   2.12945   2.13600   2.13966
 Alpha virt. eigenvalues --    2.14506   2.14680   2.14870   2.15103   2.15684
 Alpha virt. eigenvalues --    2.16353   2.16396   2.16958   2.17024   2.17338
 Alpha virt. eigenvalues --    2.17714   2.17975   2.18977   2.19271   2.19805
 Alpha virt. eigenvalues --    2.20151   2.20607   2.21052   2.21417   2.22197
 Alpha virt. eigenvalues --    2.22426   2.22665   2.22757   2.23502   2.24196
 Alpha virt. eigenvalues --    2.24617   2.24952   2.25577   2.25858   2.26797
 Alpha virt. eigenvalues --    2.27594   2.27789   2.28248   2.28360   2.29117
 Alpha virt. eigenvalues --    2.29808   2.31366   2.31569   2.32065   2.32646
 Alpha virt. eigenvalues --    2.33567   2.33996   2.35029   2.35448   2.38812
 Alpha virt. eigenvalues --    2.38981   2.40569   2.40827   2.41722   2.41735
 Alpha virt. eigenvalues --    2.42270   2.42395   2.42573   2.43432   2.43652
 Alpha virt. eigenvalues --    2.43753   2.43959   2.44411   2.44649   2.45045
 Alpha virt. eigenvalues --    2.45182   2.45960   2.46309   2.47322   2.47538
 Alpha virt. eigenvalues --    2.48283   2.48755   2.49270   2.49568   2.50237
 Alpha virt. eigenvalues --    2.50915   2.51575   2.52219   2.53181   2.53352
 Alpha virt. eigenvalues --    2.53813   2.54775   2.57839   2.68261   2.68655
 Alpha virt. eigenvalues --    2.69672   2.69931   2.70606   2.70635   2.70840
 Alpha virt. eigenvalues --    2.71218   2.71566   2.71683   2.71848   2.72719
 Alpha virt. eigenvalues --    2.73182   2.73409   2.73617   2.74335   2.74866
 Alpha virt. eigenvalues --    2.75230   2.76017   2.76838   2.77246   2.78829
 Alpha virt. eigenvalues --    2.79649   2.80052   2.80677   2.81254   2.81886
 Alpha virt. eigenvalues --    2.82384   2.83129   2.83245   2.84232   2.85153
 Alpha virt. eigenvalues --    2.85267   2.85734   2.86490   2.86601   2.87257
 Alpha virt. eigenvalues --    2.87367   2.87564   2.88237   2.89056   2.89287
 Alpha virt. eigenvalues --    2.89983   2.90203   2.90480   2.91339   2.91672
 Alpha virt. eigenvalues --    2.92026   2.92448   2.93314   2.95248   2.96358
 Alpha virt. eigenvalues --    2.96999   2.98167   2.98562   2.99101   3.01187
 Alpha virt. eigenvalues --    3.01732   3.02555   3.03363   3.05839   3.06667
 Alpha virt. eigenvalues --    3.09711   3.14233   3.14837   3.15175   3.15956
 Alpha virt. eigenvalues --    3.16660   3.16937   3.18211   3.19475   3.20663
 Alpha virt. eigenvalues --    3.21317   3.22183   3.22907   3.23276   3.24884
 Alpha virt. eigenvalues --    3.26483   3.27536   3.31020   3.31431   3.34303
 Alpha virt. eigenvalues --    3.37394   3.40124   3.40510   3.41112   3.42621
 Alpha virt. eigenvalues --    3.43135   3.45161   3.46491   3.48075   3.51919
 Alpha virt. eigenvalues --    3.53329   3.53891   3.57476   3.61799   4.52165
 Alpha virt. eigenvalues --    4.52248   4.52354   4.52448   4.52661   4.52769
 Alpha virt. eigenvalues --    4.52874   4.52943   4.53118   4.53177   4.53211
 Alpha virt. eigenvalues --    4.53337   4.53408   4.53597   4.53718   4.53787
 Alpha virt. eigenvalues --    4.53963   4.54160   4.54482   4.54737   4.55012
 Alpha virt. eigenvalues --    4.55129   4.55218   4.55532   4.55543   4.55613
 Alpha virt. eigenvalues --    4.55824   4.55895   4.56063   4.56212   4.56693
 Alpha virt. eigenvalues --    4.58555   4.59667   4.59974   4.60011   4.60063
 Alpha virt. eigenvalues --    4.60136   4.60196   4.60883   4.60894   4.60939
 Alpha virt. eigenvalues --    4.61108   4.61276   4.61359   4.61651   4.61655
 Alpha virt. eigenvalues --    4.61910   4.62059   4.62072   4.62704   4.62935
 Alpha virt. eigenvalues --    4.63016   4.63047   4.63372   4.63425   4.63465
 Alpha virt. eigenvalues --    4.63573   4.63723   4.63786   4.64141   4.64282
 Alpha virt. eigenvalues --    4.64534   4.64834   4.66618   4.74949   4.75572
 Alpha virt. eigenvalues --    4.75807   4.75852   4.75922   4.76119   4.76237
 Alpha virt. eigenvalues --    4.76418   4.76524   4.76870   4.76902   4.77116
 Alpha virt. eigenvalues --    4.77164   4.78180   4.78856   4.79057   4.79314
 Alpha virt. eigenvalues --    4.80825   4.80926   4.81983   4.82288   4.82609
 Alpha virt. eigenvalues --    4.82674   4.83062   4.83363   4.83746   4.84022
 Alpha virt. eigenvalues --    4.84225   4.84592   4.84755   4.85294   4.85761
 Alpha virt. eigenvalues --    4.86628   4.86787   4.87260   4.87953   4.88212
 Alpha virt. eigenvalues --    4.88298   4.88332   4.88534   4.88792   4.89272
 Alpha virt. eigenvalues --    4.89444   4.89748   4.90111   4.90897   4.90991
 Alpha virt. eigenvalues --    4.91271   4.92100   4.92572   4.93194   4.93278
 Alpha virt. eigenvalues --    4.94419   4.94880   4.95632   4.96118   4.96437
 Alpha virt. eigenvalues --    4.96584   4.97970   4.98306   4.99781   5.00484
 Alpha virt. eigenvalues --    5.01786   5.03574   5.05129   5.05505   5.06049
 Alpha virt. eigenvalues --    5.06372   5.07107   5.07515   5.07831   5.08366
 Alpha virt. eigenvalues --    5.08934   5.09327   5.09757   5.10399   5.11094
 Alpha virt. eigenvalues --    5.11634   5.12268   5.12589   5.12983   5.13599
 Alpha virt. eigenvalues --    5.15115   5.15703   5.16072   5.16823   5.17525
 Alpha virt. eigenvalues --    5.20418   5.21471   5.22214   5.22912   5.24018
 Alpha virt. eigenvalues --    5.24941   5.25751   5.26354   5.31122   5.35896
 Alpha virt. eigenvalues --    5.37606   5.37926   5.37974   5.38307   5.38730
[...]
   Z20       32.95682  -0.00602   0.00000  -0.01455  -0.01470  32.94212
   X21       36.77407  -0.00114   0.00000   0.00481   0.00620  36.78027
   Y21       34.39302   0.00555   0.00000  -0.00644  -0.00737  34.38564
   Z21       34.43081   0.00614   0.00000  -0.00038  -0.00057  34.43024
   X22       35.35678  -0.00809   0.00000  -0.00701  -0.00500  35.35178
   Y22       33.99617   0.00879   0.00000   0.02224   0.02149  34.01767
   Z22       31.97417  -0.00010   0.00000   0.01594   0.01537  31.98953
   X23       40.08109   0.01368   0.00000   0.00849   0.01188  40.09297
   Y23       40.30786  -0.00724   0.00000  -0.01901  -0.02074  40.28712
   Z23       31.63402  -0.00516   0.00000  -0.00410  -0.00360  31.63041
   X24       38.64490  -0.01086   0.00000  -0.02615  -0.02297  38.62193
   Y24       39.21182  -0.00332   0.00000   0.00358   0.00215  39.21396
   Z24       31.59622   0.00071   0.00000   0.00150   0.00162  31.59784
   X25       39.47638  -0.00154   0.00000   0.01451   0.01798  39.49436
   Y25       41.81964   0.00614   0.00000  -0.00502  -0.00659  41.81305
   Z25       32.42770   0.00616   0.00000   0.01176   0.01202  32.43972
   X26       38.28585  -0.00462   0.00000  -0.00301   0.00038  38.28623
   Y26       45.37232  -0.00140   0.00000  -0.01857  -0.01977  45.35255
   Z26       35.28119  -0.01875   0.00000  -0.01742  -0.01766  35.26353
   X27       39.62756   0.01052   0.00000   0.00938   0.01279  39.64035
   Y27       46.37388   0.00518   0.00000  -0.00502  -0.00647  46.36741
   Z27       35.94259   0.00340   0.00000  -0.00788  -0.00778  35.93481
   X28       37.81342  -0.00841   0.00000  -0.03201  -0.02923  37.78419
   Y28       44.29518  -0.00853   0.00000  -0.00006  -0.00111  44.29408
   Z28       36.64179   0.01444   0.00000   0.02020   0.01987  36.66166
   X29       43.99282   0.00669   0.00000   0.00335   0.00534  43.99817
   Y29       36.62289  -0.01618   0.00000  -0.00858  -0.01101  36.61188
   Z29       33.92058   0.00859   0.00000  -0.00298  -0.00122  33.91936
   X30       42.55663  -0.00965   0.00000  -0.00916  -0.00677  42.54986
   Y30       37.22760   0.01280   0.00000   0.03828   0.03610  37.26371
   Z30       32.99462  -0.00608   0.00000   0.00349   0.00480  32.99942
   X31       45.18335   0.00163   0.00000  -0.00938  -0.00709  45.17626
   Y31       37.98350   0.01015   0.00000   0.01981   0.01714  38.00063
   Z31       33.88279  -0.00323   0.00000  -0.01023  -0.00820  33.87459
   X32       40.55352  -0.01436   0.00000  -0.01044  -0.01237  40.54115
   Y32       33.27808  -0.00758   0.00000  -0.01118  -0.01241  33.26566
   Z32       45.41012   0.00432   0.00000   0.00124   0.00216  45.41228
   X33       42.10310   0.01023   0.00000   0.00892   0.00689  42.10999
   Y33       33.82610   0.00572   0.00000   0.01500   0.01348  33.83958
   Z33       46.14711  -0.00155   0.00000  -0.01885  -0.01751  46.12960
   X34       40.78029   0.00435   0.00000   0.00813   0.00675  40.78704
   Y34       33.54264   0.00269   0.00000   0.00669   0.00533  33.54797
   Z34       43.63378  -0.00590   0.00000  -0.00436  -0.00339  43.63039
   X35       30.21672   0.00045   0.00000   0.00284   0.00297  30.21969
   Y35       35.98039  -0.00260   0.00000  -0.00535  -0.00471  35.97568
   Z35       40.06219  -0.01071   0.00000  -0.00790  -0.01001  40.05219
   X36       30.42459  -0.00054   0.00000  -0.00468  -0.00518  30.41941
   Y36       34.92214  -0.00190   0.00000  -0.00867  -0.00801  34.91413
   Z36       41.51728   0.00490   0.00000   0.00049  -0.00152  41.51576
   X37       30.00885   0.00692   0.00000   0.04253   0.04279  30.05164
   Y37       37.64334   0.00011   0.00000  -0.01298  -0.01228  37.63107
   Z37       40.74250   0.00998   0.00000   0.03936   0.03713  40.77962
   X38       43.86054   0.01338   0.00000   0.02291   0.02233  43.88288
   Y38       37.73783  -0.02145   0.00000  -0.00502  -0.00700  37.73083
   Z38       43.86054  -0.00963   0.00000  -0.02835  -0.02668  43.83386
   X39       45.18335   0.00309   0.00000   0.00903   0.00814  45.19149
   Y39       37.92680   0.00104   0.00000  -0.00094  -0.00313  37.92367
   Z39       45.08887   0.00162   0.00000  -0.00602  -0.00398  45.08488
   X40       42.85899  -0.01464   0.00000  -0.01934  -0.01968  42.83931
   Y40       39.21182   0.01925   0.00000   0.00642   0.00466  39.21648
   Z40       44.03062   0.00617   0.00000   0.01803   0.01934  44.04996
   X41       29.21517  -0.00708   0.00000   0.03155   0.03323  29.24839
   Y41       36.50951   0.03270   0.00000   0.07100   0.07163  36.58114
   Z41       35.01663  -0.00683   0.00000  -0.01127  -0.01368  35.00294
   X42       29.83878   0.00158   0.00000  -0.02874  -0.02763  29.81115
   Y42       36.11267  -0.00916   0.00000  -0.01790  -0.01732  36.09534
   Z42       36.66069   0.01355   0.00000   0.01641   0.01418  36.67486
   X43       29.74429   0.00677   0.00000  -0.00049   0.00118  29.74547
   Y43       35.13001  -0.01453   0.00000   0.00091   0.00139  35.13140
   Z43       33.97728  -0.00499   0.00000   0.01270   0.01049  33.98777
   X44       40.68580   0.00994   0.00000   0.02183   0.02181  40.70762
   Y44       41.81964  -0.00196   0.00000   0.01650   0.01521  41.83485
   Z44       44.80541  -0.00371   0.00000   0.00322   0.00382  44.80923
   X45       41.51728   0.00296   0.00000   0.00043   0.00083  41.51811
   Y45       43.38811   0.00806   0.00000   0.03310   0.03163  43.41974
   Z45       44.46526  -0.00309   0.00000  -0.01038  -0.00962  44.45564
   X46       39.23071  -0.01258   0.00000  -0.02066  -0.02086  39.20986
   Y46       42.27317  -0.00198   0.00000  -0.01935  -0.02029  42.25288
   Z46       45.76917   0.00455   0.00000  -0.00818  -0.00802  45.76114
   X47       33.46705   0.00016   0.00000   0.00624   0.00928  33.47633
   Y47       36.67958  -0.00978   0.00000  -0.01495  -0.01539  36.66419
   Z47       30.25452   0.00074   0.00000  -0.00440  -0.00562  30.24890
   X48       33.01352  -0.00156   0.00000  -0.01148  -0.00819  33.00532
   Y48       35.77252   0.00114   0.00000   0.00887   0.00846  35.78097
   Z48       28.74273  -0.00198   0.00000  -0.01306  -0.01438  28.72836
   X49       33.88279   0.00126   0.00000  -0.00611  -0.00257  33.88022
   Y49       38.34254   0.00923   0.00000   0.01234   0.01179  38.35433
   Z49       29.66870   0.00117   0.00000   0.02091   0.01973  29.68843
   X50       36.50951   0.00666   0.00000   0.00124   0.00273  36.51224
   Y50       46.84631   0.02037   0.00000   0.01806   0.01755  46.86386
   Z50       43.06686   0.01152   0.00000   0.01855   0.01775  43.08461
   X51       35.92369  -0.00418   0.00000   0.01092   0.01235  35.93605
   Y51       45.35343  -0.01760   0.00000  -0.00359  -0.00402  45.34941
   Z51       42.23538  -0.01331   0.00000  -0.02661  -0.02750  42.20788
   X52       37.60555  -0.00048   0.00000  -0.00455  -0.00355  37.60200
   Y52       46.22270  -0.00171   0.00000  -0.00497  -0.00564  46.21706
   Z52       44.37077   0.00235   0.00000   0.01357   0.01310  44.38387
   X53       30.08444   0.00863   0.00000  -0.01591  -0.01490  30.06954
   Y53       41.32831  -0.00176   0.00000   0.01119   0.01190  41.34021
   Z53       40.78029   0.00517   0.00000   0.01311   0.01073  40.79102
   X54       29.70649  -0.00761   0.00000  -0.03300  -0.03167  29.67483
   Y54       43.08576   0.01020   0.00000   0.02008   0.02087  43.10663
   Z54       40.93147   0.00299   0.00000   0.01815   0.01558  40.94705
   X55       28.59156  -0.01005   0.00000  -0.00939  -0.00830  28.58326
   Y55       40.61021   0.00012   0.00000   0.01958   0.02055  40.63077
   Z55       40.06219  -0.01310   0.00000  -0.05327  -0.05605  40.00615
   X56       30.08444  -0.02191   0.00000  -0.02369  -0.02031  30.06413
   Y56       44.46526   0.00774   0.00000   0.00136   0.00180  44.46706
   Z56       34.65758  -0.00381   0.00000   0.01175   0.00923  34.66681
   X57       31.46394   0.01741   0.00000   0.00990   0.01310  31.47704
   Y57       43.31252  -0.01291   0.00000  -0.00945  -0.00930  43.30322
   Z57       34.48750  -0.00090   0.00000  -0.00093  -0.00300  34.48450
   X58       30.59467   0.00719   0.00000   0.01941   0.02266  30.61732
   Y58       45.59909   0.00511   0.00000   0.00800   0.00839  45.60748
   Z58       35.96149   0.00645   0.00000   0.00710   0.00469  35.96618
   X59       47.31874   0.01455   0.00000   0.01338   0.01292  47.33166
   Y59       34.41191  -0.00877   0.00000  -0.00349  -0.00629  34.40562
   Z59       41.00706   0.00065   0.00000  -0.00292  -0.00013  41.00693
   X60       47.65889  -0.00299   0.00000  -0.01020  -0.01021  47.64869
   Y60       36.15046   0.00714   0.00000   0.01262   0.00974  36.16020
   Z60       40.64801   0.00052   0.00000   0.00682   0.00962  40.65763
   X61       45.52350  -0.01252   0.00000  -0.00829  -0.00881  45.51470
   Y61       34.33632   0.00382   0.00000   0.01384   0.01142  34.34774
   Z61       41.17713  -0.00194   0.00000  -0.01692  -0.01464  41.16249
   X62       41.15824  -0.00274   0.00000  -0.02060  -0.01847  41.13976
   Y62       31.57732  -0.00106   0.00000   0.00357   0.00155  31.57887
   Z62       29.81988  -0.01828   0.00000  -0.02134  -0.02018  29.79969
   X63       42.10310   0.01007   0.00000   0.02420   0.02583  42.12893
   Y63       31.19938  -0.00107   0.00000   0.00853   0.00637  31.20575
   Z63       31.31276   0.00815   0.00000  -0.02059  -0.01913  31.29363
   X64       39.64645  -0.00796   0.00000  -0.01431  -0.01221  39.63425
   Y64       32.37101   0.00337   0.00000   0.00263   0.00095  32.37196
   Z64       30.42459   0.00967   0.00000   0.03578   0.03648  30.46108
   X65       46.54395   0.00369   0.00000   0.00393   0.00713  46.55109
   Y65       43.78495   0.00305   0.00000  -0.00980  -0.01271  43.77225
   Z65       34.78986  -0.01129   0.00000  -0.01444  -0.01228  34.77758
   X66       45.56130  -0.01111   0.00000  -0.03547  -0.03279  45.52851
   Y66       42.72671  -0.00357   0.00000   0.01836   0.01570  42.74241
   Z66       35.88590   0.00866   0.00000   0.00960   0.01152  35.89742
   X67       48.03684   0.00308   0.00000  -0.00451  -0.00151  48.03533
   Y67       44.14400  -0.00038   0.00000  -0.00380  -0.00697  44.13703
   Z67       35.75362   0.00489   0.00000   0.01142   0.01399  35.76761
   X68       36.56620   0.00653   0.00000  -0.00048   0.00440  36.57060
   Y68       45.58019  -0.00872   0.00000  -0.00786  -0.00893  45.57126
   Z68       30.16003  -0.02556   0.00000  -0.02262  -0.02335  30.13668
   X69       37.17091   0.00221   0.00000  -0.00876  -0.00443  37.16648
   Y69       45.10776   0.00144   0.00000   0.02098   0.01986  45.12762
   Z69       31.78519   0.01902   0.00000   0.01946   0.01892  31.80411
   X70       35.33788  -0.01080   0.00000  -0.01845  -0.01341  35.32447
   Y70       46.84631   0.00842   0.00000  -0.00185  -0.00266  46.84365
   Z70       30.48128   0.00727   0.00000   0.00986   0.00872  30.49001
   X71       44.12511   0.00597   0.00000   0.01531   0.01383  44.13893
   Y71       29.12068  -0.01991   0.00000  -0.01649  -0.01865  29.10203
   Z71       40.78029   0.00948   0.00000   0.01203   0.01415  40.79444
   X72       43.50150  -0.00829   0.00000  -0.02485  -0.02601  43.47549
   Y72       30.80254   0.01280   0.00000  -0.00290  -0.00492  30.79761
   Z72       40.89367  -0.00654   0.00000  -0.02585  -0.02400  40.86968
   X73       44.67313   0.00061   0.00000   0.00270   0.00169  44.67481
   Y73       28.95060   0.00585   0.00000   0.01983   0.01748  28.96809
   Z73       39.06064  -0.00469   0.00000  -0.00314  -0.00087  39.05977
   X74       33.92058  -0.00852   0.00000   0.00681   0.00701  33.92759
   Y74       28.53486  -0.00651   0.00000  -0.04020  -0.04056  28.49431
   Z74       34.43081  -0.00926   0.00000  -0.03280  -0.03354  34.39727
   X75       35.65913   0.01299   0.00000   0.00672   0.00699  35.66613
   Y75       28.98840   0.01035   0.00000   0.03882   0.03811  29.02651
   Z75       34.54419  -0.00054   0.00000  -0.00194  -0.00221  34.54198
   X76       33.69382  -0.00337   0.00000  -0.00786  -0.00827  33.68554
   Y76       27.23095  -0.00350   0.00000   0.00605   0.00580  27.23676
   Z76       35.65913   0.00851   0.00000   0.02925   0.02849  35.68763
   X77       35.16780  -0.01033   0.00000  -0.01765  -0.01974  35.14806
   Y77       37.45437  -0.01324   0.00000  -0.01379  -0.01377  37.44061
   Z77       49.00060   0.00320   0.00000  -0.00142  -0.00220  48.99840
   X78       35.58354   0.00627   0.00000   0.02251   0.02100  35.60454
   Y78       37.96460   0.00216   0.00000  -0.00860  -0.00874  37.95585
   Z78       47.29985  -0.00897   0.00000  -0.00738  -0.00805  47.29179
   X79       35.88590   0.00084   0.00000  -0.01842  -0.02054  35.86536
   Y79       38.73939   0.00847   0.00000   0.00839   0.00831  38.74769
   Z79       50.03995   0.00381   0.00000  -0.00074  -0.00137  50.03858
   X80       32.20093   0.00299   0.00000  -0.00268  -0.00299  32.19794
   Y80       41.95192   0.01870   0.00000   0.04704   0.04753  41.99945
   Z80       45.93924   0.01431   0.00000   0.01702   0.01521  45.95445
   X81       32.76785   0.00512   0.00000   0.02508   0.02537  32.79322
   Y81       42.85899   0.00197   0.00000   0.00708   0.00739  42.86638
   Z81       44.48415  -0.00638   0.00000  -0.00742  -0.00910  44.47505
   X82       31.57732   0.00107   0.00000   0.03340   0.03295  31.61028
   Y82       40.38345  -0.01064   0.00000   0.00654   0.00712  40.39057
   Z82       45.27784  -0.00582   0.00000   0.00879   0.00689  45.28472
   X83       30.70805  -0.00829   0.00000  -0.00695  -0.00563  30.70242
   Y83       32.14424   0.00920   0.00000   0.00358   0.00383  32.14807
   Z83       33.08910  -0.00379   0.00000  -0.01665  -0.01846  33.07064
   X84       30.46239  -0.00037   0.00000  -0.00001   0.00166  30.46404
   Y84       31.53953  -0.00479   0.00000  -0.01993  -0.01971  31.51982
   Z84       31.40725  -0.00711   0.00000  -0.01739  -0.01924  31.38801
   X85       31.97417   0.00801   0.00000  -0.00159  -0.00070  31.97346
   Y85       31.02930  -0.00836   0.00000  -0.00674  -0.00672  31.02258
   Z85       33.78830   0.00664   0.00000   0.01398   0.01258  33.80088
   X86       45.48571   0.00129   0.00000   0.00827   0.00957  45.49527
   Y86       31.78519  -0.01699   0.00000  -0.01157  -0.01435  31.77085
   Z86       32.86234   0.00666   0.00000   0.02591   0.02829  32.89063
   X87       45.22115  -0.00515   0.00000  -0.01895  -0.01728  45.20387
   Y87       33.58043   0.01616   0.00000   0.01136   0.00864  33.58908
   Z87       32.86234   0.00215   0.00000   0.01134   0.01356  32.87590
   X88       47.01639   0.00173   0.00000  -0.00729  -0.00576  47.01063
   Y88       31.55843  -0.00166   0.00000  -0.00492  -0.00805  31.55037
   Z88       31.91747  -0.00340   0.00000  -0.01215  -0.00933  31.90814
   X89       47.31874   0.00764   0.00000  -0.00116  -0.00026  47.31848
   Y89       42.82119   0.00095   0.00000  -0.00564  -0.00838  42.81281
   Z89       42.25428   0.00385   0.00000   0.01077   0.01319  42.26747
   X90       45.76917  -0.00877   0.00000  -0.00907  -0.00822  45.76095
   Y90       41.97082  -0.00554   0.00000  -0.00465  -0.00710  41.96371
   Z90       41.85743  -0.00732   0.00000  -0.03294  -0.03092  41.82651
   X91       46.77072  -0.00087   0.00000  -0.00503  -0.00401  46.76671
   Y91       44.38967   0.00225   0.00000   0.00577   0.00316  44.39283
   Z91       42.99127  -0.00041   0.00000  -0.00852  -0.00632  42.98495
   X92       30.33010  -0.01303   0.00000  -0.00278  -0.00423  30.32587
   Y92       29.08289  -0.00744   0.00000   0.00148   0.00213  29.08501
   Z92       40.68580   0.00188   0.00000  -0.00067  -0.00245  40.68335
   X93       31.38835   0.01210   0.00000   0.02064   0.01966  31.40802
   Y93       30.33010   0.01032   0.00000   0.00826   0.00866  30.33876
   Z93       39.91102  -0.00761   0.00000  -0.01407  -0.01560  39.89541
   X94       31.40725   0.00529   0.00000   0.01243   0.01047  31.41772
   Y94       28.27030   0.00044   0.00000   0.01009   0.01056  28.28087
   Z94       41.89523   0.00289   0.00000   0.00308   0.00164  41.89686
   X95       30.59467  -0.00072   0.00000  -0.02423  -0.02529  30.56937
   Y95       37.28430  -0.00736   0.00000  -0.05936  -0.05857  37.22573
   Z95       45.18335  -0.01702   0.00000  -0.01761  -0.01968  45.16368
   X96       31.82299   0.00738   0.00000   0.02149   0.01997  31.84296
   Y96       36.32054  -0.00003   0.00000   0.02240   0.02297  36.34351
   Z96       46.10932   0.01014   0.00000   0.03236   0.03069  46.14001
   X97       29.27186  -0.00837   0.00000  -0.00422  -0.00554  29.26632
   Y97       37.62445  -0.00048   0.00000  -0.01142  -0.01031  37.61413
   Z97       46.35498   0.01181   0.00000   0.02153   0.01908  46.37406
         Item               Value     Threshold  Converged?
 Maximum Force            0.032697     0.000450     NO 
 RMS     Force            0.009418     0.000300     NO 
 Maximum Displacement     0.071628     0.001800     NO 
 RMS     Displacement     0.017564     0.001200     NO 
 Predicted change in Energy=-2.361773D-02
 GradGradGradGradGradGradGradGradGradGradGradGradGradGradGradGradGradGrad

 Leave Link  103 at Thu May  3 02:28:25 2018, MaxMem= 14763950080 cpu:        62.8
 (Enter /cm/shared/gaussian/g09.e01/intel64-sandybridge/g09/l9999.exe)
 1\1\GINC-POPLE03\Force\RPBE1PBE\CC-pVDZ\Br1H64O32(1-)\M.PELUSO\03-May-
 2018\0\\#p PBE1PBE/cc-pvDZ force Counterpoise=2 noSymm\\forces on chlo
 ride comput - NWATER: 32\\-1,1\Br,20.,20.,20.\O,22.01,17.77,20.54\H,21
 .4,18.51,20.64\H,22.3,17.81,19.63\O,17.92,21.54,18.14\H,17.37,20.77,18
 .26\H,18.76,21.31,18.55\O,22.94,21.55,20.2\H,22.07,21.16,20.21\H,23.54
 ,20.8,20.19\O,18.52,22.69,21.3\H,18.99,21.86,21.23\H,17.6,22.45,21.24\
 O,19.59,20.18,23.38\H,19.31,20.15,22.47\H,20.55,20.23,23.34\O,18.15,17
 .27,20.41\H,18.16,18.22,20.32\H,19.05,17.03,20.61\O,19.44,17.64,17.44\
 H,19.46,18.2,18.22\H,18.71,17.99,16.92\O,21.21,21.33,16.74\H,20.45,20.
 75,16.72\H,20.89,22.13,17.16\O,20.26,24.01,18.67\H,20.97,24.54,19.02\H
 ,20.01,23.44,19.39\O,23.28,19.38,17.95\H,22.52,19.7,17.46\H,23.91,20.1
 ,17.93\O,21.46,17.61,24.03\H,22.28,17.9,24.42\H,21.58,17.75,23.09\O,15
 .99,19.04,21.2\H,16.1,18.48,21.97\H,15.88,19.92,21.56\O,23.21,19.97,23
 .21\H,23.91,20.07,23.86\H,22.68,20.75,23.3\O,15.46,19.32,18.53\H,15.79
 ,19.11,19.4\H,15.74,18.59,17.98\O,21.53,22.13,23.71\H,21.97,22.96,23.5
 3\H,20.76,22.37,24.22\O,17.71,19.41,16.01\H,17.47,18.93,15.21\H,17.93,
 20.29,15.7\O,19.32,24.79,22.79\H,19.01,24.,22.35\H,19.9,24.46,23.48\O,
 15.92,21.87,21.58\H,15.72,22.8,21.66\H,15.13,21.49,21.2\O,15.92,23.53,
 18.34\H,16.65,22.92,18.25\H,16.19,24.13,19.03\O,25.04,18.21,21.7\H,25.
 22,19.13,21.51\H,24.09,18.17,21.79\O,21.78,16.71,15.78\H,22.28,16.51,1
 6.57\H,20.98,17.13,16.1\O,24.63,23.17,18.41\H,24.11,22.61,18.99\H,25.4
 2,23.36,18.92\O,19.35,24.12,15.96\H,19.67,23.87,16.82\H,18.7,24.79,16.
 13\O,23.35,15.41,21.58\H,23.02,16.3,21.64\H,23.64,15.32,20.67\O,17.95,
 15.1,18.22\H,18.87,15.34,18.28\H,17.83,14.41,18.87\O,18.61,19.82,25.93
 \H,18.83,20.09,25.03\H,18.99,20.5,26.48\O,17.04,22.2,24.31\H,17.34,22.
 68,23.54\H,16.71,21.37,23.96\O,16.25,17.01,17.51\H,16.12,16.69,16.62\H
 ,16.92,16.42,17.88\O,24.07,16.82,17.39\H,23.93,17.77,17.39\H,24.88,16.
 7,16.89\O,25.04,22.66,22.36\H,24.22,22.21,22.15\H,24.75,23.49,22.75\O,
 16.05,15.39,21.53\H,16.61,16.05,21.12\H,16.62,14.96,22.17\O,16.19,19.7
 3,23.91\H,16.84,19.22,24.4\H,15.49,19.91,24.53\\Version=ES64L-G09RevE.
 01\HF=-2443.1796796\RMSD=2.435e-09\RMSF=9.418e-03\Dipole=0.5038576,2.2
 522101,2.5461029\Quadrupole=-77.7291258,45.2715466,32.4575792,-1293.75
 20061,-1320.6024715,-1234.8124025\PG=C01 [X(Br1H64O32)]\\@


 "MATHEMATICS IS THE ART OF GIVING THE SAME NAME
 TO DIFFERENT THINGS."
                    - H. POINCARE
 Job cpu time:       0 days 10 hours 13 minutes 12.3 seconds.
 File lengths (MBytes):  RWF=    482 Int=      0 D2E=      0 Chk=    160 Scr=      1
 Normal termination of Gaussian 09 at Thu May  3 02:28:26 2018.
