 Entering Gaussian System, Link 0=/cm/shared/gaussian/g09.e01/intel64-sandybridge/g09/g09
 Initial command:
 /cm/shared/gaussian/g09.e01/intel64-sandybridge/g09/l1.exe "/local/scratch/m.peluso/32_wat/Gau-38838.inp" -scrdir="/local/scratch/m.peluso/32_wat/"
 Entering Link 1 = /cm/shared/gaussian/g09.e01/intel64-sandybridge/g09/l1.exe PID=     38839.
  
 Copyright (c) 1988,1990,1992,1993,1995,1998,2003,2009,2015,
            Gaussian, Inc.  All Rights Reserved.
  
 This is part of the Gaussian(R) 09 program.  It is based on
 the Gaussian(R) 03 system (copyright 2003, Gaussian, Inc.),
 the Gaussian(R) 98 system (copyright 1998, Gaussian, Inc.),
 the Gaussian(R) 94 system (copyright 1995, Gaussian, Inc.),
 the Gaussian 92(TM) system (copyright 1992, Gaussian, Inc.),
 the Gaussian 90(TM) system (copyright 1990, Gaussian, Inc.),
 the Gaussian 88(TM) system (copyright 1988, Gaussian, Inc.),
 the Gaussian 86(TM) system (copyright 1986, Carnegie Mellon
 University), and the Gaussian 82(TM) system (copyright 1983,
 Carnegie Mellon University). Gaussian is a federally registered
 trademark of Gaussian, Inc.
  
 This software contains proprietary and confidential information,
 including trade secrets, belonging to Gaussian, Inc.
  
 This software is provided under written license and may be
 used, copied, transmitted, or stored only in accord with that
 written license.
  
 The following legend is applicable only to US Government
 contracts under FAR:
  
                    RESTRICTED RIGHTS LEGEND
  
 Use, reproduction and disclosure by the US Government is
 subject to restrictions as set forth in subparagraphs (a)
 and (c) of the Commercial Computer Software - Restricted
 Rights clause in FAR 52.227-19.
  
 Gaussian, Inc.
 340 Quinnipiac St., Bldg. 40, Wallingford CT 06492
  
  
 ---------------------------------------------------------------
 Warning -- This program may not be used in any manner that
 competes with the business of Gaussian, Inc. or will provide
 assistance to any competitor of Gaussian, Inc.  The licensee
 of this program is prohibited from giving any competitor of
 Gaussian, Inc. access to this program.  By using this program,
 the user acknowledges that Gaussian, Inc. is engaged in the
 business of creating and licensing software in the field of
 computational chemistry and represents and warrants to the
 licensee that it is not a competitor of Gaussian, Inc. and that
 it will not use this program in any manner prohibited above.
 ---------------------------------------------------------------
  

 Cite this work as:
 Gaussian 09, Revision E.01,
 M. J. Frisch, G. W. Trucks, H. B. Schlegel, G. E. Scuseria, 
 M. A. Robb, J. R. Cheeseman, G. Scalmani, V. Barone, B. Mennucci, 
 G. A. Petersson, H. Nakatsuji, M. Caricato, X. Li, H. P. Hratchian, 
 A. F. Izmaylov, J. Bloino, G. Zheng, J. L. Sonnenberg, M. Hada, 
 M. Ehara, K. Toyota, R. Fukuda, J. Hasegawa, M. Ishida, T. Nakajima, 
 Y. Honda, O. Kitao, H. Nakai, T. Vreven, J. A. Montgomery, Jr., 
 J. E. Peralta, F. Ogliaro, M. Bearpark, J. J. Heyd, E. Brothers, 
 K. N. Kudin, V. N. Staroverov, T. Keith, R. Kobayashi, J. Normand, 
 K. Raghavachari, A. Rendell, J. C. Burant, S. S. Iyengar, J. Tomasi, 
 M. Cossi, N. Rega, J. M. Millam, M. Klene, J. E. Knox, J. B. Cross, 
 V. Bakken, C. Adamo, J. Jaramillo, R. Gomperts, R. E. Stratmann, 
 O. Yazyev, A. J. Austin, R. Cammi, C. Pomelli, J. W. Ochterski, 
 R. L. Martin, K. Morokuma, V. G. Zakrzewski, G. A. Voth, 
 P. Salvador, J. J. Dannenberg, S. Dapprich, A. D. Daniels, 
 O. Farkas, J. B. Foresman, J. V. Ortiz, J. Cioslowski, 
 and D. J. Fox, Gaussian, Inc., Wallingford CT, 2013.
 
 ******************************************
 Gaussian 09:  ES64L-G09RevE.01 30-Nov-2015
                 2-May-2018 
 ******************************************
 %Mem=110GB
 %NProcShared=64
 Will use up to   64 processors via shared memory.
 %chk=snap48.chk
 ----------------------------------------------
 #p PBE1PBE/cc-pvDZ force Counterpoise=2 noSymm
 ----------------------------------------------
 1/10=7,30=1,38=1,62=2/1,3;
 2/12=2,15=1,17=6,18=5,40=1/2;
 1/10=7,30=1,38=1,53=2,62=2,63=101/22;
 3/5=16,11=2,16=1,25=1,30=1,71=1,74=-13/1,2,3;
 4//1;
 5/5=2,38=5/2;
 6/7=2,8=2,9=2,10=2,28=1/1;
 7/7=1,29=1,30=1,33=-1/1,2,3,16;
 1/10=7,30=1,53=2,62=2,63=101/22;
 3/5=7,6=11,11=2,16=1,25=1,30=1,71=1,74=-13,82=7/1,2,3;
 4//1;
 5/5=2,38=5/2;
 6/7=2,8=2,9=2,10=2,28=1/1;
 7/7=1,29=1,30=1,33=-1/1,2,3,16;
 1/10=7,30=1,53=2,62=2,63=101/22(-5);
 7/9=1,29=1,44=-1/16;
 1/10=7,30=1,62=2/3;
 99//99;
 Leave Link    1 at Wed May  2 18:24:53 2018, MaxMem= 14763950080 cpu:         4.3
 (Enter /cm/shared/gaussian/g09.e01/intel64-sandybridge/g09/l101.exe)
 --------------------------------------
 forces on chloride comput - NWATER: 32
 --------------------------------------
 Symbolic Z-matrix:
 Charge = -1 Multiplicity = 1 in supermolecule
 Charge = -1 Multiplicity = 1 in fragment      1.
 Charge =  0 Multiplicity = 1 in fragment      2.
 Br(Fragment=1)        20.       20.       20. 
 O(Fragment=2)         18.       17.48     20.34 
 H(Fragment=2)         18.58     18.17     20.02 
 H(Fragment=2)         17.91     17.66     21.27 
 O(Fragment=2)         18.93     22.94     20.81 
 H(Fragment=2)         18.16     22.5      21.16 
 H(Fragment=2)         19.51     22.23     20.53 
 O(Fragment=2)         21.69     22.42     21.8 
 H(Fragment=2)         20.98     22.08     21.25 
 H(Fragment=2)         22.06     21.64     22.21 
 O(Fragment=2)         20.22     21.       16.7 
 H(Fragment=2)         20.52     21.14     17.6 
 H(Fragment=2)         19.47     20.41     16.79 
 O(Fragment=2)         15.65     20.34     21. 
 H(Fragment=2)         16.51     20.58     21.37 
 H(Fragment=2)         15.2      19.89     21.72 
 O(Fragment=2)         15.45     17.92     18.98 
 H(Fragment=2)         16.39     17.91     19.13 
 H(Fragment=2)         15.07     17.7      19.83 
 O(Fragment=2)         19.99     16.05     23.38 
 H(Fragment=2)         19.15     16.27     22.99 
 H(Fragment=2)         20.53     16.83     23.23 
 O(Fragment=2)         22.47     24.67     20.37 
 H(Fragment=2)         21.87     24.59     19.63 
 H(Fragment=2)         22.39     23.84     20.84 
 O(Fragment=2)         17.24     17.93     23.29 
 H(Fragment=2)         16.35     18.01     22.94 
 H(Fragment=2)         17.11     17.83     24.24 
 O(Fragment=2)         19.28     25.39     22.12 
 H(Fragment=2)         19.61     24.65     21.6 
 H(Fragment=2)         18.4      25.12     22.4 
 O(Fragment=2)         26.06     19.79     19.31 
 H(Fragment=2)         25.88     19.03     18.76 
 H(Fragment=2)         25.22     19.98     19.73 
 O(Fragment=2)         17.15     24.54     18. 
 H(Fragment=2)         16.49     24.66     17.33 
 H(Fragment=2)         17.97     24.48     17.52 
 O(Fragment=2)         14.52     23.1      19.55 
 H(Fragment=2)         15.19     23.78     19.53 
 H(Fragment=2)         14.94     22.35     19.97 
 O(Fragment=2)         14.95     21.55     16.63 
 H(Fragment=2)         14.       21.63     16.72 
 H(Fragment=2)         15.3      21.92     17.44 
 O(Fragment=2)         20.6      21.29     13.62 
 H(Fragment=2)         19.79     20.82     13.81 
 H(Fragment=2)         20.97     21.49     14.48 
 O(Fragment=2)         22.69     21.74     25.26 
 H(Fragment=2)         22.43     20.85     25.51 
 H(Fragment=2)         23.57     21.64     24.91 
 O(Fragment=2)         18.33     21.98     26.13 
 H(Fragment=2)         18.97     22.5      25.63 
 H(Fragment=2)         17.72     21.66     25.46 
 O(Fragment=2)         16.93     25.93     20.31 
 H(Fragment=2)         16.99     25.34     19.56 
 H(Fragment=2)         17.65     26.55     20.18 
 O(Fragment=2)         14.19     18.73     16.55 
 H(Fragment=2)         14.58     18.58     17.41 
 H(Fragment=2)         13.61     19.48     16.68 
 O(Fragment=2)         16.31     21.77     14.34 
 H(Fragment=2)         15.82     21.24     13.71 
 H(Fragment=2)         16.21     21.3      15.17 
 O(Fragment=2)         15.35     24.23     21.91 
 H(Fragment=2)         15.96     24.07     22.63 
 H(Fragment=2)         15.81     24.84     21.33 
 O(Fragment=2)         21.12     19.3      26.38 
 H(Fragment=2)         21.32     18.73     27.12 
 H(Fragment=2)         20.17     19.23     26.27 
 O(Fragment=2)         15.53     16.28     15.82 
 H(Fragment=2)         15.94     16.47     16.67 
 H(Fragment=2)         15.25     17.13     15.48 
 O(Fragment=2)         16.11     23.19     24.64 
 H(Fragment=2)         15.61     22.65     24.04 
 H(Fragment=2)         15.86     22.88     25.51 
 O(Fragment=2)         18.47     15.6      25.55 
 H(Fragment=2)         19.15     15.72     24.88 
 H(Fragment=2)         18.04     14.77     25.31 
 O(Fragment=2)         18.37     24.5      15.49 
 H(Fragment=2)         17.91     25.34     15.44 
 H(Fragment=2)         18.29     24.14     14.61 
 O(Fragment=2)         16.57     14.39     22.3 
 H(Fragment=2)         16.02     15.11     21.97 
 H(Fragment=2)         16.85     13.92     21.52 
 O(Fragment=2)         20.37     23.86     25.61 
 H(Fragment=2)         20.7      24.74     25.41 
 H(Fragment=2)         21.16     23.32     25.7 
 O(Fragment=2)         17.36     18.04     25.86 
 H(Fragment=2)         17.21     18.17     26.8 
 H(Fragment=2)         17.7      17.15     25.79 
 O(Fragment=2)         14.42     20.82     23.85 
 H(Fragment=2)         14.34     20.57     24.77 
 H(Fragment=2)         13.54     21.08     23.58 
 O(Fragment=2)         13.46     17.66     20.96 
 H(Fragment=2)         13.34     18.1      21.8 
 H(Fragment=2)         12.58     17.45     20.67 
 O(Fragment=2)         24.26     26.16     18.25 
 H(Fragment=2)         24.19     25.26     17.92 
 H(Fragment=2)         24.73     26.08     19.08 
 
 NAtoms=     97 NQM=       97 NQMF=       0 NMMI=      0 NMMIF=      0
                NMic=       0 NMicF=      0.
                    Isotopes and Nuclear Properties:
 (Nuclear quadrupole moments (NQMom) in fm**2, nuclear magnetic moments (NMagM)
  in nuclear magnetons)

  Atom         1           2           3           4           5           6           7           8           9          10
 IAtWgt=          79          16           1           1          16           1           1          16           1           1
 AtmWgt=  78.9183361  15.9949146   1.0078250   1.0078250  15.9949146   1.0078250   1.0078250  15.9949146   1.0078250   1.0078250
 NucSpn=           3           0           1           1           0           1           1           0           1           1
 AtZEff=   0.0000000   0.0000000   0.0000000   0.0000000   0.0000000   0.0000000   0.0000000   0.0000000   0.0000000   0.0000000
 NQMom=   31.3000000   0.0000000   0.0000000   0.0000000   0.0000000   0.0000000   0.0000000   0.0000000   0.0000000   0.0000000
 NMagM=    2.1063990   0.0000000   2.7928460   2.7928460   0.0000000   2.7928460   2.7928460   0.0000000   2.7928460   2.7928460
 AtZNuc=  35.0000000   8.0000000   1.0000000   1.0000000   8.0000000   1.0000000   1.0000000   8.0000000   1.0000000   1.0000000

  Atom        11          12          13          14          15          16          17          18          19          20
 IAtWgt=          16           1           1          16           1           1          16           1           1          16
 AtmWgt=  15.9949146   1.0078250   1.0078250  15.9949146   1.0078250   1.0078250  15.9949146   1.0078250   1.0078250  15.9949146
 NucSpn=           0           1           1           0           1           1           0           1           1           0
 AtZEff=   0.0000000   0.0000000   0.0000000   0.0000000   0.0000000   0.0000000   0.0000000   0.0000000   0.0000000   0.0000000
 NQMom=    0.0000000   0.0000000   0.0000000   0.0000000   0.0000000   0.0000000   0.0000000   0.0000000   0.0000000   0.0000000
 NMagM=    0.0000000   2.7928460   2.7928460   0.0000000   2.7928460   2.7928460   0.0000000   2.7928460   2.7928460   0.0000000
 AtZNuc=   8.0000000   1.0000000   1.0000000   8.0000000   1.0000000   1.0000000   8.0000000   1.0000000   1.0000000   8.0000000

  Atom        21          22          23          24          25          26          27          28          29          30
 IAtWgt=           1           1          16           1           1          16           1           1          16           1
 AtmWgt=   1.0078250   1.0078250  15.9949146   1.0078250   1.0078250  15.9949146   1.0078250   1.0078250  15.9949146   1.0078250
 NucSpn=           1           1           0           1           1           0           1           1           0           1
 AtZEff=   0.0000000   0.0000000   0.0000000   0.0000000   0.0000000   0.0000000   0.0000000   0.0000000   0.0000000   0.0000000
 NQMom=    0.0000000   0.0000000   0.0000000   0.0000000   0.0000000   0.0000000   0.0000000   0.0000000   0.0000000   0.0000000
 NMagM=    2.7928460   2.7928460   0.0000000   2.7928460   2.7928460   0.0000000   2.7928460   2.7928460   0.0000000   2.7928460
 AtZNuc=   1.0000000   1.0000000   8.0000000   1.0000000   1.0000000   8.0000000   1.0000000   1.0000000   8.0000000   1.0000000

  Atom        31          32          33          34          35          36          37          38          39          40
 IAtWgt=           1          16           1           1          16           1           1          16           1           1
 AtmWgt=   1.0078250  15.9949146   1.0078250   1.0078250  15.9949146   1.0078250   1.0078250  15.9949146   1.0078250   1.0078250
 NucSpn=           1           0           1           1           0           1           1           0           1           1
 AtZEff=   0.0000000   0.0000000   0.0000000   0.0000000   0.0000000   0.0000000   0.0000000   0.0000000   0.0000000   0.0000000
 NQMom=    0.0000000   0.0000000   0.0000000   0.0000000   0.0000000   0.0000000   0.0000000   0.0000000   0.0000000   0.0000000
 NMagM=    2.7928460   0.0000000   2.7928460   2.7928460   0.0000000   2.7928460   2.7928460   0.0000000   2.7928460   2.7928460
 AtZNuc=   1.0000000   8.0000000   1.0000000   1.0000000   8.0000000   1.0000000   1.0000000   8.0000000   1.0000000   1.0000000

  Atom        41          42          43          44          45          46          47          48          49          50
 IAtWgt=          16           1           1          16           1           1          16           1           1          16
 AtmWgt=  15.9949146   1.0078250   1.0078250  15.9949146   1.0078250   1.0078250  15.9949146   1.0078250   1.0078250  15.9949146
 NucSpn=           0           1           1           0           1           1           0           1           1           0
 AtZEff=   0.0000000   0.0000000   0.0000000   0.0000000   0.0000000   0.0000000   0.0000000   0.0000000   0.0000000   0.0000000
 NQMom=    0.0000000   0.0000000   0.0000000   0.0000000   0.0000000   0.0000000   0.0000000   0.0000000   0.0000000   0.0000000
 NMagM=    0.0000000   2.7928460   2.7928460   0.0000000   2.7928460   2.7928460   0.0000000   2.7928460   2.7928460   0.0000000
 AtZNuc=   8.0000000   1.0000000   1.0000000   8.0000000   1.0000000   1.0000000   8.0000000   1.0000000   1.0000000   8.0000000

  Atom        51          52          53          54          55          56          57          58          59          60
 IAtWgt=           1           1          16           1           1          16           1           1          16           1
 AtmWgt=   1.0078250   1.0078250  15.9949146   1.0078250   1.0078250  15.9949146   1.0078250   1.0078250  15.9949146   1.0078250
 NucSpn=           1           1           0           1           1           0           1           1           0           1
 AtZEff=   0.0000000   0.0000000   0.0000000   0.0000000   0.0000000   0.0000000   0.0000000   0.0000000   0.0000000   0.0000000
 NQMom=    0.0000000   0.0000000   0.0000000   0.0000000   0.0000000   0.0000000   0.0000000   0.0000000   0.0000000   0.0000000
 NMagM=    2.7928460   2.7928460   0.0000000   2.7928460   2.7928460   0.0000000   2.7928460   2.7928460   0.0000000   2.7928460
 AtZNuc=   1.0000000   1.0000000   8.0000000   1.0000000   1.0000000   8.0000000   1.0000000   1.0000000   8.0000000   1.0000000

  Atom        61          62          63          64          65          66          67          68          69          70
 IAtWgt=           1          16           1           1          16           1           1          16           1           1
 AtmWgt=   1.0078250  15.9949146   1.0078250   1.0078250  15.9949146   1.0078250   1.0078250  15.9949146   1.0078250   1.0078250
 NucSpn=           1           0           1           1           0           1           1           0           1           1
 AtZEff=   0.0000000   0.0000000   0.0000000   0.0000000   0.0000000   0.0000000   0.0000000   0.0000000   0.0000000   0.0000000
 NQMom=    0.0000000   0.0000000   0.0000000   0.0000000   0.0000000   0.0000000   0.0000000   0.0000000   0.0000000   0.0000000
 NMagM=    2.7928460   0.0000000   2.7928460   2.7928460   0.0000000   2.7928460   2.7928460   0.0000000   2.7928460   2.7928460
 AtZNuc=   1.0000000   8.0000000   1.0000000   1.0000000   8.0000000   1.0000000   1.0000000   8.0000000   1.0000000   1.0000000

  Atom        71          72          73          74          75          76          77          78          79          80
 IAtWgt=          16           1           1          16           1           1          16           1           1          16
 AtmWgt=  15.9949146   1.0078250   1.0078250  15.9949146   1.0078250   1.0078250  15.9949146   1.0078250   1.0078250  15.9949146
 NucSpn=           0           1           1           0           1           1           0           1           1           0
 AtZEff=   0.0000000   0.0000000   0.0000000   0.0000000   0.0000000   0.0000000   0.0000000   0.0000000   0.0000000   0.0000000
 NQMom=    0.0000000   0.0000000   0.0000000   0.0000000   0.0000000   0.0000000   0.0000000   0.0000000   0.0000000   0.0000000
 NMagM=    0.0000000   2.7928460   2.7928460   0.0000000   2.7928460   2.7928460   0.0000000   2.7928460   2.7928460   0.0000000
 AtZNuc=   8.0000000   1.0000000   1.0000000   8.0000000   1.0000000   1.0000000   8.0000000   1.0000000   1.0000000   8.0000000

  Atom        81          82          83          84          85          86          87          88          89          90
 IAtWgt=           1           1          16           1           1          16           1           1          16           1
 AtmWgt=   1.0078250   1.0078250  15.9949146   1.0078250   1.0078250  15.9949146   1.0078250   1.0078250  15.9949146   1.0078250
 NucSpn=           1           1           0           1           1           0           1           1           0           1
 AtZEff=   0.0000000   0.0000000   0.0000000   0.0000000   0.0000000   0.0000000   0.0000000   0.0000000   0.0000000   0.0000000
 NQMom=    0.0000000   0.0000000   0.0000000   0.0000000   0.0000000   0.0000000   0.0000000   0.0000000   0.0000000   0.0000000
 NMagM=    2.7928460   2.7928460   0.0000000   2.7928460   2.7928460   0.0000000   2.7928460   2.7928460   0.0000000   2.7928460
 AtZNuc=   1.0000000   1.0000000   8.0000000   1.0000000   1.0000000   8.0000000   1.0000000   1.0000000   8.0000000   1.0000000

  Atom        91          92          93          94          95          96          97
 IAtWgt=           1          16           1           1          16           1           1
 AtmWgt=   1.0078250  15.9949146   1.0078250   1.0078250  15.9949146   1.0078250   1.0078250
 NucSpn=           1           0           1           1           0           1           1
 AtZEff=   0.0000000   0.0000000   0.0000000   0.0000000   0.0000000   0.0000000   0.0000000
 NQMom=    0.0000000   0.0000000   0.0000000   0.0000000   0.0000000   0.0000000   0.0000000
 NMagM=    2.7928460   0.0000000   2.7928460   2.7928460   0.0000000   2.7928460   2.7928460
 AtZNuc=   1.0000000   8.0000000   1.0000000   1.0000000   8.0000000   1.0000000   1.0000000
 Leave Link  101 at Wed May  2 18:24:54 2018, MaxMem= 14763950080 cpu:        12.6
 (Enter /cm/shared/gaussian/g09.e01/intel64-sandybridge/g09/l103.exe)

 GradGradGradGradGradGradGradGradGradGradGradGradGradGradGradGradGradGrad
 Berny optimization.
 Initialization pass.
 Trust Radius=3.00D-01 FncErr=1.00D-07 GrdErr=1.00D-07
 Number of steps in this run=      2 maximum allowed number of steps=      2.
 GradGradGradGradGradGradGradGradGradGradGradGradGradGradGradGradGradGrad

 Leave Link  103 at Wed May  2 18:24:54 2018, MaxMem= 14763950080 cpu:         1.7
 (Enter /cm/shared/gaussian/g09.e01/intel64-sandybridge/g09/l202.exe)
 Symmetry turned off by external request.
 Stoichiometry    BrH64O32(1-)
 Framework group  C1[X(BrH64O32)]
 Deg. of freedom   285
 Full point group                 C1      NOp   1
                          Input orientation:                          
 ---------------------------------------------------------------------
 Center     Atomic      Atomic             Coordinates (Angstroms)
 Number     Number       Type             X           Y           Z
 ---------------------------------------------------------------------
      1         35           0       20.000000   20.000000   20.000000
      2          8           0       18.000000   17.480000   20.340000
      3          1           0       18.580000   18.170000   20.020000
      4          1           0       17.910000   17.660000   21.270000
      5          8           0       18.930000   22.940000   20.810000
      6          1           0       18.160000   22.500000   21.160000
      7          1           0       19.510000   22.230000   20.530000
      8          8           0       21.690000   22.420000   21.800000
      9          1           0       20.980000   22.080000   21.250000
     10          1           0       22.060000   21.640000   22.210000
     11          8           0       20.220000   21.000000   16.700000
     12          1           0       20.520000   21.140000   17.600000
     13          1           0       19.470000   20.410000   16.790000
     14          8           0       15.650000   20.340000   21.000000
     15          1           0       16.510000   20.580000   21.370000
     16          1           0       15.200000   19.890000   21.720000
     17          8           0       15.450000   17.920000   18.980000
     18          1           0       16.390000   17.910000   19.130000
     19          1           0       15.070000   17.700000   19.830000
     20          8           0       19.990000   16.050000   23.380000
     21          1           0       19.150000   16.270000   22.990000
     22          1           0       20.530000   16.830000   23.230000
     23          8           0       22.470000   24.670000   20.370000
     24          1           0       21.870000   24.590000   19.630000
     25          1           0       22.390000   23.840000   20.840000
     26          8           0       17.240000   17.930000   23.290000
     27          1           0       16.350000   18.010000   22.940000
     28          1           0       17.110000   17.830000   24.240000
     29          8           0       19.280000   25.390000   22.120000
     30          1           0       19.610000   24.650000   21.600000
     31          1           0       18.400000   25.120000   22.400000
     32          8           0       26.060000   19.790000   19.310000
     33          1           0       25.880000   19.030000   18.760000
     34          1           0       25.220000   19.980000   19.730000
     35          8           0       17.150000   24.540000   18.000000
     36          1           0       16.490000   24.660000   17.330000
     37          1           0       17.970000   24.480000   17.520000
     38          8           0       14.520000   23.100000   19.550000
     39          1           0       15.190000   23.780000   19.530000
     40          1           0       14.940000   22.350000   19.970000
     41          8           0       14.950000   21.550000   16.630000
     42          1           0       14.000000   21.630000   16.720000
     43          1           0       15.300000   21.920000   17.440000
     44          8           0       20.600000   21.290000   13.620000
     45          1           0       19.790000   20.820000   13.810000
     46          1           0       20.970000   21.490000   14.480000
     47          8           0       22.690000   21.740000   25.260000
     48          1           0       22.430000   20.850000   25.510000
     49          1           0       23.570000   21.640000   24.910000
     50          8           0       18.330000   21.980000   26.130000
     51          1           0       18.970000   22.500000   25.630000
     52          1           0       17.720000   21.660000   25.460000
     53          8           0       16.930000   25.930000   20.310000
     54          1           0       16.990000   25.340000   19.560000
     55          1           0       17.650000   26.550000   20.180000
     56          8           0       14.190000   18.730000   16.550000
     57          1           0       14.580000   18.580000   17.410000
     58          1           0       13.610000   19.480000   16.680000
     59          8           0       16.310000   21.770000   14.340000
     60          1           0       15.820000   21.240000   13.710000
     61          1           0       16.210000   21.300000   15.170000
     62          8           0       15.350000   24.230000   21.910000
     63          1           0       15.960000   24.070000   22.630000
     64          1           0       15.810000   24.840000   21.330000
     65          8           0       21.120000   19.300000   26.380000
     66          1           0       21.320000   18.730000   27.120000
     67          1           0       20.170000   19.230000   26.270000
     68          8           0       15.530000   16.280000   15.820000
     69          1           0       15.940000   16.470000   16.670000
     70          1           0       15.250000   17.130000   15.480000
     71          8           0       16.110000   23.190000   24.640000
     72          1           0       15.610000   22.650000   24.040000
     73          1           0       15.860000   22.880000   25.510000
     74          8           0       18.470000   15.600000   25.550000
     75          1           0       19.150000   15.720000   24.880000
     76          1           0       18.040000   14.770000   25.310000
     77          8           0       18.370000   24.500000   15.490000
     78          1           0       17.910000   25.340000   15.440000
     79          1           0       18.290000   24.140000   14.610000
     80          8           0       16.570000   14.390000   22.300000
     81          1           0       16.020000   15.110000   21.970000
     82          1           0       16.850000   13.920000   21.520000
     83          8           0       20.370000   23.860000   25.610000
     84          1           0       20.700000   24.740000   25.410000
     85          1           0       21.160000   23.320000   25.700000
     86          8           0       17.360000   18.040000   25.860000
     87          1           0       17.210000   18.170000   26.800000
     88          1           0       17.700000   17.150000   25.790000
     89          8           0       14.420000   20.820000   23.850000
     90          1           0       14.340000   20.570000   24.770000
     91          1           0       13.540000   21.080000   23.580000
     92          8           0       13.460000   17.660000   20.960000
     93          1           0       13.340000   18.100000   21.800000
     94          1           0       12.580000   17.450000   20.670000
     95          8           0       24.260000   26.160000   18.250000
     96          1           0       24.190000   25.260000   17.920000
     97          1           0       24.730000   26.080000   19.080000
 ---------------------------------------------------------------------
 Rotational constants (GHZ):      0.0457766      0.0417077      0.0340843
 Leave Link  202 at Wed May  2 18:24:54 2018, MaxMem= 14763950080 cpu:         0.5
 (Enter /cm/shared/gaussian/g09.e01/intel64-sandybridge/g09/l122.exe)
 Counterpoise: doing full dimer calculation.
 Leave Link  122 at Wed May  2 18:24:54 2018, MaxMem= 14763950080 cpu:         0.0
 (Enter /cm/shared/gaussian/g09.e01/intel64-sandybridge/g09/l301.exe)
 Standard basis: CC-pVDZ (5D, 7F)
 Ernie: Thresh=  0.10000D-02 Tol=  0.10000D-05 Strict=F.
 Ernie:  87 primitive shells out of 1114 were deleted.
   795 basis functions,  1651 primitive gaussians,   829 cartesian basis functions
   178 alpha electrons      178 beta electrons
       nuclear repulsion energy      5365.6590335588 Hartrees.
 IExCor= 1009 DFT=T Ex+Corr=PBE1PBE ExCW=0 ScaHFX=  0.250000
 ScaDFX=  0.750000  0.750000  1.000000  1.000000 ScalE2=  1.000000  1.000000
 IRadAn=      0 IRanWt=     -1 IRanGd=            0 ICorTp=0 IEmpDi=  4
 NAtoms=   97 NActive=   97 NUniq=   97 SFac= 1.00D+00 NAtFMM=   60 NAOKFM=T Big=T
 Integral buffers will be    131072 words long.
 Raffenetti 2 integral format.
 Two-electron integral symmetry is turned off.
 Leave Link  301 at Wed May  2 18:24:54 2018, MaxMem= 14763950080 cpu:         4.3
 (Enter /cm/shared/gaussian/g09.e01/intel64-sandybridge/g09/l302.exe)
 NPDir=0 NMtPBC=     1 NCelOv=     1 NCel=       1 NClECP=     1 NCelD=      1
         NCelK=      1 NCelE2=     1 NClLst=     1 CellRange=     0.0.
 One-electron integrals computed using PRISM.
 NBasis=   795 RedAO= T EigKep=  1.86D-02  NBF=   795
 NBsUse=   795 1.00D-06 EigRej= -1.00D+00 NBFU=   795
 Precomputing XC quadrature grid using
 IXCGrd= 4 IRadAn=           0 IRanWt=          -1 IRanGd=           0 AccXCQ= 0.00D+00.
 Generated NRdTot=       0 NPtTot=           0 NUsed=           0 NTot=          32
 NSgBfM=   638   638   638   638   642 MxSgAt=    97 MxSgA2=    97.
 Leave Link  302 at Wed May  2 18:25:00 2018, MaxMem= 14763950080 cpu:       381.6
 (Enter /cm/shared/gaussian/g09.e01/intel64-sandybridge/g09/l303.exe)
 DipDrv:  MaxL=1.
 Leave Link  303 at Wed May  2 18:25:01 2018, MaxMem= 14763950080 cpu:        26.8
 (Enter /cm/shared/gaussian/g09.e01/intel64-sandybridge/g09/l401.exe)
 ExpMin= 1.22D-01 ExpMax= 6.40D+05 ExpMxC= 6.18D+03 IAcc=2 IRadAn=         4 AccDes= 0.00D+00
 Harris functional with IExCor= 1009 and IRadAn=       4 diagonalized for initial guess.
 HarFok:  IExCor= 1009 AccDes= 0.00D+00 IRadAn=         4 IDoV= 1 UseB2=F ITyADJ=14
 ICtDFT=  3500011 ScaDFX=  1.000000  1.000000  1.000000  1.000000
 FoFCou: FMM=F IPFlag=           0 FMFlag=      100000 FMFlg1=        2001
         NFxFlg=           0 DoJE=T BraDBF=F KetDBF=T FulRan=T
         wScrn=  0.000000 ICntrl=     500 IOpCl=  0 I1Cent=   200000004 NGrid=           0
         NMat0=    1 NMatS0=      1 NMatT0=    0 NMatD0=    1 NMtDS0=    0 NMtDT0=    0
 Symmetry not used in FoFCou.
 Harris En= -5018.43519767890    
 JPrj=0 DoOrth=F DoCkMO=F.
 Leave Link  401 at Wed May  2 18:25:05 2018, MaxMem= 14763950080 cpu:       292.3
 (Enter /cm/shared/gaussian/g09.e01/intel64-sandybridge/g09/l502.exe)
 Closed shell SCF:
 Using DIIS extrapolation, IDIIS=  1040.
 Two-electron integral symmetry not used.
 IVT=     2138497 IEndB=     2138497 NGot= 14763950080 MDV= 14762516294
 LenX= 14762516294 LenY= 14761828224
 Requested convergence on RMS density matrix=1.00D-08 within 128 cycles.
 Requested convergence on MAX density matrix=1.00D-06.
 Requested convergence on             energy=1.00D-06.
 No special actions if energy rises.
 Fock matrices will be formed incrementally for  20 cycles.
 Integral accuracy reduced to 1.0D-05 until final iterations.

 Cycle   1  Pass 0  IDiag  1:
 FoFJK:  IHMeth= 1 ICntrl=       0 DoSepK=F KAlg= 0 I1Cent=   0 FoldK=F
 IRaf= 660000000 NMat=   1 IRICut=       1 DoRegI=T DoRafI=F ISym2E= 0.
 FoFCou: FMM=T IPFlag=           0 FMFlag=      100000 FMFlg1=        2001
         NFxFlg=           0 DoJE=F BraDBF=F KetDBF=F FulRan=T
         wScrn=  0.000000 ICntrl=       0 IOpCl=  0 I1Cent=           0 NGrid=           0
         NMat0=    1 NMatS0=      1 NMatT0=    0 NMatD0=    1 NMtDS0=    0 NMtDT0=    0
 Symmetry not used in FoFCou.
 FMM levels:  10  Number of levels for PrismC:   9
 E= -5015.08906965676    
 DIIS: error= 5.52D-02 at cycle   1 NSaved=   1.
 NSaved= 1 IEnMin= 1 EnMin= -5015.08906965676     IErMin= 1 ErrMin= 5.52D-02
 ErrMax= 5.52D-02  0.00D+00 EMaxC= 1.00D-01 BMatC= 2.83D+00 BMatP= 2.83D+00
 IDIUse=3 WtCom= 4.48D-01 WtEn= 5.52D-01
 Coeff-Com:  0.100D+01
 Coeff-En:   0.100D+01
 Coeff:      0.100D+01
 Gap=     0.232 Goal=   None    Shift=    0.000
 GapD=    0.232 DampG=1.000 DampE=0.500 DampFc=0.5000 IDamp=-1.
 Damping current iteration by 5.00D-01
 RMSDP=2.88D-03 MaxDP=1.56D-01              OVMax= 1.81D-01

 Cycle   2  Pass 0  IDiag  1:
 RMSU=  1.43D-03    CP:  9.85D-01
 E= -5015.91780961117     Delta-E=       -0.828739954415 Rises=F Damp=T
 DIIS: error= 1.18D-02 at cycle   2 NSaved=   2.
 NSaved= 2 IEnMin= 2 EnMin= -5015.91780961117     IErMin= 2 ErrMin= 1.18D-02
 ErrMax= 1.18D-02  0.00D+00 EMaxC= 1.00D-01 BMatC= 9.27D-02 BMatP= 2.83D+00
 IDIUse=3 WtCom= 8.82D-01 WtEn= 1.18D-01
 Coeff-Com:  0.123D+00 0.877D+00
 Coeff-En:   0.217D+00 0.783D+00
 Coeff:      0.134D+00 0.866D+00
 Gap=     0.203 Goal=   None    Shift=    0.000
 RMSDP=3.35D-04 MaxDP=1.78D-02 DE=-8.29D-01 OVMax= 1.02D-01

 Cycle   3  Pass 0  IDiag  1:
 RMSU=  2.66D-04    CP:  9.87D-01  8.59D-01
 E= -5017.12994208051     Delta-E=       -1.212132469336 Rises=F Damp=F
 DIIS: error= 1.35D-03 at cycle   3 NSaved=   3.
 NSaved= 3 IEnMin= 3 EnMin= -5017.12994208051     IErMin= 3 ErrMin= 1.35D-03
 ErrMax= 1.35D-03  0.00D+00 EMaxC= 1.00D-01 BMatC= 1.61D-03 BMatP= 9.27D-02
 IDIUse=3 WtCom= 9.87D-01 WtEn= 1.35D-02
 Coeff-Com:  0.141D-01 0.447D-01 0.941D+00
 Coeff-En:   0.000D+00 0.000D+00 0.100D+01
 Coeff:      0.139D-01 0.441D-01 0.942D+00
 Gap=     0.192 Goal=   None    Shift=    0.000
 RMSDP=8.24D-05 MaxDP=1.39D-02 DE=-1.21D+00 OVMax= 1.75D-02

 Cycle   4  Pass 0  IDiag  1:
 RMSU=  7.46D-05    CP:  9.87D-01  8.51D-01  8.74D-01
 E= -5017.13029796214     Delta-E=       -0.000355881632 Rises=F Damp=F
 DIIS: error= 1.17D-03 at cycle   4 NSaved=   4.
 NSaved= 4 IEnMin= 4 EnMin= -5017.13029796214     IErMin= 4 ErrMin= 1.17D-03
 ErrMax= 1.17D-03  0.00D+00 EMaxC= 1.00D-01 BMatC= 1.45D-03 BMatP= 1.61D-03
 IDIUse=3 WtCom= 9.88D-01 WtEn= 1.17D-02
 Coeff-Com:  0.522D-02 0.738D-03 0.501D+00 0.493D+00
 Coeff-En:   0.000D+00 0.000D+00 0.425D+00 0.575D+00
 Coeff:      0.516D-02 0.729D-03 0.500D+00 0.494D+00
 Gap=     0.185 Goal=   None    Shift=    0.000
 RMSDP=3.63D-05 MaxDP=4.97D-03 DE=-3.56D-04 OVMax= 5.92D-03

 Cycle   5  Pass 0  IDiag  1:
 RMSU=  1.40D-05    CP:  9.87D-01  8.50D-01  9.27D-01  5.94D-01
 E= -5017.13141090194     Delta-E=       -0.001112939801 Rises=F Damp=F
 DIIS: error= 1.29D-04 at cycle   5 NSaved=   5.
 NSaved= 5 IEnMin= 5 EnMin= -5017.13141090194     IErMin= 5 ErrMin= 1.29D-04
 ErrMax= 1.29D-04  0.00D+00 EMaxC= 1.00D-01 BMatC= 2.40D-05 BMatP= 1.45D-03
 IDIUse=3 WtCom= 9.99D-01 WtEn= 1.29D-03
 Coeff-Com:  0.144D-02-0.310D-02 0.118D+00 0.157D+00 0.727D+00
 Coeff-En:   0.000D+00 0.000D+00 0.000D+00 0.000D+00 0.100D+01
 Coeff:      0.143D-02-0.309D-02 0.117D+00 0.157D+00 0.728D+00
 Gap=     0.183 Goal=   None    Shift=    0.000
 RMSDP=6.73D-06 MaxDP=1.21D-03 DE=-1.11D-03 OVMax= 1.32D-03

 Cycle   6  Pass 0  IDiag  1:
 RMSU=  4.73D-06    CP:  9.87D-01  8.50D-01  9.35D-01  5.73D-01  7.22D-01
 E= -5017.13142793541     Delta-E=       -0.000017033472 Rises=F Damp=F
 DIIS: error= 1.27D-04 at cycle   6 NSaved=   6.
 NSaved= 6 IEnMin= 6 EnMin= -5017.13142793541     IErMin= 6 ErrMin= 1.27D-04
 ErrMax= 1.27D-04  0.00D+00 EMaxC= 1.00D-01 BMatC= 2.93D-06 BMatP= 2.40D-05
 IDIUse=3 WtCom= 9.99D-01 WtEn= 1.27D-03
 Coeff-Com:  0.365D-03-0.217D-02 0.278D-01 0.402D-01 0.300D+00 0.634D+00
 Coeff-En:   0.000D+00 0.000D+00 0.000D+00 0.000D+00 0.000D+00 0.100D+01
 Coeff:      0.364D-03-0.216D-02 0.277D-01 0.402D-01 0.300D+00 0.634D+00
 Gap=     0.183 Goal=   None    Shift=    0.000
 RMSDP=2.27D-06 MaxDP=4.90D-04 DE=-1.70D-05 OVMax= 4.64D-04

 Initial convergence to 1.0D-05 achieved.  Increase integral accuracy.
 Cycle   7  Pass 1  IDiag  1:
 E= -5017.13206100430     Delta-E=       -0.000633068888 Rises=F Damp=F
 DIIS: error= 3.44D-05 at cycle   1 NSaved=   1.
 NSaved= 1 IEnMin= 1 EnMin= -5017.13206100430     IErMin= 1 ErrMin= 3.44D-05
 ErrMax= 3.44D-05  0.00D+00 EMaxC= 1.00D-01 BMatC= 7.14D-07 BMatP= 7.14D-07
 IDIUse=1 WtCom= 1.00D+00 WtEn= 0.00D+00
 Coeff-Com:  0.100D+01
 Coeff:      0.100D+01
 Gap=     0.183 Goal=   None    Shift=    0.000
 RMSDP=2.27D-06 MaxDP=4.90D-04 DE=-6.33D-04 OVMax= 2.70D-04

 Cycle   8  Pass 1  IDiag  1:
 RMSU=  3.16D-06    CP:  1.00D+00
 E= -5017.13206178728     Delta-E=       -0.000000782977 Rises=F Damp=F
 DIIS: error= 1.14D-05 at cycle   2 NSaved=   2.
 NSaved= 2 IEnMin= 2 EnMin= -5017.13206178728     IErMin= 2 ErrMin= 1.14D-05
 ErrMax= 1.14D-05  0.00D+00 EMaxC= 1.00D-01 BMatC= 1.18D-07 BMatP= 7.14D-07
 IDIUse=1 WtCom= 1.00D+00 WtEn= 0.00D+00
 Coeff-Com:  0.203D+00 0.797D+00
 Coeff:      0.203D+00 0.797D+00
 Gap=     0.183 Goal=   None    Shift=    0.000
 RMSDP=5.44D-07 MaxDP=7.19D-05 DE=-7.83D-07 OVMax= 8.60D-05

 Cycle   9  Pass 1  IDiag  1:
 RMSU=  5.43D-07    CP:  1.00D+00  9.89D-01
 E= -5017.13206182399     Delta-E=       -0.000000036716 Rises=F Damp=F
 DIIS: error= 8.58D-06 at cycle   3 NSaved=   3.
 NSaved= 3 IEnMin= 3 EnMin= -5017.13206182399     IErMin= 3 ErrMin= 8.58D-06
 ErrMax= 8.58D-06  0.00D+00 EMaxC= 1.00D-01 BMatC= 7.61D-08 BMatP= 1.18D-07
 IDIUse=1 WtCom= 1.00D+00 WtEn= 0.00D+00
 Coeff-Com: -0.566D-02 0.445D+00 0.561D+00
 Coeff:     -0.566D-02 0.445D+00 0.561D+00
 Gap=     0.183 Goal=   None    Shift=    0.000
 RMSDP=2.20D-07 MaxDP=2.16D-05 DE=-3.67D-08 OVMax= 2.31D-05

 Cycle  10  Pass 1  IDiag  1:
 RMSU=  8.12D-08    CP:  1.00D+00  1.01D+00  6.39D-01
 E= -5017.13206187881     Delta-E=       -0.000000054823 Rises=F Damp=F
 DIIS: error= 1.79D-06 at cycle   4 NSaved=   4.
 NSaved= 4 IEnMin= 4 EnMin= -5017.13206187881     IErMin= 4 ErrMin= 1.79D-06
 ErrMax= 1.79D-06  0.00D+00 EMaxC= 1.00D-01 BMatC= 6.97D-10 BMatP= 7.61D-08
 IDIUse=1 WtCom= 1.00D+00 WtEn= 0.00D+00
 Coeff-Com: -0.504D-02 0.193D+00 0.255D+00 0.558D+00
 Coeff:     -0.504D-02 0.193D+00 0.255D+00 0.558D+00
 Gap=     0.183 Goal=   None    Shift=    0.000
 RMSDP=3.83D-08 MaxDP=8.03D-06 DE=-5.48D-08 OVMax= 8.84D-06

 Cycle  11  Pass 1  IDiag  1:
 RMSU=  2.08D-08    CP:  1.00D+00  1.01D+00  6.17D-01  6.44D-01
 E= -5017.13206187954     Delta-E=       -0.000000000724 Rises=F Damp=F
 DIIS: error= 1.10D-07 at cycle   5 NSaved=   5.
 NSaved= 5 IEnMin= 5 EnMin= -5017.13206187954     IErMin= 5 ErrMin= 1.10D-07
 ErrMax= 1.10D-07  0.00D+00 EMaxC= 1.00D-01 BMatC= 1.15D-11 BMatP= 6.97D-10
 IDIUse=1 WtCom= 1.00D+00 WtEn= 0.00D+00
 Coeff-Com: -0.107D-02 0.302D-01 0.402D-01 0.140D+00 0.791D+00
 Coeff:     -0.107D-02 0.302D-01 0.402D-01 0.140D+00 0.791D+00
 Gap=     0.183 Goal=   None    Shift=    0.000
 RMSDP=4.81D-09 MaxDP=6.56D-07 DE=-7.24D-10 OVMax= 6.04D-07

 SCF Done:  E(RPBE1PBE) =  -5017.13206188     A.U. after   11 cycles
            NFock= 11  Conv=0.48D-08     -V/T= 2.0028
 KE= 5.002929817682D+03 PE=-2.270178548081D+04 EE= 7.316064567690D+03
 Leave Link  502 at Wed May  2 18:26:32 2018, MaxMem= 14763950080 cpu:      5500.0
 (Enter /cm/shared/gaussian/g09.e01/intel64-sandybridge/g09/l601.exe)
 Copying SCF densities to generalized density rwf, IOpCl= 0 IROHF=0.

 **********************************************************************

            Population analysis using the SCF density.

 **********************************************************************

 Alpha  occ. eigenvalues -- -483.09227 -62.49484 -56.26749 -56.26714 -56.26705
 Alpha  occ. eigenvalues --  -19.19726 -19.18378 -19.16004 -19.15508 -19.15460
 Alpha  occ. eigenvalues --  -19.15179 -19.14650 -19.14219 -19.14070 -19.13767
 Alpha  occ. eigenvalues --  -19.13738 -19.13168 -19.13116 -19.12768 -19.12697
 Alpha  occ. eigenvalues --  -19.10487 -19.10438 -19.10296 -19.10062 -19.09924
 Alpha  occ. eigenvalues --  -19.09865 -19.09731 -19.09525 -19.09419 -19.09169
 Alpha  occ. eigenvalues --  -19.08737 -19.08675 -19.08589 -19.08417 -19.08187
 Alpha  occ. eigenvalues --  -19.07004 -19.05855  -8.59736  -6.40166  -6.40002
 Alpha  occ. eigenvalues --   -6.39970  -2.48418  -2.48378  -2.48352  -2.48219
 Alpha  occ. eigenvalues --   -2.48217  -1.01964  -1.01034  -0.99490  -0.98670
 Alpha  occ. eigenvalues --   -0.97509  -0.97403  -0.97148  -0.96950  -0.96286
 Alpha  occ. eigenvalues --   -0.95962  -0.95860  -0.95558  -0.95536  -0.95364
 Alpha  occ. eigenvalues --   -0.95276  -0.93332  -0.92841  -0.92831  -0.92797
 Alpha  occ. eigenvalues --   -0.92660  -0.92451  -0.92398  -0.92119  -0.91887
 Alpha  occ. eigenvalues --   -0.91588  -0.91346  -0.90919  -0.90817  -0.90724
 Alpha  occ. eigenvalues --   -0.90471  -0.89569  -0.87988  -0.58758  -0.52458
 Alpha  occ. eigenvalues --   -0.51547  -0.51307  -0.49523  -0.47948  -0.47697
 Alpha  occ. eigenvalues --   -0.47685  -0.47634  -0.47014  -0.46721  -0.46236
 Alpha  occ. eigenvalues --   -0.46065  -0.45938  -0.45923  -0.45890  -0.45153
 Alpha  occ. eigenvalues --   -0.44648  -0.43985  -0.43665  -0.43412  -0.43016
 Alpha  occ. eigenvalues --   -0.42932  -0.42729  -0.42595  -0.41984  -0.41951
 Alpha  occ. eigenvalues --   -0.41689  -0.41500  -0.41488  -0.41281  -0.40598
 Alpha  occ. eigenvalues --   -0.39069  -0.38001  -0.37850  -0.36581  -0.35009
 Alpha  occ. eigenvalues --   -0.34879  -0.34266  -0.33708  -0.33056  -0.32876
 Alpha  occ. eigenvalues --   -0.32402  -0.32201  -0.31933  -0.31867  -0.31668
 Alpha  occ. eigenvalues --   -0.31287  -0.30951  -0.30623  -0.29881  -0.29613
 Alpha  occ. eigenvalues --   -0.29567  -0.29304  -0.29085  -0.28922  -0.28849
 Alpha  occ. eigenvalues --   -0.28771  -0.28742  -0.27852  -0.27743  -0.27220
 Alpha  occ. eigenvalues --   -0.27123  -0.26889  -0.26498  -0.26420  -0.26194
 Alpha  occ. eigenvalues --   -0.25954  -0.25668  -0.25493  -0.25289  -0.24982
 Alpha  occ. eigenvalues --   -0.24536  -0.24313  -0.24109  -0.24058  -0.23964
 Alpha  occ. eigenvalues --   -0.23855  -0.23791  -0.23425  -0.21676  -0.21453
 Alpha  occ. eigenvalues --   -0.21067  -0.21000  -0.20840  -0.20819  -0.20735
 Alpha  occ. eigenvalues --   -0.20260  -0.20111  -0.19790  -0.19701  -0.19373
 Alpha  occ. eigenvalues --   -0.19371  -0.18898  -0.18833  -0.17987  -0.16462
 Alpha  occ. eigenvalues --   -0.14623  -0.13735  -0.13569
 Alpha virt. eigenvalues --    0.04742   0.08774   0.08906   0.10186   0.11221
 Alpha virt. eigenvalues --    0.11958   0.12894   0.13219   0.13883   0.13996
 Alpha virt. eigenvalues --    0.14101   0.14657   0.15028   0.15433   0.15724
 Alpha virt. eigenvalues --    0.16549   0.16842   0.17130   0.17849   0.18356
 Alpha virt. eigenvalues --    0.18438   0.18723   0.19219   0.19538   0.20625
 Alpha virt. eigenvalues --    0.20733   0.21007   0.21500   0.21895   0.22181
 Alpha virt. eigenvalues --    0.22501   0.22658   0.23286   0.23737   0.23775
 Alpha virt. eigenvalues --    0.24198   0.24358   0.25012   0.25302   0.25705
 Alpha virt. eigenvalues --    0.26184   0.26301   0.26685   0.26805   0.27558
 Alpha virt. eigenvalues --    0.28473   0.29201   0.29358   0.29653   0.30729
 Alpha virt. eigenvalues --    0.31488   0.31761   0.32312   0.32888   0.33129
 Alpha virt. eigenvalues --    0.33677   0.34524   0.35083   0.36471   0.36815
 Alpha virt. eigenvalues --    0.36977   0.37594   0.39128   0.39684   0.56285
 Alpha virt. eigenvalues --    0.57058   0.60107   0.60869   0.61890   0.62194
 Alpha virt. eigenvalues --    0.62460   0.62886   0.63212   0.63832   0.64303
 Alpha virt. eigenvalues --    0.64435   0.64848   0.64856   0.65286   0.65506
 Alpha virt. eigenvalues --    0.65747   0.65938   0.66073   0.66527   0.66732
 Alpha virt. eigenvalues --    0.66891   0.67107   0.67484   0.67801   0.67900
 Alpha virt. eigenvalues --    0.68178   0.68446   0.68831   0.68929   0.69407
 Alpha virt. eigenvalues --    0.69572   0.69853   0.70309   0.70624   0.70705
 Alpha virt. eigenvalues --    0.71123   0.71266   0.71448   0.71855   0.72146
 Alpha virt. eigenvalues --    0.72355   0.72524   0.72913   0.73131   0.73464
 Alpha virt. eigenvalues --    0.73796   0.74002   0.74225   0.74370   0.74580
 Alpha virt. eigenvalues --    0.74936   0.75214   0.75314   0.75776   0.76123
 Alpha virt. eigenvalues --    0.76480   0.76854   0.77167   0.77390   0.78050
 Alpha virt. eigenvalues --    0.78677   0.78773   0.79918   0.80321   0.81101
 Alpha virt. eigenvalues --    0.82260   0.82989   0.83818   0.84502   0.86097
 Alpha virt. eigenvalues --    0.86633   0.90012   0.91313   0.92524   0.92679
 Alpha virt. eigenvalues --    0.93681   0.95210   0.95802   0.95880   0.96105
 Alpha virt. eigenvalues --    0.96765   0.97185   0.97486   0.98140   0.98437
 Alpha virt. eigenvalues --    0.98642   0.98683   0.98777   0.99088   0.99128
 Alpha virt. eigenvalues --    0.99197   0.99479   0.99880   1.00534   1.00539
 Alpha virt. eigenvalues --    1.00949   1.01296   1.01314   1.01648   1.01891
 Alpha virt. eigenvalues --    1.02321   1.02860   1.03023   1.03318   1.03771
 Alpha virt. eigenvalues --    1.03905   1.04325   1.04603   1.04874   1.05108
 Alpha virt. eigenvalues --    1.05367   1.05628   1.05705   1.06280   1.06926
 Alpha virt. eigenvalues --    1.07095   1.07220   1.07531   1.07577   1.08039
 Alpha virt. eigenvalues --    1.08175   1.08508   1.08563   1.08640   1.08836
 Alpha virt. eigenvalues --    1.09380   1.09646   1.09875   1.10353   1.10477
 Alpha virt. eigenvalues --    1.10798   1.11310   1.11729   1.11983   1.12018
 Alpha virt. eigenvalues --    1.12173   1.12482   1.12884   1.13414   1.13582
 Alpha virt. eigenvalues --    1.14175   1.14506   1.14606   1.14732   1.15084
 Alpha virt. eigenvalues --    1.15618   1.15946   1.16405   1.17354   1.17961
 Alpha virt. eigenvalues --    1.18460   1.18734   1.19163   1.19504   1.19906
 Alpha virt. eigenvalues --    1.20241   1.20440   1.20736   1.20867   1.21453
 Alpha virt. eigenvalues --    1.22417   1.23241   1.23737   1.23990   1.24255
 Alpha virt. eigenvalues --    1.25238   1.25568   1.25809   1.26181   1.26342
 Alpha virt. eigenvalues --    1.27545   1.27891   1.28095   1.28265   1.28967
 Alpha virt. eigenvalues --    1.29024   1.29645   1.29755   1.29929   1.30229
 Alpha virt. eigenvalues --    1.30808   1.30999   1.31071   1.31354   1.31388
 Alpha virt. eigenvalues --    1.31666   1.32144   1.32265   1.32295   1.32469
 Alpha virt. eigenvalues --    1.32541   1.32724   1.33381   1.33477   1.33825
 Alpha virt. eigenvalues --    1.34058   1.34489   1.34669   1.35255   1.35449
 Alpha virt. eigenvalues --    1.35620   1.35820   1.36407   1.36541   1.36994
 Alpha virt. eigenvalues --    1.37281   1.37579   1.37980   1.38246   1.38539
 Alpha virt. eigenvalues --    1.39157   1.39528   1.39859   1.40192   1.41091
 Alpha virt. eigenvalues --    1.41512   1.42135   1.42371   1.42657   1.43193
 Alpha virt. eigenvalues --    1.43965   1.44224   1.44346   1.44550   1.46155
 Alpha virt. eigenvalues --    1.46249   1.46629   1.46936   1.47214   1.48019
 Alpha virt. eigenvalues --    1.49107   1.49292   1.49494   1.50203   1.50578
 Alpha virt. eigenvalues --    1.50649   1.50868   1.51585   1.51873   1.52319
 Alpha virt. eigenvalues --    1.53144   1.53572   1.53618   1.54238   1.54696
 Alpha virt. eigenvalues --    1.54707   1.55562   1.55701   1.56024   1.56114
 Alpha virt. eigenvalues --    1.56321   1.56727   1.58252   1.58798   1.59171
 Alpha virt. eigenvalues --    1.59359   1.60203   1.60355   1.60583   1.60952
 Alpha virt. eigenvalues --    1.61511   1.61823   1.63581   1.64535   1.65266
 Alpha virt. eigenvalues --    1.67336   1.67423   1.67849   1.69168   1.69738
 Alpha virt. eigenvalues --    1.70201   1.70773   1.71074   1.71087   1.72035
 Alpha virt. eigenvalues --    1.72543   1.73770   1.73978   1.74326   1.74524
 Alpha virt. eigenvalues --    1.75033   1.75327   1.75628   1.75745   1.75798
 Alpha virt. eigenvalues --    1.76222   1.76553   1.76971   1.77137   1.77486
 Alpha virt. eigenvalues --    1.77708   1.77814   1.78221   1.78678   1.79561
 Alpha virt. eigenvalues --    1.79851   1.80142   1.80339   1.80473   1.80664
 Alpha virt. eigenvalues --    1.80682   1.81418   1.81958   1.82132   1.82842
 Alpha virt. eigenvalues --    1.83046   1.83714   1.84307   1.84437   1.84706
 Alpha virt. eigenvalues --    1.84843   1.85408   1.86533   1.87969   1.88589
 Alpha virt. eigenvalues --    1.88798   1.89648   1.90632   1.91414   1.92018
 Alpha virt. eigenvalues --    1.92430   1.92936   1.93315   1.93595   1.94837
 Alpha virt. eigenvalues --    1.98790   2.03539   2.03783   2.15797   2.17406
 Alpha virt. eigenvalues --    2.18013   2.18567   2.18761   2.19707   2.19971
 Alpha virt. eigenvalues --    2.20462   2.20672   2.21011   2.21188   2.21241
 Alpha virt. eigenvalues --    2.21796   2.22099   2.22495   2.23227   2.23277
 Alpha virt. eigenvalues --    2.23508   2.23745   2.23777   2.24056   2.24487
 Alpha virt. eigenvalues --    2.24768   2.24857   2.25030   2.25263   2.25669
 Alpha virt. eigenvalues --    2.25705   2.26092   2.26335   2.26641   2.26736
 Alpha virt. eigenvalues --    2.27146   2.27246   2.27356   2.27489   2.28307
 Alpha virt. eigenvalues --    2.28721   2.29209   2.29572   2.29599   2.29745
 Alpha virt. eigenvalues --    2.30252   2.30541   2.30679   2.30899   2.31584
 Alpha virt. eigenvalues --    2.32758   2.32815   2.33852   2.34355   2.34535
 Alpha virt. eigenvalues --    2.37040   2.39699   2.42449   2.43281   2.43533
 Alpha virt. eigenvalues --    2.44417   2.51318   2.51561   2.51966   2.53615
 Alpha virt. eigenvalues --    2.58429   2.59398   2.93971   2.95205   2.97148
 Alpha virt. eigenvalues --    2.97661   2.97965   2.98518   2.98632   2.99405
 Alpha virt. eigenvalues --    2.99420   2.99944   3.00023   3.00095   3.00134
 Alpha virt. eigenvalues --    3.00343   3.00601   3.00816   3.01851   3.02065
 Alpha virt. eigenvalues --    3.02399   3.02749   3.02843   3.03063   3.03293
 Alpha virt. eigenvalues --    3.03301   3.03583   3.03608   3.03636   3.03926
 Alpha virt. eigenvalues --    3.04005   3.04074   3.04239   3.04284   3.04320
 Alpha virt. eigenvalues --    3.04474   3.04647   3.04672   3.04821   3.04868
 Alpha virt. eigenvalues --    3.04900   3.05167   3.05619   3.05836   3.06081
 Alpha virt. eigenvalues --    3.06128   3.07154   3.07383   3.07410   3.07556
 Alpha virt. eigenvalues --    3.08159   3.08298   3.08538   3.08697   3.08720
 Alpha virt. eigenvalues --    3.09022   3.09425   3.09464   3.09528   3.09654
 Alpha virt. eigenvalues --    3.10291   3.10711   3.11896   3.12283   3.12469
 Alpha virt. eigenvalues --    3.13553   3.16604   3.18106   3.19032   3.19926
 Alpha virt. eigenvalues --    3.20422   3.20483   3.21233   3.21689   3.21907
 Alpha virt. eigenvalues --    3.22286   3.23577   3.23859   3.23869   3.24096
 Alpha virt. eigenvalues --    3.24328   3.24502   3.24600   3.24904   3.25033
 Alpha virt. eigenvalues --    3.25523   3.25786   3.25953   3.27126   3.27313
 Alpha virt. eigenvalues --    3.28044   3.28179   3.28455   3.28588   3.29302
 Alpha virt. eigenvalues --    3.30444   3.30657   3.31488   3.51291   3.53470
 Alpha virt. eigenvalues --    3.54471   3.55208   3.55633   3.55660   3.56080
 Alpha virt. eigenvalues --    3.57837   3.58225   3.58308   3.59016   3.59230
 Alpha virt. eigenvalues --    3.59379   3.59613   3.60141   3.60537   3.60844
 Alpha virt. eigenvalues --    3.61032   3.61067   3.61890   3.62362   3.62631
 Alpha virt. eigenvalues --    3.63407   3.64127   3.64497   3.64784   3.65377
 Alpha virt. eigenvalues --    3.66072   3.66325   3.69354   3.69721   3.69852
 Alpha virt. eigenvalues --    3.78114   3.79549   3.81700   3.81912   3.83177
 Alpha virt. eigenvalues --    3.84183   3.84347   3.85064   3.85153   3.85190
 Alpha virt. eigenvalues --    3.86054   3.86850   3.86925   3.87187   3.87409
 Alpha virt. eigenvalues --    3.88340   3.88835   3.89019   3.89287   3.89636
 Alpha virt. eigenvalues --    3.90206   3.90810   3.91417   3.91687   3.93501
 Alpha virt. eigenvalues --    3.93696   3.94041   3.94119   3.95040   3.96276
 Alpha virt. eigenvalues --    3.96923   4.00495
          Condensed to atoms (all electrons):
 Mulliken charges:
               1
     1  Br  -0.771139
     2  O   -0.304284
     3  H    0.160125
     4  H    0.112882
     5  O   -0.260293
     6  H    0.117454
     7  H    0.136979
     8  O   -0.250310
     9  H    0.118512
    10  H    0.123877
    11  O   -0.292129
    12  H    0.143502
    13  H    0.135279
    14  O   -0.250401
    15  H    0.146354
    16  H    0.119768
    17  O   -0.275161
    18  H    0.130181
    19  H    0.117423
    20  O   -0.255785
    21  H    0.146271
    22  H    0.164210
    23  O   -0.299874
    24  H    0.122210
    25  H    0.130366
    26  O   -0.279223
    27  H    0.117284
    28  H    0.127273
    29  O   -0.308394
    30  H    0.137612
    31  H    0.120055
    32  O   -0.276852
    33  H    0.133525
    34  H    0.143053
    35  O   -0.240875
    36  H    0.130131
    37  H    0.158076
    38  O   -0.284369
    39  H    0.131902
    40  H    0.125924
    41  O   -0.243582
    42  H    0.123568
    43  H    0.131992
    44  O   -0.302647
    45  H    0.132138
    46  H    0.142316
    47  O   -0.256067
    48  H    0.133736
    49  H    0.128866
    50  O   -0.315859
    51  H    0.144288
    52  H    0.108086
    53  O   -0.287555
    54  H    0.136551
    55  H    0.131503
    56  O   -0.288315
    57  H    0.127300
    58  H    0.106557
    59  O   -0.297438
    60  H    0.121085
    61  H    0.143908
    62  O   -0.315789
    63  H    0.123806
    64  H    0.135081
    65  O   -0.253207
    66  H    0.133014
    67  H    0.142048
    68  O   -0.309826
    69  H    0.131246
    70  H    0.137981
    71  O   -0.247891
    72  H    0.119788
    73  H    0.122709
    74  O   -0.288397
    75  H    0.146657
    76  H    0.148970
    77  O   -0.246052
    78  H    0.124566
    79  H    0.150343
    80  O   -0.280850
    81  H    0.140815
    82  H    0.143907
    83  O   -0.261752
    84  H    0.139599
    85  H    0.135772
    86  O   -0.264592
    87  H    0.134403
    88  H    0.131687
    89  O   -0.233856
    90  H    0.141641
    91  H    0.154392
    92  O   -0.223414
    93  H    0.129277
    94  H    0.144620
    95  O   -0.277966
    96  H    0.133107
    97  H    0.136591
 Sum of Mulliken charges =  -1.00000
 Mulliken charges with hydrogens summed into heavy atoms:
               1
     1  Br  -0.771139
     2  O   -0.031277
     5  O   -0.005860
     8  O   -0.007922
    11  O   -0.013347
    14  O    0.015721
    17  O   -0.027557
    20  O    0.054697
    23  O   -0.047299
    26  O   -0.034666
    29  O   -0.050726
    32  O   -0.000273
    35  O    0.047332
    38  O   -0.026542
    41  O    0.011978
    44  O   -0.028194
    47  O    0.006535
    50  O   -0.063486
    53  O   -0.019500
    56  O   -0.054457
    59  O   -0.032445
    62  O   -0.056903
    65  O    0.021855
    68  O   -0.040599
    71  O   -0.005393
    74  O    0.007229
    77  O    0.028857
    80  O    0.003872
    83  O    0.013618
    86  O    0.001498
    89  O    0.062177
    92  O    0.050483
    95  O   -0.008268
         Mulliken charges condensed to fragments:
      1     -0.771139
      2     -0.228861
 Electronic spatial extent (au):  <R**2>=        1564869.7686
 Charge=             -1.0000 electrons
 Dipole moment (field-independent basis, Debye):
    X=            -99.2048    Y=           -108.5561    Z=            -87.0764  Tot=            170.9044
 Quadrupole moment (field-independent basis, Debye-Ang):
   XX=          -2257.8531   YY=          -2739.6489   ZZ=          -1830.8773
   XY=          -2246.3708   XZ=          -1831.1297   YZ=          -2045.8207
 Traceless Quadrupole moment (field-independent basis, Debye-Ang):
   XX=             18.2733   YY=           -463.5225   ZZ=            445.2492
   XY=          -2246.3708   XZ=          -1831.1297   YZ=          -2045.8207
 Octapole moment (field-independent basis, Debye-Ang**2):
  XXX=         -54214.0176  YYY=         -73439.5625  ZZZ=         -43909.2704  XYY=         -56131.1369
  XXY=         -51006.4852  XXZ=         -42413.8362  XZZ=         -38678.9202  YZZ=         -44095.1812
  YYZ=         -53636.7334  XYZ=         -42693.2057
 Hexadecapole moment (field-independent basis, Debye-Ang**3):
 XXXX=       -1337638.9547 YYYY=       -2021384.2285 ZZZZ=       -1154451.0782 XXXY=       -1220201.3827
 XXXZ=       -1032912.1886 YYYX=       -1485078.7802 YYYZ=       -1478173.1767 ZZZX=        -919579.0757
 ZZZY=       -1062360.9503 XXYY=       -1254131.9749 XXZZ=        -894709.8922 YYZZ=       -1175083.2439
 XXYZ=        -976943.3987 YYXZ=       -1099138.7849 ZZXY=        -918222.2418
 N-N= 5.365659033559D+03 E-N=-2.270178544992D+04  KE= 5.002929817682D+03
 No NMR shielding tensors so no spin-rotation constants.
 Leave Link  601 at Wed May  2 18:26:35 2018, MaxMem= 14763950080 cpu:       128.2
 (Enter /cm/shared/gaussian/g09.e01/intel64-sandybridge/g09/l701.exe)
 Compute integral first derivatives.
 ... and contract with generalized density number  0.
 Leave Link  701 at Wed May  2 18:26:36 2018, MaxMem= 14763950080 cpu:       110.2
 (Enter /cm/shared/gaussian/g09.e01/intel64-sandybridge/g09/l702.exe)
 L702 exits ... SP integral derivatives will be done elsewhere.
 Leave Link  702 at Wed May  2 18:26:37 2018, MaxMem= 14763950080 cpu:         1.7
 (Enter /cm/shared/gaussian/g09.e01/intel64-sandybridge/g09/l703.exe)
 Compute integral first derivatives, UseDBF=F ICtDFT=           0.
 Integral derivatives from FoFJK, PRISM(SPDF).
 Calling FoFJK, ICntrl=      2127 FMM=T ISym2X=0 I1Cent= 0 IOpClX= 0 NMat=1 NMatS=1 NMatT=0.
 FoFJK:  IHMeth= 1 ICntrl=    2127 DoSepK=F KAlg= 0 I1Cent=   0 FoldK=F
 IRaf=         0 NMat=   1 IRICut=       1 DoRegI=T DoRafI=F ISym2E= 0.
 FoFCou: FMM=T IPFlag=           0 FMFlag=      100000 FMFlg1=        2001
         NFxFlg=           0 DoJE=F BraDBF=F KetDBF=F FulRan=T
         wScrn=  0.000000 ICntrl=    2127 IOpCl=  0 I1Cent=           0 NGrid=           0
         NMat0=    1 NMatS0=      1 NMatT0=    0 NMatD0=    1 NMtDS0=    0 NMtDT0=    0
 Symmetry not used in FoFCou.
 FMM levels:  10  Number of levels for PrismC:   9
 Leave Link  703 at Wed May  2 18:26:47 2018, MaxMem= 14763950080 cpu:       653.3
 (Enter /cm/shared/gaussian/g09.e01/intel64-sandybridge/g09/l716.exe)
 Dipole        =-3.90301834D+01-4.27092765D+01-3.42584836D+01
 Cartesian Forces:  Max     0.029931078 RMS     0.009078108
 Leave Link  716 at Wed May  2 18:26:47 2018, MaxMem= 14763950080 cpu:         3.5
 (Enter /cm/shared/gaussian/g09.e01/intel64-sandybridge/g09/l122.exe)
 CPIOFr:  IOpCl= 0 IRwI=-1 IRwCP=  731 ICalc= -1 LCPTot=     1005244 Len1MO=     2550559 IndFrg=     1005244
 CPIOFr:  IOpCl= 0 IRwI=-1 IRwCP=  731 ICalc=  0 LCPTot=     1005244 Len1MO=     2550559 IndFrg=     3555803
 Counterpoise: doing DCBS calculation for fragment   1 NewBq=T
 Leave Link  122 at Wed May  2 18:26:47 2018, MaxMem= 14763950080 cpu:         7.0
 (Enter /cm/shared/gaussian/g09.e01/intel64-sandybridge/g09/l301.exe)
 Basis read from rwf:  (5D, 7F)
 No pseudopotential information found on rwf file.
   795 basis functions,  1651 primitive gaussians,   829 cartesian basis functions
    18 alpha electrons       18 beta electrons
       nuclear repulsion energy         0.0000000000 Hartrees.
 IExCor= 1009 DFT=T Ex+Corr=PBE1PBE ExCW=0 ScaHFX=  0.250000
 ScaDFX=  0.750000  0.750000  1.000000  1.000000 ScalE2=  1.000000  1.000000
 IRadAn=      0 IRanWt=     -1 IRanGd=            0 ICorTp=0 IEmpDi=  4
 NAtoms=   97 NActive=   97 NUniq=   97 SFac= 1.00D+00 NAtFMM=   60 NAOKFM=T Big=T
 Integral buffers will be    131072 words long.
 Raffenetti 2 integral format.
 Two-electron integral symmetry is turned off.
 No density basis found on file   718.
 Leave Link  301 at Wed May  2 18:26:47 2018, MaxMem= 14763950080 cpu:         4.6
 (Enter /cm/shared/gaussian/g09.e01/intel64-sandybridge/g09/l302.exe)
 NPDir=0 NMtPBC=     1 NCelOv=     1 NCel=       1 NClECP=     1 NCelD=      1
         NCelK=      1 NCelE2=     1 NClLst=     1 CellRange=     0.0.
 One-electron integrals computed using PRISM.
 NBasis=   795 RedAO= T EigKep=  1.86D-02  NBF=   795
 NBsUse=   795 1.00D-06 EigRej= -1.00D+00 NBFU=   795
 Precomputing XC quadrature grid using
 IXCGrd= 4 IRadAn=           0 IRanWt=          -1 IRanGd=           0 AccXCQ= 0.00D+00.
 Generated NRdTot=       0 NPtTot=           0 NUsed=           0 NTot=          32
 NSgBfM=   638   638   638   638   642 MxSgAt=    97 MxSgA2=    97.
 Leave Link  302 at Wed May  2 18:26:51 2018, MaxMem= 14763950080 cpu:       233.9
 (Enter /cm/shared/gaussian/g09.e01/intel64-sandybridge/g09/l303.exe)
 DipDrv:  MaxL=1.
 Leave Link  303 at Wed May  2 18:26:51 2018, MaxMem= 14763950080 cpu:        26.1
 (Enter /cm/shared/gaussian/g09.e01/intel64-sandybridge/g09/l401.exe)
 ExpMin= 1.22D-01 ExpMax= 6.40D+05 ExpMxC= 6.18D+03 IAcc=2 IRadAn=         4 AccDes= 0.00D+00
 Harris functional with IExCor= 1009 and IRadAn=       4 diagonalized for initial guess.
 HarFok:  IExCor= 1009 AccDes= 0.00D+00 IRadAn=         4 IDoV= 1 UseB2=F ITyADJ=14
 ICtDFT=  3500011 ScaDFX=  1.000000  1.000000  1.000000  1.000000
 FoFCou: FMM=F IPFlag=           0 FMFlag=      100000 FMFlg1=        2001
         NFxFlg=           0 DoJE=T BraDBF=F KetDBF=T FulRan=T
         wScrn=  0.000000 ICntrl=     500 IOpCl=  0 I1Cent=   200000004 NGrid=           0
         NMat0=    1 NMatS0=      1 NMatT0=    0 NMatD0=    1 NMtDS0=    0 NMtDT0=    0
 Symmetry not used in FoFCou.
 Harris En= -2574.01834531738    
 JPrj=0 DoOrth=F DoCkMO=F.
 Leave Link  401 at Wed May  2 18:26:56 2018, MaxMem= 14763950080 cpu:       300.5
 (Enter /cm/shared/gaussian/g09.e01/intel64-sandybridge/g09/l502.exe)
 Closed shell SCF:
 Using DIIS extrapolation, IDIIS=  1040.
 Two-electron integral symmetry not used.
 IVT=     2138497 IEndB=     2138497 NGot= 14763950080 MDV= 14762516294
 LenX= 14762516294 LenY= 14761828224
 Requested convergence on RMS density matrix=1.00D-08 within 128 cycles.
 Requested convergence on MAX density matrix=1.00D-06.
 Requested convergence on             energy=1.00D-06.
 No special actions if energy rises.
 Fock matrices will be formed incrementally for  20 cycles.
 Integral accuracy reduced to 1.0D-05 until final iterations.

 Cycle   1  Pass 0  IDiag  1:
 FoFJK:  IHMeth= 1 ICntrl=       0 DoSepK=F KAlg= 0 I1Cent=   0 FoldK=F
 IRaf= 660000000 NMat=   1 IRICut=       1 DoRegI=T DoRafI=F ISym2E= 0.
 FoFCou: FMM=T IPFlag=           0 FMFlag=      100000 FMFlg1=        2001
         NFxFlg=           0 DoJE=F BraDBF=F KetDBF=F FulRan=T
         wScrn=  0.000000 ICntrl=       0 IOpCl=  0 I1Cent=           0 NGrid=           0
         NMat0=    1 NMatS0=      1 NMatT0=    0 NMatD0=    1 NMtDS0=    0 NMtDT0=    0
 Symmetry not used in FoFCou.
 FMM levels:  10  Number of levels for PrismC:   9
 E= -2573.87708346536    
 DIIS: error= 1.48D-02 at cycle   1 NSaved=   1.
 NSaved= 1 IEnMin= 1 EnMin= -2573.87708346536     IErMin= 1 ErrMin= 1.48D-02
 ErrMax= 1.48D-02  0.00D+00 EMaxC= 1.00D-01 BMatC= 3.52D-02 BMatP= 3.52D-02
 IDIUse=3 WtCom= 8.52D-01 WtEn= 1.48D-01
 Coeff-Com:  0.100D+01
 Coeff-En:   0.100D+01
 Coeff:      0.100D+01
 Gap=     0.193 Goal=   None    Shift=    0.000
 GapD=    0.193 DampG=1.000 DampE=0.500 DampFc=0.5000 IDamp=-1.
 Damping current iteration by 5.00D-01
 RMSDP=3.83D-04 MaxDP=6.99D-02              OVMax= 1.29D-01

 Cycle   2  Pass 0  IDiag  1:
 RMSU=  1.91D-04    CP:  9.98D-01
 E= -2573.89081278727     Delta-E=       -0.013729321910 Rises=F Damp=T
 DIIS: error= 8.63D-03 at cycle   2 NSaved=   2.
 NSaved= 2 IEnMin= 2 EnMin= -2573.89081278727     IErMin= 2 ErrMin= 8.63D-03
 ErrMax= 8.63D-03  0.00D+00 EMaxC= 1.00D-01 BMatC= 8.05D-03 BMatP= 3.52D-02
 IDIUse=3 WtCom= 9.14D-01 WtEn= 8.63D-02
 Coeff-Com: -0.659D+00 0.166D+01
 Coeff-En:   0.000D+00 0.100D+01
 Coeff:     -0.602D+00 0.160D+01
 Gap=     0.164 Goal=   None    Shift=    0.000
 RMSDP=1.26D-04 MaxDP=2.62D-02 DE=-1.37D-02 OVMax= 4.64D-02

 Cycle   3  Pass 0  IDiag  1:
 RMSU=  1.11D-04    CP:  9.97D-01  1.31D+00
 E= -2573.90215002802     Delta-E=       -0.011337240749 Rises=F Damp=F
 DIIS: error= 3.46D-03 at cycle   3 NSaved=   3.
 NSaved= 3 IEnMin= 3 EnMin= -2573.90215002802     IErMin= 3 ErrMin= 3.46D-03
 ErrMax= 3.46D-03  0.00D+00 EMaxC= 1.00D-01 BMatC= 1.31D-03 BMatP= 8.05D-03
 IDIUse=3 WtCom= 9.65D-01 WtEn= 3.46D-02
 Coeff-Com: -0.299D+00 0.691D+00 0.608D+00
 Coeff-En:   0.000D+00 0.000D+00 0.100D+01
 Coeff:     -0.288D+00 0.667D+00 0.621D+00
 Gap=     0.151 Goal=   None    Shift=    0.000
 RMSDP=5.48D-05 MaxDP=1.33D-02 DE=-1.13D-02 OVMax= 1.53D-02

 Cycle   4  Pass 0  IDiag  1:
 RMSU=  7.12D-06    CP:  9.97D-01  1.52D+00  6.69D-01
 E= -2573.90347701431     Delta-E=       -0.001326986297 Rises=F Damp=F
 DIIS: error= 1.36D-04 at cycle   4 NSaved=   4.
 NSaved= 4 IEnMin= 4 EnMin= -2573.90347701431     IErMin= 4 ErrMin= 1.36D-04
 ErrMax= 1.36D-04  0.00D+00 EMaxC= 1.00D-01 BMatC= 1.84D-06 BMatP= 1.31D-03
 IDIUse=3 WtCom= 9.99D-01 WtEn= 1.36D-03
 Coeff-Com: -0.614D-02 0.112D-01 0.426D-01 0.952D+00
 Coeff-En:   0.000D+00 0.000D+00 0.000D+00 0.100D+01
 Coeff:     -0.613D-02 0.112D-01 0.425D-01 0.952D+00
 Gap=     0.153 Goal=   None    Shift=    0.000
 RMSDP=2.32D-06 MaxDP=4.95D-04 DE=-1.33D-03 OVMax= 7.51D-04

 Initial convergence to 1.0D-05 achieved.  Increase integral accuracy.
 Cycle   5  Pass 1  IDiag  1:
 E= -2573.90430341164     Delta-E=       -0.000826397328 Rises=F Damp=F
 DIIS: error= 1.65D-05 at cycle   1 NSaved=   1.
 NSaved= 1 IEnMin= 1 EnMin= -2573.90430341164     IErMin= 1 ErrMin= 1.65D-05
 ErrMax= 1.65D-05  0.00D+00 EMaxC= 1.00D-01 BMatC= 4.34D-08 BMatP= 4.34D-08
 IDIUse=1 WtCom= 1.00D+00 WtEn= 0.00D+00
 Coeff-Com:  0.100D+01
 Coeff:      0.100D+01
 Gap=     0.153 Goal=   None    Shift=    0.000
 RMSDP=2.32D-06 MaxDP=4.95D-04 DE=-8.26D-04 OVMax= 1.79D-04

 Cycle   6  Pass 1  IDiag  1:
 RMSU=  6.46D-07    CP:  1.00D+00
 E= -2573.90430346429     Delta-E=       -0.000000052644 Rises=F Damp=F
 DIIS: error= 1.19D-05 at cycle   2 NSaved=   2.
 NSaved= 2 IEnMin= 2 EnMin= -2573.90430346429     IErMin= 2 ErrMin= 1.19D-05
 ErrMax= 1.19D-05  0.00D+00 EMaxC= 1.00D-01 BMatC= 1.51D-08 BMatP= 4.34D-08
 IDIUse=1 WtCom= 1.00D+00 WtEn= 0.00D+00
 Coeff-Com:  0.358D+00 0.642D+00
 Coeff:      0.358D+00 0.642D+00
 Gap=     0.153 Goal=   None    Shift=    0.000
 RMSDP=1.94D-07 MaxDP=2.76D-05 DE=-5.26D-08 OVMax= 6.66D-05

 Cycle   7  Pass 1  IDiag  1:
 RMSU=  1.64D-07    CP:  1.00D+00  8.39D-01
 E= -2573.90430348465     Delta-E=       -0.000000020363 Rises=F Damp=F
 DIIS: error= 9.95D-07 at cycle   3 NSaved=   3.
 NSaved= 3 IEnMin= 3 EnMin= -2573.90430348465     IErMin= 3 ErrMin= 9.95D-07
 ErrMax= 9.95D-07  0.00D+00 EMaxC= 1.00D-01 BMatC= 2.71D-10 BMatP= 1.51D-08
 IDIUse=1 WtCom= 1.00D+00 WtEn= 0.00D+00
 Coeff-Com: -0.135D-01 0.870D-01 0.927D+00
 Coeff:     -0.135D-01 0.870D-01 0.927D+00
 Gap=     0.153 Goal=   None    Shift=    0.000
 RMSDP=3.66D-08 MaxDP=8.29D-06 DE=-2.04D-08 OVMax= 1.11D-05

 Cycle   8  Pass 1  IDiag  1:
 RMSU=  2.38D-08    CP:  1.00D+00  8.81D-01  9.80D-01
 E= -2573.90430348501     Delta-E=       -0.000000000360 Rises=F Damp=F
 DIIS: error= 4.87D-07 at cycle   4 NSaved=   4.
 NSaved= 4 IEnMin= 4 EnMin= -2573.90430348501     IErMin= 4 ErrMin= 4.87D-07
 ErrMax= 4.87D-07  0.00D+00 EMaxC= 1.00D-01 BMatC= 2.91D-11 BMatP= 2.71D-10
 IDIUse=1 WtCom= 1.00D+00 WtEn= 0.00D+00
 Coeff-Com: -0.143D-01 0.200D-01 0.361D+00 0.634D+00
 Coeff:     -0.143D-01 0.200D-01 0.361D+00 0.634D+00
 Gap=     0.153 Goal=   None    Shift=    0.000
 RMSDP=9.18D-09 MaxDP=1.98D-06 DE=-3.60D-10 OVMax= 3.01D-06

 Cycle   9  Pass 1  IDiag  1:
 RMSU=  6.57D-09    CP:  1.00D+00  8.83D-01  1.00D+00  7.82D-01
 E= -2573.90430348507     Delta-E=       -0.000000000055 Rises=F Damp=F
 DIIS: error= 3.13D-08 at cycle   5 NSaved=   5.
 NSaved= 5 IEnMin= 5 EnMin= -2573.90430348507     IErMin= 5 ErrMin= 3.13D-08
 ErrMax= 3.13D-08  0.00D+00 EMaxC= 1.00D-01 BMatC= 2.97D-13 BMatP= 2.91D-11
 IDIUse=1 WtCom= 1.00D+00 WtEn= 0.00D+00
 Coeff-Com:  0.618D-03-0.336D-02-0.477D-01 0.161D-01 0.103D+01
 Coeff:      0.618D-03-0.336D-02-0.477D-01 0.161D-01 0.103D+01
 Gap=     0.153 Goal=   None    Shift=    0.000
 RMSDP=1.87D-09 MaxDP=2.58D-07 DE=-5.55D-11 OVMax= 8.34D-07

 SCF Done:  E(RPBE1PBE) =  -2573.90430349     A.U. after    9 cycles
            NFock=  9  Conv=0.19D-08     -V/T= 2.0013
 KE= 2.570558162044D+03 PE=-6.163536504660D+03 EE= 1.019074039131D+03
 Leave Link  502 at Wed May  2 18:28:06 2018, MaxMem= 14763950080 cpu:      4394.9
 (Enter /cm/shared/gaussian/g09.e01/intel64-sandybridge/g09/l601.exe)
 Copying SCF densities to generalized density rwf, IOpCl= 0 IROHF=0.

 **********************************************************************

            Population analysis using the SCF density.

 **********************************************************************

 Alpha  occ. eigenvalues -- -482.97188 -62.37359 -56.14617 -56.14608 -56.14601
 Alpha  occ. eigenvalues --   -8.47500  -6.27837  -6.27802  -6.27783  -2.36097
 Alpha  occ. eigenvalues --   -2.36091  -2.36076  -2.36047  -2.36045  -0.45774
 Alpha  occ. eigenvalues --   -0.01790  -0.01732  -0.01708
 Alpha virt. eigenvalues --    0.13619   0.14983   0.15630   0.16347   0.17170
 Alpha virt. eigenvalues --    0.17660   0.18534   0.19023   0.19600   0.20236
 Alpha virt. eigenvalues --    0.20634   0.21237   0.21667   0.21961   0.22265
 Alpha virt. eigenvalues --    0.22352   0.22970   0.23061   0.23574   0.23978
 Alpha virt. eigenvalues --    0.24729   0.25552   0.26134   0.27009   0.27156
 Alpha virt. eigenvalues --    0.27672   0.28468   0.28886   0.29236   0.29607
 Alpha virt. eigenvalues --    0.30245   0.30898   0.31295   0.31743   0.31891
 Alpha virt. eigenvalues --    0.32061   0.32867   0.33118   0.33461   0.33814
 Alpha virt. eigenvalues --    0.34182   0.34487   0.34953   0.35325   0.35929
 Alpha virt. eigenvalues --    0.36135   0.36678   0.36758   0.37365   0.37802
 Alpha virt. eigenvalues --    0.38901   0.39250   0.39370   0.39846   0.40187
 Alpha virt. eigenvalues --    0.41075   0.41597   0.42631   0.42733   0.45115
 Alpha virt. eigenvalues --    0.46131   0.46360   0.48577   0.49600   0.59577
 Alpha virt. eigenvalues --    0.61291   0.61840   0.62259   0.62726   0.62942
 Alpha virt. eigenvalues --    0.63407   0.63690   0.63924   0.64864   0.65578
 Alpha virt. eigenvalues --    0.65855   0.66011   0.66274   0.67225   0.67400
 Alpha virt. eigenvalues --    0.67508   0.68169   0.68405   0.68753   0.69284
 Alpha virt. eigenvalues --    0.69807   0.70274   0.70683   0.70943   0.71053
 Alpha virt. eigenvalues --    0.71470   0.71539   0.72059   0.72339   0.72661
 Alpha virt. eigenvalues --    0.72818   0.73212   0.73286   0.73820   0.74084
 Alpha virt. eigenvalues --    0.74141   0.74713   0.74752   0.75191   0.75394
 Alpha virt. eigenvalues --    0.75667   0.75863   0.76606   0.76898   0.77124
 Alpha virt. eigenvalues --    0.77366   0.77527   0.78174   0.78399   0.78762
 Alpha virt. eigenvalues --    0.79182   0.79431   0.79917   0.80208   0.80402
 Alpha virt. eigenvalues --    0.80862   0.81084   0.81350   0.81444   0.81760
 Alpha virt. eigenvalues --    0.81946   0.82536   0.82742   0.83531   0.83798
 Alpha virt. eigenvalues --    0.84135   0.84544   0.84802   0.85132   0.85436
 Alpha virt. eigenvalues --    0.85847   0.85957   0.86407   0.86692   0.86890
 Alpha virt. eigenvalues --    0.87061   0.87626   0.87905   0.88861   0.89218
 Alpha virt. eigenvalues --    0.89473   0.89638   0.90498   0.90678   0.91000
 Alpha virt. eigenvalues --    0.91131   0.91589   0.92020   0.92156   0.92317
 Alpha virt. eigenvalues --    0.92793   0.92999   0.93698   0.93937   0.94307
 Alpha virt. eigenvalues --    0.94364   0.94687   0.95161   0.95533   0.95803
 Alpha virt. eigenvalues --    0.96221   0.96594   0.97033   0.97260   0.97395
 Alpha virt. eigenvalues --    0.97999   0.98135   0.98832   0.99046   0.99279
 Alpha virt. eigenvalues --    0.99780   1.00298   1.00803   1.01016   1.01370
 Alpha virt. eigenvalues --    1.01845   1.02182   1.02529   1.03035   1.03643
 Alpha virt. eigenvalues --    1.04376   1.05488   1.06244   1.06787   1.07352
 Alpha virt. eigenvalues --    1.08212   1.09282   1.09768   1.10682   1.12185
 Alpha virt. eigenvalues --    1.14780   1.15431   1.16485   1.18033   1.21787
 Alpha virt. eigenvalues --    1.21920   1.64915   1.65808   1.65888   1.66528
 Alpha virt. eigenvalues --    1.66932   1.67576   1.68080   1.68594   1.69013
 Alpha virt. eigenvalues --    1.69248   1.70093   1.70432   1.70473   1.70852
 Alpha virt. eigenvalues --    1.71038   1.71231   1.71388   1.71808   1.71883
 Alpha virt. eigenvalues --    1.72022   1.72137   1.72556   1.73155   1.73325
 Alpha virt. eigenvalues --    1.73480   1.73544   1.73908   1.74179   1.74213
 Alpha virt. eigenvalues --    1.74483   1.74822   1.75140   1.75250   1.75416
 Alpha virt. eigenvalues --    1.75721   1.76084   1.76221   1.76392   1.77152
 Alpha virt. eigenvalues --    1.77530   1.77645   1.78280   1.78830   1.79080
 Alpha virt. eigenvalues --    1.79618   1.80054   1.80351   1.80846   1.81097
 Alpha virt. eigenvalues --    1.81569   1.81816   1.82117   1.82372   1.82842
 Alpha virt. eigenvalues --    1.83666   1.83762   1.84545   1.84861   1.85312
 Alpha virt. eigenvalues --    1.87352   1.88497   1.89579   1.90532   1.93305
 Alpha virt. eigenvalues --    1.95693   1.96539   1.96754   1.97141   1.97718
 Alpha virt. eigenvalues --    1.98973   1.99267   1.99457   1.99650   2.00002
 Alpha virt. eigenvalues --    2.00137   2.00464   2.00736   2.00991   2.01068
 Alpha virt. eigenvalues --    2.01276   2.01329   2.01456   2.01725   2.01874
 Alpha virt. eigenvalues --    2.02016   2.02135   2.02424   2.02631   2.02777
 Alpha virt. eigenvalues --    2.03014   2.03385   2.03738   2.03758   2.03961
 Alpha virt. eigenvalues --    2.04083   2.04848   2.05672   2.05700   2.06049
 Alpha virt. eigenvalues --    2.06230   2.06305   2.06450   2.06568   2.07194
 Alpha virt. eigenvalues --    2.07545   2.08041   2.09056   2.09275   2.09468
 Alpha virt. eigenvalues --    2.09878   2.10153   2.10590   2.10843   2.11218
 Alpha virt. eigenvalues --    2.11436   2.11759   2.12357   2.12796   2.13552
 Alpha virt. eigenvalues --    2.13619   2.14076   2.14117   2.14753   2.15068
 Alpha virt. eigenvalues --    2.15367   2.15745   2.15962   2.16621   2.16639
 Alpha virt. eigenvalues --    2.17095   2.17145   2.17499   2.17685   2.17812
 Alpha virt. eigenvalues --    2.18146   2.18481   2.18893   2.19033   2.19872
 Alpha virt. eigenvalues --    2.20202   2.20461   2.20717   2.20882   2.21255
 Alpha virt. eigenvalues --    2.22116   2.22439   2.22884   2.23892   2.24709
 Alpha virt. eigenvalues --    2.25077   2.25479   2.26799   2.27136   2.27345
 Alpha virt. eigenvalues --    2.28821   2.32696   2.32913   2.33097   2.35077
 Alpha virt. eigenvalues --    2.35216   2.37312   2.37869   2.38557   2.40054
 Alpha virt. eigenvalues --    2.40129   2.40428   2.40973   2.41416   2.41990
 Alpha virt. eigenvalues --    2.42036   2.42073   2.42327   2.42381   2.43242
 Alpha virt. eigenvalues --    2.43767   2.44028   2.44470   2.44735   2.45706
 Alpha virt. eigenvalues --    2.45771   2.46185   2.47100   2.47655   2.48082
 Alpha virt. eigenvalues --    2.48425   2.48622   2.49391   2.49837   2.51422
 Alpha virt. eigenvalues --    2.52036   2.54306   2.59772   2.65186   2.66513
 Alpha virt. eigenvalues --    2.67109   2.67146   2.68013   2.68364   2.68515
 Alpha virt. eigenvalues --    2.68950   2.68995   2.69170   2.69789   2.70233
 Alpha virt. eigenvalues --    2.70668   2.71193   2.71460   2.71598   2.71888
 Alpha virt. eigenvalues --    2.72985   2.73776   2.74203   2.74784   2.74989
 Alpha virt. eigenvalues --    2.75186   2.76173   2.76471   2.77028   2.78373
 Alpha virt. eigenvalues --    2.79561   2.80625   2.80989   2.81245   2.81927
 Alpha virt. eigenvalues --    2.81999   2.82376   2.82876   2.83422   2.83854
 Alpha virt. eigenvalues --    2.84346   2.84734   2.85358   2.85975   2.86262
 Alpha virt. eigenvalues --    2.86673   2.87218   2.87457   2.87801   2.88234
 Alpha virt. eigenvalues --    2.88376   2.89961   2.90593   2.91277   2.91407
 Alpha virt. eigenvalues --    2.91868   2.93115   2.94218   2.94734   2.95014
 Alpha virt. eigenvalues --    2.95821   2.96969   2.97488   2.98019   2.99563
 Alpha virt. eigenvalues --    3.00320   3.01990   3.11085   3.12296   3.12529
 Alpha virt. eigenvalues --    3.12673   3.13601   3.13681   3.14028   3.14128
 Alpha virt. eigenvalues --    3.15974   3.16149   3.18266   3.19185   3.20054
 Alpha virt. eigenvalues --    3.20699   3.21119   3.24622   3.25365   3.25911
 Alpha virt. eigenvalues --    3.26028   3.29228   3.29652   3.30864   3.32442
 Alpha virt. eigenvalues --    3.36885   3.37344   3.38079   3.41318   3.42787
 Alpha virt. eigenvalues --    3.44725   3.48167   3.52405   3.57832   4.50817
 Alpha virt. eigenvalues --    4.50866   4.50977   4.51235   4.51354   4.51455
 Alpha virt. eigenvalues --    4.51693   4.51715   4.51913   4.51929   4.51971
 Alpha virt. eigenvalues --    4.52052   4.52125   4.52311   4.52341   4.52451
 Alpha virt. eigenvalues --    4.52559   4.52603   4.52690   4.52837   4.53002
 Alpha virt. eigenvalues --    4.53094   4.53500   4.53731   4.54191   4.54346
 Alpha virt. eigenvalues --    4.54768   4.55311   4.55494   4.55678   4.56414
 Alpha virt. eigenvalues --    4.57203   4.58774   4.58849   4.59044   4.59078
 Alpha virt. eigenvalues --    4.59414   4.59444   4.59642   4.59798   4.59832
 Alpha virt. eigenvalues --    4.59902   4.60017   4.60025   4.60044   4.60148
 Alpha virt. eigenvalues --    4.60204   4.60291   4.60379   4.60548   4.60600
 Alpha virt. eigenvalues --    4.60882   4.61245   4.61455   4.61731   4.61791
 Alpha virt. eigenvalues --    4.62541   4.62810   4.62935   4.63576   4.63743
 Alpha virt. eigenvalues --    4.64201   4.65011   4.66235   4.73185   4.73535
 Alpha virt. eigenvalues --    4.74156   4.74489   4.74690   4.75086   4.75358
 Alpha virt. eigenvalues --    4.75670   4.76142   4.76459   4.77044   4.77825
 Alpha virt. eigenvalues --    4.77880   4.78065   4.78263   4.78701   4.78763
 Alpha virt. eigenvalues --    4.78838   4.78997   4.79710   4.79762   4.79924
 Alpha virt. eigenvalues --    4.80243   4.80326   4.81078   4.81422   4.81538
 Alpha virt. eigenvalues --    4.82143   4.82345   4.82677   4.83433   4.84339
 Alpha virt. eigenvalues --    4.85633   4.85694   4.85887   4.85930   4.86361
 Alpha virt. eigenvalues --    4.86561   4.86653   4.86685   4.86887   4.87350
 Alpha virt. eigenvalues --    4.87611   4.87724   4.87862   4.88315   4.88435
 Alpha virt. eigenvalues --    4.89348   4.89836   4.90908   4.91126   4.91825
 Alpha virt. eigenvalues --    4.91924   4.92125   4.92549   4.92593   4.93079
 Alpha virt. eigenvalues --    4.94351   4.94653   4.95952   4.98293   4.99130
 Alpha virt. eigenvalues --    5.00844   5.01385   5.01797   5.02387   5.02934
 Alpha virt. eigenvalues --    5.03156   5.03470   5.03853   5.05057   5.05219
 Alpha virt. eigenvalues --    5.05611   5.06439   5.06858   5.07515   5.08367
 Alpha virt. eigenvalues --    5.08602   5.08991   5.09227   5.10004   5.10129
 Alpha virt. eigenvalues --    5.10719   5.11834   5.11921   5.12383   5.13240
 Alpha virt. eigenvalues --    5.15047   5.15265   5.16116   5.16383   5.16753
 Alpha virt. eigenvalues --    5.17799   5.19830   5.20805   5.26396   5.31254
 Alpha virt. eigenvalues --    5.33543   5.34250   5.34839   5.35386   5.35602
[...]
   Z20       44.18180   0.00957   0.00000   0.01020   0.00857  44.19037
   X21       36.18826  -0.01683   0.00000  -0.01894  -0.01593  36.17232
   Y21       30.74584   0.00655   0.00000   0.01001   0.00937  30.75521
   Z21       43.44480  -0.01203   0.00000  -0.02604  -0.02796  43.41685
   X22       38.79608   0.00131   0.00000  -0.00579  -0.00310  38.79298
   Y22       31.80409   0.00576   0.00000   0.00460   0.00451  31.80860
   Z22       43.89834  -0.00091   0.00000   0.00330   0.00192  43.90025
   X23       42.46215   0.01239   0.00000   0.02909   0.02956  42.49171
   Y23       46.61954   0.01706   0.00000   0.00506   0.00596  46.62551
   Z23       38.49372  -0.00453   0.00000  -0.01203  -0.01220  38.48152
   X24       41.32831  -0.00508   0.00000  -0.00402  -0.00325  41.32506
   Y24       46.46837  -0.00132   0.00000   0.00267   0.00336  46.47173
   Z24       37.09532  -0.00445   0.00000   0.00044   0.00005  37.09537
   X25       42.31097  -0.00580   0.00000  -0.01848  -0.01783  42.29314
   Y25       45.05107  -0.01499   0.00000  -0.00599  -0.00516  45.04591
   Z25       39.38189   0.00980   0.00000   0.01669   0.01642  39.39831
   X26       32.57888   0.00402   0.00000  -0.00228  -0.00005  32.57883
   Y26       33.88279  -0.00544   0.00000  -0.03089  -0.03234  33.85045
   Z26       44.01172  -0.01997   0.00000  -0.04331  -0.04580  43.96592
   X27       30.89702  -0.00355   0.00000  -0.01309  -0.01078  30.88624
   Y27       34.03397   0.00027   0.00000   0.00267   0.00087  34.03484
   Z27       43.35032  -0.00204   0.00000  -0.01265  -0.01545  43.33487
   X28       32.33321  -0.00140   0.00000   0.00482   0.00673  32.33994
   Y28       33.69382   0.00840   0.00000   0.04977   0.04820  33.74201
   Z28       45.80696   0.00692   0.00000  -0.01463  -0.01717  45.78979
   X29       36.43392   0.00478   0.00000   0.01474   0.01428  36.44820
   Y29       47.98015   0.01661   0.00000   0.02801   0.02748  48.00762
   Z29       41.80074   0.00669   0.00000   0.01299   0.01172  41.81246
   X30       37.05753  -0.00506   0.00000  -0.02043  -0.02040  37.03713
   Y30       46.58175  -0.00837   0.00000  -0.00480  -0.00517  46.57658
   Z30       40.81808  -0.00062   0.00000   0.01376   0.01256  40.83064
   X31       34.77096   0.00097   0.00000   0.01073   0.01029  34.78125
   Y31       47.46992  -0.00417   0.00000  -0.00019  -0.00111  47.46881
   Z31       42.32987  -0.00490   0.00000  -0.01664  -0.01824  42.31163
   X32       49.24626   0.01104   0.00000   0.00908   0.01194  49.25821
   Y32       37.39768   0.00667   0.00000  -0.00038   0.00207  37.39975
   Z32       36.49061   0.00364   0.00000   0.00677   0.00756  36.49817
   X33       48.90611  -0.00453   0.00000  -0.01101  -0.00762  48.89849
   Y33       35.96149  -0.00664   0.00000  -0.00450  -0.00209  35.95940
   Z33       35.45126  -0.00470   0.00000  -0.00432  -0.00365  35.44761
   X34       47.65889  -0.00698   0.00000  -0.00851  -0.00587  47.65303
   Y34       37.75673   0.00015   0.00000  -0.00068   0.00139  37.75812
   Z34       37.28430   0.00097   0.00000  -0.00479  -0.00429  37.28001
   X35       32.40880  -0.00716   0.00000  -0.01136  -0.00999  32.39881
   Y35       46.37388   0.00083   0.00000   0.01057   0.00942  46.38330
   Z35       34.01507   0.02400   0.00000   0.02023   0.01814  34.03321
   X36       31.16158  -0.00973   0.00000  -0.01121  -0.00963  31.15195
   Y36       46.60065  -0.00111   0.00000  -0.01319  -0.01457  46.58608
   Z36       32.74895  -0.01420   0.00000  -0.01632  -0.01864  32.73031
   X37       33.95838   0.01340   0.00000   0.00073   0.00232  33.96069
   Y37       46.26050  -0.00788   0.00000  -0.03619  -0.03696  46.22353
   Z37       33.10800  -0.01219   0.00000  -0.01007  -0.01188  33.09612
   X38       27.43882  -0.01640   0.00000  -0.00483  -0.00339  27.43543
   Y38       43.65267  -0.00416   0.00000  -0.03264  -0.03498  43.61769
   Z38       36.94415  -0.02285   0.00000  -0.07922  -0.08235  36.86180
   X39       28.70494   0.00805   0.00000  -0.00149  -0.00035  28.70459
   Y39       44.93769   0.00194   0.00000  -0.01115  -0.01321  44.92448
   Z39       36.90635   0.00439   0.00000   0.01813   0.01529  36.92164
   X40       28.23251   0.00725   0.00000  -0.00292  -0.00135  28.23116
   Y40       42.23538  -0.00670   0.00000   0.00430   0.00211  42.23749
   Z40       37.73783   0.01092   0.00000   0.03098   0.02796  37.76579
   X41       28.25141   0.00328   0.00000   0.00342   0.00652  28.25793
   Y41       40.72360  -0.00471   0.00000   0.00087  -0.00110  40.72250
   Z41       31.42615  -0.00635   0.00000   0.01771   0.01464  31.44079
   X42       26.45617  -0.00351   0.00000  -0.00222   0.00082  26.45698
   Y42       40.87478   0.00420   0.00000   0.01886   0.01649  40.89127
   Z42       31.59622   0.00313   0.00000   0.01051   0.00711  31.60333
   X43       28.91281  -0.00094   0.00000  -0.01541  -0.01276  28.90005
   Y43       41.42280   0.00601   0.00000   0.01489   0.01301  41.43581
   Z43       32.95682   0.01392   0.00000   0.03642   0.03349  32.99032
   X44       38.92836   0.00718   0.00000   0.00366   0.00795  38.93631
   Y44       40.23227   0.00478   0.00000   0.00749   0.00806  40.24033
   Z44       25.73807  -0.01718   0.00000  -0.01269  -0.01375  25.72432
   X45       37.39768  -0.00647   0.00000  -0.00594  -0.00153  37.39615
   Y45       39.34410  -0.00203   0.00000   0.00718   0.00740  39.35150
   Z45       26.09712   0.00734   0.00000   0.01333   0.01195  26.10906
   X46       39.62756  -0.00383   0.00000  -0.02569  -0.02179  39.60577
   Y46       40.61021  -0.00225   0.00000  -0.01333  -0.01267  40.59754
   Z46       27.36323   0.01360   0.00000   0.02223   0.02131  27.38454
   X47       42.87789  -0.00864   0.00000  -0.00999  -0.01006  42.86783
   Y47       41.08265   0.00968   0.00000   0.00530   0.00597  41.08861
   Z47       47.73448   0.00269   0.00000   0.00724   0.00694  47.74143
   X48       42.38656  -0.00782   0.00000  -0.02629  -0.02607  42.36048
   Y48       39.40079  -0.00898   0.00000  -0.00601  -0.00547  39.39532
   Z48       48.20691   0.00429   0.00000   0.01009   0.00964  48.21656
   X49       44.54084   0.01021   0.00000   0.00429   0.00439  44.54523
   Y49       40.89367  -0.00033   0.00000   0.00084   0.00190  40.89557
   Z49       47.07308  -0.00457   0.00000  -0.00390  -0.00388  47.06919
   X50       34.63868  -0.00390   0.00000   0.00773   0.00726  34.64594
   Y50       41.53618  -0.01317   0.00000  -0.04092  -0.04211  41.49407
   Z50       49.37854   0.00964   0.00000   0.01036   0.00852  49.38706
   X51       35.84810   0.00293   0.00000  -0.01371  -0.01423  35.83387
   Y51       42.51884   0.01089   0.00000   0.03195   0.03105  42.54989
   Z51       48.43368  -0.00139   0.00000   0.02511   0.02354  48.45722
   X52       33.48595   0.00033   0.00000   0.00431   0.00421  33.49015
   Y52       40.93147   0.00271   0.00000   0.01486   0.01346  40.94493
   Z52       48.11243  -0.00594   0.00000  -0.01796  -0.02004  48.09239
   X53       31.99306  -0.01441   0.00000  -0.03848  -0.03851  31.95455
   Y53       49.00060   0.00895   0.00000   0.01355   0.01215  49.01275
   Z53       38.38034   0.01501   0.00000  -0.00139  -0.00347  38.37687
   X54       32.10645   0.00837   0.00000   0.02921   0.02970  32.13615
   Y54       47.88566  -0.00938   0.00000  -0.00109  -0.00240  47.88326
   Z54       36.96304  -0.01792   0.00000  -0.02146  -0.02355  36.93950
   X55       33.35367   0.00582   0.00000   0.00847   0.00823  33.36190
   Y55       50.17223  -0.00146   0.00000  -0.01820  -0.01928  50.15295
   Z55       38.13467   0.00546   0.00000   0.04209   0.04031  38.17498
   X56       26.81521  -0.00810   0.00000  -0.02136  -0.01706  26.79815
   Y56       35.39457  -0.00577   0.00000  -0.02355  -0.02583  35.36874
   Z56       31.27497  -0.02083   0.00000  -0.00627  -0.00980  31.26516
   X57       27.55221   0.00989   0.00000   0.01292   0.01697  27.56917
   Y57       35.11111  -0.00362   0.00000  -0.00674  -0.00891  35.10220
   Z57       32.90013   0.01995   0.00000   0.01750   0.01411  32.91424
   X58       25.71917   0.00153   0.00000   0.01409   0.01803  25.73720
   Y58       36.81187   0.00409   0.00000   0.00970   0.00718  36.81905
   Z58       31.52063   0.00132   0.00000   0.00150  -0.00219  31.51844
   X59       30.82143   0.01442   0.00000   0.04341   0.04725  30.86868
   Y59       41.13934   0.00949   0.00000  -0.00146  -0.00271  41.13663
   Z59       27.09867  -0.01310   0.00000  -0.02752  -0.03008  27.06859
   X60       29.89547  -0.00323   0.00000  -0.00582  -0.00155  29.89392
   Y60       40.13778  -0.00463   0.00000  -0.00437  -0.00579  40.13199
   Z60       25.90815  -0.00105   0.00000   0.00216  -0.00062  25.90752
   X61       30.63246  -0.00866   0.00000  -0.03531  -0.03159  30.60087
   Y61       40.25117  -0.00105   0.00000   0.02957   0.02822  40.27938
   Z61       28.66715   0.00819   0.00000   0.00225  -0.00039  28.66675
   X62       29.00730  -0.01128   0.00000   0.00532   0.00543  29.01273
   Y62       45.78806  -0.01310   0.00000  -0.02029  -0.02244  45.76562
   Z62       41.40390   0.00417   0.00000   0.00849   0.00574  41.40964
   X63       30.16003   0.00728   0.00000   0.01420   0.01410  30.17413
   Y63       45.48571   0.00551   0.00000   0.02684   0.02490  45.51060
   Z63       42.76450   0.00678   0.00000   0.02288   0.02034  42.78484
   X64       29.87657   0.01010   0.00000   0.01241   0.01245  29.88902
   Y64       46.94080   0.01304   0.00000   0.02791   0.02600  46.96679
   Z64       40.30786  -0.00104   0.00000   0.02790   0.02535  40.33321
   X65       39.91102   0.00972   0.00000   0.01227   0.01282  39.92383
   Y65       36.47171   0.00522   0.00000  -0.00163  -0.00168  36.47003
   Z65       49.85098  -0.00884   0.00000  -0.01620  -0.01721  49.83376
   X66       40.28896  -0.00006   0.00000  -0.00477  -0.00426  40.28470
   Y66       35.39457  -0.00480   0.00000  -0.00130  -0.00132  35.39325
   Z66       51.24937   0.00664   0.00000   0.00537   0.00439  51.25377
   X67       38.11578  -0.00904   0.00000  -0.00541  -0.00481  38.11097
   Y67       36.33943   0.00270   0.00000   0.01981   0.01937  36.35880
   Z67       49.64311  -0.00125   0.00000  -0.00376  -0.00511  49.63799
   X68       29.34745   0.00531   0.00000   0.01324   0.01881  29.36626
   Y68       30.76474  -0.01712   0.00000  -0.01644  -0.01811  30.74663
   Z68       29.89547  -0.00471   0.00000  -0.01192  -0.01513  29.88034
   X69       30.12223  -0.00347   0.00000  -0.02242  -0.01723  30.10500
   Y69       31.12379   0.00646   0.00000   0.01405   0.01248  31.13627
   Z69       31.50173   0.00172   0.00000   0.00303  -0.00002  31.50171
   X70       28.81832  -0.00424   0.00000  -0.01849  -0.01316  28.80516
   Y70       32.37101   0.01117   0.00000   0.01008   0.00830  32.37931
   Z70       29.25296   0.00644   0.00000   0.03626   0.03300  29.28596
   X71       30.44349   0.01252   0.00000   0.00722   0.00677  30.45026
   Y71       43.82275   0.01276   0.00000   0.00461   0.00260  43.82535
   Z71       46.56285   0.00032   0.00000  -0.01459  -0.01714  46.54571
   X72       29.49862  -0.01408   0.00000  -0.02628  -0.02628  29.47235
   Y72       42.80230  -0.01605   0.00000  -0.03127  -0.03346  42.76884
   Z72       45.42902  -0.00954   0.00000   0.00114  -0.00163  45.42739
   X73       29.97106   0.00115   0.00000   0.01860   0.01796  29.98902
   Y73       43.23693  -0.00025   0.00000   0.01463   0.01247  43.24940
   Z73       48.20691   0.00608   0.00000   0.00492   0.00226  48.20918
   X74       34.90324  -0.01437   0.00000  -0.00498  -0.00262  34.90062
   Y74       29.47973  -0.00362   0.00000  -0.00575  -0.00685  29.47288
   Z74       48.28250   0.01860   0.00000   0.02652   0.02432  48.30682
   X75       36.18826   0.01552   0.00000   0.01078   0.01334  36.20160
   Y75       29.70649   0.00302   0.00000   0.00825   0.00748  29.71398
   Z75       47.01639  -0.01479   0.00000  -0.00460  -0.00655  47.00984
   X76       34.09066  -0.00094   0.00000  -0.01139  -0.00860  34.08206
   Y76       27.91125   0.00232   0.00000   0.00978   0.00852  27.91978
   Z76       47.82897  -0.00276   0.00000  -0.00987  -0.01228  47.81669
   X77       34.71427   0.00391   0.00000   0.00428   0.00657  34.72083
   Y77       46.29829   0.00519   0.00000   0.01748   0.01700  46.31529
   Z77       29.27186   0.01348   0.00000   0.01471   0.01305  29.28491
   X78       33.84500  -0.00171   0.00000  -0.00292  -0.00096  33.84404
   Y78       47.88566   0.00567   0.00000   0.01727   0.01660  47.90226
   Z78       29.17737  -0.00400   0.00000  -0.01852  -0.02028  29.15709
   X79       34.56309  -0.00234   0.00000  -0.00832  -0.00556  34.55753
   Y79       45.61799  -0.01041   0.00000  -0.03067  -0.03113  45.58686
   Z79       27.60890  -0.00873   0.00000   0.01281   0.01110  27.62000
   X80       31.31276  -0.00334   0.00000  -0.01105  -0.00702  31.30574
   Y80       27.19316   0.00444   0.00000   0.00092  -0.00075  27.19241
   Z80       42.14089   0.01700   0.00000   0.02466   0.02170  42.16259
   X81       30.27341   0.00284   0.00000   0.01157   0.01542  30.28883
   Y81       28.55376   0.00029   0.00000   0.00522   0.00335  28.55711
   Z81       41.51728  -0.00362   0.00000  -0.00524  -0.00834  41.50894
   X82       31.84189   0.00300   0.00000   0.00110   0.00561  31.84749
   Y82       26.30499  -0.00213   0.00000   0.01243   0.01092  26.31591
   Z82       40.66691  -0.01195   0.00000  -0.00320  -0.00609  40.66082
   X83       38.49372  -0.00637   0.00000   0.00326   0.00218  38.49591
   Y83       45.08887  -0.00111   0.00000  -0.00947  -0.00978  45.07909
   Z83       48.39589   0.00525   0.00000   0.02884   0.02786  48.42374
   X84       39.11733  -0.00079   0.00000  -0.00958  -0.01094  39.10639
   Y84       46.75182   0.00023   0.00000  -0.01144  -0.01160  46.74022
   Z84       48.01794  -0.00557   0.00000  -0.02538  -0.02619  47.99175
   X85       39.98660   0.00953   0.00000   0.02227   0.02140  40.00800
   Y85       44.06841  -0.00534   0.00000  -0.01045  -0.01043  44.05798
   Z85       48.56596  -0.00375   0.00000  -0.02173  -0.02246  48.54350
   X86       32.80565  -0.00764   0.00000   0.00619   0.00743  32.81307
   Y86       34.09066   0.02401   0.00000   0.00593   0.00435  34.09501
   Z86       48.86832   0.00744   0.00000   0.02183   0.01939  48.88771
   X87       32.52219  -0.00168   0.00000  -0.01109  -0.01024  32.51195
   Y87       34.33632   0.00092   0.00000   0.00768   0.00598  34.34231
   Z87       50.64466   0.00023   0.00000   0.01452   0.01203  50.65669
   X88       33.44815   0.01366   0.00000   0.02431   0.02596  33.47411
   Y88       32.40880  -0.02993   0.00000  -0.03468  -0.03610  32.37270
   Z88       48.73604   0.00338   0.00000   0.02821   0.02583  48.76187
   X89       27.24985   0.01188   0.00000   0.00931   0.01014  27.25999
   Y89       39.34410  -0.00375   0.00000  -0.01320  -0.01585  39.32825
   Z89       45.06997  -0.00933   0.00000  -0.01161  -0.01492  45.05505
   X90       27.09867  -0.00220   0.00000  -0.00250  -0.00191  27.09677
   Y90       38.87167  -0.00218   0.00000  -0.00058  -0.00333  38.86834
   Z90       46.80852   0.00782   0.00000   0.00486   0.00151  46.81002
   X91       25.58689  -0.00835   0.00000  -0.00167  -0.00087  25.58603
   Y91       39.83543   0.00527   0.00000   0.01853   0.01552  39.85095
   Z91       44.55974  -0.00134   0.00000   0.00197  -0.00164  44.55811
   X92       25.43571   0.01756   0.00000   0.01397   0.01713  25.45284
   Y92       33.37256  -0.00276   0.00000  -0.01270  -0.01556  33.35700
   Z92       39.60866   0.00290   0.00000   0.02393   0.02007  39.62873
   X93       25.20895  -0.00324   0.00000  -0.01252  -0.00985  25.19910
   Y93       34.20404   0.00423   0.00000   0.01268   0.00971  34.21375
   Z93       41.19603   0.00685   0.00000   0.01645   0.01258  41.20860
   X94       23.77275  -0.01329   0.00000  -0.00456  -0.00121  23.77155
   Y94       32.97572  -0.00246   0.00000   0.00366   0.00045  32.97617
   Z94       39.06064  -0.00591   0.00000  -0.00884  -0.01303  39.04761
   X95       45.84476  -0.00069   0.00000   0.01921   0.01983  45.86458
   Y95       49.43524   0.00948   0.00000   0.01462   0.01640  49.45163
   Z95       34.48750  -0.01203   0.00000  -0.02785  -0.02729  34.46022
   X96       45.71248  -0.00027   0.00000  -0.00777  -0.00666  45.70581
   Y96       47.73448  -0.00366   0.00000  -0.00472  -0.00295  47.73153
   Z96       33.86389   0.00506   0.00000   0.01895   0.01942  33.88332
   X97       46.73293  -0.00171   0.00000  -0.02675  -0.02640  46.70653
   Y97       49.28406  -0.00602   0.00000  -0.01587  -0.01396  49.27009
   Z97       36.05597   0.00727   0.00000   0.00897   0.00969  36.06566
         Item               Value     Threshold  Converged?
 Maximum Force            0.029929     0.000450     NO 
 RMS     Force            0.009131     0.000300     NO 
 Maximum Displacement     0.082345     0.001800     NO 
 RMS     Displacement     0.017463     0.001200     NO 
 Predicted change in Energy=-2.492174D-02
 GradGradGradGradGradGradGradGradGradGradGradGradGradGradGradGradGradGrad

 Leave Link  103 at Wed May  2 18:31:34 2018, MaxMem= 14763950080 cpu:        52.7
 (Enter /cm/shared/gaussian/g09.e01/intel64-sandybridge/g09/l9999.exe)
 1\1\GINC-POPLE03\Force\RPBE1PBE\CC-pVDZ\Br1H64O32(1-)\M.PELUSO\02-May-
 2018\0\\#p PBE1PBE/cc-pvDZ force Counterpoise=2 noSymm\\forces on chlo
 ride comput - NWATER: 32\\-1,1\Br,20.,20.,20.\O,18.,17.48,20.34\H,18.5
 8,18.17,20.02\H,17.91,17.66,21.27\O,18.93,22.94,20.81\H,18.16,22.5,21.
 16\H,19.51,22.23,20.53\O,21.69,22.42,21.8\H,20.98,22.08,21.25\H,22.06,
 21.64,22.21\O,20.22,21.,16.7\H,20.52,21.14,17.6\H,19.47,20.41,16.79\O,
 15.65,20.34,21.\H,16.51,20.58,21.37\H,15.2,19.89,21.72\O,15.45,17.92,1
 8.98\H,16.39,17.91,19.13\H,15.07,17.7,19.83\O,19.99,16.05,23.38\H,19.1
 5,16.27,22.99\H,20.53,16.83,23.23\O,22.47,24.67,20.37\H,21.87,24.59,19
 .63\H,22.39,23.84,20.84\O,17.24,17.93,23.29\H,16.35,18.01,22.94\H,17.1
 1,17.83,24.24\O,19.28,25.39,22.12\H,19.61,24.65,21.6\H,18.4,25.12,22.4
 \O,26.06,19.79,19.31\H,25.88,19.03,18.76\H,25.22,19.98,19.73\O,17.15,2
 4.54,18.\H,16.49,24.66,17.33\H,17.97,24.48,17.52\O,14.52,23.1,19.55\H,
 15.19,23.78,19.53\H,14.94,22.35,19.97\O,14.95,21.55,16.63\H,14.,21.63,
 16.72\H,15.3,21.92,17.44\O,20.6,21.29,13.62\H,19.79,20.82,13.81\H,20.9
 7,21.49,14.48\O,22.69,21.74,25.26\H,22.43,20.85,25.51\H,23.57,21.64,24
 .91\O,18.33,21.98,26.13\H,18.97,22.5,25.63\H,17.72,21.66,25.46\O,16.93
 ,25.93,20.31\H,16.99,25.34,19.56\H,17.65,26.55,20.18\O,14.19,18.73,16.
 55\H,14.58,18.58,17.41\H,13.61,19.48,16.68\O,16.31,21.77,14.34\H,15.82
 ,21.24,13.71\H,16.21,21.3,15.17\O,15.35,24.23,21.91\H,15.96,24.07,22.6
 3\H,15.81,24.84,21.33\O,21.12,19.3,26.38\H,21.32,18.73,27.12\H,20.17,1
 9.23,26.27\O,15.53,16.28,15.82\H,15.94,16.47,16.67\H,15.25,17.13,15.48
 \O,16.11,23.19,24.64\H,15.61,22.65,24.04\H,15.86,22.88,25.51\O,18.47,1
 5.6,25.55\H,19.15,15.72,24.88\H,18.04,14.77,25.31\O,18.37,24.5,15.49\H
 ,17.91,25.34,15.44\H,18.29,24.14,14.61\O,16.57,14.39,22.3\H,16.02,15.1
 1,21.97\H,16.85,13.92,21.52\O,20.37,23.86,25.61\H,20.7,24.74,25.41\H,2
 1.16,23.32,25.7\O,17.36,18.04,25.86\H,17.21,18.17,26.8\H,17.7,17.15,25
 .79\O,14.42,20.82,23.85\H,14.34,20.57,24.77\H,13.54,21.08,23.58\O,13.4
 6,17.66,20.96\H,13.34,18.1,21.8\H,12.58,17.45,20.67\O,24.26,26.16,18.2
 5\H,24.19,25.26,17.92\H,24.73,26.08,19.08\\Version=ES64L-G09RevE.01\HF
 =-2443.1225779\RMSD=8.802e-09\RMSF=9.131e-03\Dipole=-4.4942459,-3.1836
 336,4.8985215\Quadrupole=2.2016762,-333.8302088,331.6285326,-1670.6516
 929,-1367.2217689,-1515.8050934\PG=C01 [X(Br1H64O32)]\\@


 NATURE WILL TELL YOU A DIRECT LIE IF SHE CAN.

                                -- CHARLES DARWIN
 Job cpu time:       0 days  6 hours 57 minutes 54.9 seconds.
 File lengths (MBytes):  RWF=    482 Int=      0 D2E=      0 Chk=    160 Scr=      1
 Normal termination of Gaussian 09 at Wed May  2 18:31:34 2018.
