 Entering Gaussian System, Link 0=/cm/shared/gaussian/g09.e01/intel64-sandybridge/g09/g09
 Initial command:
 /cm/shared/gaussian/g09.e01/intel64-sandybridge/g09/l1.exe "/local/scratch/m.peluso/32_wat/Gau-32625.inp" -scrdir="/local/scratch/m.peluso/32_wat/"
 Entering Link 1 = /cm/shared/gaussian/g09.e01/intel64-sandybridge/g09/l1.exe PID=     32626.
  
 Copyright (c) 1988,1990,1992,1993,1995,1998,2003,2009,2015,
            Gaussian, Inc.  All Rights Reserved.
  
 This is part of the Gaussian(R) 09 program.  It is based on
 the Gaussian(R) 03 system (copyright 2003, Gaussian, Inc.),
 the Gaussian(R) 98 system (copyright 1998, Gaussian, Inc.),
 the Gaussian(R) 94 system (copyright 1995, Gaussian, Inc.),
 the Gaussian 92(TM) system (copyright 1992, Gaussian, Inc.),
 the Gaussian 90(TM) system (copyright 1990, Gaussian, Inc.),
 the Gaussian 88(TM) system (copyright 1988, Gaussian, Inc.),
 the Gaussian 86(TM) system (copyright 1986, Carnegie Mellon
 University), and the Gaussian 82(TM) system (copyright 1983,
 Carnegie Mellon University). Gaussian is a federally registered
 trademark of Gaussian, Inc.
  
 This software contains proprietary and confidential information,
 including trade secrets, belonging to Gaussian, Inc.
  
 This software is provided under written license and may be
 used, copied, transmitted, or stored only in accord with that
 written license.
  
 The following legend is applicable only to US Government
 contracts under FAR:
  
                    RESTRICTED RIGHTS LEGEND
  
 Use, reproduction and disclosure by the US Government is
 subject to restrictions as set forth in subparagraphs (a)
 and (c) of the Commercial Computer Software - Restricted
 Rights clause in FAR 52.227-19.
  
 Gaussian, Inc.
 340 Quinnipiac St., Bldg. 40, Wallingford CT 06492
  
  
 ---------------------------------------------------------------
 Warning -- This program may not be used in any manner that
 competes with the business of Gaussian, Inc. or will provide
 assistance to any competitor of Gaussian, Inc.  The licensee
 of this program is prohibited from giving any competitor of
 Gaussian, Inc. access to this program.  By using this program,
 the user acknowledges that Gaussian, Inc. is engaged in the
 business of creating and licensing software in the field of
 computational chemistry and represents and warrants to the
 licensee that it is not a competitor of Gaussian, Inc. and that
 it will not use this program in any manner prohibited above.
 ---------------------------------------------------------------
  

 Cite this work as:
 Gaussian 09, Revision E.01,
 M. J. Frisch, G. W. Trucks, H. B. Schlegel, G. E. Scuseria, 
 M. A. Robb, J. R. Cheeseman, G. Scalmani, V. Barone, B. Mennucci, 
 G. A. Petersson, H. Nakatsuji, M. Caricato, X. Li, H. P. Hratchian, 
 A. F. Izmaylov, J. Bloino, G. Zheng, J. L. Sonnenberg, M. Hada, 
 M. Ehara, K. Toyota, R. Fukuda, J. Hasegawa, M. Ishida, T. Nakajima, 
 Y. Honda, O. Kitao, H. Nakai, T. Vreven, J. A. Montgomery, Jr., 
 J. E. Peralta, F. Ogliaro, M. Bearpark, J. J. Heyd, E. Brothers, 
 K. N. Kudin, V. N. Staroverov, T. Keith, R. Kobayashi, J. Normand, 
 K. Raghavachari, A. Rendell, J. C. Burant, S. S. Iyengar, J. Tomasi, 
 M. Cossi, N. Rega, J. M. Millam, M. Klene, J. E. Knox, J. B. Cross, 
 V. Bakken, C. Adamo, J. Jaramillo, R. Gomperts, R. E. Stratmann, 
 O. Yazyev, A. J. Austin, R. Cammi, C. Pomelli, J. W. Ochterski, 
 R. L. Martin, K. Morokuma, V. G. Zakrzewski, G. A. Voth, 
 P. Salvador, J. J. Dannenberg, S. Dapprich, A. D. Daniels, 
 O. Farkas, J. B. Foresman, J. V. Ortiz, J. Cioslowski, 
 and D. J. Fox, Gaussian, Inc., Wallingford CT, 2013.
 
 ******************************************
 Gaussian 09:  ES64L-G09RevE.01 30-Nov-2015
                 3-May-2018 
 ******************************************
 %Mem=110GB
 %NProcShared=64
 Will use up to   64 processors via shared memory.
 %chk=snap4.chk
 ----------------------------------------------
 #p PBE1PBE/cc-pvDZ force Counterpoise=2 noSymm
 ----------------------------------------------
 1/10=7,30=1,38=1,62=2/1,3;
 2/12=2,15=1,17=6,18=5,40=1/2;
 1/10=7,30=1,38=1,53=2,62=2,63=101/22;
 3/5=16,11=2,16=1,25=1,30=1,71=1,74=-13/1,2,3;
 4//1;
 5/5=2,38=5/2;
 6/7=2,8=2,9=2,10=2,28=1/1;
 7/7=1,29=1,30=1,33=-1/1,2,3,16;
 1/10=7,30=1,53=2,62=2,63=101/22;
 3/5=7,6=11,11=2,16=1,25=1,30=1,71=1,74=-13,82=7/1,2,3;
 4//1;
 5/5=2,38=5/2;
 6/7=2,8=2,9=2,10=2,28=1/1;
 7/7=1,29=1,30=1,33=-1/1,2,3,16;
 1/10=7,30=1,53=2,62=2,63=101/22(-5);
 7/9=1,29=1,44=-1/16;
 1/10=7,30=1,62=2/3;
 99//99;
 Leave Link    1 at Thu May  3 05:29:52 2018, MaxMem= 14763950080 cpu:         8.0
 (Enter /cm/shared/gaussian/g09.e01/intel64-sandybridge/g09/l101.exe)
 --------------------------------------
 forces on chloride comput - NWATER: 32
 --------------------------------------
 Symbolic Z-matrix:
 Charge = -1 Multiplicity = 1 in supermolecule
 Charge = -1 Multiplicity = 1 in fragment      1.
 Charge =  0 Multiplicity = 1 in fragment      2.
 Br(Fragment=1)        20.       20.       20. 
 O(Fragment=2)         21.03     21.01     17.14 
 H(Fragment=2)         21.98     20.87     17.15 
 H(Fragment=2)         20.72     20.58     17.94 
 O(Fragment=2)         17.53     20.39     21.94 
 H(Fragment=2)         17.97     20.95     22.58 
 H(Fragment=2)         18.25     19.96     21.47 
 O(Fragment=2)         17.72     18.32     18.43 
 H(Fragment=2)         18.37     18.76     18.97 
 H(Fragment=2)         17.93     18.58     17.53 
 O(Fragment=2)         21.82     17.8      18.6 
 H(Fragment=2)         21.54     18.53     19.14 
 H(Fragment=2)         22.71     17.62     18.89 
 O(Fragment=2)         23.08     20.76     20.66 
 H(Fragment=2)         22.21     20.68     20.28 
 H(Fragment=2)         23.29     21.7      20.58 
 O(Fragment=2)         20.04     17.27     21.79 
 H(Fragment=2)         20.89     16.95     21.48 
 H(Fragment=2)         19.81     17.97     21.18 
 O(Fragment=2)         18.66     23.07     20.37 
 H(Fragment=2)         19.16     22.38     20.81 
 H(Fragment=2)         18.63     22.8      19.46 
 O(Fragment=2)         21.1      21.82     22.55 
 H(Fragment=2)         21.22     20.95     22.17 
 H(Fragment=2)         20.26     21.78     23. 
 O(Fragment=2)         16.21     20.92     19.34 
 H(Fragment=2)         16.92     20.69     19.94 
 H(Fragment=2)         16.03     20.1      18.86 
 O(Fragment=2)         21.68     23.15     19.82 
 H(Fragment=2)         20.8      23.11     19.44 
 H(Fragment=2)         21.53     23.38     20.74 
 O(Fragment=2)         17.89     22.33     17.91 
 H(Fragment=2)         17.36     21.7      18.39 
 H(Fragment=2)         17.27     22.98     17.58 
 O(Fragment=2)         20.4      23.81     16.99 
 H(Fragment=2)         20.63     22.9      17.19 
 H(Fragment=2)         20.92     24.02     16.21 
 O(Fragment=2)         18.81     21.71     23.94 
 H(Fragment=2)         18.55     22.63     23.9 
 H(Fragment=2)         18.93     21.54     24.88 
 O(Fragment=2)         24.92     18.7      20.46 
 H(Fragment=2)         24.47     18.34     21.22 
 H(Fragment=2)         24.49     19.54     20.3 
 O(Fragment=2)         18.72     21.87     15.23 
 H(Fragment=2)         18.71     22.07     16.17 
 H(Fragment=2)         19.65     21.89     14.99 
 O(Fragment=2)         18.15     15.61     17.25 
 H(Fragment=2)         18.34     16.44     17.67 
 H(Fragment=2)         18.24     14.96     17.95 
 O(Fragment=2)         15.66     18.95     23.37 
 H(Fragment=2)         15.18     19.76     23.55 
 H(Fragment=2)         16.45     19.24     22.91 
 O(Fragment=2)         21.48     14.87     18.89 
 H(Fragment=2)         22.33     14.48     19.09 
 H(Fragment=2)         21.69     15.76     18.59 
 O(Fragment=2)         18.99     25.6      21.09 
 H(Fragment=2)         18.88     24.67     20.88 
 H(Fragment=2)         18.11     25.96     21.06 
 O(Fragment=2)         19.42     15.63     23.87 
 H(Fragment=2)         18.48     15.45     23.87 
 H(Fragment=2)         19.56     16.18     23.09 
 O(Fragment=2)         18.1      19.36     14.87 
 H(Fragment=2)         18.18     20.23     15.26 
 H(Fragment=2)         18.93     18.93     15.06 
 O(Fragment=2)         21.07     15.54     16.01 
 H(Fragment=2)         20.97     16.25     16.65 
 H(Fragment=2)         20.29     15.       16.13 
 O(Fragment=2)         20.75     18.4      15.19 
 H(Fragment=2)         21.25     17.59     15.15 
 H(Fragment=2)         21.26     19.02     14.66 
 O(Fragment=2)         15.52     16.09     19.36 
 H(Fragment=2)         16.       15.94     18.55 
 H(Fragment=2)         16.02     16.77     19.81 
 O(Fragment=2)         25.76     21.61     19.7 
 H(Fragment=2)         24.88     21.55     19.32 
 H(Fragment=2)         25.71     22.37     20.28 
 O(Fragment=2)         23.37     22.66     24.29 
 H(Fragment=2)         23.81     21.85     24.04 
 H(Fragment=2)         22.56     22.67     23.78 
 O(Fragment=2)         23.26     25.02     18.22 
 H(Fragment=2)         23.22     25.72     18.86 
 H(Fragment=2)         22.54     24.44     18.45 
 O(Fragment=2)         14.04     21.52     21.07 
 H(Fragment=2)         14.86     21.5      20.58 
 H(Fragment=2)         14.31     21.46     21.99 
 O(Fragment=2)         24.06     17.68     22.99 
 H(Fragment=2)         24.58     17.52     23.78 
 H(Fragment=2)         23.39     17.       22.99 
 O(Fragment=2)         21.5      22.11     14.28 
 H(Fragment=2)         21.67     21.35     14.84 
 H(Fragment=2)         22.35     22.3      13.87 
 O(Fragment=2)         19.76     14.25     20.86 
 H(Fragment=2)         20.47     14.43     20.23 
 H(Fragment=2)         19.47     13.37     20.65 
 O(Fragment=2)         22.17     15.62     23.24 
 H(Fragment=2)         22.22     15.61     24.19 
 H(Fragment=2)         21.25     15.47     23.04 
 
 NAtoms=     97 NQM=       97 NQMF=       0 NMMI=      0 NMMIF=      0
                NMic=       0 NMicF=      0.
                    Isotopes and Nuclear Properties:
 (Nuclear quadrupole moments (NQMom) in fm**2, nuclear magnetic moments (NMagM)
  in nuclear magnetons)

  Atom         1           2           3           4           5           6           7           8           9          10
 IAtWgt=          79          16           1           1          16           1           1          16           1           1
 AtmWgt=  78.9183361  15.9949146   1.0078250   1.0078250  15.9949146   1.0078250   1.0078250  15.9949146   1.0078250   1.0078250
 NucSpn=           3           0           1           1           0           1           1           0           1           1
 AtZEff=   0.0000000   0.0000000   0.0000000   0.0000000   0.0000000   0.0000000   0.0000000   0.0000000   0.0000000   0.0000000
 NQMom=   31.3000000   0.0000000   0.0000000   0.0000000   0.0000000   0.0000000   0.0000000   0.0000000   0.0000000   0.0000000
 NMagM=    2.1063990   0.0000000   2.7928460   2.7928460   0.0000000   2.7928460   2.7928460   0.0000000   2.7928460   2.7928460
 AtZNuc=  35.0000000   8.0000000   1.0000000   1.0000000   8.0000000   1.0000000   1.0000000   8.0000000   1.0000000   1.0000000

  Atom        11          12          13          14          15          16          17          18          19          20
 IAtWgt=          16           1           1          16           1           1          16           1           1          16
 AtmWgt=  15.9949146   1.0078250   1.0078250  15.9949146   1.0078250   1.0078250  15.9949146   1.0078250   1.0078250  15.9949146
 NucSpn=           0           1           1           0           1           1           0           1           1           0
 AtZEff=   0.0000000   0.0000000   0.0000000   0.0000000   0.0000000   0.0000000   0.0000000   0.0000000   0.0000000   0.0000000
 NQMom=    0.0000000   0.0000000   0.0000000   0.0000000   0.0000000   0.0000000   0.0000000   0.0000000   0.0000000   0.0000000
 NMagM=    0.0000000   2.7928460   2.7928460   0.0000000   2.7928460   2.7928460   0.0000000   2.7928460   2.7928460   0.0000000
 AtZNuc=   8.0000000   1.0000000   1.0000000   8.0000000   1.0000000   1.0000000   8.0000000   1.0000000   1.0000000   8.0000000

  Atom        21          22          23          24          25          26          27          28          29          30
 IAtWgt=           1           1          16           1           1          16           1           1          16           1
 AtmWgt=   1.0078250   1.0078250  15.9949146   1.0078250   1.0078250  15.9949146   1.0078250   1.0078250  15.9949146   1.0078250
 NucSpn=           1           1           0           1           1           0           1           1           0           1
 AtZEff=   0.0000000   0.0000000   0.0000000   0.0000000   0.0000000   0.0000000   0.0000000   0.0000000   0.0000000   0.0000000
 NQMom=    0.0000000   0.0000000   0.0000000   0.0000000   0.0000000   0.0000000   0.0000000   0.0000000   0.0000000   0.0000000
 NMagM=    2.7928460   2.7928460   0.0000000   2.7928460   2.7928460   0.0000000   2.7928460   2.7928460   0.0000000   2.7928460
 AtZNuc=   1.0000000   1.0000000   8.0000000   1.0000000   1.0000000   8.0000000   1.0000000   1.0000000   8.0000000   1.0000000

  Atom        31          32          33          34          35          36          37          38          39          40
 IAtWgt=           1          16           1           1          16           1           1          16           1           1
 AtmWgt=   1.0078250  15.9949146   1.0078250   1.0078250  15.9949146   1.0078250   1.0078250  15.9949146   1.0078250   1.0078250
 NucSpn=           1           0           1           1           0           1           1           0           1           1
 AtZEff=   0.0000000   0.0000000   0.0000000   0.0000000   0.0000000   0.0000000   0.0000000   0.0000000   0.0000000   0.0000000
 NQMom=    0.0000000   0.0000000   0.0000000   0.0000000   0.0000000   0.0000000   0.0000000   0.0000000   0.0000000   0.0000000
 NMagM=    2.7928460   0.0000000   2.7928460   2.7928460   0.0000000   2.7928460   2.7928460   0.0000000   2.7928460   2.7928460
 AtZNuc=   1.0000000   8.0000000   1.0000000   1.0000000   8.0000000   1.0000000   1.0000000   8.0000000   1.0000000   1.0000000

  Atom        41          42          43          44          45          46          47          48          49          50
 IAtWgt=          16           1           1          16           1           1          16           1           1          16
 AtmWgt=  15.9949146   1.0078250   1.0078250  15.9949146   1.0078250   1.0078250  15.9949146   1.0078250   1.0078250  15.9949146
 NucSpn=           0           1           1           0           1           1           0           1           1           0
 AtZEff=   0.0000000   0.0000000   0.0000000   0.0000000   0.0000000   0.0000000   0.0000000   0.0000000   0.0000000   0.0000000
 NQMom=    0.0000000   0.0000000   0.0000000   0.0000000   0.0000000   0.0000000   0.0000000   0.0000000   0.0000000   0.0000000
 NMagM=    0.0000000   2.7928460   2.7928460   0.0000000   2.7928460   2.7928460   0.0000000   2.7928460   2.7928460   0.0000000
 AtZNuc=   8.0000000   1.0000000   1.0000000   8.0000000   1.0000000   1.0000000   8.0000000   1.0000000   1.0000000   8.0000000

  Atom        51          52          53          54          55          56          57          58          59          60
 IAtWgt=           1           1          16           1           1          16           1           1          16           1
 AtmWgt=   1.0078250   1.0078250  15.9949146   1.0078250   1.0078250  15.9949146   1.0078250   1.0078250  15.9949146   1.0078250
 NucSpn=           1           1           0           1           1           0           1           1           0           1
 AtZEff=   0.0000000   0.0000000   0.0000000   0.0000000   0.0000000   0.0000000   0.0000000   0.0000000   0.0000000   0.0000000
 NQMom=    0.0000000   0.0000000   0.0000000   0.0000000   0.0000000   0.0000000   0.0000000   0.0000000   0.0000000   0.0000000
 NMagM=    2.7928460   2.7928460   0.0000000   2.7928460   2.7928460   0.0000000   2.7928460   2.7928460   0.0000000   2.7928460
 AtZNuc=   1.0000000   1.0000000   8.0000000   1.0000000   1.0000000   8.0000000   1.0000000   1.0000000   8.0000000   1.0000000

  Atom        61          62          63          64          65          66          67          68          69          70
 IAtWgt=           1          16           1           1          16           1           1          16           1           1
 AtmWgt=   1.0078250  15.9949146   1.0078250   1.0078250  15.9949146   1.0078250   1.0078250  15.9949146   1.0078250   1.0078250
 NucSpn=           1           0           1           1           0           1           1           0           1           1
 AtZEff=   0.0000000   0.0000000   0.0000000   0.0000000   0.0000000   0.0000000   0.0000000   0.0000000   0.0000000   0.0000000
 NQMom=    0.0000000   0.0000000   0.0000000   0.0000000   0.0000000   0.0000000   0.0000000   0.0000000   0.0000000   0.0000000
 NMagM=    2.7928460   0.0000000   2.7928460   2.7928460   0.0000000   2.7928460   2.7928460   0.0000000   2.7928460   2.7928460
 AtZNuc=   1.0000000   8.0000000   1.0000000   1.0000000   8.0000000   1.0000000   1.0000000   8.0000000   1.0000000   1.0000000

  Atom        71          72          73          74          75          76          77          78          79          80
 IAtWgt=          16           1           1          16           1           1          16           1           1          16
 AtmWgt=  15.9949146   1.0078250   1.0078250  15.9949146   1.0078250   1.0078250  15.9949146   1.0078250   1.0078250  15.9949146
 NucSpn=           0           1           1           0           1           1           0           1           1           0
 AtZEff=   0.0000000   0.0000000   0.0000000   0.0000000   0.0000000   0.0000000   0.0000000   0.0000000   0.0000000   0.0000000
 NQMom=    0.0000000   0.0000000   0.0000000   0.0000000   0.0000000   0.0000000   0.0000000   0.0000000   0.0000000   0.0000000
 NMagM=    0.0000000   2.7928460   2.7928460   0.0000000   2.7928460   2.7928460   0.0000000   2.7928460   2.7928460   0.0000000
 AtZNuc=   8.0000000   1.0000000   1.0000000   8.0000000   1.0000000   1.0000000   8.0000000   1.0000000   1.0000000   8.0000000

  Atom        81          82          83          84          85          86          87          88          89          90
 IAtWgt=           1           1          16           1           1          16           1           1          16           1
 AtmWgt=   1.0078250   1.0078250  15.9949146   1.0078250   1.0078250  15.9949146   1.0078250   1.0078250  15.9949146   1.0078250
 NucSpn=           1           1           0           1           1           0           1           1           0           1
 AtZEff=   0.0000000   0.0000000   0.0000000   0.0000000   0.0000000   0.0000000   0.0000000   0.0000000   0.0000000   0.0000000
 NQMom=    0.0000000   0.0000000   0.0000000   0.0000000   0.0000000   0.0000000   0.0000000   0.0000000   0.0000000   0.0000000
 NMagM=    2.7928460   2.7928460   0.0000000   2.7928460   2.7928460   0.0000000   2.7928460   2.7928460   0.0000000   2.7928460
 AtZNuc=   1.0000000   1.0000000   8.0000000   1.0000000   1.0000000   8.0000000   1.0000000   1.0000000   8.0000000   1.0000000

  Atom        91          92          93          94          95          96          97
 IAtWgt=           1          16           1           1          16           1           1
 AtmWgt=   1.0078250  15.9949146   1.0078250   1.0078250  15.9949146   1.0078250   1.0078250
 NucSpn=           1           0           1           1           0           1           1
 AtZEff=   0.0000000   0.0000000   0.0000000   0.0000000   0.0000000   0.0000000   0.0000000
 NQMom=    0.0000000   0.0000000   0.0000000   0.0000000   0.0000000   0.0000000   0.0000000
 NMagM=    2.7928460   0.0000000   2.7928460   2.7928460   0.0000000   2.7928460   2.7928460
 AtZNuc=   1.0000000   8.0000000   1.0000000   1.0000000   8.0000000   1.0000000   1.0000000
 Leave Link  101 at Thu May  3 05:29:52 2018, MaxMem= 14763950080 cpu:        14.8
 (Enter /cm/shared/gaussian/g09.e01/intel64-sandybridge/g09/l103.exe)

 GradGradGradGradGradGradGradGradGradGradGradGradGradGradGradGradGradGrad
 Berny optimization.
 Initialization pass.
 Trust Radius=3.00D-01 FncErr=1.00D-07 GrdErr=1.00D-07
 Number of steps in this run=      2 maximum allowed number of steps=      2.
 GradGradGradGradGradGradGradGradGradGradGradGradGradGradGradGradGradGrad

 Leave Link  103 at Thu May  3 05:29:52 2018, MaxMem= 14763950080 cpu:         2.1
 (Enter /cm/shared/gaussian/g09.e01/intel64-sandybridge/g09/l202.exe)
 Symmetry turned off by external request.
 Stoichiometry    BrH64O32(1-)
 Framework group  C1[X(BrH64O32)]
 Deg. of freedom   285
 Full point group                 C1      NOp   1
                          Input orientation:                          
 ---------------------------------------------------------------------
 Center     Atomic      Atomic             Coordinates (Angstroms)
 Number     Number       Type             X           Y           Z
 ---------------------------------------------------------------------
      1         35           0       20.000000   20.000000   20.000000
      2          8           0       21.030000   21.010000   17.140000
      3          1           0       21.980000   20.870000   17.150000
      4          1           0       20.720000   20.580000   17.940000
      5          8           0       17.530000   20.390000   21.940000
      6          1           0       17.970000   20.950000   22.580000
      7          1           0       18.250000   19.960000   21.470000
      8          8           0       17.720000   18.320000   18.430000
      9          1           0       18.370000   18.760000   18.970000
     10          1           0       17.930000   18.580000   17.530000
     11          8           0       21.820000   17.800000   18.600000
     12          1           0       21.540000   18.530000   19.140000
     13          1           0       22.710000   17.620000   18.890000
     14          8           0       23.080000   20.760000   20.660000
     15          1           0       22.210000   20.680000   20.280000
     16          1           0       23.290000   21.700000   20.580000
     17          8           0       20.040000   17.270000   21.790000
     18          1           0       20.890000   16.950000   21.480000
     19          1           0       19.810000   17.970000   21.180000
     20          8           0       18.660000   23.070000   20.370000
     21          1           0       19.160000   22.380000   20.810000
     22          1           0       18.630000   22.800000   19.460000
     23          8           0       21.100000   21.820000   22.550000
     24          1           0       21.220000   20.950000   22.170000
     25          1           0       20.260000   21.780000   23.000000
     26          8           0       16.210000   20.920000   19.340000
     27          1           0       16.920000   20.690000   19.940000
     28          1           0       16.030000   20.100000   18.860000
     29          8           0       21.680000   23.150000   19.820000
     30          1           0       20.800000   23.110000   19.440000
     31          1           0       21.530000   23.380000   20.740000
     32          8           0       17.890000   22.330000   17.910000
     33          1           0       17.360000   21.700000   18.390000
     34          1           0       17.270000   22.980000   17.580000
     35          8           0       20.400000   23.810000   16.990000
     36          1           0       20.630000   22.900000   17.190000
     37          1           0       20.920000   24.020000   16.210000
     38          8           0       18.810000   21.710000   23.940000
     39          1           0       18.550000   22.630000   23.900000
     40          1           0       18.930000   21.540000   24.880000
     41          8           0       24.920000   18.700000   20.460000
     42          1           0       24.470000   18.340000   21.220000
     43          1           0       24.490000   19.540000   20.300000
     44          8           0       18.720000   21.870000   15.230000
     45          1           0       18.710000   22.070000   16.170000
     46          1           0       19.650000   21.890000   14.990000
     47          8           0       18.150000   15.610000   17.250000
     48          1           0       18.340000   16.440000   17.670000
     49          1           0       18.240000   14.960000   17.950000
     50          8           0       15.660000   18.950000   23.370000
     51          1           0       15.180000   19.760000   23.550000
     52          1           0       16.450000   19.240000   22.910000
     53          8           0       21.480000   14.870000   18.890000
     54          1           0       22.330000   14.480000   19.090000
     55          1           0       21.690000   15.760000   18.590000
     56          8           0       18.990000   25.600000   21.090000
     57          1           0       18.880000   24.670000   20.880000
     58          1           0       18.110000   25.960000   21.060000
     59          8           0       19.420000   15.630000   23.870000
     60          1           0       18.480000   15.450000   23.870000
     61          1           0       19.560000   16.180000   23.090000
     62          8           0       18.100000   19.360000   14.870000
     63          1           0       18.180000   20.230000   15.260000
     64          1           0       18.930000   18.930000   15.060000
     65          8           0       21.070000   15.540000   16.010000
     66          1           0       20.970000   16.250000   16.650000
     67          1           0       20.290000   15.000000   16.130000
     68          8           0       20.750000   18.400000   15.190000
     69          1           0       21.250000   17.590000   15.150000
     70          1           0       21.260000   19.020000   14.660000
     71          8           0       15.520000   16.090000   19.360000
     72          1           0       16.000000   15.940000   18.550000
     73          1           0       16.020000   16.770000   19.810000
     74          8           0       25.760000   21.610000   19.700000
     75          1           0       24.880000   21.550000   19.320000
     76          1           0       25.710000   22.370000   20.280000
     77          8           0       23.370000   22.660000   24.290000
     78          1           0       23.810000   21.850000   24.040000
     79          1           0       22.560000   22.670000   23.780000
     80          8           0       23.260000   25.020000   18.220000
     81          1           0       23.220000   25.720000   18.860000
     82          1           0       22.540000   24.440000   18.450000
     83          8           0       14.040000   21.520000   21.070000
     84          1           0       14.860000   21.500000   20.580000
     85          1           0       14.310000   21.460000   21.990000
     86          8           0       24.060000   17.680000   22.990000
     87          1           0       24.580000   17.520000   23.780000
     88          1           0       23.390000   17.000000   22.990000
     89          8           0       21.500000   22.110000   14.280000
     90          1           0       21.670000   21.350000   14.840000
     91          1           0       22.350000   22.300000   13.870000
     92          8           0       19.760000   14.250000   20.860000
     93          1           0       20.470000   14.430000   20.230000
     94          1           0       19.470000   13.370000   20.650000
     95          8           0       22.170000   15.620000   23.240000
     96          1           0       22.220000   15.610000   24.190000
     97          1           0       21.250000   15.470000   23.040000
 ---------------------------------------------------------------------
 Rotational constants (GHZ):      0.0577055      0.0520670      0.0498298
 Leave Link  202 at Thu May  3 05:29:52 2018, MaxMem= 14763950080 cpu:         0.6
 (Enter /cm/shared/gaussian/g09.e01/intel64-sandybridge/g09/l122.exe)
 Counterpoise: doing full dimer calculation.
 Leave Link  122 at Thu May  3 05:29:52 2018, MaxMem= 14763950080 cpu:         0.1
 (Enter /cm/shared/gaussian/g09.e01/intel64-sandybridge/g09/l301.exe)
 Standard basis: CC-pVDZ (5D, 7F)
 Ernie: Thresh=  0.10000D-02 Tol=  0.10000D-05 Strict=F.
 Ernie:  87 primitive shells out of 1114 were deleted.
   795 basis functions,  1651 primitive gaussians,   829 cartesian basis functions
   178 alpha electrons      178 beta electrons
       nuclear repulsion energy      6084.4301888167 Hartrees.
 IExCor= 1009 DFT=T Ex+Corr=PBE1PBE ExCW=0 ScaHFX=  0.250000
 ScaDFX=  0.750000  0.750000  1.000000  1.000000 ScalE2=  1.000000  1.000000
 IRadAn=      0 IRanWt=     -1 IRanGd=            0 ICorTp=0 IEmpDi=  4
 NAtoms=   97 NActive=   97 NUniq=   97 SFac= 1.00D+00 NAtFMM=   60 NAOKFM=T Big=T
 Integral buffers will be    131072 words long.
 Raffenetti 2 integral format.
 Two-electron integral symmetry is turned off.
 Leave Link  301 at Thu May  3 05:29:53 2018, MaxMem= 14763950080 cpu:         6.1
 (Enter /cm/shared/gaussian/g09.e01/intel64-sandybridge/g09/l302.exe)
 NPDir=0 NMtPBC=     1 NCelOv=     1 NCel=       1 NClECP=     1 NCelD=      1
         NCelK=      1 NCelE2=     1 NClLst=     1 CellRange=     0.0.
 One-electron integrals computed using PRISM.
 NBasis=   795 RedAO= T EigKep=  1.57D-02  NBF=   795
 NBsUse=   795 1.00D-06 EigRej= -1.00D+00 NBFU=   795
 Precomputing XC quadrature grid using
 IXCGrd= 4 IRadAn=           0 IRanWt=          -1 IRanGd=           0 AccXCQ= 0.00D+00.
 Generated NRdTot=       0 NPtTot=           0 NUsed=           0 NTot=          32
 NSgBfM=   669   675   689   690   690 MxSgAt=    97 MxSgA2=    97.
 Leave Link  302 at Thu May  3 05:29:59 2018, MaxMem= 14763950080 cpu:       436.4
 (Enter /cm/shared/gaussian/g09.e01/intel64-sandybridge/g09/l303.exe)
 DipDrv:  MaxL=1.
 Leave Link  303 at Thu May  3 05:30:00 2018, MaxMem= 14763950080 cpu:        36.1
 (Enter /cm/shared/gaussian/g09.e01/intel64-sandybridge/g09/l401.exe)
 ExpMin= 1.22D-01 ExpMax= 6.40D+05 ExpMxC= 6.18D+03 IAcc=2 IRadAn=         4 AccDes= 0.00D+00
 Harris functional with IExCor= 1009 and IRadAn=       4 diagonalized for initial guess.
 HarFok:  IExCor= 1009 AccDes= 0.00D+00 IRadAn=         4 IDoV= 1 UseB2=F ITyADJ=14
 ICtDFT=  3500011 ScaDFX=  1.000000  1.000000  1.000000  1.000000
 FoFCou: FMM=F IPFlag=           0 FMFlag=      100000 FMFlg1=        2001
         NFxFlg=           0 DoJE=T BraDBF=F KetDBF=T FulRan=T
         wScrn=  0.000000 ICntrl=     500 IOpCl=  0 I1Cent=   200000004 NGrid=           0
         NMat0=    1 NMatS0=      1 NMatT0=    0 NMatD0=    1 NMtDS0=    0 NMtDT0=    0
 Symmetry not used in FoFCou.
 Harris En= -5018.41801113165    
 JPrj=0 DoOrth=F DoCkMO=F.
 Leave Link  401 at Thu May  3 05:30:05 2018, MaxMem= 14763950080 cpu:       322.9
 (Enter /cm/shared/gaussian/g09.e01/intel64-sandybridge/g09/l502.exe)
 Closed shell SCF:
 Using DIIS extrapolation, IDIIS=  1040.
 Two-electron integral symmetry not used.
 IVT=     2138497 IEndB=     2138497 NGot= 14763950080 MDV= 14762516294
 LenX= 14762516294 LenY= 14761828224
 Requested convergence on RMS density matrix=1.00D-08 within 128 cycles.
 Requested convergence on MAX density matrix=1.00D-06.
 Requested convergence on             energy=1.00D-06.
 No special actions if energy rises.
 Fock matrices will be formed incrementally for  20 cycles.
 Integral accuracy reduced to 1.0D-05 until final iterations.

 Cycle   1  Pass 0  IDiag  1:
 FoFJK:  IHMeth= 1 ICntrl=       0 DoSepK=F KAlg= 0 I1Cent=   0 FoldK=F
 IRaf= 810000000 NMat=   1 IRICut=       1 DoRegI=T DoRafI=F ISym2E= 0.
 FoFCou: FMM=T IPFlag=           0 FMFlag=      100000 FMFlg1=        2001
         NFxFlg=           0 DoJE=F BraDBF=F KetDBF=F FulRan=T
         wScrn=  0.000000 ICntrl=       0 IOpCl=  0 I1Cent=           0 NGrid=           0
         NMat0=    1 NMatS0=      1 NMatT0=    0 NMatD0=    1 NMtDS0=    0 NMtDT0=    0
 Symmetry not used in FoFCou.
 FMM levels:  10  Number of levels for PrismC:   9
 E= -5015.29728230159    
 DIIS: error= 3.28D-02 at cycle   1 NSaved=   1.
 NSaved= 1 IEnMin= 1 EnMin= -5015.29728230159     IErMin= 1 ErrMin= 3.28D-02
 ErrMax= 3.28D-02  0.00D+00 EMaxC= 1.00D-01 BMatC= 2.73D+00 BMatP= 2.73D+00
 IDIUse=3 WtCom= 6.72D-01 WtEn= 3.28D-01
 Coeff-Com:  0.100D+01
 Coeff-En:   0.100D+01
 Coeff:      0.100D+01
 Gap=     0.336 Goal=   None    Shift=    0.000
 GapD=    0.336 DampG=1.000 DampE=0.500 DampFc=0.5000 IDamp=-1.
 Damping current iteration by 5.00D-01
 RMSDP=2.87D-03 MaxDP=1.73D-01              OVMax= 2.08D-01

 Cycle   2  Pass 0  IDiag  1:
 RMSU=  1.43D-03    CP:  9.85D-01
 E= -5016.08846241079     Delta-E=       -0.791180109205 Rises=F Damp=T
 DIIS: error= 8.08D-03 at cycle   2 NSaved=   2.
 NSaved= 2 IEnMin= 2 EnMin= -5016.08846241079     IErMin= 2 ErrMin= 8.08D-03
 ErrMax= 8.08D-03  0.00D+00 EMaxC= 1.00D-01 BMatC= 8.75D-02 BMatP= 2.73D+00
 IDIUse=3 WtCom= 9.19D-01 WtEn= 8.08D-02
 Coeff-Com:  0.120D+00 0.880D+00
 Coeff-En:   0.216D+00 0.784D+00
 Coeff:      0.128D+00 0.872D+00
 Gap=     0.221 Goal=   None    Shift=    0.000
 RMSDP=3.57D-04 MaxDP=2.73D-02 DE=-7.91D-01 OVMax= 1.29D-01

 Cycle   3  Pass 0  IDiag  1:
 RMSU=  2.76D-04    CP:  9.87D-01  8.41D-01
 E= -5017.24254265760     Delta-E=       -1.154080246804 Rises=F Damp=F
 DIIS: error= 1.32D-03 at cycle   3 NSaved=   3.
 NSaved= 3 IEnMin= 3 EnMin= -5017.24254265760     IErMin= 3 ErrMin= 1.32D-03
 ErrMax= 1.32D-03  0.00D+00 EMaxC= 1.00D-01 BMatC= 2.31D-03 BMatP= 8.75D-02
 IDIUse=3 WtCom= 9.87D-01 WtEn= 1.32D-02
 Coeff-Com:  0.109D-01 0.820D-01 0.907D+00
 Coeff-En:   0.000D+00 0.000D+00 0.100D+01
 Coeff:      0.108D-01 0.809D-01 0.908D+00
 Gap=     0.225 Goal=   None    Shift=    0.000
 RMSDP=1.02D-04 MaxDP=1.41D-02 DE=-1.15D+00 OVMax= 1.61D-02

 Cycle   4  Pass 0  IDiag  1:
 RMSU=  8.95D-05    CP:  9.88D-01  8.47D-01  8.28D-01
 E= -5017.24296411523     Delta-E=       -0.000421457635 Rises=F Damp=F
 DIIS: error= 9.40D-04 at cycle   4 NSaved=   4.
 NSaved= 4 IEnMin= 4 EnMin= -5017.24296411523     IErMin= 4 ErrMin= 9.40D-04
 ErrMax= 9.40D-04  0.00D+00 EMaxC= 1.00D-01 BMatC= 2.32D-03 BMatP= 2.31D-03
 IDIUse=3 WtCom= 9.91D-01 WtEn= 9.40D-03
 Coeff-Com:  0.188D-02 0.751D-02 0.498D+00 0.492D+00
 Coeff-En:   0.000D+00 0.000D+00 0.448D+00 0.552D+00
 Coeff:      0.186D-02 0.744D-02 0.498D+00 0.493D+00
 Gap=     0.229 Goal=   None    Shift=    0.000
 RMSDP=4.50D-05 MaxDP=5.60D-03 DE=-4.21D-04 OVMax= 5.83D-03

 Cycle   5  Pass 0  IDiag  1:
 RMSU=  1.82D-05    CP:  9.88D-01  8.43D-01  8.95D-01  5.93D-01
 E= -5017.24475325164     Delta-E=       -0.001789136410 Rises=F Damp=F
 DIIS: error= 1.02D-04 at cycle   5 NSaved=   5.
 NSaved= 5 IEnMin= 5 EnMin= -5017.24475325164     IErMin= 5 ErrMin= 1.02D-04
 ErrMax= 1.02D-04  0.00D+00 EMaxC= 1.00D-01 BMatC= 3.55D-05 BMatP= 2.31D-03
 IDIUse=3 WtCom= 9.99D-01 WtEn= 1.02D-03
 Coeff-Com:  0.608D-03-0.181D-02 0.145D+00 0.173D+00 0.683D+00
 Coeff-En:   0.000D+00 0.000D+00 0.000D+00 0.000D+00 0.100D+01
 Coeff:      0.608D-03-0.181D-02 0.145D+00 0.173D+00 0.684D+00
 Gap=     0.229 Goal=   None    Shift=    0.000
 RMSDP=8.30D-06 MaxDP=1.20D-03 DE=-1.79D-03 OVMax= 1.22D-03

 Cycle   6  Pass 0  IDiag  1:
 RMSU=  5.75D-06    CP:  9.88D-01  8.43D-01  9.06D-01  5.75D-01  7.31D-01
 E= -5017.24478176517     Delta-E=       -0.000028513528 Rises=F Damp=F
 DIIS: error= 7.40D-05 at cycle   6 NSaved=   6.
 NSaved= 6 IEnMin= 6 EnMin= -5017.24478176517     IErMin= 6 ErrMin= 7.40D-05
 ErrMax= 7.40D-05  0.00D+00 EMaxC= 1.00D-01 BMatC= 4.10D-06 BMatP= 3.55D-05
 IDIUse=1 WtCom= 1.00D+00 WtEn= 0.00D+00
 Coeff-Com:  0.132D-03-0.199D-02 0.332D-01 0.422D-01 0.288D+00 0.639D+00
 Coeff:      0.132D-03-0.199D-02 0.332D-01 0.422D-01 0.288D+00 0.639D+00
 Gap=     0.229 Goal=   None    Shift=    0.000
 RMSDP=2.31D-06 MaxDP=4.06D-04 DE=-2.85D-05 OVMax= 3.22D-04

 Initial convergence to 1.0D-05 achieved.  Increase integral accuracy.
 Cycle   7  Pass 1  IDiag  1:
 E= -5017.24559294997     Delta-E=       -0.000811184800 Rises=F Damp=F
 DIIS: error= 2.39D-05 at cycle   1 NSaved=   1.
 NSaved= 1 IEnMin= 1 EnMin= -5017.24559294997     IErMin= 1 ErrMin= 2.39D-05
 ErrMax= 2.39D-05  0.00D+00 EMaxC= 1.00D-01 BMatC= 1.57D-06 BMatP= 1.57D-06
 IDIUse=1 WtCom= 1.00D+00 WtEn= 0.00D+00
 Coeff-Com:  0.100D+01
 Coeff:      0.100D+01
 Gap=     0.229 Goal=   None    Shift=    0.000
 RMSDP=2.31D-06 MaxDP=4.06D-04 DE=-8.11D-04 OVMax= 2.79D-04

 Cycle   8  Pass 1  IDiag  1:
 RMSU=  4.49D-06    CP:  1.00D+00
 E= -5017.24559443738     Delta-E=       -0.000001487413 Rises=F Damp=F
 DIIS: error= 1.29D-05 at cycle   2 NSaved=   2.
 NSaved= 2 IEnMin= 2 EnMin= -5017.24559443738     IErMin= 2 ErrMin= 1.29D-05
 ErrMax= 1.29D-05  0.00D+00 EMaxC= 1.00D-01 BMatC= 3.70D-07 BMatP= 1.57D-06
 IDIUse=1 WtCom= 1.00D+00 WtEn= 0.00D+00
 Coeff-Com:  0.254D+00 0.746D+00
 Coeff:      0.254D+00 0.746D+00
 Gap=     0.229 Goal=   None    Shift=    0.000
 RMSDP=8.65D-07 MaxDP=9.26D-05 DE=-1.49D-06 OVMax= 8.94D-05

 Cycle   9  Pass 1  IDiag  1:
 RMSU=  8.60D-07    CP:  1.00D+00  9.79D-01
 E= -5017.24559455771     Delta-E=       -0.000000120326 Rises=F Damp=F
 DIIS: error= 1.03D-05 at cycle   3 NSaved=   3.
 NSaved= 3 IEnMin= 3 EnMin= -5017.24559455771     IErMin= 3 ErrMin= 1.03D-05
 ErrMax= 1.03D-05  0.00D+00 EMaxC= 1.00D-01 BMatC= 2.13D-07 BMatP= 3.70D-07
 IDIUse=1 WtCom= 1.00D+00 WtEn= 0.00D+00
 Coeff-Com: -0.628D-02 0.431D+00 0.575D+00
 Coeff:     -0.628D-02 0.431D+00 0.575D+00
 Gap=     0.229 Goal=   None    Shift=    0.000
 RMSDP=3.74D-07 MaxDP=4.56D-05 DE=-1.20D-07 OVMax= 4.25D-05

 Cycle  10  Pass 1  IDiag  1:
 RMSU=  1.28D-07    CP:  1.00D+00  1.00D+00  6.13D-01
 E= -5017.24559470839     Delta-E=       -0.000000150681 Rises=F Damp=F
 DIIS: error= 1.45D-06 at cycle   4 NSaved=   4.
 NSaved= 4 IEnMin= 4 EnMin= -5017.24559470839     IErMin= 4 ErrMin= 1.45D-06
 ErrMax= 1.45D-06  0.00D+00 EMaxC= 1.00D-01 BMatC= 1.85D-09 BMatP= 2.13D-07
 IDIUse=1 WtCom= 1.00D+00 WtEn= 0.00D+00
 Coeff-Com: -0.579D-02 0.188D+00 0.263D+00 0.555D+00
 Coeff:     -0.579D-02 0.188D+00 0.263D+00 0.555D+00
 Gap=     0.229 Goal=   None    Shift=    0.000
 RMSDP=5.42D-08 MaxDP=1.06D-05 DE=-1.51D-07 OVMax= 9.50D-06

 Cycle  11  Pass 1  IDiag  1:
 RMSU=  3.50D-08    CP:  1.00D+00  1.01D+00  6.11D-01  6.82D-01
 E= -5017.24559470998     Delta-E=       -0.000000001590 Rises=F Damp=F
 DIIS: error= 2.16D-07 at cycle   5 NSaved=   5.
 NSaved= 5 IEnMin= 5 EnMin= -5017.24559470998     IErMin= 5 ErrMin= 2.16D-07
 ErrMax= 2.16D-07  0.00D+00 EMaxC= 1.00D-01 BMatC= 8.41D-11 BMatP= 1.85D-09
 IDIUse=1 WtCom= 1.00D+00 WtEn= 0.00D+00
 Coeff-Com: -0.197D-02 0.513D-01 0.729D-01 0.223D+00 0.655D+00
 Coeff:     -0.197D-02 0.513D-01 0.729D-01 0.223D+00 0.655D+00
 Gap=     0.229 Goal=   None    Shift=    0.000
 RMSDP=1.02D-08 MaxDP=1.02D-06 DE=-1.59D-09 OVMax= 7.90D-07

 Cycle  12  Pass 1  IDiag  1:
 RMSU=  9.45D-09    CP:  1.00D+00  1.01D+00  6.11D-01  7.06D-01  9.41D-01
 E= -5017.24559471007     Delta-E=       -0.000000000091 Rises=F Damp=F
 DIIS: error= 6.46D-08 at cycle   6 NSaved=   6.
 NSaved= 6 IEnMin= 6 EnMin= -5017.24559471007     IErMin= 6 ErrMin= 6.46D-08
 ErrMax= 6.46D-08  0.00D+00 EMaxC= 1.00D-01 BMatC= 1.09D-11 BMatP= 8.41D-11
 IDIUse=1 WtCom= 1.00D+00 WtEn= 0.00D+00
 Coeff-Com: -0.250D-04-0.471D-02-0.623D-02 0.157D-01 0.283D+00 0.712D+00
 Coeff:     -0.250D-04-0.471D-02-0.623D-02 0.157D-01 0.283D+00 0.712D+00
 Gap=     0.229 Goal=   None    Shift=    0.000
 RMSDP=3.83D-09 MaxDP=5.17D-07 DE=-9.09D-11 OVMax= 5.62D-07

 SCF Done:  E(RPBE1PBE) =  -5017.24559471     A.U. after   12 cycles
            NFock= 12  Conv=0.38D-08     -V/T= 2.0028
 KE= 5.003430475023D+03 PE=-2.413343901063D+04 EE= 8.028332752076D+03
 Leave Link  502 at Thu May  3 05:32:32 2018, MaxMem= 14763950080 cpu:      9296.6
 (Enter /cm/shared/gaussian/g09.e01/intel64-sandybridge/g09/l601.exe)
 Copying SCF densities to generalized density rwf, IOpCl= 0 IROHF=0.

 **********************************************************************

            Population analysis using the SCF density.

 **********************************************************************

 Alpha  occ. eigenvalues -- -483.18215 -62.58546 -56.35794 -56.35767 -56.35763
 Alpha  occ. eigenvalues --  -19.23024 -19.16907 -19.16760 -19.15794 -19.15483
 Alpha  occ. eigenvalues --  -19.15305 -19.15023 -19.14541 -19.14430 -19.14348
 Alpha  occ. eigenvalues --  -19.14299 -19.14063 -19.14025 -19.14015 -19.13981
 Alpha  occ. eigenvalues --  -19.13586 -19.12844 -19.12680 -19.12600 -19.12363
 Alpha  occ. eigenvalues --  -19.10538 -19.10421 -19.10390 -19.09966 -19.09738
 Alpha  occ. eigenvalues --  -19.09658 -19.09433 -19.09338 -19.09300 -19.08497
 Alpha  occ. eigenvalues --  -19.06426 -19.05053  -8.68908  -6.49309  -6.49181
 Alpha  occ. eigenvalues --   -6.49164  -2.57575  -2.57548  -2.57532  -2.57429
 Alpha  occ. eigenvalues --   -2.57424  -1.05529  -0.99809  -0.99164  -0.98576
 Alpha  occ. eigenvalues --   -0.98110  -0.97898  -0.97756  -0.97584  -0.97543
 Alpha  occ. eigenvalues --   -0.97153  -0.96955  -0.96816  -0.96448  -0.96364
 Alpha  occ. eigenvalues --   -0.96215  -0.95911  -0.95296  -0.94978  -0.94913
 Alpha  occ. eigenvalues --   -0.94795  -0.93052  -0.92963  -0.92874  -0.92680
 Alpha  occ. eigenvalues --   -0.92439  -0.92307  -0.92289  -0.92197  -0.91936
 Alpha  occ. eigenvalues --   -0.91559  -0.89215  -0.87948  -0.68863  -0.55394
 Alpha  occ. eigenvalues --   -0.50336  -0.50108  -0.49504  -0.49292  -0.49177
 Alpha  occ. eigenvalues --   -0.48719  -0.48134  -0.48044  -0.47880  -0.47671
 Alpha  occ. eigenvalues --   -0.47590  -0.47455  -0.47117  -0.46624  -0.46530
 Alpha  occ. eigenvalues --   -0.45698  -0.45524  -0.45338  -0.44890  -0.44373
 Alpha  occ. eigenvalues --   -0.44115  -0.44084  -0.43893  -0.43834  -0.43706
 Alpha  occ. eigenvalues --   -0.43381  -0.43179  -0.42784  -0.42559  -0.41873
 Alpha  occ. eigenvalues --   -0.40955  -0.40205  -0.36843  -0.35839  -0.35467
 Alpha  occ. eigenvalues --   -0.35451  -0.35209  -0.35027  -0.34982  -0.34463
 Alpha  occ. eigenvalues --   -0.34298  -0.34152  -0.33715  -0.33658  -0.33512
 Alpha  occ. eigenvalues --   -0.33317  -0.32845  -0.31920  -0.31653  -0.31068
 Alpha  occ. eigenvalues --   -0.31036  -0.30700  -0.29699  -0.29308  -0.29047
 Alpha  occ. eigenvalues --   -0.28974  -0.28940  -0.28572  -0.28498  -0.28377
 Alpha  occ. eigenvalues --   -0.27920  -0.27323  -0.27197  -0.26675  -0.26642
 Alpha  occ. eigenvalues --   -0.26482  -0.26243  -0.26008  -0.25861  -0.25803
 Alpha  occ. eigenvalues --   -0.25744  -0.25552  -0.25370  -0.25249  -0.24518
 Alpha  occ. eigenvalues --   -0.24355  -0.24311  -0.24140  -0.23838  -0.23655
 Alpha  occ. eigenvalues --   -0.23284  -0.23171  -0.22926  -0.22880  -0.22262
 Alpha  occ. eigenvalues --   -0.22060  -0.21718  -0.21696  -0.21464  -0.20975
 Alpha  occ. eigenvalues --   -0.20882  -0.20541  -0.20320  -0.20158  -0.20024
 Alpha  occ. eigenvalues --   -0.19566  -0.17999  -0.16778
 Alpha virt. eigenvalues --    0.06118   0.07328   0.09047   0.10713   0.11090
 Alpha virt. eigenvalues --    0.12196   0.12918   0.13539   0.13752   0.14317
 Alpha virt. eigenvalues --    0.14926   0.15406   0.15663   0.16133   0.16678
 Alpha virt. eigenvalues --    0.17282   0.17859   0.18267   0.18399   0.18676
 Alpha virt. eigenvalues --    0.19000   0.19300   0.19716   0.20253   0.20332
 Alpha virt. eigenvalues --    0.20919   0.21401   0.21731   0.22268   0.22705
 Alpha virt. eigenvalues --    0.23426   0.23870   0.24218   0.24599   0.25245
 Alpha virt. eigenvalues --    0.25765   0.26221   0.26773   0.27393   0.27488
 Alpha virt. eigenvalues --    0.28003   0.28452   0.28944   0.29387   0.29675
 Alpha virt. eigenvalues --    0.30396   0.30806   0.31126   0.32194   0.32420
 Alpha virt. eigenvalues --    0.32655   0.33237   0.33958   0.34075   0.34790
 Alpha virt. eigenvalues --    0.35212   0.35742   0.36187   0.36646   0.37273
 Alpha virt. eigenvalues --    0.38043   0.38867   0.39729   0.41029   0.54841
 Alpha virt. eigenvalues --    0.55665   0.57649   0.58552   0.59656   0.60090
 Alpha virt. eigenvalues --    0.60566   0.61847   0.62014   0.62159   0.62960
 Alpha virt. eigenvalues --    0.63335   0.63626   0.63791   0.64457   0.64546
 Alpha virt. eigenvalues --    0.64795   0.65011   0.65567   0.65724   0.66153
 Alpha virt. eigenvalues --    0.66320   0.66436   0.66748   0.66932   0.67500
 Alpha virt. eigenvalues --    0.67904   0.68114   0.68454   0.68677   0.68840
 Alpha virt. eigenvalues --    0.69352   0.69668   0.69748   0.69976   0.70272
 Alpha virt. eigenvalues --    0.70627   0.70917   0.71232   0.71483   0.71855
 Alpha virt. eigenvalues --    0.72347   0.72581   0.72707   0.73065   0.73121
 Alpha virt. eigenvalues --    0.73314   0.73633   0.74103   0.74366   0.74596
 Alpha virt. eigenvalues --    0.74726   0.75592   0.75792   0.76080   0.76545
 Alpha virt. eigenvalues --    0.76813   0.77464   0.78598   0.78917   0.79454
 Alpha virt. eigenvalues --    0.80017   0.80346   0.80885   0.81574   0.82175
 Alpha virt. eigenvalues --    0.82991   0.84032   0.84639   0.85077   0.87012
 Alpha virt. eigenvalues --    0.90250   0.91230   0.92379   0.93612   0.94118
 Alpha virt. eigenvalues --    0.94448   0.95551   0.95653   0.96143   0.96598
 Alpha virt. eigenvalues --    0.97054   0.97355   0.97822   0.98083   0.98847
 Alpha virt. eigenvalues --    0.99324   0.99643   0.99913   1.00289   1.00395
 Alpha virt. eigenvalues --    1.00989   1.01215   1.01580   1.01948   1.02241
 Alpha virt. eigenvalues --    1.02335   1.02525   1.02699   1.02756   1.03047
 Alpha virt. eigenvalues --    1.03377   1.03766   1.03873   1.04076   1.04362
 Alpha virt. eigenvalues --    1.04819   1.05165   1.05212   1.05384   1.05497
 Alpha virt. eigenvalues --    1.06053   1.06225   1.06364   1.06644   1.07427
 Alpha virt. eigenvalues --    1.07561   1.07976   1.08219   1.08500   1.08885
 Alpha virt. eigenvalues --    1.09331   1.09540   1.09756   1.10437   1.10814
 Alpha virt. eigenvalues --    1.11143   1.11311   1.11671   1.12125   1.12299
 Alpha virt. eigenvalues --    1.12484   1.12882   1.12965   1.13253   1.13646
 Alpha virt. eigenvalues --    1.14372   1.14437   1.14697   1.15095   1.15724
 Alpha virt. eigenvalues --    1.15808   1.15989   1.16523   1.17147   1.17343
 Alpha virt. eigenvalues --    1.17904   1.18164   1.18457   1.19224   1.19642
 Alpha virt. eigenvalues --    1.20489   1.20839   1.21311   1.21700   1.22128
 Alpha virt. eigenvalues --    1.22430   1.22684   1.22912   1.22958   1.23463
 Alpha virt. eigenvalues --    1.23742   1.23966   1.24273   1.24752   1.25111
 Alpha virt. eigenvalues --    1.25457   1.26411   1.26638   1.27479   1.27799
 Alpha virt. eigenvalues --    1.28290   1.28468   1.29232   1.29594   1.29873
 Alpha virt. eigenvalues --    1.29886   1.30573   1.30834   1.31002   1.31105
 Alpha virt. eigenvalues --    1.31415   1.31547   1.31920   1.32082   1.32362
 Alpha virt. eigenvalues --    1.32740   1.32846   1.33172   1.33363   1.33830
 Alpha virt. eigenvalues --    1.33912   1.34158   1.34218   1.34624   1.34743
 Alpha virt. eigenvalues --    1.34933   1.35406   1.35779   1.36259   1.36346
 Alpha virt. eigenvalues --    1.36657   1.36935   1.37142   1.37374   1.37491
 Alpha virt. eigenvalues --    1.38254   1.38523   1.38680   1.38857   1.39366
 Alpha virt. eigenvalues --    1.39813   1.40021   1.40587   1.41240   1.41369
 Alpha virt. eigenvalues --    1.41461   1.41813   1.42843   1.43046   1.43244
 Alpha virt. eigenvalues --    1.43828   1.44054   1.44438   1.45689   1.45904
 Alpha virt. eigenvalues --    1.47206   1.47426   1.48096   1.48649   1.49370
 Alpha virt. eigenvalues --    1.49682   1.49764   1.50139   1.50369   1.51028
 Alpha virt. eigenvalues --    1.51608   1.52285   1.52645   1.53257   1.53732
 Alpha virt. eigenvalues --    1.54142   1.54344   1.54430   1.54699   1.54930
 Alpha virt. eigenvalues --    1.55357   1.55633   1.55795   1.56343   1.56909
 Alpha virt. eigenvalues --    1.57907   1.58128   1.58865   1.59416   1.59898
 Alpha virt. eigenvalues --    1.60276   1.60859   1.61847   1.62082   1.62624
 Alpha virt. eigenvalues --    1.63817   1.64186   1.65327   1.66560   1.68814
 Alpha virt. eigenvalues --    1.70044   1.71023   1.71985   1.72592   1.72907
 Alpha virt. eigenvalues --    1.73236   1.73461   1.73637   1.73895   1.74400
 Alpha virt. eigenvalues --    1.74513   1.74794   1.75070   1.75478   1.75692
 Alpha virt. eigenvalues --    1.75871   1.76195   1.76452   1.76827   1.77439
 Alpha virt. eigenvalues --    1.77762   1.77880   1.78618   1.79198   1.79297
 Alpha virt. eigenvalues --    1.79559   1.80538   1.81077   1.81185   1.81717
 Alpha virt. eigenvalues --    1.82506   1.82768   1.83133   1.83325   1.83879
 Alpha virt. eigenvalues --    1.84318   1.84521   1.85345   1.85847   1.85998
 Alpha virt. eigenvalues --    1.86763   1.86937   1.87358   1.87616   1.88120
 Alpha virt. eigenvalues --    1.88585   1.88957   1.89264   1.89464   1.90334
 Alpha virt. eigenvalues --    1.91204   1.92298   1.92730   1.94031   1.95087
 Alpha virt. eigenvalues --    1.96138   1.96357   1.98119   1.99317   2.02490
 Alpha virt. eigenvalues --    2.02642   2.05423   2.07032   2.12501   2.16585
 Alpha virt. eigenvalues --    2.18087   2.19208   2.19337   2.20493   2.21233
 Alpha virt. eigenvalues --    2.21579   2.22098   2.22225   2.22534   2.23179
 Alpha virt. eigenvalues --    2.23369   2.23486   2.23735   2.24180   2.24283
 Alpha virt. eigenvalues --    2.24501   2.24638   2.24908   2.25217   2.25328
 Alpha virt. eigenvalues --    2.25600   2.25951   2.26035   2.26198   2.26354
 Alpha virt. eigenvalues --    2.26459   2.26548   2.26715   2.27383   2.27808
 Alpha virt. eigenvalues --    2.28133   2.28290   2.28568   2.28935   2.29190
 Alpha virt. eigenvalues --    2.29911   2.30098   2.30883   2.31612   2.34357
 Alpha virt. eigenvalues --    2.35258   2.35492   2.38562   2.40170   2.41687
 Alpha virt. eigenvalues --    2.42012   2.44501   2.45532   2.46569   2.48849
 Alpha virt. eigenvalues --    2.49719   2.49834   2.51009   2.51951   2.53207
 Alpha virt. eigenvalues --    2.55268   2.56103   2.62041   2.63391   2.64497
 Alpha virt. eigenvalues --    2.73340   2.77976   2.92257   2.94758   2.96405
 Alpha virt. eigenvalues --    2.97466   2.97603   2.97618   2.98573   2.98814
 Alpha virt. eigenvalues --    2.98958   2.99246   2.99532   2.99652   2.99767
 Alpha virt. eigenvalues --    2.99906   3.00249   3.00573   3.00592   3.00627
 Alpha virt. eigenvalues --    3.00900   3.01258   3.01765   3.01962   3.01976
 Alpha virt. eigenvalues --    3.02272   3.02372   3.02450   3.02780   3.03226
 Alpha virt. eigenvalues --    3.03237   3.03632   3.03705   3.03895   3.03974
 Alpha virt. eigenvalues --    3.04128   3.04233   3.04407   3.04600   3.04701
 Alpha virt. eigenvalues --    3.04915   3.05144   3.05515   3.05591   3.05683
 Alpha virt. eigenvalues --    3.05944   3.06296   3.06527   3.07065   3.07294
 Alpha virt. eigenvalues --    3.07401   3.07482   3.07716   3.07819   3.07962
 Alpha virt. eigenvalues --    3.08735   3.08793   3.09013   3.10107   3.10609
 Alpha virt. eigenvalues --    3.10900   3.11150   3.11266   3.12682   3.13275
 Alpha virt. eigenvalues --    3.13938   3.18140   3.18891   3.19274   3.19868
 Alpha virt. eigenvalues --    3.21208   3.21373   3.21553   3.21930   3.22122
 Alpha virt. eigenvalues --    3.22491   3.22620   3.22968   3.23196   3.23391
 Alpha virt. eigenvalues --    3.23410   3.24200   3.24588   3.24922   3.25120
 Alpha virt. eigenvalues --    3.25174   3.25546   3.25771   3.25921   3.26352
 Alpha virt. eigenvalues --    3.26717   3.26736   3.26810   3.27149   3.27326
 Alpha virt. eigenvalues --    3.28930   3.30879   3.31611   3.48897   3.54112
 Alpha virt. eigenvalues --    3.55139   3.55802   3.56435   3.57658   3.58429
 Alpha virt. eigenvalues --    3.58681   3.59235   3.59445   3.59627   3.59952
 Alpha virt. eigenvalues --    3.60338   3.60730   3.61169   3.61543   3.61690
 Alpha virt. eigenvalues --    3.62113   3.62390   3.62523   3.62722   3.63408
 Alpha virt. eigenvalues --    3.63640   3.64258   3.65075   3.65375   3.66245
 Alpha virt. eigenvalues --    3.66623   3.67075   3.68092   3.68577   3.69864
 Alpha virt. eigenvalues --    3.79695   3.83626   3.84470   3.84902   3.85294
 Alpha virt. eigenvalues --    3.85480   3.85601   3.85983   3.86446   3.86466
 Alpha virt. eigenvalues --    3.86976   3.87431   3.87816   3.88637   3.89063
 Alpha virt. eigenvalues --    3.89359   3.89847   3.90566   3.91215   3.91429
 Alpha virt. eigenvalues --    3.91903   3.92356   3.92835   3.93664   3.93728
 Alpha virt. eigenvalues --    3.94163   3.95076   3.95390   3.95685   3.96873
 Alpha virt. eigenvalues --    3.97448   3.99873
          Condensed to atoms (all electrons):
 Mulliken charges:
               1
     1  Br  -0.721568
     2  O   -0.250258
     3  H    0.130396
     4  H    0.162898
     5  O   -0.274404
     6  H    0.132120
     7  H    0.160690
     8  O   -0.273933
     9  H    0.147147
    10  H    0.135418
    11  O   -0.262095
    12  H    0.143888
    13  H    0.123061
    14  O   -0.266299
    15  H    0.143706
    16  H    0.129469
    17  O   -0.259184
    18  H    0.136503
    19  H    0.138755
    20  O   -0.280901
    21  H    0.119991
    22  H    0.139995
    23  O   -0.285278
    24  H    0.141517
    25  H    0.125310
    26  O   -0.246138
    27  H    0.137379
    28  H    0.170827
    29  O   -0.279998
    30  H    0.136935
    31  H    0.149182
    32  O   -0.246361
    33  H    0.130214
    34  H    0.159148
    35  O   -0.290624
    36  H    0.128990
    37  H    0.132586
    38  O   -0.209886
    39  H    0.173762
    40  H    0.175179
    41  O   -0.329688
    42  H    0.116501
    43  H    0.122644
    44  O   -0.292604
    45  H    0.137893
    46  H    0.126146
    47  O   -0.267616
    48  H    0.121786
    49  H    0.137323
    50  O   -0.301493
    51  H    0.111711
    52  H    0.130322
    53  O   -0.252192
    54  H    0.142599
    55  H    0.133188
    56  O   -0.326041
    57  H    0.135053
    58  H    0.112047
    59  O   -0.316143
    60  H    0.138539
    61  H    0.148730
    62  O   -0.332231
    63  H    0.123296
    64  H    0.111721
    65  O   -0.289874
    66  H    0.143348
    67  H    0.142741
    68  O   -0.232785
    69  H    0.125233
    70  H    0.124608
    71  O   -0.291119
    72  H    0.117023
    73  H    0.135710
    74  O   -0.246470
    75  H    0.129584
    76  H    0.133261
    77  O   -0.308491
    78  H    0.132069
    79  H    0.129465
    80  O   -0.303405
    81  H    0.120888
    82  H    0.120133
    83  O   -0.298231
    84  H    0.131654
    85  H    0.108919
    86  O   -0.268454
    87  H    0.126456
    88  H    0.127855
    89  O   -0.237109
    90  H    0.132044
    91  H    0.140866
    92  O   -0.299774
    93  H    0.128681
    94  H    0.114149
    95  O   -0.263398
    96  H    0.139967
    97  H    0.144826
 Sum of Mulliken charges =  -1.00000
 Mulliken charges with hydrogens summed into heavy atoms:
               1
     1  Br  -0.721568
     2  O    0.043036
     5  O    0.018406
     8  O    0.008632
    11  O    0.004855
    14  O    0.006876
    17  O    0.016074
    20  O   -0.020915
    23  O   -0.018451
    26  O    0.062068
    29  O    0.006119
    32  O    0.043001
    35  O   -0.029048
    38  O    0.139054
    41  O   -0.090544
    44  O   -0.028565
    47  O   -0.008507
    50  O   -0.059460
    53  O    0.023595
    56  O   -0.078942
    59  O   -0.028875
    62  O   -0.097213
    65  O   -0.003785
    68  O    0.017057
    71  O   -0.038386
    74  O    0.016375
    77  O   -0.046957
    80  O   -0.062384
    83  O   -0.057658
    86  O   -0.014143
    89  O    0.035801
    92  O   -0.056943
    95  O    0.021395
         Mulliken charges condensed to fragments:
      1     -0.721568
      2     -0.278432
 Electronic spatial extent (au):  <R**2>=        1535077.6753
 Charge=             -1.0000 electrons
 Dipole moment (field-independent basis, Debye):
    X=            -91.2671    Y=            -95.3672    Z=            -89.3484  Tot=            159.3980
 Quadrupole moment (field-independent basis, Debye-Ang):
   XX=          -2066.8863   YY=          -2177.0371   ZZ=          -1911.4260
   XY=          -1848.1123   XZ=          -1726.3799   YZ=          -1767.3766
 Traceless Quadrupole moment (field-independent basis, Debye-Ang):
   XX=            -15.1032   YY=           -125.2540   ZZ=            140.3571
   XY=          -1848.1123   XZ=          -1726.3799   YZ=          -1767.3766
 Octapole moment (field-independent basis, Debye-Ang**2):
  XXX=         -52876.8091  YYY=         -54672.8268  ZZZ=         -45439.3400  XYY=         -43081.6104
  XXY=         -42420.4607  XXZ=         -40011.1629  XZZ=         -37575.6683  YZZ=         -37617.1406
  YYZ=         -40527.4120  XYZ=         -34952.9515
 Hexadecapole moment (field-independent basis, Debye-Ang**3):
 XXXX=       -1435462.9696 YYYY=       -1444358.3779 ZZZZ=       -1148994.0734 XXXY=       -1090300.7404
 XXXZ=       -1042855.0183 YYYX=       -1099450.7067 YYYZ=       -1026525.1675 ZZZX=        -905538.8062
 ZZZY=        -890119.8226 XXYY=        -987153.1869 XXZZ=        -874465.8500 YYZZ=        -853759.6849
 XXYZ=        -822989.5816 YYXZ=        -818868.9930 ZZXY=        -757905.9125
 N-N= 6.084430188817D+03 E-N=-2.413343909348D+04  KE= 5.003430475023D+03
 No NMR shielding tensors so no spin-rotation constants.
 Leave Link  601 at Thu May  3 05:32:34 2018, MaxMem= 14763950080 cpu:        69.7
 (Enter /cm/shared/gaussian/g09.e01/intel64-sandybridge/g09/l701.exe)
 Compute integral first derivatives.
 ... and contract with generalized density number  0.
 Leave Link  701 at Thu May  3 05:32:36 2018, MaxMem= 14763950080 cpu:       151.1
 (Enter /cm/shared/gaussian/g09.e01/intel64-sandybridge/g09/l702.exe)
 L702 exits ... SP integral derivatives will be done elsewhere.
 Leave Link  702 at Thu May  3 05:32:36 2018, MaxMem= 14763950080 cpu:         2.6
 (Enter /cm/shared/gaussian/g09.e01/intel64-sandybridge/g09/l703.exe)
 Compute integral first derivatives, UseDBF=F ICtDFT=           0.
 Integral derivatives from FoFJK, PRISM(SPDF).
 Calling FoFJK, ICntrl=      2127 FMM=T ISym2X=0 I1Cent= 0 IOpClX= 0 NMat=1 NMatS=1 NMatT=0.
 FoFJK:  IHMeth= 1 ICntrl=    2127 DoSepK=F KAlg= 0 I1Cent=   0 FoldK=F
 IRaf=         0 NMat=   1 IRICut=       1 DoRegI=T DoRafI=F ISym2E= 0.
 FoFCou: FMM=T IPFlag=           0 FMFlag=      100000 FMFlg1=        2001
         NFxFlg=           0 DoJE=F BraDBF=F KetDBF=F FulRan=T
         wScrn=  0.000000 ICntrl=    2127 IOpCl=  0 I1Cent=           0 NGrid=           0
         NMat0=    1 NMatS0=      1 NMatT0=    0 NMatD0=    1 NMtDS0=    0 NMtDT0=    0
 Symmetry not used in FoFCou.
 FMM levels:  10  Number of levels for PrismC:   9
 Leave Link  703 at Thu May  3 05:32:53 2018, MaxMem= 14763950080 cpu:      1079.6
 (Enter /cm/shared/gaussian/g09.e01/intel64-sandybridge/g09/l716.exe)
 Dipole        =-3.59072476D+01-3.75203312D+01-3.51523797D+01
 Cartesian Forces:  Max     0.031908061 RMS     0.009924466
 Leave Link  716 at Thu May  3 05:32:54 2018, MaxMem= 14763950080 cpu:         4.6
 (Enter /cm/shared/gaussian/g09.e01/intel64-sandybridge/g09/l122.exe)
 CPIOFr:  IOpCl= 0 IRwI=-1 IRwCP=  731 ICalc= -1 LCPTot=     1005244 Len1MO=     2550559 IndFrg=     1005244
 CPIOFr:  IOpCl= 0 IRwI=-1 IRwCP=  731 ICalc=  0 LCPTot=     1005244 Len1MO=     2550559 IndFrg=     3555803
 Counterpoise: doing DCBS calculation for fragment   1 NewBq=T
 Leave Link  122 at Thu May  3 05:32:54 2018, MaxMem= 14763950080 cpu:         7.9
 (Enter /cm/shared/gaussian/g09.e01/intel64-sandybridge/g09/l301.exe)
 Basis read from rwf:  (5D, 7F)
 No pseudopotential information found on rwf file.
   795 basis functions,  1651 primitive gaussians,   829 cartesian basis functions
    18 alpha electrons       18 beta electrons
       nuclear repulsion energy         0.0000000000 Hartrees.
 IExCor= 1009 DFT=T Ex+Corr=PBE1PBE ExCW=0 ScaHFX=  0.250000
 ScaDFX=  0.750000  0.750000  1.000000  1.000000 ScalE2=  1.000000  1.000000
 IRadAn=      0 IRanWt=     -1 IRanGd=            0 ICorTp=0 IEmpDi=  4
 NAtoms=   97 NActive=   97 NUniq=   97 SFac= 1.00D+00 NAtFMM=   60 NAOKFM=T Big=T
 Integral buffers will be    131072 words long.
 Raffenetti 2 integral format.
 Two-electron integral symmetry is turned off.
 No density basis found on file   718.
 Leave Link  301 at Thu May  3 05:32:54 2018, MaxMem= 14763950080 cpu:         6.7
 (Enter /cm/shared/gaussian/g09.e01/intel64-sandybridge/g09/l302.exe)
 NPDir=0 NMtPBC=     1 NCelOv=     1 NCel=       1 NClECP=     1 NCelD=      1
         NCelK=      1 NCelE2=     1 NClLst=     1 CellRange=     0.0.
 One-electron integrals computed using PRISM.
 NBasis=   795 RedAO= T EigKep=  1.57D-02  NBF=   795
 NBsUse=   795 1.00D-06 EigRej= -1.00D+00 NBFU=   795
 Precomputing XC quadrature grid using
 IXCGrd= 4 IRadAn=           0 IRanWt=          -1 IRanGd=           0 AccXCQ= 0.00D+00.
 Generated NRdTot=       0 NPtTot=           0 NUsed=           0 NTot=          32
 NSgBfM=   669   675   689   690   690 MxSgAt=    97 MxSgA2=    97.
 Leave Link  302 at Thu May  3 05:32:58 2018, MaxMem= 14763950080 cpu:       268.4
 (Enter /cm/shared/gaussian/g09.e01/intel64-sandybridge/g09/l303.exe)
 DipDrv:  MaxL=1.
 Leave Link  303 at Thu May  3 05:33:00 2018, MaxMem= 14763950080 cpu:       116.9
 (Enter /cm/shared/gaussian/g09.e01/intel64-sandybridge/g09/l401.exe)
 ExpMin= 1.22D-01 ExpMax= 6.40D+05 ExpMxC= 6.18D+03 IAcc=2 IRadAn=         4 AccDes= 0.00D+00
 Harris functional with IExCor= 1009 and IRadAn=       4 diagonalized for initial guess.
 HarFok:  IExCor= 1009 AccDes= 0.00D+00 IRadAn=         4 IDoV= 1 UseB2=F ITyADJ=14
 ICtDFT=  3500011 ScaDFX=  1.000000  1.000000  1.000000  1.000000
 FoFCou: FMM=F IPFlag=           0 FMFlag=      100000 FMFlg1=        2001
         NFxFlg=           0 DoJE=T BraDBF=F KetDBF=T FulRan=T
         wScrn=  0.000000 ICntrl=     500 IOpCl=  0 I1Cent=   200000004 NGrid=           0
         NMat0=    1 NMatS0=      1 NMatT0=    0 NMatD0=    1 NMtDS0=    0 NMtDT0=    0
 Symmetry not used in FoFCou.
 Harris En= -2574.02000602337    
 JPrj=0 DoOrth=F DoCkMO=F.
 Leave Link  401 at Thu May  3 05:33:05 2018, MaxMem= 14763950080 cpu:       295.3
 (Enter /cm/shared/gaussian/g09.e01/intel64-sandybridge/g09/l502.exe)
 Closed shell SCF:
 Using DIIS extrapolation, IDIIS=  1040.
 Two-electron integral symmetry not used.
 IVT=     2138497 IEndB=     2138497 NGot= 14763950080 MDV= 14762516294
 LenX= 14762516294 LenY= 14761828224
 Requested convergence on RMS density matrix=1.00D-08 within 128 cycles.
 Requested convergence on MAX density matrix=1.00D-06.
 Requested convergence on             energy=1.00D-06.
 No special actions if energy rises.
 Fock matrices will be formed incrementally for  20 cycles.
 Integral accuracy reduced to 1.0D-05 until final iterations.

 Cycle   1  Pass 0  IDiag  1:
 FoFJK:  IHMeth= 1 ICntrl=       0 DoSepK=F KAlg= 0 I1Cent=   0 FoldK=F
 IRaf= 810000000 NMat=   1 IRICut=       1 DoRegI=T DoRafI=F ISym2E= 0.
 FoFCou: FMM=T IPFlag=           0 FMFlag=      100000 FMFlg1=        2001
         NFxFlg=           0 DoJE=F BraDBF=F KetDBF=F FulRan=T
         wScrn=  0.000000 ICntrl=       0 IOpCl=  0 I1Cent=           0 NGrid=           0
         NMat0=    1 NMatS0=      1 NMatT0=    0 NMatD0=    1 NMtDS0=    0 NMtDT0=    0
 Symmetry not used in FoFCou.
 FMM levels:  10  Number of levels for PrismC:   9
 E= -2573.87872265879    
 DIIS: error= 1.10D-02 at cycle   1 NSaved=   1.
 NSaved= 1 IEnMin= 1 EnMin= -2573.87872265879     IErMin= 1 ErrMin= 1.10D-02
 ErrMax= 1.10D-02  0.00D+00 EMaxC= 1.00D-01 BMatC= 3.92D-02 BMatP= 3.92D-02
 IDIUse=3 WtCom= 8.90D-01 WtEn= 1.10D-01
 Coeff-Com:  0.100D+01
 Coeff-En:   0.100D+01
 Coeff:      0.100D+01
 Gap=     0.185 Goal=   None    Shift=    0.000
 GapD=    0.185 DampG=1.000 DampE=0.500 DampFc=0.5000 IDamp=-1.
 Damping current iteration by 5.00D-01
 RMSDP=4.84D-04 MaxDP=6.43D-02              OVMax= 1.51D-01

 Cycle   2  Pass 0  IDiag  1:
 RMSU=  2.39D-04    CP:  9.94D-01
 E= -2573.89604835257     Delta-E=       -0.017325693776 Rises=F Damp=T
 DIIS: error= 6.43D-03 at cycle   2 NSaved=   2.
 NSaved= 2 IEnMin= 2 EnMin= -2573.89604835257     IErMin= 2 ErrMin= 6.43D-03
 ErrMax= 6.43D-03  0.00D+00 EMaxC= 1.00D-01 BMatC= 9.30D-03 BMatP= 3.92D-02
 IDIUse=3 WtCom= 9.36D-01 WtEn= 6.43D-02
 Coeff-Com: -0.563D+00 0.156D+01
 Coeff-En:   0.000D+00 0.100D+01
 Coeff:     -0.526D+00 0.153D+01
 Gap=     0.195 Goal=   None    Shift=    0.000
 RMSDP=1.74D-04 MaxDP=4.11D-02 DE=-1.73D-02 OVMax= 6.96D-02

 Cycle   3  Pass 0  IDiag  1:
 RMSU=  1.51D-04    CP:  9.93D-01  1.36D+00
 E= -2573.90991765724     Delta-E=       -0.013869304675 Rises=F Damp=F
 DIIS: error= 2.81D-03 at cycle   3 NSaved=   3.
 NSaved= 3 IEnMin= 3 EnMin= -2573.90991765724     IErMin= 3 ErrMin= 2.81D-03
 ErrMax= 2.81D-03  0.00D+00 EMaxC= 1.00D-01 BMatC= 2.72D-03 BMatP= 9.30D-03
 IDIUse=3 WtCom= 9.72D-01 WtEn= 2.81D-02
 Coeff-Com: -0.303D+00 0.721D+00 0.582D+00
 Coeff-En:   0.000D+00 0.000D+00 0.100D+01
 Coeff:     -0.295D+00 0.701D+00 0.594D+00
 Gap=     0.177 Goal=   None    Shift=    0.000
 RMSDP=7.22D-05 MaxDP=1.80D-02 DE=-1.39D-02 OVMax= 2.18D-02

 Cycle   4  Pass 0  IDiag  1:
 RMSU=  8.43D-06    CP:  9.92D-01  1.54D+00  6.24D-01
 E= -2573.91287866244     Delta-E=       -0.002961005192 Rises=F Damp=F
 DIIS: error= 8.09D-05 at cycle   4 NSaved=   4.
 NSaved= 4 IEnMin= 4 EnMin= -2573.91287866244     IErMin= 4 ErrMin= 8.09D-05
 ErrMax= 8.09D-05  0.00D+00 EMaxC= 1.00D-01 BMatC= 1.30D-06 BMatP= 2.72D-03
 IDIUse=1 WtCom= 1.00D+00 WtEn= 0.00D+00
 Coeff-Com: -0.165D-01 0.311D-01 0.367D-01 0.949D+00
 Coeff:     -0.165D-01 0.311D-01 0.367D-01 0.949D+00
 Gap=     0.178 Goal=   None    Shift=    0.000
 RMSDP=2.10D-06 MaxDP=3.89D-04 DE=-2.96D-03 OVMax= 6.06D-04

 Initial convergence to 1.0D-05 achieved.  Increase integral accuracy.
 Cycle   5  Pass 1  IDiag  1:
 E= -2573.91378026982     Delta-E=       -0.000901607384 Rises=F Damp=F
 DIIS: error= 2.27D-05 at cycle   1 NSaved=   1.
 NSaved= 1 IEnMin= 1 EnMin= -2573.91378026982     IErMin= 1 ErrMin= 2.27D-05
 ErrMax= 2.27D-05  0.00D+00 EMaxC= 1.00D-01 BMatC= 1.74D-07 BMatP= 1.74D-07
 IDIUse=1 WtCom= 1.00D+00 WtEn= 0.00D+00
 Coeff-Com:  0.100D+01
 Coeff:      0.100D+01
 Gap=     0.178 Goal=   None    Shift=    0.000
 RMSDP=2.10D-06 MaxDP=3.89D-04 DE=-9.02D-04 OVMax= 3.88D-04

 Cycle   6  Pass 1  IDiag  1:
 RMSU=  1.63D-06    CP:  1.00D+00
 E= -2573.91378057137     Delta-E=       -0.000000301550 Rises=F Damp=F
 DIIS: error= 1.07D-05 at cycle   2 NSaved=   2.
 NSaved= 2 IEnMin= 2 EnMin= -2573.91378057137     IErMin= 2 ErrMin= 1.07D-05
 ErrMax= 1.07D-05  0.00D+00 EMaxC= 1.00D-01 BMatC= 4.30D-08 BMatP= 1.74D-07
 IDIUse=1 WtCom= 1.00D+00 WtEn= 0.00D+00
 Coeff-Com:  0.277D+00 0.723D+00
 Coeff:      0.277D+00 0.723D+00
 Gap=     0.179 Goal=   None    Shift=    0.000
 RMSDP=4.26D-07 MaxDP=9.86D-05 DE=-3.02D-07 OVMax= 1.45D-04

 Cycle   7  Pass 1  IDiag  1:
 RMSU=  4.16D-07    CP:  1.00D+00  9.49D-01
 E= -2573.91378061846     Delta-E=       -0.000000047092 Rises=F Damp=F
 DIIS: error= 4.24D-06 at cycle   3 NSaved=   3.
 NSaved= 3 IEnMin= 3 EnMin= -2573.91378061846     IErMin= 3 ErrMin= 4.24D-06
 ErrMax= 4.24D-06  0.00D+00 EMaxC= 1.00D-01 BMatC= 7.73D-09 BMatP= 4.30D-08
 IDIUse=1 WtCom= 1.00D+00 WtEn= 0.00D+00
 Coeff-Com: -0.395D-01 0.277D+00 0.763D+00
 Coeff:     -0.395D-01 0.277D+00 0.763D+00
 Gap=     0.179 Goal=   None    Shift=    0.000
 RMSDP=1.35D-07 MaxDP=3.52D-05 DE=-4.71D-08 OVMax= 4.21D-05

 Cycle   8  Pass 1  IDiag  1:
 RMSU=  4.57D-08    CP:  1.00D+00  1.01D+00  7.94D-01
 E= -2573.91378062753     Delta-E=       -0.000000009064 Rises=F Damp=F
 DIIS: error= 4.13D-07 at cycle   4 NSaved=   4.
 NSaved= 4 IEnMin= 4 EnMin= -2573.91378062753     IErMin= 4 ErrMin= 4.13D-07
 ErrMax= 4.13D-07  0.00D+00 EMaxC= 1.00D-01 BMatC= 6.08D-11 BMatP= 7.73D-09
 IDIUse=1 WtCom= 1.00D+00 WtEn= 0.00D+00
 Coeff-Com: -0.151D-01 0.909D-01 0.251D+00 0.673D+00
 Coeff:     -0.151D-01 0.909D-01 0.251D+00 0.673D+00
 Gap=     0.179 Goal=   None    Shift=    0.000
 RMSDP=1.27D-08 MaxDP=1.54D-06 DE=-9.06D-09 OVMax= 4.68D-06

 Cycle   9  Pass 1  IDiag  1:
 RMSU=  1.01D-08    CP:  1.00D+00  1.01D+00  7.98D-01  8.61D-01
 E= -2573.91378062763     Delta-E=       -0.000000000099 Rises=F Damp=F
 DIIS: error= 5.95D-08 at cycle   5 NSaved=   5.
 NSaved= 5 IEnMin= 5 EnMin= -2573.91378062763     IErMin= 5 ErrMin= 5.95D-08
 ErrMax= 5.95D-08  0.00D+00 EMaxC= 1.00D-01 BMatC= 2.04D-12 BMatP= 6.08D-11
 IDIUse=1 WtCom= 1.00D+00 WtEn= 0.00D+00
 Coeff-Com:  0.683D-03-0.852D-02-0.280D-01 0.105D+00 0.931D+00
 Coeff:      0.683D-03-0.852D-02-0.280D-01 0.105D+00 0.931D+00
 Gap=     0.179 Goal=   None    Shift=    0.000
 RMSDP=3.36D-09 MaxDP=4.69D-07 DE=-9.91D-11 OVMax= 1.08D-06

 SCF Done:  E(RPBE1PBE) =  -2573.91378063     A.U. after    9 cycles
            NFock=  9  Conv=0.34D-08     -V/T= 2.0013
 KE= 2.570510738174D+03 PE=-6.162832387072D+03 EE= 1.018407868270D+03
 Leave Link  502 at Thu May  3 05:34:47 2018, MaxMem= 14763950080 cpu:      6422.3
 (Enter /cm/shared/gaussian/g09.e01/intel64-sandybridge/g09/l601.exe)
 Copying SCF densities to generalized density rwf, IOpCl= 0 IROHF=0.

 **********************************************************************

            Population analysis using the SCF density.

 **********************************************************************

 Alpha  occ. eigenvalues -- -482.99202 -62.39351 -56.16604 -56.16604 -56.16600
 Alpha  occ. eigenvalues --   -8.49495  -6.29802  -6.29801  -6.29790  -2.38073
 Alpha  occ. eigenvalues --   -2.38072  -2.38063  -2.38062  -2.38059  -0.47523
 Alpha  occ. eigenvalues --   -0.03365  -0.03355  -0.03346
 Alpha virt. eigenvalues --    0.14507   0.15955   0.16735   0.17304   0.18231
 Alpha virt. eigenvalues --    0.19013   0.19622   0.19981   0.20268   0.21314
 Alpha virt. eigenvalues --    0.21592   0.22154   0.22678   0.23289   0.23727
 Alpha virt. eigenvalues --    0.24410   0.24989   0.25448   0.26054   0.26405
 Alpha virt. eigenvalues --    0.27024   0.27239   0.27969   0.28271   0.28468
 Alpha virt. eigenvalues --    0.29178   0.29750   0.30881   0.31304   0.31412
 Alpha virt. eigenvalues --    0.32300   0.32822   0.33022   0.33940   0.34601
 Alpha virt. eigenvalues --    0.34837   0.35666   0.35892   0.36281   0.36411
 Alpha virt. eigenvalues --    0.36875   0.37846   0.38498   0.38998   0.39180
 Alpha virt. eigenvalues --    0.40003   0.40624   0.41039   0.41355   0.42026
 Alpha virt. eigenvalues --    0.42553   0.43120   0.43338   0.43903   0.44346
 Alpha virt. eigenvalues --    0.45596   0.45763   0.46304   0.46746   0.48097
 Alpha virt. eigenvalues --    0.48904   0.50454   0.50795   0.52940   0.60944
 Alpha virt. eigenvalues --    0.61503   0.62117   0.62447   0.63021   0.63757
 Alpha virt. eigenvalues --    0.64340   0.64472   0.64531   0.65239   0.66198
 Alpha virt. eigenvalues --    0.66682   0.67026   0.67931   0.68310   0.68721
 Alpha virt. eigenvalues --    0.69035   0.69644   0.70213   0.70471   0.71583
 Alpha virt. eigenvalues --    0.71916   0.72293   0.72630   0.73103   0.73516
 Alpha virt. eigenvalues --    0.73700   0.74175   0.74308   0.74718   0.74849
 Alpha virt. eigenvalues --    0.75113   0.75321   0.75431   0.75606   0.76055
 Alpha virt. eigenvalues --    0.76486   0.76642   0.77211   0.77698   0.78221
 Alpha virt. eigenvalues --    0.78336   0.78507   0.78857   0.79473   0.79812
 Alpha virt. eigenvalues --    0.79929   0.80128   0.80737   0.81331   0.81481
 Alpha virt. eigenvalues --    0.81737   0.82095   0.82489   0.82868   0.83082
 Alpha virt. eigenvalues --    0.83519   0.83847   0.84217   0.84943   0.85283
 Alpha virt. eigenvalues --    0.85467   0.86019   0.86513   0.86968   0.87444
 Alpha virt. eigenvalues --    0.88154   0.88361   0.88682   0.89203   0.89355
 Alpha virt. eigenvalues --    0.89935   0.90650   0.90896   0.91111   0.91485
 Alpha virt. eigenvalues --    0.91906   0.92460   0.92688   0.92901   0.93281
 Alpha virt. eigenvalues --    0.93563   0.93973   0.94139   0.94376   0.94919
 Alpha virt. eigenvalues --    0.95351   0.95501   0.95875   0.96233   0.96556
 Alpha virt. eigenvalues --    0.97147   0.97380   0.97935   0.98279   0.98481
 Alpha virt. eigenvalues --    0.99128   0.99456   1.00357   1.01140   1.01362
 Alpha virt. eigenvalues --    1.01548   1.01625   1.02746   1.02874   1.03260
 Alpha virt. eigenvalues --    1.03901   1.04367   1.05017   1.05105   1.05692
 Alpha virt. eigenvalues --    1.06535   1.06936   1.07809   1.08203   1.08503
 Alpha virt. eigenvalues --    1.09497   1.10289   1.10971   1.11831   1.12739
 Alpha virt. eigenvalues --    1.12886   1.14364   1.15264   1.16351   1.16949
 Alpha virt. eigenvalues --    1.17390   1.18101   1.18926   1.19360   1.20399
 Alpha virt. eigenvalues --    1.21831   1.22680   1.23157   1.24909   1.28351
 Alpha virt. eigenvalues --    1.29413   1.65640   1.66335   1.66784   1.67101
 Alpha virt. eigenvalues --    1.67773   1.68296   1.68840   1.69391   1.70061
 Alpha virt. eigenvalues --    1.70462   1.70570   1.71366   1.71428   1.71677
 Alpha virt. eigenvalues --    1.72020   1.72394   1.72997   1.73245   1.73316
 Alpha virt. eigenvalues --    1.73781   1.73949   1.74397   1.74600   1.74743
 Alpha virt. eigenvalues --    1.74961   1.75229   1.75676   1.75897   1.76266
 Alpha virt. eigenvalues --    1.76801   1.76857   1.77036   1.77153   1.77549
 Alpha virt. eigenvalues --    1.78315   1.78689   1.78875   1.79111   1.79911
 Alpha virt. eigenvalues --    1.80189   1.80301   1.80690   1.81332   1.81443
 Alpha virt. eigenvalues --    1.81796   1.82977   1.83585   1.83979   1.84310
 Alpha virt. eigenvalues --    1.85019   1.85117   1.85797   1.86433   1.87401
 Alpha virt. eigenvalues --    1.87981   1.88400   1.90667   1.90939   1.92145
 Alpha virt. eigenvalues --    1.92427   1.93145   1.93594   1.95374   1.96630
 Alpha virt. eigenvalues --    1.97151   1.98245   1.98444   1.98935   1.99319
 Alpha virt. eigenvalues --    1.99669   1.99781   2.00071   2.00680   2.00850
 Alpha virt. eigenvalues --    2.01186   2.01334   2.01820   2.01961   2.02108
 Alpha virt. eigenvalues --    2.02357   2.02655   2.02715   2.02852   2.03271
 Alpha virt. eigenvalues --    2.03454   2.03531   2.03768   2.04068   2.04173
 Alpha virt. eigenvalues --    2.04821   2.04950   2.05156   2.05620   2.05905
 Alpha virt. eigenvalues --    2.06266   2.06683   2.06699   2.07219   2.07793
 Alpha virt. eigenvalues --    2.08057   2.08647   2.09053   2.09427   2.10180
 Alpha virt. eigenvalues --    2.10390   2.10601   2.10935   2.11862   2.12395
 Alpha virt. eigenvalues --    2.12683   2.12926   2.13378   2.13620   2.13998
 Alpha virt. eigenvalues --    2.14281   2.14541   2.14926   2.15631   2.15802
 Alpha virt. eigenvalues --    2.16349   2.16763   2.17016   2.17186   2.17566
 Alpha virt. eigenvalues --    2.18031   2.18262   2.18486   2.19169   2.19430
 Alpha virt. eigenvalues --    2.19940   2.20377   2.20776   2.21520   2.22078
 Alpha virt. eigenvalues --    2.22246   2.22573   2.22838   2.23533   2.23855
 Alpha virt. eigenvalues --    2.24385   2.25747   2.26265   2.26766   2.28457
 Alpha virt. eigenvalues --    2.28767   2.30041   2.30159   2.30847   2.30948
 Alpha virt. eigenvalues --    2.32041   2.33032   2.33259   2.34097   2.34908
 Alpha virt. eigenvalues --    2.35100   2.35916   2.38249   2.39237   2.39849
 Alpha virt. eigenvalues --    2.40000   2.40226   2.41187   2.41606   2.41879
 Alpha virt. eigenvalues --    2.42628   2.42773   2.43201   2.43263   2.43461
 Alpha virt. eigenvalues --    2.43665   2.44050   2.44328   2.44475   2.45400
 Alpha virt. eigenvalues --    2.45663   2.46905   2.47214   2.47592   2.48624
 Alpha virt. eigenvalues --    2.48777   2.49284   2.50228   2.50359   2.50846
 Alpha virt. eigenvalues --    2.51540   2.52646   2.53412   2.53790   2.54926
 Alpha virt. eigenvalues --    2.55080   2.57531   2.61003   2.66639   2.67533
 Alpha virt. eigenvalues --    2.68949   2.69234   2.69390   2.69829   2.70315
 Alpha virt. eigenvalues --    2.70502   2.70953   2.71165   2.71640   2.72295
 Alpha virt. eigenvalues --    2.72364   2.73608   2.74067   2.75115   2.75290
 Alpha virt. eigenvalues --    2.75831   2.76297   2.76917   2.77438   2.77733
 Alpha virt. eigenvalues --    2.78525   2.78781   2.80235   2.81028   2.81642
 Alpha virt. eigenvalues --    2.81804   2.82611   2.82779   2.84460   2.85055
 Alpha virt. eigenvalues --    2.85346   2.85643   2.86179   2.86461   2.86844
 Alpha virt. eigenvalues --    2.87489   2.87828   2.88579   2.89021   2.89527
 Alpha virt. eigenvalues --    2.90298   2.90509   2.91096   2.92563   2.92623
 Alpha virt. eigenvalues --    2.93294   2.93739   2.95260   2.95742   2.97973
 Alpha virt. eigenvalues --    2.98573   2.99229   3.00198   3.01549   3.03420
 Alpha virt. eigenvalues --    3.04005   3.04946   3.06515   3.07682   3.08850
 Alpha virt. eigenvalues --    3.11442   3.14831   3.15346   3.16663   3.16942
 Alpha virt. eigenvalues --    3.17382   3.17977   3.18362   3.19398   3.20466
 Alpha virt. eigenvalues --    3.21300   3.21777   3.22604   3.23083   3.23353
 Alpha virt. eigenvalues --    3.25998   3.30240   3.30714   3.31714   3.33400
 Alpha virt. eigenvalues --    3.34402   3.35910   3.37428   3.42142   3.42766
 Alpha virt. eigenvalues --    3.45324   3.47703   3.48739   3.52157   3.52531
 Alpha virt. eigenvalues --    3.56146   3.56714   3.61860   3.68712   4.50544
 Alpha virt. eigenvalues --    4.50823   4.51768   4.52070   4.52218   4.52309
 Alpha virt. eigenvalues --    4.52342   4.52391   4.52520   4.52606   4.52639
 Alpha virt. eigenvalues --    4.52693   4.52703   4.52954   4.53576   4.53854
 Alpha virt. eigenvalues --    4.53977   4.54094   4.54532   4.55118   4.55472
 Alpha virt. eigenvalues --    4.55646   4.55912   4.56076   4.56236   4.56312
 Alpha virt. eigenvalues --    4.56392   4.56411   4.56610   4.57301   4.57708
 Alpha virt. eigenvalues --    4.59370   4.59663   4.59828   4.59990   4.60064
 Alpha virt. eigenvalues --    4.60564   4.60590   4.60757   4.60840   4.61125
 Alpha virt. eigenvalues --    4.61162   4.61223   4.61271   4.61312   4.61384
 Alpha virt. eigenvalues --    4.61569   4.61663   4.61947   4.62311   4.62565
 Alpha virt. eigenvalues --    4.62675   4.62754   4.63177   4.63327   4.63979
 Alpha virt. eigenvalues --    4.64012   4.64085   4.64526   4.64659   4.65016
 Alpha virt. eigenvalues --    4.65909   4.66202   4.69092   4.75087   4.75137
 Alpha virt. eigenvalues --    4.75331   4.75435   4.75450   4.75525   4.75794
 Alpha virt. eigenvalues --    4.76768   4.76809   4.77154   4.77280   4.77912
 Alpha virt. eigenvalues --    4.78014   4.78089   4.79078   4.79186   4.80148
 Alpha virt. eigenvalues --    4.80315   4.80558   4.80702   4.80981   4.81396
 Alpha virt. eigenvalues --    4.81528   4.82391   4.82738   4.83073   4.83505
 Alpha virt. eigenvalues --    4.83700   4.84179   4.84275   4.84854   4.85877
 Alpha virt. eigenvalues --    4.87057   4.87316   4.87727   4.87814   4.87921
 Alpha virt. eigenvalues --    4.88218   4.88375   4.88629   4.88695   4.88865
 Alpha virt. eigenvalues --    4.89128   4.89215   4.89946   4.90017   4.90607
 Alpha virt. eigenvalues --    4.91494   4.91988   4.92671   4.92943   4.93153
 Alpha virt. eigenvalues --    4.94828   4.94948   4.95516   4.96095   4.96861
 Alpha virt. eigenvalues --    4.97561   4.98618   4.99531   4.99908   5.00534
 Alpha virt. eigenvalues --    5.01067   5.01988   5.04365   5.05061   5.05497
[...]
   Y21       42.29207  -0.00773   0.00000  -0.02756  -0.02771  42.26436
   Z21       39.32520   0.00170   0.00000  -0.00216  -0.00187  39.32333
   X22       35.20560  -0.00742   0.00000  -0.03484  -0.03353  35.17207
   Y22       43.08576  -0.00512   0.00000   0.01414   0.01383  43.09958
   Z22       36.77407  -0.03143   0.00000  -0.02324  -0.02273  36.75134
   X23       39.87322   0.01673   0.00000   0.01531   0.01814  39.89136
   Y23       41.23382   0.01968   0.00000   0.03591   0.03588  41.26971
   Z23       42.61332  -0.00418   0.00000  -0.00807  -0.00869  42.60464
   X24       40.09999   0.00463   0.00000   0.02369   0.02628  40.12627
   Y24       39.58976  -0.00787   0.00000   0.01513   0.01505  39.60481
   Z24       41.89523  -0.00539   0.00000  -0.00819  -0.00875  41.88648
   X25       38.28585  -0.01153   0.00000   0.00487   0.00793  38.29379
   Y25       41.15824  -0.00410   0.00000  -0.01010  -0.01001  41.14822
   Z25       43.46370   0.01032   0.00000   0.02182   0.02164  43.48534
   X26       30.63246  -0.00676   0.00000   0.01025   0.01140  30.64386
   Y26       39.53307   0.00346   0.00000  -0.00427  -0.00446  39.52861
   Z26       36.54730  -0.01059   0.00000  -0.02170  -0.01972  36.52759
   X27       31.97417   0.00532   0.00000  -0.02282  -0.02136  31.95280
   Y27       39.09843  -0.00445   0.00000  -0.00776  -0.00791  39.09052
   Z27       37.68114   0.01790   0.00000   0.05222   0.05389  37.73503
   X28       30.29231   0.00065   0.00000   0.00456   0.00543  30.29774
   Y28       37.98350  -0.00593   0.00000  -0.02492  -0.02517  37.95833
   Z28       35.64023   0.00135   0.00000   0.01005   0.01224  35.65248
   X29       40.96926   0.01462   0.00000   0.01710   0.01862  40.98788
   Y29       43.74716  -0.00018   0.00000   0.00973   0.00930  43.75646
   Z29       37.45437  -0.00678   0.00000  -0.00633  -0.00742  37.44695
   X30       39.30630  -0.00802   0.00000  -0.00250  -0.00118  39.30512
   Y30       43.67157   0.00311   0.00000   0.01584   0.01541  43.68698
   Z30       36.73628  -0.00035   0.00000   0.00437   0.00373  36.74000
   X31       40.68580  -0.00495   0.00000  -0.01079  -0.00879  40.67701
   Y31       44.18180  -0.00029   0.00000  -0.01058  -0.01087  44.17092
   Z31       39.19292   0.00758   0.00000   0.00733   0.00628  39.19920
   X32       33.80720   0.03188   0.00000   0.03495   0.03544  33.84264
   Y32       42.19758   0.01333   0.00000   0.00805   0.00757  42.20515
   Z32       33.84500  -0.01509   0.00000  -0.02227  -0.02133  33.82366
   X33       32.80565  -0.02390   0.00000  -0.03486  -0.03416  32.77149
   Y33       41.00706  -0.01554   0.00000  -0.00145  -0.00183  41.00522
   Z33       34.75206   0.00845   0.00000  -0.02130  -0.01999  34.73207
   X34       32.63557  -0.00549   0.00000   0.01133   0.01170  32.64727
   Y34       43.42591   0.00617   0.00000   0.01558   0.01509  43.44099
   Z34       33.22139  -0.00131   0.00000  -0.00217  -0.00100  33.22038
   X35       38.55041  -0.00593   0.00000   0.00675   0.00687  38.55729
   Y35       44.99438   0.01405   0.00000   0.01267   0.01193  45.00631
   Z35       32.10645   0.00702   0.00000   0.02325   0.02271  32.12916
   X36       38.98505   0.00428   0.00000   0.00061   0.00077  38.98582
   Y36       43.27473  -0.01457   0.00000  -0.02075  -0.02149  43.25324
   Z36       32.48439  -0.00430   0.00000  -0.02529  -0.02581  32.45858
   X37       39.53307   0.00296   0.00000  -0.00091  -0.00117  39.53190
   Y37       45.39122  -0.00234   0.00000  -0.00532  -0.00620  45.38502
   Z37       30.63246  -0.00267   0.00000   0.00410   0.00327  30.63573
   X38       35.54575  -0.00245   0.00000  -0.02648  -0.02294  35.52281
   Y38       41.02595  -0.00141   0.00000   0.01665   0.01694  41.04289
   Z38       45.24004   0.00220   0.00000   0.01021   0.01078  45.25083
   X39       35.05442  -0.00359   0.00000  -0.01086  -0.00730  35.04712
   Y39       42.76450   0.01294   0.00000   0.03386   0.03416  42.79866
   Z39       45.16445  -0.00021   0.00000   0.00882   0.00939  45.17384
   X40       35.77252   0.00072   0.00000  -0.00229   0.00171  35.77422
   Y40       40.70470  -0.00413   0.00000  -0.01218  -0.01176  40.69294
   Z40       47.01639   0.00299   0.00000   0.00600   0.00653  47.02291
   X41       47.09198   0.00974   0.00000  -0.02763  -0.02605  47.06592
   Y41       35.33788  -0.01368   0.00000  -0.04734  -0.04787  35.29001
   Z41       38.66380  -0.02283   0.00000  -0.05376  -0.05588  38.60792
   X42       46.24160  -0.00415   0.00000   0.02153   0.02350  46.26510
   Y42       34.65758  -0.00206   0.00000   0.00703   0.00664  34.66422
   Z42       40.09999   0.01764   0.00000   0.03317   0.03131  40.13130
   X43       46.27939  -0.00464   0.00000   0.00591   0.00748  46.28688
   Y43       36.92525   0.00897   0.00000   0.00519   0.00467  36.92992
   Z43       38.36144   0.00561   0.00000   0.02891   0.02688  38.38832
   X44       35.37567  -0.00674   0.00000  -0.01147  -0.01235  35.36333
   Y44       41.32831   0.00304   0.00000   0.02628   0.02539  41.35370
   Z44       28.78053  -0.00474   0.00000   0.00596   0.00655  28.78708
   X45       35.35678   0.00145   0.00000   0.00725   0.00686  35.36363
   Y45       41.70626   0.00530   0.00000   0.02078   0.02001  41.72627
   Z45       30.55687   0.01081   0.00000   0.02045   0.02101  30.57789
   X46       37.13312   0.00282   0.00000  -0.00698  -0.00799  37.12513
   Y46       41.36611   0.00368   0.00000   0.01953   0.01856  41.38466
   Z46       28.32699  -0.00246   0.00000  -0.00848  -0.00836  28.31863
   X47       34.29853  -0.00326   0.00000   0.01116   0.01095  34.30948
   Y47       29.49862  -0.01959   0.00000  -0.02057  -0.02115  29.47747
   Z47       32.59778  -0.01699   0.00000  -0.01153  -0.00981  32.58797
   X48       34.65758   0.00075   0.00000  -0.01991  -0.01985  34.63773
   Y48       31.06710   0.01992   0.00000   0.01476   0.01422  31.08132
   Z48       33.39146   0.01365   0.00000   0.01387   0.01539  33.40685
   X49       34.46860   0.00234   0.00000   0.00776   0.00788  34.47649
   Y49       28.27030  -0.00089   0.00000   0.00405   0.00355  28.27385
   Z49       33.92058   0.00897   0.00000   0.02277   0.02454  33.94512
   X50       29.59311  -0.00988   0.00000  -0.00761  -0.00451  29.58860
   Y50       35.81031  -0.01362   0.00000  -0.01766  -0.01727  35.79304
   Z50       44.16290   0.01098   0.00000   0.02099   0.02353  44.18643
   X51       28.68604  -0.00017   0.00000  -0.00412  -0.00090  28.68514
   Y51       37.34099   0.00402   0.00000  -0.00171  -0.00127  37.33972
   Z51       44.50305  -0.00193   0.00000  -0.00904  -0.00637  44.49668
   X52       31.08599   0.00700   0.00000  -0.01412  -0.01126  31.07474
   Y52       36.35833   0.00904   0.00000   0.01478   0.01506  36.37339
   Z52       43.29363  -0.00838   0.00000  -0.01568  -0.01358  43.28004
   X53       40.59132  -0.00378   0.00000   0.00817   0.00876  40.60007
   Y53       28.10023  -0.00740   0.00000  -0.01261  -0.01315  28.08707
   Z53       35.69693   0.00119   0.00000  -0.00103  -0.00089  35.69604
   X54       42.19758   0.00933   0.00000   0.02594   0.02661  42.22419
   Y54       27.36323  -0.00308   0.00000  -0.00162  -0.00218  27.36105
   Z54       36.07487  -0.00063   0.00000  -0.01013  -0.01037  36.06450
   X55       40.98816  -0.00321   0.00000  -0.02359  -0.02311  40.96505
   Y55       29.78208   0.01090   0.00000   0.01776   0.01716  29.79924
   Z55       35.13001   0.00098   0.00000   0.01934   0.01926  35.14927
   X56       35.88590   0.01643   0.00000   0.01110   0.01341  35.89931
   Y56       48.37699   0.01643   0.00000   0.02091   0.02080  48.39779
   Z56       39.85432   0.01042   0.00000   0.03300   0.03293  39.88726
   X57       35.67803  -0.00333   0.00000   0.00155   0.00368  35.68171
   Y57       46.61954  -0.01295   0.00000   0.00636   0.00623  46.62577
   Z57       39.45748  -0.00723   0.00000  -0.02027  -0.02015  39.43734
   X58       34.22294  -0.01173   0.00000  -0.01248  -0.01018  34.21276
   Y58       49.05729   0.00242   0.00000   0.00420   0.00414  49.06143
   Z58       39.79763  -0.00193   0.00000  -0.00614  -0.00580  39.79183
   X59       36.69848   0.01042   0.00000   0.01128   0.01444  36.71292
   Y59       29.53642  -0.00519   0.00000   0.00435   0.00459  29.54101
   Z59       45.10776   0.01365   0.00000   0.01122   0.01229  45.12006
   X60       34.92214  -0.00473   0.00000   0.00478   0.00792  34.93006
   Y60       29.19627  -0.00265   0.00000  -0.01678  -0.01648  29.17979
   Z60       45.10776  -0.00414   0.00000  -0.01053  -0.00894  45.09882
   X61       36.96304  -0.00819   0.00000  -0.03895  -0.03615  36.92689
   Y61       30.57577   0.01134   0.00000   0.03009   0.03022  30.60599
   Z61       43.63378  -0.00926   0.00000  -0.00282  -0.00187  43.63190
   X62       34.20404  -0.02288   0.00000  -0.04618  -0.04737  34.15667
   Y62       36.58510  -0.02353   0.00000  -0.06219  -0.06309  36.52200
   Z62       28.10023   0.00001   0.00000   0.05621   0.05747  28.15769
   X63       34.35522   0.00639   0.00000   0.01767   0.01670  34.37192
   Y63       38.22916   0.01819   0.00000   0.01558   0.01471  38.24387
   Z63       28.83722  -0.00238   0.00000  -0.05451  -0.05343  28.78379
   X64       35.77252   0.01439   0.00000   0.02023   0.01909  35.79161
   Y64       35.77252  -0.00561   0.00000  -0.00971  -0.01064  35.76187
   Z64       28.45928   0.00103   0.00000  -0.01224  -0.01136  28.44792
   X65       39.81653   0.01811   0.00000   0.02291   0.02207  39.83860
   Y65       29.36634   0.00562   0.00000   0.01613   0.01521  29.38155
   Z65       30.25452  -0.00935   0.00000  -0.00941  -0.00916  30.24536
   X66       39.62756  -0.00582   0.00000  -0.01255  -0.01302  39.61453
   Y66       30.70805   0.00164   0.00000   0.00078  -0.00004  30.70801
   Z66       31.46394   0.00612   0.00000   0.01288   0.01310  31.47704
   X67       38.34254  -0.01273   0.00000  -0.01081  -0.01162  38.33093
   Y67       28.34589   0.00120   0.00000   0.03066   0.02980  28.37570
   Z67       30.48128   0.00447   0.00000   0.00218   0.00291  30.48419
   X68       39.21182  -0.00364   0.00000   0.01422   0.01313  39.22494
   Y68       34.77096   0.01395   0.00000   0.01379   0.01278  34.78374
   Z68       28.70494   0.00318   0.00000   0.01805   0.01808  28.72302
   X69       40.15668   0.00366   0.00000  -0.01545  -0.01662  40.14006
   Y69       33.24028  -0.01820   0.00000  -0.03160  -0.03265  33.20763
   Z69       28.62935  -0.00242   0.00000  -0.01261  -0.01272  28.61663
   X70       40.17558  -0.00096   0.00000  -0.00071  -0.00204  40.17354
   Y70       35.94259   0.00057   0.00000   0.00080  -0.00031  35.94228
   Z70       27.70339  -0.00183   0.00000  -0.01097  -0.01128  27.69210
   X71       29.32855  -0.01376   0.00000  -0.00753  -0.00663  29.32192
   Y71       30.40569  -0.00776   0.00000  -0.01378  -0.01393  30.39176
   Z71       36.58510   0.00823   0.00000   0.00012   0.00312  36.58822
   X72       30.23562   0.01041   0.00000   0.01651   0.01698  30.25260
   Y72       30.12223   0.00222   0.00000   0.01234   0.01205  30.13429
   Z72       35.05442  -0.01105   0.00000  -0.01358  -0.01081  35.04361
   X73       30.27341   0.00652   0.00000   0.00511   0.00627  30.27968
   Y73       31.69071   0.00608   0.00000   0.00442   0.00430  31.69501
   Z73       37.43547  -0.00066   0.00000  -0.01376  -0.01111  37.42437
   X74       48.67935   0.00669   0.00000   0.00829   0.00966  48.68900
   Y74       40.83698  -0.00423   0.00000   0.00512   0.00444  40.84143
   Z74       37.22760  -0.00461   0.00000  -0.00787  -0.01083  37.21678
   X75       47.01639  -0.00387   0.00000  -0.00233  -0.00115  47.01523
   Y75       40.72360   0.00092   0.00000   0.00301   0.00233  40.72593
   Z75       36.50951  -0.00125   0.00000   0.00032  -0.00217  36.50733
   X76       48.58486  -0.00200   0.00000  -0.00612  -0.00441  48.58044
   Y76       42.27317   0.00596   0.00000   0.00767   0.00708  42.28025
   Z76       38.32365   0.00363   0.00000   0.00415   0.00112  38.32476
   X77       44.16290   0.00765   0.00000  -0.00191   0.00185  44.16475
   Y77       42.82119   0.01401   0.00000   0.01451   0.01460  42.83579
   Z77       45.90145   0.01373   0.00000   0.01440   0.01251  45.91396
   X78       44.99438  -0.00055   0.00000  -0.01161  -0.00802  44.98636
   Y78       41.29052  -0.00852   0.00000  -0.00223  -0.00220  41.28832
   Z78       45.42902  -0.00604   0.00000  -0.00673  -0.00872  45.42030
   X79       42.63222  -0.00837   0.00000  -0.00459  -0.00109  42.63113
   Y79       42.84009  -0.00868   0.00000  -0.02993  -0.02987  42.81022
   Z79       44.93769  -0.01049   0.00000  -0.01725  -0.01872  44.91896
   X80       43.95503   0.01879   0.00000   0.01654   0.01734  43.97237
   Y80       47.28095  -0.00100   0.00000  -0.00252  -0.00326  47.27769
   Z80       34.43081  -0.01968   0.00000  -0.01692  -0.01907  34.41174
   X81       43.87944  -0.00458   0.00000  -0.01006  -0.00889  43.87056
   Y81       48.60376   0.00872   0.00000   0.00360   0.00296  48.60671
   Z81       35.64023   0.01094   0.00000   0.00735   0.00513  35.64536
   X82       42.59443  -0.01403   0.00000  -0.00861  -0.00771  42.58672
   Y82       46.18491  -0.00849   0.00000  -0.00349  -0.00416  46.18075
   Z82       34.86545   0.00871   0.00000   0.01557   0.01387  34.87932
   X83       26.53175  -0.01737   0.00000  -0.02015  -0.01809  26.51367
   Y83       40.66691   0.00421   0.00000   0.01946   0.01963  40.68653
   Z83       39.81653   0.00823   0.00000   0.00668   0.00969  39.82622
   X84       28.08133   0.01243   0.00000  -0.00436  -0.00255  28.07878
   Y84       40.62911  -0.00377   0.00000  -0.01827  -0.01822  40.61089
   Z84       38.89056  -0.00905   0.00000  -0.01542  -0.01282  38.87774
   X85       27.04198   0.00328   0.00000   0.00893   0.01146  27.05344
   Y85       40.55352  -0.00164   0.00000  -0.00854  -0.00827  40.54525
   Z85       41.55508   0.00039   0.00000  -0.00215   0.00073  41.55581
   X86       45.46681   0.00936   0.00000  -0.01216  -0.00933  45.45748
   Y86       33.41036   0.01668   0.00000   0.01581   0.01568  33.42604
   Z86       43.44480  -0.00410   0.00000  -0.00144  -0.00299  43.44182
   X87       46.44947   0.00237   0.00000   0.00385   0.00707  46.45653
   Y87       33.10800  -0.00121   0.00000  -0.00074  -0.00080  33.10721
   Z87       44.93769   0.00091   0.00000  -0.00855  -0.01035  44.92734
   X88       44.20069  -0.01571   0.00000  -0.02194  -0.01916  44.18154
   Y88       32.12534  -0.01595   0.00000  -0.01766  -0.01776  32.10759
   Z88       43.44480   0.00106   0.00000   0.00309   0.00197  43.44678
   X89       40.62911  -0.00140   0.00000   0.00101  -0.00034  40.62878
   Y89       41.78184   0.00293   0.00000  -0.00313  -0.00431  41.77754
   Z89       26.98529  -0.00254   0.00000   0.00258   0.00172  26.98701
   X90       40.95037   0.00152   0.00000   0.00519   0.00409  40.95445
   Y90       40.34565  -0.00416   0.00000   0.00103  -0.00008  40.34558
   Z90       28.04354   0.00748   0.00000   0.02342   0.02257  28.06611
   X91       42.23538   0.00049   0.00000   0.00065  -0.00090  42.23448
   Y91       42.14089   0.00038   0.00000   0.00071  -0.00058  42.14032
   Z91       26.21050  -0.00054   0.00000   0.00041  -0.00091  26.20960
   X92       37.34099  -0.00391   0.00000  -0.00766  -0.00611  37.33488
   Y92       26.92860   0.01136   0.00000   0.00560   0.00542  26.93402
   Z92       39.41969   0.01372   0.00000   0.02282   0.02392  39.44361
   X93       38.68269   0.00144   0.00000  -0.02372  -0.02248  38.66021
   Y93       27.26875   0.00418   0.00000   0.02032   0.02002  27.28876
   Z93       38.22916  -0.00814   0.00000  -0.01364  -0.01292  38.21624
   X94       36.79297  -0.00289   0.00000  -0.00197  -0.00057  36.79240
   Y94       25.26564  -0.01307   0.00000  -0.01248  -0.01268  25.25296
   Z94       39.02284  -0.00322   0.00000   0.00028   0.00165  39.02450
   X95       41.89523   0.02479   0.00000   0.02104   0.02387  41.91910
   Y95       29.51752   0.00405   0.00000   0.00237   0.00237  29.51990
   Z95       43.91724  -0.01463   0.00000  -0.01365  -0.01397  43.90326
   X96       41.98971  -0.00711   0.00000  -0.02277  -0.01945  41.97026
   Y96       29.49862  -0.00119   0.00000  -0.00242  -0.00228  29.49634
   Z96       45.71248   0.01317   0.00000   0.00856   0.00823  45.72070
   X97       40.15668  -0.01793   0.00000  -0.00858  -0.00585  40.15083
   Y97       29.23406  -0.00931   0.00000  -0.03503  -0.03500  29.19907
   Z97       43.53929   0.00283   0.00000   0.01304   0.01322  43.55251
         Item               Value     Threshold  Converged?
 Maximum Force            0.031880     0.000450     NO 
 RMS     Force            0.009948     0.000300     NO 
 Maximum Displacement     0.063093     0.001800     NO 
 RMS     Displacement     0.017535     0.001200     NO 
 Predicted change in Energy=-2.590090D-02
 GradGradGradGradGradGradGradGradGradGradGradGradGradGradGradGradGradGrad

 Leave Link  103 at Thu May  3 05:40:16 2018, MaxMem= 14763950080 cpu:        65.8
 (Enter /cm/shared/gaussian/g09.e01/intel64-sandybridge/g09/l9999.exe)
 1\1\GINC-POPLE03\Force\RPBE1PBE\CC-pVDZ\Br1H64O32(1-)\M.PELUSO\03-May-
 2018\0\\#p PBE1PBE/cc-pvDZ force Counterpoise=2 noSymm\\forces on chlo
 ride comput - NWATER: 32\\-1,1\Br,20.,20.,20.\O,21.03,21.01,17.14\H,21
 .98,20.87,17.15\H,20.72,20.58,17.94\O,17.53,20.39,21.94\H,17.97,20.95,
 22.58\H,18.25,19.96,21.47\O,17.72,18.32,18.43\H,18.37,18.76,18.97\H,17
 .93,18.58,17.53\O,21.82,17.8,18.6\H,21.54,18.53,19.14\H,22.71,17.62,18
 .89\O,23.08,20.76,20.66\H,22.21,20.68,20.28\H,23.29,21.7,20.58\O,20.04
 ,17.27,21.79\H,20.89,16.95,21.48\H,19.81,17.97,21.18\O,18.66,23.07,20.
 37\H,19.16,22.38,20.81\H,18.63,22.8,19.46\O,21.1,21.82,22.55\H,21.22,2
 0.95,22.17\H,20.26,21.78,23.\O,16.21,20.92,19.34\H,16.92,20.69,19.94\H
 ,16.03,20.1,18.86\O,21.68,23.15,19.82\H,20.8,23.11,19.44\H,21.53,23.38
 ,20.74\O,17.89,22.33,17.91\H,17.36,21.7,18.39\H,17.27,22.98,17.58\O,20
 .4,23.81,16.99\H,20.63,22.9,17.19\H,20.92,24.02,16.21\O,18.81,21.71,23
 .94\H,18.55,22.63,23.9\H,18.93,21.54,24.88\O,24.92,18.7,20.46\H,24.47,
 18.34,21.22\H,24.49,19.54,20.3\O,18.72,21.87,15.23\H,18.71,22.07,16.17
 \H,19.65,21.89,14.99\O,18.15,15.61,17.25\H,18.34,16.44,17.67\H,18.24,1
 4.96,17.95\O,15.66,18.95,23.37\H,15.18,19.76,23.55\H,16.45,19.24,22.91
 \O,21.48,14.87,18.89\H,22.33,14.48,19.09\H,21.69,15.76,18.59\O,18.99,2
 5.6,21.09\H,18.88,24.67,20.88\H,18.11,25.96,21.06\O,19.42,15.63,23.87\
 H,18.48,15.45,23.87\H,19.56,16.18,23.09\O,18.1,19.36,14.87\H,18.18,20.
 23,15.26\H,18.93,18.93,15.06\O,21.07,15.54,16.01\H,20.97,16.25,16.65\H
 ,20.29,15.,16.13\O,20.75,18.4,15.19\H,21.25,17.59,15.15\H,21.26,19.02,
 14.66\O,15.52,16.09,19.36\H,16.,15.94,18.55\H,16.02,16.77,19.81\O,25.7
 6,21.61,19.7\H,24.88,21.55,19.32\H,25.71,22.37,20.28\O,23.37,22.66,24.
 29\H,23.81,21.85,24.04\H,22.56,22.67,23.78\O,23.26,25.02,18.22\H,23.22
 ,25.72,18.86\H,22.54,24.44,18.45\O,14.04,21.52,21.07\H,14.86,21.5,20.5
 8\H,14.31,21.46,21.99\O,24.06,17.68,22.99\H,24.58,17.52,23.78\H,23.39,
 17.,22.99\O,21.5,22.11,14.28\H,21.67,21.35,14.84\H,22.35,22.3,13.87\O,
 19.76,14.25,20.86\H,20.47,14.43,20.23\H,19.47,13.37,20.65\O,22.17,15.6
 2,23.24\H,22.22,15.61,24.19\H,21.25,15.47,23.04\\Version=ES64L-G09RevE
 .01\HF=-2443.1765465\RMSD=9.581e-09\RMSF=9.948e-03\Dipole=2.0332893,-0
 .0448306,2.0866059\Quadrupole=-11.7484933,-90.6395593,102.3880526,-137
 3.4787841,-1285.1678443,-1313.989561\PG=C01 [X(Br1H64O32)]\\@


 THE 2ND LAW OF THERMODYNAMICS HAS THE SAME
 DEGREE OF TRUTH AS THE STATEMENT THAT IF YOU THROW
 A TUMBLERFULL OF WATER INTO THE SEA, YOU CANNOT GET
 THE SAME TUMBLERFULL OF WATER OUT AGAIN.
          - J.C. MAXWELL, LETTER TO LORD RAYLEIGH, DECEMBER 6,1870
 Job cpu time:       0 days 10 hours 54 minutes 26.6 seconds.
 File lengths (MBytes):  RWF=    482 Int=      0 D2E=      0 Chk=    160 Scr=      1
 Normal termination of Gaussian 09 at Thu May  3 05:40:16 2018.
