 Entering Gaussian System, Link 0=/cm/shared/gaussian/g09.e01/intel64-sandybridge/g09/g09
 Initial command:
 /cm/shared/gaussian/g09.e01/intel64-sandybridge/g09/l1.exe "/local/scratch/m.peluso/32_wat/Gau-40304.inp" -scrdir="/local/scratch/m.peluso/32_wat/"
 Entering Link 1 = /cm/shared/gaussian/g09.e01/intel64-sandybridge/g09/l1.exe PID=     40305.
  
 Copyright (c) 1988,1990,1992,1993,1995,1998,2003,2009,2015,
            Gaussian, Inc.  All Rights Reserved.
  
 This is part of the Gaussian(R) 09 program.  It is based on
 the Gaussian(R) 03 system (copyright 2003, Gaussian, Inc.),
 the Gaussian(R) 98 system (copyright 1998, Gaussian, Inc.),
 the Gaussian(R) 94 system (copyright 1995, Gaussian, Inc.),
 the Gaussian 92(TM) system (copyright 1992, Gaussian, Inc.),
 the Gaussian 90(TM) system (copyright 1990, Gaussian, Inc.),
 the Gaussian 88(TM) system (copyright 1988, Gaussian, Inc.),
 the Gaussian 86(TM) system (copyright 1986, Carnegie Mellon
 University), and the Gaussian 82(TM) system (copyright 1983,
 Carnegie Mellon University). Gaussian is a federally registered
 trademark of Gaussian, Inc.
  
 This software contains proprietary and confidential information,
 including trade secrets, belonging to Gaussian, Inc.
  
 This software is provided under written license and may be
 used, copied, transmitted, or stored only in accord with that
 written license.
  
 The following legend is applicable only to US Government
 contracts under FAR:
  
                    RESTRICTED RIGHTS LEGEND
  
 Use, reproduction and disclosure by the US Government is
 subject to restrictions as set forth in subparagraphs (a)
 and (c) of the Commercial Computer Software - Restricted
 Rights clause in FAR 52.227-19.
  
 Gaussian, Inc.
 340 Quinnipiac St., Bldg. 40, Wallingford CT 06492
  
  
 ---------------------------------------------------------------
 Warning -- This program may not be used in any manner that
 competes with the business of Gaussian, Inc. or will provide
 assistance to any competitor of Gaussian, Inc.  The licensee
 of this program is prohibited from giving any competitor of
 Gaussian, Inc. access to this program.  By using this program,
 the user acknowledges that Gaussian, Inc. is engaged in the
 business of creating and licensing software in the field of
 computational chemistry and represents and warrants to the
 licensee that it is not a competitor of Gaussian, Inc. and that
 it will not use this program in any manner prohibited above.
 ---------------------------------------------------------------
  

 Cite this work as:
 Gaussian 09, Revision E.01,
 M. J. Frisch, G. W. Trucks, H. B. Schlegel, G. E. Scuseria, 
 M. A. Robb, J. R. Cheeseman, G. Scalmani, V. Barone, B. Mennucci, 
 G. A. Petersson, H. Nakatsuji, M. Caricato, X. Li, H. P. Hratchian, 
 A. F. Izmaylov, J. Bloino, G. Zheng, J. L. Sonnenberg, M. Hada, 
 M. Ehara, K. Toyota, R. Fukuda, J. Hasegawa, M. Ishida, T. Nakajima, 
 Y. Honda, O. Kitao, H. Nakai, T. Vreven, J. A. Montgomery, Jr., 
 J. E. Peralta, F. Ogliaro, M. Bearpark, J. J. Heyd, E. Brothers, 
 K. N. Kudin, V. N. Staroverov, T. Keith, R. Kobayashi, J. Normand, 
 K. Raghavachari, A. Rendell, J. C. Burant, S. S. Iyengar, J. Tomasi, 
 M. Cossi, N. Rega, J. M. Millam, M. Klene, J. E. Knox, J. B. Cross, 
 V. Bakken, C. Adamo, J. Jaramillo, R. Gomperts, R. E. Stratmann, 
 O. Yazyev, A. J. Austin, R. Cammi, C. Pomelli, J. W. Ochterski, 
 R. L. Martin, K. Morokuma, V. G. Zakrzewski, G. A. Voth, 
 P. Salvador, J. J. Dannenberg, S. Dapprich, A. D. Daniels, 
 O. Farkas, J. B. Foresman, J. V. Ortiz, J. Cioslowski, 
 and D. J. Fox, Gaussian, Inc., Wallingford CT, 2013.
 
 ******************************************
 Gaussian 09:  ES64L-G09RevE.01 30-Nov-2015
                 2-May-2018 
 ******************************************
 %Mem=110GB
 %NProcShared=64
 Will use up to   64 processors via shared memory.
 %chk=snap14.chk
 ----------------------------------------------
 #p PBE1PBE/cc-pvDZ force Counterpoise=2 noSymm
 ----------------------------------------------
 1/10=7,30=1,38=1,62=2/1,3;
 2/12=2,15=1,17=6,18=5,40=1/2;
 1/10=7,30=1,38=1,53=2,62=2,63=101/22;
 3/5=16,11=2,16=1,25=1,30=1,71=1,74=-13/1,2,3;
 4//1;
 5/5=2,38=5/2;
 6/7=2,8=2,9=2,10=2,28=1/1;
 7/7=1,29=1,30=1,33=-1/1,2,3,16;
 1/10=7,30=1,53=2,62=2,63=101/22;
 3/5=7,6=11,11=2,16=1,25=1,30=1,71=1,74=-13,82=7/1,2,3;
 4//1;
 5/5=2,38=5/2;
 6/7=2,8=2,9=2,10=2,28=1/1;
 7/7=1,29=1,30=1,33=-1/1,2,3,16;
 1/10=7,30=1,53=2,62=2,63=101/22(-5);
 7/9=1,29=1,44=-1/16;
 1/10=7,30=1,62=2/3;
 99//99;
 Leave Link    1 at Wed May  2 22:53:02 2018, MaxMem= 14763950080 cpu:         8.9
 (Enter /cm/shared/gaussian/g09.e01/intel64-sandybridge/g09/l101.exe)
 --------------------------------------
 forces on chloride comput - NWATER: 32
 --------------------------------------
 Symbolic Z-matrix:
 Charge = -1 Multiplicity = 1 in supermolecule
 Charge = -1 Multiplicity = 1 in fragment      1.
 Charge =  0 Multiplicity = 1 in fragment      2.
 Br(Fragment=1)        20.       20.       20. 
 O(Fragment=2)         22.14     18.38     21.5 
 H(Fragment=2)         22.32     17.78     20.77 
 H(Fragment=2)         21.4      18.9      21.19 
 O(Fragment=2)         18.54     17.41     21.1 
 H(Fragment=2)         18.84     18.29     20.87 
 H(Fragment=2)         18.07     17.52     21.92 
 O(Fragment=2)         22.92     20.86     18.6 
 H(Fragment=2)         22.07     20.53     18.91 
 H(Fragment=2)         22.97     20.58     17.69 
 O(Fragment=2)         17.31     20.34     17.81 
 H(Fragment=2)         18.01     20.26     18.47 
 H(Fragment=2)         17.29     19.49     17.38 
 O(Fragment=2)         19.69     19.84     23.49 
 H(Fragment=2)         19.92     20.       22.57 
 H(Fragment=2)         19.02     19.16     23.45 
 O(Fragment=2)         21.16     22.95     21.61 
 H(Fragment=2)         21.85     23.36     21.09 
 H(Fragment=2)         20.76     22.31     21.02 
 O(Fragment=2)         19.77     22.6      17.57 
 H(Fragment=2)         19.96     21.84     18.11 
 H(Fragment=2)         18.94     22.94     17.91 
 O(Fragment=2)         17.11     20.95     21.71 
 H(Fragment=2)         17.59     20.43     21.07 
 H(Fragment=2)         17.72     21.05     22.44 
 O(Fragment=2)         24.31     20.36     21.46 
 H(Fragment=2)         23.61     19.76     21.71 
 H(Fragment=2)         24.4      20.25     20.52 
 O(Fragment=2)         18.24     15.34     19.56 
 H(Fragment=2)         18.11     16.27     19.71 
 H(Fragment=2)         18.6      15.01     20.38 
 O(Fragment=2)         23.12     16.92     19.42 
 H(Fragment=2)         22.41     16.76     18.8 
 H(Fragment=2)         23.73     17.49     18.95 
 O(Fragment=2)         21.28     21.2      15.48 
 H(Fragment=2)         20.91     21.67     16.24 
 H(Fragment=2)         20.65     21.36     14.78 
 O(Fragment=2)         19.52     23.45     23.95 
 H(Fragment=2)         20.07     24.18     24.26 
 H(Fragment=2)         20.08     22.99     23.32 
 O(Fragment=2)         22.08     18.98     24.69 
 H(Fragment=2)         21.87     18.36     23.99 
 H(Fragment=2)         21.49     19.72     24.54 
 O(Fragment=2)         17.15     21.56     15.39 
 H(Fragment=2)         17.38     21.       16.13 
 H(Fragment=2)         16.75     22.34     15.79 
 O(Fragment=2)         21.7      18.57     15.53 
 H(Fragment=2)         21.02     18.18     14.99 
 H(Fragment=2)         21.53     19.51     15.48 
 O(Fragment=2)         17.47     18.09     16.2 
 H(Fragment=2)         17.16     18.25     15.3 
 H(Fragment=2)         18.36     17.77     16.08 
 O(Fragment=2)         17.67     17.76     23.56 
 H(Fragment=2)         17.59     17.76     24.52 
 H(Fragment=2)         16.82     18.05     23.25 
 O(Fragment=2)         22.01     16.3      16.95 
 H(Fragment=2)         21.38     15.67     16.59 
 H(Fragment=2)         21.79     17.13     16.51 
 O(Fragment=2)         19.32     25.43     21.7 
 H(Fragment=2)         19.14     24.93     22.5 
 H(Fragment=2)         19.56     24.76     21.06 
 O(Fragment=2)         15.44     19.21     23. 
 H(Fragment=2)         15.67     19.95     22.44 
 H(Fragment=2)         14.89     19.58     23.68 
 O(Fragment=2)         22.44     24.45     19.65 
 H(Fragment=2)         23.17     24.94     20.03 
 H(Fragment=2)         22.77     24.13     18.81 
 O(Fragment=2)         17.64     24.52     19.01 
 H(Fragment=2)         16.88     23.95     18.89 
 H(Fragment=2)         17.65     24.72     19.95 
 O(Fragment=2)         23.25     16.33     23.58 
 H(Fragment=2)         23.54     15.43     23.4 
 H(Fragment=2)         23.15     16.73     22.72 
 O(Fragment=2)         20.17     20.9      26.23 
 H(Fragment=2)         19.92     20.79     25.31 
 H(Fragment=2)         21.03     21.32     26.2 
 O(Fragment=2)         25.68     21.92     18.5 
 H(Fragment=2)         25.79     21.75     19.43 
 H(Fragment=2)         24.75     22.13     18.4 
 O(Fragment=2)         16.35     24.33     22.09 
 H(Fragment=2)         16.58     23.47     22.46 
 H(Fragment=2)         15.41     24.41     22.26 
 O(Fragment=2)         24.37     18.19     16.67 
 H(Fragment=2)         23.51     17.88     16.38 
 H(Fragment=2)         25.       17.68     16.15 
 O(Fragment=2)         19.39     15.93     24.92 
 H(Fragment=2)         19.02     16.73     24.54 
 H(Fragment=2)         18.82     15.74     25.67 
 O(Fragment=2)         23.76     14.81     21. 
 H(Fragment=2)         23.62     15.62     20.51 
 H(Fragment=2)         22.99     14.28     20.82 
 O(Fragment=2)         24.82     20.41     24.38 
 H(Fragment=2)         24.22     21.       24.81 
 H(Fragment=2)         24.72     20.6      23.44 
 O(Fragment=2)         20.77     26.53     18.64 
 H(Fragment=2)         21.13     25.77     19.08 
 H(Fragment=2)         21.52     27.12     18.52 
 
 NAtoms=     97 NQM=       97 NQMF=       0 NMMI=      0 NMMIF=      0
                NMic=       0 NMicF=      0.
                    Isotopes and Nuclear Properties:
 (Nuclear quadrupole moments (NQMom) in fm**2, nuclear magnetic moments (NMagM)
  in nuclear magnetons)

  Atom         1           2           3           4           5           6           7           8           9          10
 IAtWgt=          79          16           1           1          16           1           1          16           1           1
 AtmWgt=  78.9183361  15.9949146   1.0078250   1.0078250  15.9949146   1.0078250   1.0078250  15.9949146   1.0078250   1.0078250
 NucSpn=           3           0           1           1           0           1           1           0           1           1
 AtZEff=   0.0000000   0.0000000   0.0000000   0.0000000   0.0000000   0.0000000   0.0000000   0.0000000   0.0000000   0.0000000
 NQMom=   31.3000000   0.0000000   0.0000000   0.0000000   0.0000000   0.0000000   0.0000000   0.0000000   0.0000000   0.0000000
 NMagM=    2.1063990   0.0000000   2.7928460   2.7928460   0.0000000   2.7928460   2.7928460   0.0000000   2.7928460   2.7928460
 AtZNuc=  35.0000000   8.0000000   1.0000000   1.0000000   8.0000000   1.0000000   1.0000000   8.0000000   1.0000000   1.0000000

  Atom        11          12          13          14          15          16          17          18          19          20
 IAtWgt=          16           1           1          16           1           1          16           1           1          16
 AtmWgt=  15.9949146   1.0078250   1.0078250  15.9949146   1.0078250   1.0078250  15.9949146   1.0078250   1.0078250  15.9949146
 NucSpn=           0           1           1           0           1           1           0           1           1           0
 AtZEff=   0.0000000   0.0000000   0.0000000   0.0000000   0.0000000   0.0000000   0.0000000   0.0000000   0.0000000   0.0000000
 NQMom=    0.0000000   0.0000000   0.0000000   0.0000000   0.0000000   0.0000000   0.0000000   0.0000000   0.0000000   0.0000000
 NMagM=    0.0000000   2.7928460   2.7928460   0.0000000   2.7928460   2.7928460   0.0000000   2.7928460   2.7928460   0.0000000
 AtZNuc=   8.0000000   1.0000000   1.0000000   8.0000000   1.0000000   1.0000000   8.0000000   1.0000000   1.0000000   8.0000000

  Atom        21          22          23          24          25          26          27          28          29          30
 IAtWgt=           1           1          16           1           1          16           1           1          16           1
 AtmWgt=   1.0078250   1.0078250  15.9949146   1.0078250   1.0078250  15.9949146   1.0078250   1.0078250  15.9949146   1.0078250
 NucSpn=           1           1           0           1           1           0           1           1           0           1
 AtZEff=   0.0000000   0.0000000   0.0000000   0.0000000   0.0000000   0.0000000   0.0000000   0.0000000   0.0000000   0.0000000
 NQMom=    0.0000000   0.0000000   0.0000000   0.0000000   0.0000000   0.0000000   0.0000000   0.0000000   0.0000000   0.0000000
 NMagM=    2.7928460   2.7928460   0.0000000   2.7928460   2.7928460   0.0000000   2.7928460   2.7928460   0.0000000   2.7928460
 AtZNuc=   1.0000000   1.0000000   8.0000000   1.0000000   1.0000000   8.0000000   1.0000000   1.0000000   8.0000000   1.0000000

  Atom        31          32          33          34          35          36          37          38          39          40
 IAtWgt=           1          16           1           1          16           1           1          16           1           1
 AtmWgt=   1.0078250  15.9949146   1.0078250   1.0078250  15.9949146   1.0078250   1.0078250  15.9949146   1.0078250   1.0078250
 NucSpn=           1           0           1           1           0           1           1           0           1           1
 AtZEff=   0.0000000   0.0000000   0.0000000   0.0000000   0.0000000   0.0000000   0.0000000   0.0000000   0.0000000   0.0000000
 NQMom=    0.0000000   0.0000000   0.0000000   0.0000000   0.0000000   0.0000000   0.0000000   0.0000000   0.0000000   0.0000000
 NMagM=    2.7928460   0.0000000   2.7928460   2.7928460   0.0000000   2.7928460   2.7928460   0.0000000   2.7928460   2.7928460
 AtZNuc=   1.0000000   8.0000000   1.0000000   1.0000000   8.0000000   1.0000000   1.0000000   8.0000000   1.0000000   1.0000000

  Atom        41          42          43          44          45          46          47          48          49          50
 IAtWgt=          16           1           1          16           1           1          16           1           1          16
 AtmWgt=  15.9949146   1.0078250   1.0078250  15.9949146   1.0078250   1.0078250  15.9949146   1.0078250   1.0078250  15.9949146
 NucSpn=           0           1           1           0           1           1           0           1           1           0
 AtZEff=   0.0000000   0.0000000   0.0000000   0.0000000   0.0000000   0.0000000   0.0000000   0.0000000   0.0000000   0.0000000
 NQMom=    0.0000000   0.0000000   0.0000000   0.0000000   0.0000000   0.0000000   0.0000000   0.0000000   0.0000000   0.0000000
 NMagM=    0.0000000   2.7928460   2.7928460   0.0000000   2.7928460   2.7928460   0.0000000   2.7928460   2.7928460   0.0000000
 AtZNuc=   8.0000000   1.0000000   1.0000000   8.0000000   1.0000000   1.0000000   8.0000000   1.0000000   1.0000000   8.0000000

  Atom        51          52          53          54          55          56          57          58          59          60
 IAtWgt=           1           1          16           1           1          16           1           1          16           1
 AtmWgt=   1.0078250   1.0078250  15.9949146   1.0078250   1.0078250  15.9949146   1.0078250   1.0078250  15.9949146   1.0078250
 NucSpn=           1           1           0           1           1           0           1           1           0           1
 AtZEff=   0.0000000   0.0000000   0.0000000   0.0000000   0.0000000   0.0000000   0.0000000   0.0000000   0.0000000   0.0000000
 NQMom=    0.0000000   0.0000000   0.0000000   0.0000000   0.0000000   0.0000000   0.0000000   0.0000000   0.0000000   0.0000000
 NMagM=    2.7928460   2.7928460   0.0000000   2.7928460   2.7928460   0.0000000   2.7928460   2.7928460   0.0000000   2.7928460
 AtZNuc=   1.0000000   1.0000000   8.0000000   1.0000000   1.0000000   8.0000000   1.0000000   1.0000000   8.0000000   1.0000000

  Atom        61          62          63          64          65          66          67          68          69          70
 IAtWgt=           1          16           1           1          16           1           1          16           1           1
 AtmWgt=   1.0078250  15.9949146   1.0078250   1.0078250  15.9949146   1.0078250   1.0078250  15.9949146   1.0078250   1.0078250
 NucSpn=           1           0           1           1           0           1           1           0           1           1
 AtZEff=   0.0000000   0.0000000   0.0000000   0.0000000   0.0000000   0.0000000   0.0000000   0.0000000   0.0000000   0.0000000
 NQMom=    0.0000000   0.0000000   0.0000000   0.0000000   0.0000000   0.0000000   0.0000000   0.0000000   0.0000000   0.0000000
 NMagM=    2.7928460   0.0000000   2.7928460   2.7928460   0.0000000   2.7928460   2.7928460   0.0000000   2.7928460   2.7928460
 AtZNuc=   1.0000000   8.0000000   1.0000000   1.0000000   8.0000000   1.0000000   1.0000000   8.0000000   1.0000000   1.0000000

  Atom        71          72          73          74          75          76          77          78          79          80
 IAtWgt=          16           1           1          16           1           1          16           1           1          16
 AtmWgt=  15.9949146   1.0078250   1.0078250  15.9949146   1.0078250   1.0078250  15.9949146   1.0078250   1.0078250  15.9949146
 NucSpn=           0           1           1           0           1           1           0           1           1           0
 AtZEff=   0.0000000   0.0000000   0.0000000   0.0000000   0.0000000   0.0000000   0.0000000   0.0000000   0.0000000   0.0000000
 NQMom=    0.0000000   0.0000000   0.0000000   0.0000000   0.0000000   0.0000000   0.0000000   0.0000000   0.0000000   0.0000000
 NMagM=    0.0000000   2.7928460   2.7928460   0.0000000   2.7928460   2.7928460   0.0000000   2.7928460   2.7928460   0.0000000
 AtZNuc=   8.0000000   1.0000000   1.0000000   8.0000000   1.0000000   1.0000000   8.0000000   1.0000000   1.0000000   8.0000000

  Atom        81          82          83          84          85          86          87          88          89          90
 IAtWgt=           1           1          16           1           1          16           1           1          16           1
 AtmWgt=   1.0078250   1.0078250  15.9949146   1.0078250   1.0078250  15.9949146   1.0078250   1.0078250  15.9949146   1.0078250
 NucSpn=           1           1           0           1           1           0           1           1           0           1
 AtZEff=   0.0000000   0.0000000   0.0000000   0.0000000   0.0000000   0.0000000   0.0000000   0.0000000   0.0000000   0.0000000
 NQMom=    0.0000000   0.0000000   0.0000000   0.0000000   0.0000000   0.0000000   0.0000000   0.0000000   0.0000000   0.0000000
 NMagM=    2.7928460   2.7928460   0.0000000   2.7928460   2.7928460   0.0000000   2.7928460   2.7928460   0.0000000   2.7928460
 AtZNuc=   1.0000000   1.0000000   8.0000000   1.0000000   1.0000000   8.0000000   1.0000000   1.0000000   8.0000000   1.0000000

  Atom        91          92          93          94          95          96          97
 IAtWgt=           1          16           1           1          16           1           1
 AtmWgt=   1.0078250  15.9949146   1.0078250   1.0078250  15.9949146   1.0078250   1.0078250
 NucSpn=           1           0           1           1           0           1           1
 AtZEff=   0.0000000   0.0000000   0.0000000   0.0000000   0.0000000   0.0000000   0.0000000
 NQMom=    0.0000000   0.0000000   0.0000000   0.0000000   0.0000000   0.0000000   0.0000000
 NMagM=    2.7928460   0.0000000   2.7928460   2.7928460   0.0000000   2.7928460   2.7928460
 AtZNuc=   1.0000000   8.0000000   1.0000000   1.0000000   8.0000000   1.0000000   1.0000000
 Leave Link  101 at Wed May  2 22:53:02 2018, MaxMem= 14763950080 cpu:        12.6
 (Enter /cm/shared/gaussian/g09.e01/intel64-sandybridge/g09/l103.exe)

 GradGradGradGradGradGradGradGradGradGradGradGradGradGradGradGradGradGrad
 Berny optimization.
 Initialization pass.
 Trust Radius=3.00D-01 FncErr=1.00D-07 GrdErr=1.00D-07
 Number of steps in this run=      2 maximum allowed number of steps=      2.
 GradGradGradGradGradGradGradGradGradGradGradGradGradGradGradGradGradGrad

 Leave Link  103 at Wed May  2 22:53:02 2018, MaxMem= 14763950080 cpu:         1.7
 (Enter /cm/shared/gaussian/g09.e01/intel64-sandybridge/g09/l202.exe)
 Symmetry turned off by external request.
 Stoichiometry    BrH64O32(1-)
 Framework group  C1[X(BrH64O32)]
 Deg. of freedom   285
 Full point group                 C1      NOp   1
                          Input orientation:                          
 ---------------------------------------------------------------------
 Center     Atomic      Atomic             Coordinates (Angstroms)
 Number     Number       Type             X           Y           Z
 ---------------------------------------------------------------------
      1         35           0       20.000000   20.000000   20.000000
      2          8           0       22.140000   18.380000   21.500000
      3          1           0       22.320000   17.780000   20.770000
      4          1           0       21.400000   18.900000   21.190000
      5          8           0       18.540000   17.410000   21.100000
      6          1           0       18.840000   18.290000   20.870000
      7          1           0       18.070000   17.520000   21.920000
      8          8           0       22.920000   20.860000   18.600000
      9          1           0       22.070000   20.530000   18.910000
     10          1           0       22.970000   20.580000   17.690000
     11          8           0       17.310000   20.340000   17.810000
     12          1           0       18.010000   20.260000   18.470000
     13          1           0       17.290000   19.490000   17.380000
     14          8           0       19.690000   19.840000   23.490000
     15          1           0       19.920000   20.000000   22.570000
     16          1           0       19.020000   19.160000   23.450000
     17          8           0       21.160000   22.950000   21.610000
     18          1           0       21.850000   23.360000   21.090000
     19          1           0       20.760000   22.310000   21.020000
     20          8           0       19.770000   22.600000   17.570000
     21          1           0       19.960000   21.840000   18.110000
     22          1           0       18.940000   22.940000   17.910000
     23          8           0       17.110000   20.950000   21.710000
     24          1           0       17.590000   20.430000   21.070000
     25          1           0       17.720000   21.050000   22.440000
     26          8           0       24.310000   20.360000   21.460000
     27          1           0       23.610000   19.760000   21.710000
     28          1           0       24.400000   20.250000   20.520000
     29          8           0       18.240000   15.340000   19.560000
     30          1           0       18.110000   16.270000   19.710000
     31          1           0       18.600000   15.010000   20.380000
     32          8           0       23.120000   16.920000   19.420000
     33          1           0       22.410000   16.760000   18.800000
     34          1           0       23.730000   17.490000   18.950000
     35          8           0       21.280000   21.200000   15.480000
     36          1           0       20.910000   21.670000   16.240000
     37          1           0       20.650000   21.360000   14.780000
     38          8           0       19.520000   23.450000   23.950000
     39          1           0       20.070000   24.180000   24.260000
     40          1           0       20.080000   22.990000   23.320000
     41          8           0       22.080000   18.980000   24.690000
     42          1           0       21.870000   18.360000   23.990000
     43          1           0       21.490000   19.720000   24.540000
     44          8           0       17.150000   21.560000   15.390000
     45          1           0       17.380000   21.000000   16.130000
     46          1           0       16.750000   22.340000   15.790000
     47          8           0       21.700000   18.570000   15.530000
     48          1           0       21.020000   18.180000   14.990000
     49          1           0       21.530000   19.510000   15.480000
     50          8           0       17.470000   18.090000   16.200000
     51          1           0       17.160000   18.250000   15.300000
     52          1           0       18.360000   17.770000   16.080000
     53          8           0       17.670000   17.760000   23.560000
     54          1           0       17.590000   17.760000   24.520000
     55          1           0       16.820000   18.050000   23.250000
     56          8           0       22.010000   16.300000   16.950000
     57          1           0       21.380000   15.670000   16.590000
     58          1           0       21.790000   17.130000   16.510000
     59          8           0       19.320000   25.430000   21.700000
     60          1           0       19.140000   24.930000   22.500000
     61          1           0       19.560000   24.760000   21.060000
     62          8           0       15.440000   19.210000   23.000000
     63          1           0       15.670000   19.950000   22.440000
     64          1           0       14.890000   19.580000   23.680000
     65          8           0       22.440000   24.450000   19.650000
     66          1           0       23.170000   24.940000   20.030000
     67          1           0       22.770000   24.130000   18.810000
     68          8           0       17.640000   24.520000   19.010000
     69          1           0       16.880000   23.950000   18.890000
     70          1           0       17.650000   24.720000   19.950000
     71          8           0       23.250000   16.330000   23.580000
     72          1           0       23.540000   15.430000   23.400000
     73          1           0       23.150000   16.730000   22.720000
     74          8           0       20.170000   20.900000   26.230000
     75          1           0       19.920000   20.790000   25.310000
     76          1           0       21.030000   21.320000   26.200000
     77          8           0       25.680000   21.920000   18.500000
     78          1           0       25.790000   21.750000   19.430000
     79          1           0       24.750000   22.130000   18.400000
     80          8           0       16.350000   24.330000   22.090000
     81          1           0       16.580000   23.470000   22.460000
     82          1           0       15.410000   24.410000   22.260000
     83          8           0       24.370000   18.190000   16.670000
     84          1           0       23.510000   17.880000   16.380000
     85          1           0       25.000000   17.680000   16.150000
     86          8           0       19.390000   15.930000   24.920000
     87          1           0       19.020000   16.730000   24.540000
     88          1           0       18.820000   15.740000   25.670000
     89          8           0       23.760000   14.810000   21.000000
     90          1           0       23.620000   15.620000   20.510000
     91          1           0       22.990000   14.280000   20.820000
     92          8           0       24.820000   20.410000   24.380000
     93          1           0       24.220000   21.000000   24.810000
     94          1           0       24.720000   20.600000   23.440000
     95          8           0       20.770000   26.530000   18.640000
     96          1           0       21.130000   25.770000   19.080000
     97          1           0       21.520000   27.120000   18.520000
 ---------------------------------------------------------------------
 Rotational constants (GHZ):      0.0557000      0.0529472      0.0458590
 Leave Link  202 at Wed May  2 22:53:02 2018, MaxMem= 14763950080 cpu:         0.5
 (Enter /cm/shared/gaussian/g09.e01/intel64-sandybridge/g09/l122.exe)
 Counterpoise: doing full dimer calculation.
 Leave Link  122 at Wed May  2 22:53:02 2018, MaxMem= 14763950080 cpu:         0.1
 (Enter /cm/shared/gaussian/g09.e01/intel64-sandybridge/g09/l301.exe)
 Standard basis: CC-pVDZ (5D, 7F)
 Ernie: Thresh=  0.10000D-02 Tol=  0.10000D-05 Strict=F.
 Ernie:  87 primitive shells out of 1114 were deleted.
   795 basis functions,  1651 primitive gaussians,   829 cartesian basis functions
   178 alpha electrons      178 beta electrons
       nuclear repulsion energy      5947.5212928418 Hartrees.
 IExCor= 1009 DFT=T Ex+Corr=PBE1PBE ExCW=0 ScaHFX=  0.250000
 ScaDFX=  0.750000  0.750000  1.000000  1.000000 ScalE2=  1.000000  1.000000
 IRadAn=      0 IRanWt=     -1 IRanGd=            0 ICorTp=0 IEmpDi=  4
 NAtoms=   97 NActive=   97 NUniq=   97 SFac= 1.00D+00 NAtFMM=   60 NAOKFM=T Big=T
 Integral buffers will be    131072 words long.
 Raffenetti 2 integral format.
 Two-electron integral symmetry is turned off.
 Leave Link  301 at Wed May  2 22:53:02 2018, MaxMem= 14763950080 cpu:         4.3
 (Enter /cm/shared/gaussian/g09.e01/intel64-sandybridge/g09/l302.exe)
 NPDir=0 NMtPBC=     1 NCelOv=     1 NCel=       1 NClECP=     1 NCelD=      1
         NCelK=      1 NCelE2=     1 NClLst=     1 CellRange=     0.0.
 One-electron integrals computed using PRISM.
 NBasis=   795 RedAO= T EigKep=  1.64D-02  NBF=   795
 NBsUse=   795 1.00D-06 EigRej= -1.00D+00 NBFU=   795
 Precomputing XC quadrature grid using
 IXCGrd= 4 IRadAn=           0 IRanWt=          -1 IRanGd=           0 AccXCQ= 0.00D+00.
 Generated NRdTot=       0 NPtTot=           0 NUsed=           0 NTot=          32
 NSgBfM=   707   710   723   723   736 MxSgAt=    97 MxSgA2=    97.
 Leave Link  302 at Wed May  2 22:53:09 2018, MaxMem= 14763950080 cpu:       416.7
 (Enter /cm/shared/gaussian/g09.e01/intel64-sandybridge/g09/l303.exe)
 DipDrv:  MaxL=1.
 Leave Link  303 at Wed May  2 22:53:10 2018, MaxMem= 14763950080 cpu:        28.7
 (Enter /cm/shared/gaussian/g09.e01/intel64-sandybridge/g09/l401.exe)
 ExpMin= 1.22D-01 ExpMax= 6.40D+05 ExpMxC= 6.18D+03 IAcc=2 IRadAn=         4 AccDes= 0.00D+00
 Harris functional with IExCor= 1009 and IRadAn=       4 diagonalized for initial guess.
 HarFok:  IExCor= 1009 AccDes= 0.00D+00 IRadAn=         4 IDoV= 1 UseB2=F ITyADJ=14
 ICtDFT=  3500011 ScaDFX=  1.000000  1.000000  1.000000  1.000000
 FoFCou: FMM=F IPFlag=           0 FMFlag=      100000 FMFlg1=        2001
         NFxFlg=           0 DoJE=T BraDBF=F KetDBF=T FulRan=T
         wScrn=  0.000000 ICntrl=     500 IOpCl=  0 I1Cent=   200000004 NGrid=           0
         NMat0=    1 NMatS0=      1 NMatT0=    0 NMatD0=    1 NMtDS0=    0 NMtDT0=    0
 Symmetry not used in FoFCou.
 Harris En= -5018.42680176876    
 JPrj=0 DoOrth=F DoCkMO=F.
 Leave Link  401 at Wed May  2 22:53:14 2018, MaxMem= 14763950080 cpu:       301.9
 (Enter /cm/shared/gaussian/g09.e01/intel64-sandybridge/g09/l502.exe)
 Closed shell SCF:
 Using DIIS extrapolation, IDIIS=  1040.
 Two-electron integral symmetry not used.
 IVT=     2138497 IEndB=     2138497 NGot= 14763950080 MDV= 14762516294
 LenX= 14762516294 LenY= 14761828224
 Requested convergence on RMS density matrix=1.00D-08 within 128 cycles.
 Requested convergence on MAX density matrix=1.00D-06.
 Requested convergence on             energy=1.00D-06.
 No special actions if energy rises.
 Fock matrices will be formed incrementally for  20 cycles.
 Integral accuracy reduced to 1.0D-05 until final iterations.

 Cycle   1  Pass 0  IDiag  1:
 FoFJK:  IHMeth= 1 ICntrl=       0 DoSepK=F KAlg= 0 I1Cent=   0 FoldK=F
 IRaf= 790000000 NMat=   1 IRICut=       1 DoRegI=T DoRafI=F ISym2E= 0.
 FoFCou: FMM=T IPFlag=           0 FMFlag=      100000 FMFlg1=        2001
         NFxFlg=           0 DoJE=F BraDBF=F KetDBF=F FulRan=T
         wScrn=  0.000000 ICntrl=       0 IOpCl=  0 I1Cent=           0 NGrid=           0
         NMat0=    1 NMatS0=      1 NMatT0=    0 NMatD0=    1 NMtDS0=    0 NMtDT0=    0
 Symmetry not used in FoFCou.
 FMM levels:  10  Number of levels for PrismC:   9
 E= -5015.22460212047    
 DIIS: error= 4.41D-02 at cycle   1 NSaved=   1.
 NSaved= 1 IEnMin= 1 EnMin= -5015.22460212047     IErMin= 1 ErrMin= 4.41D-02
 ErrMax= 4.41D-02  0.00D+00 EMaxC= 1.00D-01 BMatC= 2.77D+00 BMatP= 2.77D+00
 IDIUse=3 WtCom= 5.59D-01 WtEn= 4.41D-01
 Coeff-Com:  0.100D+01
 Coeff-En:   0.100D+01
 Coeff:      0.100D+01
 Gap=     0.340 Goal=   None    Shift=    0.000
 GapD=    0.340 DampG=1.000 DampE=0.500 DampFc=0.5000 IDamp=-1.
 Damping current iteration by 5.00D-01
 RMSDP=2.89D-03 MaxDP=1.57D-01              OVMax= 1.77D-01

 Cycle   2  Pass 0  IDiag  1:
 RMSU=  1.43D-03    CP:  9.85D-01
 E= -5016.02801221846     Delta-E=       -0.803410097991 Rises=F Damp=T
 DIIS: error= 8.15D-03 at cycle   2 NSaved=   2.
 NSaved= 2 IEnMin= 2 EnMin= -5016.02801221846     IErMin= 2 ErrMin= 8.15D-03
 ErrMax= 8.15D-03  0.00D+00 EMaxC= 1.00D-01 BMatC= 9.08D-02 BMatP= 2.77D+00
 IDIUse=3 WtCom= 9.18D-01 WtEn= 8.15D-02
 Coeff-Com:  0.122D+00 0.878D+00
 Coeff-En:   0.218D+00 0.782D+00
 Coeff:      0.130D+00 0.870D+00
 Gap=     0.183 Goal=   None    Shift=    0.000
 RMSDP=3.59D-04 MaxDP=1.94D-02 DE=-8.03D-01 OVMax= 9.65D-02

 Cycle   3  Pass 0  IDiag  1:
 RMSU=  2.79D-04    CP:  9.87D-01  8.43D-01
 E= -5017.20667388153     Delta-E=       -1.178661663069 Rises=F Damp=F
 DIIS: error= 9.73D-04 at cycle   3 NSaved=   3.
 NSaved= 3 IEnMin= 3 EnMin= -5017.20667388153     IErMin= 3 ErrMin= 9.73D-04
 ErrMax= 9.73D-04  0.00D+00 EMaxC= 1.00D-01 BMatC= 2.40D-03 BMatP= 9.08D-02
 IDIUse=3 WtCom= 9.90D-01 WtEn= 9.73D-03
 Coeff-Com:  0.123D-01 0.835D-01 0.904D+00
 Coeff-En:   0.000D+00 0.000D+00 0.100D+01
 Coeff:      0.121D-01 0.827D-01 0.905D+00
 Gap=     0.189 Goal=   None    Shift=    0.000
 RMSDP=1.04D-04 MaxDP=1.49D-02 DE=-1.18D+00 OVMax= 1.69D-02

 Cycle   4  Pass 0  IDiag  1:
 RMSU=  9.14D-05    CP:  9.88D-01  8.47D-01  8.23D-01
 E= -5017.20706617166     Delta-E=       -0.000392290134 Rises=F Damp=F
 DIIS: error= 1.02D-03 at cycle   4 NSaved=   4.
 NSaved= 4 IEnMin= 4 EnMin= -5017.20706617166     IErMin= 3 ErrMin= 9.73D-04
 ErrMax= 1.02D-03  0.00D+00 EMaxC= 1.00D-01 BMatC= 2.46D-03 BMatP= 2.40D-03
 IDIUse=3 WtCom= 9.90D-01 WtEn= 1.02D-02
 Coeff-Com:  0.246D-02 0.754D-02 0.501D+00 0.489D+00
 Coeff-En:   0.000D+00 0.000D+00 0.454D+00 0.546D+00
 Coeff:      0.243D-02 0.746D-02 0.501D+00 0.489D+00
 Gap=     0.192 Goal=   None    Shift=    0.000
 RMSDP=4.61D-05 MaxDP=5.71D-03 DE=-3.92D-04 OVMax= 5.95D-03

 Cycle   5  Pass 0  IDiag  1:
 RMSU=  1.86D-05    CP:  9.88D-01  8.45D-01  8.89D-01  5.87D-01
 E= -5017.20895903821     Delta-E=       -0.001892866545 Rises=F Damp=F
 DIIS: error= 1.17D-04 at cycle   5 NSaved=   5.
 NSaved= 5 IEnMin= 5 EnMin= -5017.20895903821     IErMin= 5 ErrMin= 1.17D-04
 ErrMax= 1.17D-04  0.00D+00 EMaxC= 1.00D-01 BMatC= 3.84D-05 BMatP= 2.40D-03
 IDIUse=3 WtCom= 9.99D-01 WtEn= 1.17D-03
 Coeff-Com:  0.834D-03-0.174D-02 0.147D+00 0.173D+00 0.681D+00
 Coeff-En:   0.000D+00 0.000D+00 0.000D+00 0.000D+00 0.100D+01
 Coeff:      0.833D-03-0.174D-02 0.147D+00 0.173D+00 0.681D+00
 Gap=     0.192 Goal=   None    Shift=    0.000
 RMSDP=8.83D-06 MaxDP=1.35D-03 DE=-1.89D-03 OVMax= 1.37D-03

 Cycle   6  Pass 0  IDiag  1:
 RMSU=  5.99D-06    CP:  9.87D-01  8.44D-01  9.00D-01  5.69D-01  7.15D-01
 E= -5017.20898898204     Delta-E=       -0.000029943832 Rises=F Damp=F
 DIIS: error= 6.81D-05 at cycle   6 NSaved=   6.
 NSaved= 6 IEnMin= 6 EnMin= -5017.20898898204     IErMin= 6 ErrMin= 6.81D-05
 ErrMax= 6.81D-05  0.00D+00 EMaxC= 1.00D-01 BMatC= 4.57D-06 BMatP= 3.84D-05
 IDIUse=1 WtCom= 1.00D+00 WtEn= 0.00D+00
 Coeff-Com:  0.192D-03-0.209D-02 0.346D-01 0.430D-01 0.289D+00 0.635D+00
 Coeff:      0.192D-03-0.209D-02 0.346D-01 0.430D-01 0.289D+00 0.635D+00
 Gap=     0.192 Goal=   None    Shift=    0.000
 RMSDP=2.46D-06 MaxDP=4.45D-04 DE=-2.99D-05 OVMax= 3.67D-04

 Initial convergence to 1.0D-05 achieved.  Increase integral accuracy.
 Cycle   7  Pass 1  IDiag  1:
 E= -5017.20959276029     Delta-E=       -0.000603778255 Rises=F Damp=F
 DIIS: error= 3.36D-05 at cycle   1 NSaved=   1.
 NSaved= 1 IEnMin= 1 EnMin= -5017.20959276029     IErMin= 1 ErrMin= 3.36D-05
 ErrMax= 3.36D-05  0.00D+00 EMaxC= 1.00D-01 BMatC= 1.32D-06 BMatP= 1.32D-06
 IDIUse=1 WtCom= 1.00D+00 WtEn= 0.00D+00
 Coeff-Com:  0.100D+01
 Coeff:      0.100D+01
 Gap=     0.193 Goal=   None    Shift=    0.000
 RMSDP=2.46D-06 MaxDP=4.45D-04 DE=-6.04D-04 OVMax= 2.22D-04

 Cycle   8  Pass 1  IDiag  1:
 RMSU=  4.07D-06    CP:  1.00D+00
 E= -5017.20959393098     Delta-E=       -0.000001170691 Rises=F Damp=F
 DIIS: error= 1.33D-05 at cycle   2 NSaved=   2.
 NSaved= 2 IEnMin= 2 EnMin= -5017.20959393098     IErMin= 2 ErrMin= 1.33D-05
 ErrMax= 1.33D-05  0.00D+00 EMaxC= 1.00D-01 BMatC= 4.14D-07 BMatP= 1.32D-06
 IDIUse=1 WtCom= 1.00D+00 WtEn= 0.00D+00
 Coeff-Com:  0.303D+00 0.697D+00
 Coeff:      0.303D+00 0.697D+00
 Gap=     0.192 Goal=   None    Shift=    0.000
 RMSDP=8.23D-07 MaxDP=9.89D-05 DE=-1.17D-06 OVMax= 9.41D-05

 Cycle   9  Pass 1  IDiag  1:
 RMSU=  8.15D-07    CP:  1.00D+00  9.73D-01
 E= -5017.20959410337     Delta-E=       -0.000000172382 Rises=F Damp=F
 DIIS: error= 8.81D-06 at cycle   3 NSaved=   3.
 NSaved= 3 IEnMin= 3 EnMin= -5017.20959410337     IErMin= 3 ErrMin= 8.81D-06
 ErrMax= 8.81D-06  0.00D+00 EMaxC= 1.00D-01 BMatC= 1.75D-07 BMatP= 4.14D-07
 IDIUse=1 WtCom= 1.00D+00 WtEn= 0.00D+00
 Coeff-Com: -0.687D-02 0.393D+00 0.613D+00
 Coeff:     -0.687D-02 0.393D+00 0.613D+00
 Gap=     0.192 Goal=   None    Shift=    0.000
 RMSDP=3.35D-07 MaxDP=4.24D-05 DE=-1.72D-07 OVMax= 4.09D-05

 Cycle  10  Pass 1  IDiag  1:
 RMSU=  8.62D-08    CP:  1.00D+00  1.00D+00  6.26D-01
 E= -5017.20959422769     Delta-E=       -0.000000124321 Rises=F Damp=F
 DIIS: error= 8.92D-07 at cycle   4 NSaved=   4.
 NSaved= 4 IEnMin= 4 EnMin= -5017.20959422769     IErMin= 4 ErrMin= 8.92D-07
 ErrMax= 8.92D-07  0.00D+00 EMaxC= 1.00D-01 BMatC= 1.22D-09 BMatP= 1.75D-07
 IDIUse=1 WtCom= 1.00D+00 WtEn= 0.00D+00
 Coeff-Com: -0.518D-02 0.180D+00 0.288D+00 0.537D+00
 Coeff:     -0.518D-02 0.180D+00 0.288D+00 0.537D+00
 Gap=     0.192 Goal=   None    Shift=    0.000
 RMSDP=3.60D-08 MaxDP=3.79D-06 DE=-1.24D-07 OVMax= 4.01D-06

 Cycle  11  Pass 1  IDiag  1:
 RMSU=  2.84D-08    CP:  1.00D+00  1.00D+00  6.31D-01  7.52D-01
 E= -5017.20959422866     Delta-E=       -0.000000000975 Rises=F Damp=F
 DIIS: error= 2.05D-07 at cycle   5 NSaved=   5.
 NSaved= 5 IEnMin= 5 EnMin= -5017.20959422866     IErMin= 5 ErrMin= 2.05D-07
 ErrMax= 2.05D-07  0.00D+00 EMaxC= 1.00D-01 BMatC= 7.54D-11 BMatP= 1.22D-09
 IDIUse=1 WtCom= 1.00D+00 WtEn= 0.00D+00
 Coeff-Com: -0.162D-02 0.426D-01 0.695D-01 0.233D+00 0.656D+00
 Coeff:     -0.162D-02 0.426D-01 0.695D-01 0.233D+00 0.656D+00
 Gap=     0.192 Goal=   None    Shift=    0.000
 RMSDP=8.80D-09 MaxDP=9.15D-07 DE=-9.75D-10 OVMax= 8.24D-07

 SCF Done:  E(RPBE1PBE) =  -5017.20959423     A.U. after   11 cycles
            NFock= 11  Conv=0.88D-08     -V/T= 2.0028
 KE= 5.003236890311D+03 PE=-2.386273038915D+04 EE= 7.894762611772D+03
 Leave Link  502 at Wed May  2 22:55:05 2018, MaxMem= 14763950080 cpu:      6991.3
 (Enter /cm/shared/gaussian/g09.e01/intel64-sandybridge/g09/l601.exe)
 Copying SCF densities to generalized density rwf, IOpCl= 0 IROHF=0.

 **********************************************************************

            Population analysis using the SCF density.

 **********************************************************************

 Alpha  occ. eigenvalues -- -483.16232 -62.56525 -56.33774 -56.33760 -56.33739
 Alpha  occ. eigenvalues --  -19.18577 -19.18552 -19.17642 -19.17325 -19.16725
 Alpha  occ. eigenvalues --  -19.16156 -19.15939 -19.15687 -19.14407 -19.13601
 Alpha  occ. eigenvalues --  -19.13441 -19.13294 -19.13103 -19.12613 -19.12482
 Alpha  occ. eigenvalues --  -19.12279 -19.11634 -19.11510 -19.11093 -19.10563
 Alpha  occ. eigenvalues --  -19.10395 -19.10020 -19.09342 -19.08745 -19.08658
 Alpha  occ. eigenvalues --  -19.08648 -19.08638 -19.08227 -19.07255 -19.05321
 Alpha  occ. eigenvalues --  -19.04949 -19.03605  -8.66838  -6.47219  -6.47165
 Alpha  occ. eigenvalues --   -6.47057  -2.55507  -2.55498  -2.55411  -2.55365
 Alpha  occ. eigenvalues --   -2.55349  -1.01161  -1.01004  -1.00900  -1.00860
 Alpha  occ. eigenvalues --   -0.99213  -0.98884  -0.98116  -0.98010  -0.96984
 Alpha  occ. eigenvalues --   -0.95876  -0.95790  -0.95475  -0.95385  -0.95301
 Alpha  occ. eigenvalues --   -0.94992  -0.94811  -0.93816  -0.93790  -0.93775
 Alpha  occ. eigenvalues --   -0.93650  -0.93034  -0.92418  -0.92189  -0.91751
 Alpha  occ. eigenvalues --   -0.91545  -0.91245  -0.90980  -0.90814  -0.90162
 Alpha  occ. eigenvalues --   -0.88093  -0.87430  -0.86085  -0.66343  -0.52543
 Alpha  occ. eigenvalues --   -0.51983  -0.50991  -0.50931  -0.49640  -0.49532
 Alpha  occ. eigenvalues --   -0.49486  -0.48688  -0.47387  -0.46870  -0.46699
 Alpha  occ. eigenvalues --   -0.46146  -0.46137  -0.45660  -0.45537  -0.45462
 Alpha  occ. eigenvalues --   -0.45216  -0.44596  -0.44392  -0.44222  -0.43785
 Alpha  occ. eigenvalues --   -0.43360  -0.43356  -0.43091  -0.42570  -0.42314
 Alpha  occ. eigenvalues --   -0.42116  -0.41530  -0.41412  -0.38788  -0.38720
 Alpha  occ. eigenvalues --   -0.38629  -0.38472  -0.37371  -0.37095  -0.37014
 Alpha  occ. eigenvalues --   -0.36406  -0.36151  -0.34762  -0.33983  -0.33173
 Alpha  occ. eigenvalues --   -0.32921  -0.32855  -0.32660  -0.32555  -0.32192
 Alpha  occ. eigenvalues --   -0.31711  -0.31477  -0.31407  -0.30782  -0.30095
 Alpha  occ. eigenvalues --   -0.29730  -0.29520  -0.29362  -0.29199  -0.29020
 Alpha  occ. eigenvalues --   -0.28764  -0.28720  -0.28223  -0.27908  -0.27892
 Alpha  occ. eigenvalues --   -0.27511  -0.27446  -0.27185  -0.27124  -0.26538
 Alpha  occ. eigenvalues --   -0.26403  -0.26102  -0.25572  -0.24873  -0.24446
 Alpha  occ. eigenvalues --   -0.24115  -0.23953  -0.23925  -0.23883  -0.23755
 Alpha  occ. eigenvalues --   -0.23605  -0.22990  -0.22949  -0.22493  -0.22312
 Alpha  occ. eigenvalues --   -0.22083  -0.21876  -0.21339  -0.21214  -0.20988
 Alpha  occ. eigenvalues --   -0.20940  -0.20682  -0.20272  -0.20097  -0.19620
 Alpha  occ. eigenvalues --   -0.19476  -0.19393  -0.19382  -0.19316  -0.18751
 Alpha  occ. eigenvalues --   -0.16501  -0.15742  -0.13951
 Alpha virt. eigenvalues --    0.05298   0.07860   0.09050   0.10730   0.11211
 Alpha virt. eigenvalues --    0.11827   0.12949   0.13351   0.13547   0.14312
 Alpha virt. eigenvalues --    0.15052   0.15841   0.16026   0.16690   0.17114
 Alpha virt. eigenvalues --    0.17653   0.17985   0.18280   0.18571   0.19064
 Alpha virt. eigenvalues --    0.19457   0.19695   0.20277   0.20410   0.20854
 Alpha virt. eigenvalues --    0.21249   0.21810   0.22672   0.22824   0.23534
 Alpha virt. eigenvalues --    0.24288   0.24883   0.25119   0.25514   0.26307
 Alpha virt. eigenvalues --    0.26575   0.26882   0.27519   0.27774   0.28423
 Alpha virt. eigenvalues --    0.28635   0.28856   0.29484   0.29637   0.30277
 Alpha virt. eigenvalues --    0.30738   0.30917   0.31183   0.31771   0.31857
 Alpha virt. eigenvalues --    0.32062   0.32865   0.33070   0.34127   0.34480
 Alpha virt. eigenvalues --    0.34866   0.35278   0.35713   0.36016   0.36391
 Alpha virt. eigenvalues --    0.37158   0.38322   0.39378   0.40288   0.57295
 Alpha virt. eigenvalues --    0.58611   0.59069   0.59493   0.59955   0.61318
 Alpha virt. eigenvalues --    0.61484   0.61952   0.62391   0.62931   0.63463
 Alpha virt. eigenvalues --    0.63811   0.63930   0.64702   0.64969   0.65318
 Alpha virt. eigenvalues --    0.65654   0.66093   0.66233   0.66465   0.66682
 Alpha virt. eigenvalues --    0.66949   0.67253   0.67399   0.67636   0.68016
 Alpha virt. eigenvalues --    0.68105   0.68614   0.69051   0.69375   0.69543
 Alpha virt. eigenvalues --    0.69813   0.70112   0.70309   0.70463   0.70674
 Alpha virt. eigenvalues --    0.70900   0.71290   0.71716   0.71927   0.72054
 Alpha virt. eigenvalues --    0.72401   0.72547   0.72945   0.73535   0.73734
 Alpha virt. eigenvalues --    0.74281   0.74715   0.74881   0.75557   0.75937
 Alpha virt. eigenvalues --    0.75982   0.76158   0.76803   0.77270   0.77648
 Alpha virt. eigenvalues --    0.78181   0.78492   0.78574   0.79295   0.80142
 Alpha virt. eigenvalues --    0.80517   0.82185   0.82367   0.83367   0.83987
 Alpha virt. eigenvalues --    0.84678   0.85522   0.85953   0.86489   0.88774
 Alpha virt. eigenvalues --    0.91234   0.91990   0.93720   0.94025   0.94508
 Alpha virt. eigenvalues --    0.95049   0.95524   0.95921   0.96784   0.97339
 Alpha virt. eigenvalues --    0.97422   0.97836   0.98213   0.98686   0.98978
 Alpha virt. eigenvalues --    0.99495   0.99870   1.00190   1.00495   1.00655
 Alpha virt. eigenvalues --    1.01391   1.01656   1.01888   1.02045   1.02212
 Alpha virt. eigenvalues --    1.02561   1.02775   1.02944   1.03477   1.03629
 Alpha virt. eigenvalues --    1.03901   1.04262   1.04379   1.04825   1.05032
 Alpha virt. eigenvalues --    1.05355   1.05456   1.05697   1.06098   1.06508
 Alpha virt. eigenvalues --    1.06843   1.06999   1.07375   1.07555   1.08097
 Alpha virt. eigenvalues --    1.08355   1.08616   1.08746   1.08902   1.09166
 Alpha virt. eigenvalues --    1.09811   1.09975   1.10414   1.10482   1.10638
 Alpha virt. eigenvalues --    1.11251   1.11425   1.11903   1.12404   1.12503
 Alpha virt. eigenvalues --    1.12560   1.13186   1.13605   1.13673   1.14358
 Alpha virt. eigenvalues --    1.14824   1.14937   1.15277   1.15507   1.16073
 Alpha virt. eigenvalues --    1.16166   1.16380   1.16760   1.16985   1.17103
 Alpha virt. eigenvalues --    1.17681   1.17854   1.18042   1.18165   1.18498
 Alpha virt. eigenvalues --    1.19538   1.19639   1.20276   1.20478   1.20778
 Alpha virt. eigenvalues --    1.21116   1.21932   1.22293   1.22922   1.23313
 Alpha virt. eigenvalues --    1.24257   1.24626   1.24947   1.25246   1.25984
 Alpha virt. eigenvalues --    1.26108   1.26383   1.26704   1.27181   1.27382
 Alpha virt. eigenvalues --    1.27723   1.28161   1.28305   1.28561   1.28781
 Alpha virt. eigenvalues --    1.29198   1.29475   1.29602   1.30143   1.30570
 Alpha virt. eigenvalues --    1.30886   1.31176   1.31503   1.31610   1.32014
 Alpha virt. eigenvalues --    1.32349   1.32475   1.32907   1.33222   1.33464
 Alpha virt. eigenvalues --    1.33805   1.34226   1.34523   1.34842   1.34954
 Alpha virt. eigenvalues --    1.35149   1.35846   1.36170   1.36582   1.36938
 Alpha virt. eigenvalues --    1.37113   1.37184   1.37405   1.37603   1.37662
 Alpha virt. eigenvalues --    1.38283   1.38655   1.38958   1.39240   1.39307
 Alpha virt. eigenvalues --    1.39655   1.39905   1.40354   1.40523   1.41206
 Alpha virt. eigenvalues --    1.41384   1.41840   1.42491   1.42872   1.43134
 Alpha virt. eigenvalues --    1.43836   1.44532   1.45096   1.45575   1.45907
 Alpha virt. eigenvalues --    1.46090   1.46965   1.47355   1.48310   1.48647
 Alpha virt. eigenvalues --    1.50337   1.50652   1.51099   1.51999   1.52198
 Alpha virt. eigenvalues --    1.52496   1.52651   1.53009   1.53233   1.53557
 Alpha virt. eigenvalues --    1.54350   1.54674   1.55222   1.55801   1.56713
 Alpha virt. eigenvalues --    1.57018   1.57564   1.57749   1.58000   1.58627
 Alpha virt. eigenvalues --    1.58726   1.59237   1.59796   1.60216   1.60378
 Alpha virt. eigenvalues --    1.60634   1.60813   1.61513   1.62456   1.62695
 Alpha virt. eigenvalues --    1.63436   1.63916   1.64657   1.67130   1.68778
 Alpha virt. eigenvalues --    1.69007   1.69452   1.69917   1.70576   1.71929
 Alpha virt. eigenvalues --    1.72247   1.72824   1.73128   1.73702   1.74756
 Alpha virt. eigenvalues --    1.74914   1.75301   1.75611   1.75889   1.76139
 Alpha virt. eigenvalues --    1.77053   1.77309   1.77635   1.78276   1.78691
 Alpha virt. eigenvalues --    1.79055   1.79406   1.79566   1.79795   1.80035
 Alpha virt. eigenvalues --    1.81044   1.81264   1.81379   1.81820   1.81945
 Alpha virt. eigenvalues --    1.82624   1.82825   1.83282   1.83629   1.84172
 Alpha virt. eigenvalues --    1.84509   1.84929   1.85209   1.85776   1.86353
 Alpha virt. eigenvalues --    1.86583   1.86970   1.87589   1.87619   1.88073
 Alpha virt. eigenvalues --    1.88739   1.89447   1.89577   1.90891   1.91599
 Alpha virt. eigenvalues --    1.92400   1.93304   1.93494   1.93973   1.94417
 Alpha virt. eigenvalues --    1.94972   1.95706   1.96388   1.96993   1.98313
 Alpha virt. eigenvalues --    1.99659   2.02391   2.07858   2.15852   2.16036
 Alpha virt. eigenvalues --    2.17815   2.18666   2.19640   2.19709   2.20148
 Alpha virt. eigenvalues --    2.20717   2.20974   2.21200   2.21517   2.21934
 Alpha virt. eigenvalues --    2.22018   2.23527   2.23583   2.23852   2.24014
 Alpha virt. eigenvalues --    2.24061   2.24337   2.24552   2.24775   2.25452
 Alpha virt. eigenvalues --    2.26092   2.26472   2.26737   2.27295   2.27350
 Alpha virt. eigenvalues --    2.27690   2.28301   2.28442   2.29041   2.29195
 Alpha virt. eigenvalues --    2.29443   2.29850   2.30902   2.31715   2.32211
 Alpha virt. eigenvalues --    2.32465   2.33419   2.34132   2.34583   2.35942
 Alpha virt. eigenvalues --    2.36070   2.36572   2.37998   2.38658   2.39416
 Alpha virt. eigenvalues --    2.39985   2.40541   2.41880   2.42361   2.43388
 Alpha virt. eigenvalues --    2.43526   2.44474   2.46656   2.46891   2.49070
 Alpha virt. eigenvalues --    2.49240   2.50035   2.52527   2.52913   2.56770
 Alpha virt. eigenvalues --    2.65269   2.67324   2.94310   2.94941   2.95318
 Alpha virt. eigenvalues --    2.96602   2.97434   2.98136   2.98894   2.99047
 Alpha virt. eigenvalues --    2.99358   2.99417   2.99747   2.99993   3.00034
 Alpha virt. eigenvalues --    3.00245   3.00489   3.00554   3.01896   3.02031
 Alpha virt. eigenvalues --    3.02191   3.02467   3.02517   3.02708   3.02815
 Alpha virt. eigenvalues --    3.02932   3.03210   3.03268   3.03762   3.03889
 Alpha virt. eigenvalues --    3.03947   3.04345   3.04690   3.04786   3.05021
 Alpha virt. eigenvalues --    3.05087   3.05188   3.05285   3.05413   3.05611
 Alpha virt. eigenvalues --    3.05877   3.06102   3.06452   3.06714   3.06792
 Alpha virt. eigenvalues --    3.07574   3.07776   3.07974   3.08103   3.08300
 Alpha virt. eigenvalues --    3.08781   3.08837   3.09041   3.09410   3.09425
 Alpha virt. eigenvalues --    3.09906   3.10024   3.10053   3.10328   3.10618
 Alpha virt. eigenvalues --    3.10873   3.11574   3.11932   3.13098   3.13620
 Alpha virt. eigenvalues --    3.14961   3.17512   3.17979   3.18832   3.19131
 Alpha virt. eigenvalues --    3.19796   3.20760   3.20920   3.21268   3.21948
 Alpha virt. eigenvalues --    3.22464   3.23121   3.23240   3.23329   3.23722
 Alpha virt. eigenvalues --    3.24398   3.24958   3.25109   3.25180   3.25398
 Alpha virt. eigenvalues --    3.25827   3.26593   3.26761   3.27219   3.27605
 Alpha virt. eigenvalues --    3.27750   3.28089   3.28748   3.29138   3.30465
 Alpha virt. eigenvalues --    3.31361   3.33252   3.34002   3.52432   3.53179
 Alpha virt. eigenvalues --    3.53680   3.54827   3.55841   3.56737   3.57371
 Alpha virt. eigenvalues --    3.58486   3.58582   3.59288   3.59609   3.59904
 Alpha virt. eigenvalues --    3.60025   3.60859   3.61462   3.61560   3.61860
 Alpha virt. eigenvalues --    3.62371   3.62543   3.63227   3.63648   3.63901
 Alpha virt. eigenvalues --    3.64228   3.64724   3.65315   3.66791   3.67136
 Alpha virt. eigenvalues --    3.68316   3.68973   3.71674   3.72857   3.74461
 Alpha virt. eigenvalues --    3.80211   3.81232   3.82408   3.83642   3.84652
 Alpha virt. eigenvalues --    3.84797   3.85097   3.86271   3.87286   3.87582
 Alpha virt. eigenvalues --    3.87856   3.87907   3.88254   3.88857   3.89014
 Alpha virt. eigenvalues --    3.89257   3.89957   3.90535   3.91039   3.91405
 Alpha virt. eigenvalues --    3.92146   3.92286   3.92877   3.93054   3.93205
 Alpha virt. eigenvalues --    3.94132   3.94552   3.96647   3.99014   3.99667
 Alpha virt. eigenvalues --    4.02314   4.04329
          Condensed to atoms (all electrons):
 Mulliken charges:
               1
     1  Br  -0.710263
     2  O   -0.281821
     3  H    0.123460
     4  H    0.150778
     5  O   -0.284241
     6  H    0.128201
     7  H    0.130310
     8  O   -0.274320
     9  H    0.146866
    10  H    0.135377
    11  O   -0.295405
    12  H    0.139220
    13  H    0.137185
    14  O   -0.264694
    15  H    0.141700
    16  H    0.110687
    17  O   -0.276189
    18  H    0.129835
    19  H    0.141944
    20  O   -0.272623
    21  H    0.128152
    22  H    0.132553
    23  O   -0.265339
    24  H    0.144398
    25  H    0.133764
    26  O   -0.298100
    27  H    0.132995
    28  H    0.111109
    29  O   -0.318880
    30  H    0.134157
    31  H    0.127544
    32  O   -0.253893
    33  H    0.147502
    34  H    0.149838
    35  O   -0.270789
    36  H    0.153356
    37  H    0.152403
    38  O   -0.274827
    39  H    0.143613
    40  H    0.144083
    41  O   -0.288509
    42  H    0.134059
    43  H    0.088735
    44  O   -0.327384
    45  H    0.110747
    46  H    0.134294
    47  O   -0.252290
    48  H    0.119906
    49  H    0.139262
    50  O   -0.226456
    51  H    0.154392
    52  H    0.136003
    53  O   -0.227418
    54  H    0.130860
    55  H    0.136888
    56  O   -0.272152
    57  H    0.139892
    58  H    0.131004
    59  O   -0.295249
    60  H    0.106800
    61  H    0.122529
    62  O   -0.261159
    63  H    0.140093
    64  H    0.134981
    65  O   -0.217633
    66  H    0.153322
    67  H    0.157580
    68  O   -0.269709
    69  H    0.129546
    70  H    0.140165
    71  O   -0.276326
    72  H    0.119501
    73  H    0.122588
    74  O   -0.286767
    75  H    0.135137
    76  H    0.130952
    77  O   -0.285587
    78  H    0.141170
    79  H    0.126128
    80  O   -0.251403
    81  H    0.132673
    82  H    0.125639
    83  O   -0.273383
    84  H    0.131379
    85  H    0.138873
    86  O   -0.258755
    87  H    0.132509
    88  H    0.113476
    89  O   -0.297648
    90  H    0.143882
    91  H    0.117331
    92  O   -0.277788
    93  H    0.105110
    94  H    0.126571
    95  O   -0.281645
    96  H    0.125964
    97  H    0.107679
 Sum of Mulliken charges =  -1.00000
 Mulliken charges with hydrogens summed into heavy atoms:
               1
     1  Br  -0.710263
     2  O   -0.007583
     5  O   -0.025730
     8  O    0.007923
    11  O   -0.019000
    14  O   -0.012306
    17  O   -0.004411
    20  O   -0.011919
    23  O    0.012823
    26  O   -0.053996
    29  O   -0.057179
    32  O    0.043447
    35  O    0.034970
    38  O    0.012869
    41  O   -0.065715
    44  O   -0.082343
    47  O    0.006878
    50  O    0.063938
    53  O    0.040330
    56  O   -0.001256
    59  O   -0.065919
    62  O    0.013914
    65  O    0.093269
    68  O    0.000002
    71  O   -0.034238
    74  O   -0.020678
    77  O   -0.018289
    80  O    0.006909
    83  O   -0.003131
    86  O   -0.012769
    89  O   -0.036435
    92  O   -0.046107
    95  O   -0.048002
         Mulliken charges condensed to fragments:
      1     -0.710263
      2     -0.289737
 Electronic spatial extent (au):  <R**2>=        1606885.8336
 Charge=             -1.0000 electrons
 Dipole moment (field-independent basis, Debye):
    X=           -108.0570    Y=            -96.0699    Z=           -108.9037  Tot=            181.0132
 Quadrupole moment (field-independent basis, Debye-Ang):
   XX=          -2678.4961   YY=          -2218.7176   ZZ=          -2702.7961
   XY=          -2124.5268   XZ=          -2484.1718   YZ=          -2132.4227
 Traceless Quadrupole moment (field-independent basis, Debye-Ang):
   XX=           -145.1596   YY=            314.6190   ZZ=           -169.4595
   XY=          -2124.5268   XZ=          -2484.1718   YZ=          -2132.4227
 Octapole moment (field-independent basis, Debye-Ang**2):
  XXX=         -70240.5602  YYY=         -56487.8939  ZZZ=         -70636.6421  XYY=         -47680.8052
  XXY=         -51952.3472  XXZ=         -61464.5759  XZZ=         -61875.9779  YZZ=         -52336.8337
  YYZ=         -47829.4604  XYZ=         -47905.8000
 Hexadecapole moment (field-independent basis, Debye-Ang**3):
 XXXX=       -1890999.9147 YYYY=       -1513499.4657 ZZZZ=       -1893505.4776 XXXY=       -1351227.3393
 XXXZ=       -1594715.5935 YYYX=       -1178422.5987 YYYZ=       -1185989.5846 ZZZX=       -1611854.8495
 ZZZY=       -1363268.9606 XXYY=       -1128207.2036 XXZZ=       -1513310.8839 YYZZ=       -1140951.5555
 XXYZ=       -1172852.6804 YYXZ=       -1044342.7841 ZZXY=       -1182409.1643
 N-N= 5.947521292842D+03 E-N=-2.386273036764D+04  KE= 5.003236890311D+03
 No NMR shielding tensors so no spin-rotation constants.
 Leave Link  601 at Wed May  2 22:55:10 2018, MaxMem= 14763950080 cpu:       297.6
 (Enter /cm/shared/gaussian/g09.e01/intel64-sandybridge/g09/l701.exe)
 Compute integral first derivatives.
 ... and contract with generalized density number  0.
 Leave Link  701 at Wed May  2 22:55:12 2018, MaxMem= 14763950080 cpu:       121.6
 (Enter /cm/shared/gaussian/g09.e01/intel64-sandybridge/g09/l702.exe)
 L702 exits ... SP integral derivatives will be done elsewhere.
 Leave Link  702 at Wed May  2 22:55:12 2018, MaxMem= 14763950080 cpu:         1.6
 (Enter /cm/shared/gaussian/g09.e01/intel64-sandybridge/g09/l703.exe)
 Compute integral first derivatives, UseDBF=F ICtDFT=           0.
 Integral derivatives from FoFJK, PRISM(SPDF).
 Calling FoFJK, ICntrl=      2127 FMM=T ISym2X=0 I1Cent= 0 IOpClX= 0 NMat=1 NMatS=1 NMatT=0.
 FoFJK:  IHMeth= 1 ICntrl=    2127 DoSepK=F KAlg= 0 I1Cent=   0 FoldK=F
 IRaf=         0 NMat=   1 IRICut=       1 DoRegI=T DoRafI=F ISym2E= 0.
 FoFCou: FMM=T IPFlag=           0 FMFlag=      100000 FMFlg1=        2001
         NFxFlg=           0 DoJE=F BraDBF=F KetDBF=F FulRan=T
         wScrn=  0.000000 ICntrl=    2127 IOpCl=  0 I1Cent=           0 NGrid=           0
         NMat0=    1 NMatS0=      1 NMatT0=    0 NMatD0=    1 NMtDS0=    0 NMtDT0=    0
 Symmetry not used in FoFCou.
 FMM levels:  10  Number of levels for PrismC:   9
 Leave Link  703 at Wed May  2 22:55:26 2018, MaxMem= 14763950080 cpu:       898.8
 (Enter /cm/shared/gaussian/g09.e01/intel64-sandybridge/g09/l716.exe)
 Dipole        =-4.25129050D+01-3.77968056D+01-4.28460339D+01
 Cartesian Forces:  Max     0.032862872 RMS     0.009708846
 Leave Link  716 at Wed May  2 22:55:26 2018, MaxMem= 14763950080 cpu:         3.5
 (Enter /cm/shared/gaussian/g09.e01/intel64-sandybridge/g09/l122.exe)
 CPIOFr:  IOpCl= 0 IRwI=-1 IRwCP=  731 ICalc= -1 LCPTot=     1005244 Len1MO=     2550559 IndFrg=     1005244
 CPIOFr:  IOpCl= 0 IRwI=-1 IRwCP=  731 ICalc=  0 LCPTot=     1005244 Len1MO=     2550559 IndFrg=     3555803
 Counterpoise: doing DCBS calculation for fragment   1 NewBq=T
 Leave Link  122 at Wed May  2 22:55:27 2018, MaxMem= 14763950080 cpu:         7.1
 (Enter /cm/shared/gaussian/g09.e01/intel64-sandybridge/g09/l301.exe)
 Basis read from rwf:  (5D, 7F)
 No pseudopotential information found on rwf file.
   795 basis functions,  1651 primitive gaussians,   829 cartesian basis functions
    18 alpha electrons       18 beta electrons
       nuclear repulsion energy         0.0000000000 Hartrees.
 IExCor= 1009 DFT=T Ex+Corr=PBE1PBE ExCW=0 ScaHFX=  0.250000
 ScaDFX=  0.750000  0.750000  1.000000  1.000000 ScalE2=  1.000000  1.000000
 IRadAn=      0 IRanWt=     -1 IRanGd=            0 ICorTp=0 IEmpDi=  4
 NAtoms=   97 NActive=   97 NUniq=   97 SFac= 1.00D+00 NAtFMM=   60 NAOKFM=T Big=T
 Integral buffers will be    131072 words long.
 Raffenetti 2 integral format.
 Two-electron integral symmetry is turned off.
 No density basis found on file   718.
 Leave Link  301 at Wed May  2 22:55:27 2018, MaxMem= 14763950080 cpu:         4.6
 (Enter /cm/shared/gaussian/g09.e01/intel64-sandybridge/g09/l302.exe)
 NPDir=0 NMtPBC=     1 NCelOv=     1 NCel=       1 NClECP=     1 NCelD=      1
         NCelK=      1 NCelE2=     1 NClLst=     1 CellRange=     0.0.
 One-electron integrals computed using PRISM.
 NBasis=   795 RedAO= T EigKep=  1.64D-02  NBF=   795
 NBsUse=   795 1.00D-06 EigRej= -1.00D+00 NBFU=   795
 Precomputing XC quadrature grid using
 IXCGrd= 4 IRadAn=           0 IRanWt=          -1 IRanGd=           0 AccXCQ= 0.00D+00.
 Generated NRdTot=       0 NPtTot=           0 NUsed=           0 NTot=          32
 NSgBfM=   707   710   723   723   736 MxSgAt=    97 MxSgA2=    97.
 Leave Link  302 at Wed May  2 22:55:30 2018, MaxMem= 14763950080 cpu:       242.7
 (Enter /cm/shared/gaussian/g09.e01/intel64-sandybridge/g09/l303.exe)
 DipDrv:  MaxL=1.
 Leave Link  303 at Wed May  2 22:55:31 2018, MaxMem= 14763950080 cpu:        28.0
 (Enter /cm/shared/gaussian/g09.e01/intel64-sandybridge/g09/l401.exe)
 ExpMin= 1.22D-01 ExpMax= 6.40D+05 ExpMxC= 6.18D+03 IAcc=2 IRadAn=         4 AccDes= 0.00D+00
 Harris functional with IExCor= 1009 and IRadAn=       4 diagonalized for initial guess.
 HarFok:  IExCor= 1009 AccDes= 0.00D+00 IRadAn=         4 IDoV= 1 UseB2=F ITyADJ=14
 ICtDFT=  3500011 ScaDFX=  1.000000  1.000000  1.000000  1.000000
 FoFCou: FMM=F IPFlag=           0 FMFlag=      100000 FMFlg1=        2001
         NFxFlg=           0 DoJE=T BraDBF=F KetDBF=T FulRan=T
         wScrn=  0.000000 ICntrl=     500 IOpCl=  0 I1Cent=   200000004 NGrid=           0
         NMat0=    1 NMatS0=      1 NMatT0=    0 NMatD0=    1 NMtDS0=    0 NMtDT0=    0
 Symmetry not used in FoFCou.
 Harris En= -2574.01976037722    
 JPrj=0 DoOrth=F DoCkMO=F.
 Leave Link  401 at Wed May  2 22:55:36 2018, MaxMem= 14763950080 cpu:       304.2
 (Enter /cm/shared/gaussian/g09.e01/intel64-sandybridge/g09/l502.exe)
 Closed shell SCF:
 Using DIIS extrapolation, IDIIS=  1040.
 Two-electron integral symmetry not used.
 IVT=     2138497 IEndB=     2138497 NGot= 14763950080 MDV= 14762516294
 LenX= 14762516294 LenY= 14761828224
 Requested convergence on RMS density matrix=1.00D-08 within 128 cycles.
 Requested convergence on MAX density matrix=1.00D-06.
 Requested convergence on             energy=1.00D-06.
 No special actions if energy rises.
 Fock matrices will be formed incrementally for  20 cycles.
 Integral accuracy reduced to 1.0D-05 until final iterations.

 Cycle   1  Pass 0  IDiag  1:
 FoFJK:  IHMeth= 1 ICntrl=       0 DoSepK=F KAlg= 0 I1Cent=   0 FoldK=F
 IRaf= 790000000 NMat=   1 IRICut=       1 DoRegI=T DoRafI=F ISym2E= 0.
 FoFCou: FMM=T IPFlag=           0 FMFlag=      100000 FMFlg1=        2001
         NFxFlg=           0 DoJE=F BraDBF=F KetDBF=F FulRan=T
         wScrn=  0.000000 ICntrl=       0 IOpCl=  0 I1Cent=           0 NGrid=           0
         NMat0=    1 NMatS0=      1 NMatT0=    0 NMatD0=    1 NMtDS0=    0 NMtDT0=    0
 Symmetry not used in FoFCou.
 FMM levels:  10  Number of levels for PrismC:   9
 E= -2573.87842698944    
 DIIS: error= 7.82D-03 at cycle   1 NSaved=   1.
 NSaved= 1 IEnMin= 1 EnMin= -2573.87842698944     IErMin= 1 ErrMin= 7.82D-03
 ErrMax= 7.82D-03  0.00D+00 EMaxC= 1.00D-01 BMatC= 3.84D-02 BMatP= 3.84D-02
 IDIUse=3 WtCom= 9.22D-01 WtEn= 7.82D-02
 Coeff-Com:  0.100D+01
 Coeff-En:   0.100D+01
 Coeff:      0.100D+01
 Gap=     0.188 Goal=   None    Shift=    0.000
 GapD=    0.188 DampG=1.000 DampE=1.000 DampFc=1.0000 IDamp=-1.
 RMSDP=4.81D-04 MaxDP=6.45D-02              OVMax= 1.50D-01

 Cycle   2  Pass 0  IDiag  1:
 RMSU=  4.77D-04    CP:  9.89D-01
 E= -2573.90034538477     Delta-E=       -0.021918395334 Rises=F Damp=F
 DIIS: error= 3.08D-03 at cycle   2 NSaved=   2.
 NSaved= 2 IEnMin= 2 EnMin= -2573.90034538477     IErMin= 2 ErrMin= 3.08D-03
 ErrMax= 3.08D-03  0.00D+00 EMaxC= 1.00D-01 BMatC= 7.21D-03 BMatP= 3.84D-02
 IDIUse=3 WtCom= 9.69D-01 WtEn= 3.08D-02
 Coeff-Com:  0.221D+00 0.779D+00
 Coeff-En:   0.174D-01 0.983D+00
 Coeff:      0.215D+00 0.785D+00
 Gap=     0.197 Goal=   None    Shift=    0.000
 RMSDP=2.16D-04 MaxDP=5.17D-02 DE=-2.19D-02 OVMax= 6.82D-02

 Cycle   3  Pass 0  IDiag  1:
 RMSU=  1.47D-04    CP:  9.94D-01  6.73D-01
 E= -2573.90814692208     Delta-E=       -0.007801537310 Rises=F Damp=F
 DIIS: error= 2.39D-03 at cycle   3 NSaved=   3.
 NSaved= 3 IEnMin= 3 EnMin= -2573.90814692208     IErMin= 3 ErrMin= 2.39D-03
 ErrMax= 2.39D-03  0.00D+00 EMaxC= 1.00D-01 BMatC= 2.65D-03 BMatP= 7.21D-03
 IDIUse=3 WtCom= 9.76D-01 WtEn= 2.39D-02
 Coeff-Com:  0.601D-01 0.365D+00 0.575D+00
 Coeff-En:   0.000D+00 0.174D+00 0.826D+00
 Coeff:      0.587D-01 0.360D+00 0.581D+00
 Gap=     0.176 Goal=   None    Shift=    0.000
 RMSDP=7.45D-05 MaxDP=1.81D-02 DE=-7.80D-03 OVMax= 2.25D-02

 Cycle   4  Pass 0  IDiag  1:
 RMSU=  8.53D-06    CP:  9.93D-01  7.72D-01  6.18D-01
 E= -2573.91110098503     Delta-E=       -0.002954062946 Rises=F Damp=F
 DIIS: error= 6.35D-05 at cycle   4 NSaved=   4.
 NSaved= 4 IEnMin= 4 EnMin= -2573.91110098503     IErMin= 4 ErrMin= 6.35D-05
 ErrMax= 6.35D-05  0.00D+00 EMaxC= 1.00D-01 BMatC= 1.22D-06 BMatP= 2.65D-03
 IDIUse=1 WtCom= 1.00D+00 WtEn= 0.00D+00
 Coeff-Com: -0.888D-03 0.109D-01 0.319D-01 0.958D+00
 Coeff:     -0.888D-03 0.109D-01 0.319D-01 0.958D+00
 Gap=     0.176 Goal=   None    Shift=    0.000
 RMSDP=2.36D-06 MaxDP=5.57D-04 DE=-2.95D-03 OVMax= 6.03D-04

 Initial convergence to 1.0D-05 achieved.  Increase integral accuracy.
 Cycle   5  Pass 1  IDiag  1:
 E= -2573.91179296942     Delta-E=       -0.000691984391 Rises=F Damp=F
 DIIS: error= 1.07D-05 at cycle   1 NSaved=   1.
 NSaved= 1 IEnMin= 1 EnMin= -2573.91179296942     IErMin= 1 ErrMin= 1.07D-05
 ErrMax= 1.07D-05  0.00D+00 EMaxC= 1.00D-01 BMatC= 9.18D-08 BMatP= 9.18D-08
 IDIUse=1 WtCom= 1.00D+00 WtEn= 0.00D+00
 Coeff-Com:  0.100D+01
 Coeff:      0.100D+01
 Gap=     0.176 Goal=   None    Shift=    0.000
 RMSDP=2.36D-06 MaxDP=5.57D-04 DE=-6.92D-04 OVMax= 2.94D-04

 Cycle   6  Pass 1  IDiag  1:
 RMSU=  1.09D-06    CP:  1.00D+00
 E= -2573.91179307036     Delta-E=       -0.000000100938 Rises=F Damp=F
 DIIS: error= 9.14D-06 at cycle   2 NSaved=   2.
 NSaved= 2 IEnMin= 2 EnMin= -2573.91179307036     IErMin= 2 ErrMin= 9.14D-06
 ErrMax= 9.14D-06  0.00D+00 EMaxC= 1.00D-01 BMatC= 4.11D-08 BMatP= 9.18D-08
 IDIUse=1 WtCom= 1.00D+00 WtEn= 0.00D+00
 Coeff-Com:  0.385D+00 0.615D+00
 Coeff:      0.385D+00 0.615D+00
 Gap=     0.176 Goal=   None    Shift=    0.000
 RMSDP=3.59D-07 MaxDP=8.48D-05 DE=-1.01D-07 OVMax= 1.18D-04

 Cycle   7  Pass 1  IDiag  1:
 RMSU=  3.23D-07    CP:  1.00D+00  8.59D-01
 E= -2573.91179311901     Delta-E=       -0.000000048651 Rises=F Damp=F
 DIIS: error= 1.71D-06 at cycle   3 NSaved=   3.
 NSaved= 3 IEnMin= 3 EnMin= -2573.91179311901     IErMin= 3 ErrMin= 1.71D-06
 ErrMax= 1.71D-06  0.00D+00 EMaxC= 1.00D-01 BMatC= 1.66D-09 BMatP= 4.11D-08
 IDIUse=1 WtCom= 1.00D+00 WtEn= 0.00D+00
 Coeff-Com: -0.149D-01 0.150D+00 0.865D+00
 Coeff:     -0.149D-01 0.150D+00 0.865D+00
 Gap=     0.176 Goal=   None    Shift=    0.000
 RMSDP=6.89D-08 MaxDP=1.75D-05 DE=-4.87D-08 OVMax= 2.44D-05

 Cycle   8  Pass 1  IDiag  1:
 RMSU=  3.17D-08    CP:  1.00D+00  9.10D-01  9.24D-01
 E= -2573.91179312087     Delta-E=       -0.000000001859 Rises=F Damp=F
 DIIS: error= 6.07D-07 at cycle   4 NSaved=   4.
 NSaved= 4 IEnMin= 4 EnMin= -2573.91179312087     IErMin= 4 ErrMin= 6.07D-07
 ErrMax= 6.07D-07  0.00D+00 EMaxC= 1.00D-01 BMatC= 4.44D-11 BMatP= 1.66D-09
 IDIUse=1 WtCom= 1.00D+00 WtEn= 0.00D+00
 Coeff-Com: -0.119D-01 0.456D-01 0.287D+00 0.680D+00
 Coeff:     -0.119D-01 0.456D-01 0.287D+00 0.680D+00
 Gap=     0.176 Goal=   None    Shift=    0.000
 RMSDP=1.14D-08 MaxDP=1.45D-06 DE=-1.86D-09 OVMax= 3.55D-06

 Cycle   9  Pass 1  IDiag  1:
 RMSU=  9.80D-09    CP:  1.00D+00  9.12D-01  9.27D-01  8.38D-01
 E= -2573.91179312093     Delta-E=       -0.000000000067 Rises=F Damp=F
 DIIS: error= 6.31D-08 at cycle   5 NSaved=   5.
 NSaved= 5 IEnMin= 5 EnMin= -2573.91179312093     IErMin= 5 ErrMin= 6.31D-08
 ErrMax= 6.31D-08  0.00D+00 EMaxC= 1.00D-01 BMatC= 1.39D-12 BMatP= 4.44D-11
 IDIUse=1 WtCom= 1.00D+00 WtEn= 0.00D+00
 Coeff-Com: -0.339D-03-0.345D-02-0.318D-01 0.909D-01 0.945D+00
 Coeff:     -0.339D-03-0.345D-02-0.318D-01 0.909D-01 0.945D+00
 Gap=     0.176 Goal=   None    Shift=    0.000
 RMSDP=2.83D-09 MaxDP=5.07D-07 DE=-6.68D-11 OVMax= 1.45D-06

 SCF Done:  E(RPBE1PBE) =  -2573.91179312     A.U. after    9 cycles
            NFock=  9  Conv=0.28D-08     -V/T= 2.0013
 KE= 2.570523780656D+03 PE=-6.162983027589D+03 EE= 1.018547453811D+03
 Leave Link  502 at Wed May  2 22:56:55 2018, MaxMem= 14763950080 cpu:      5011.3
 (Enter /cm/shared/gaussian/g09.e01/intel64-sandybridge/g09/l601.exe)
 Copying SCF densities to generalized density rwf, IOpCl= 0 IROHF=0.

 **********************************************************************

            Population analysis using the SCF density.

 **********************************************************************

 Alpha  occ. eigenvalues -- -482.98771 -62.38928 -56.16183 -56.16181 -56.16172
 Alpha  occ. eigenvalues --   -8.49076  -6.29394  -6.29388  -6.29359  -2.37666
 Alpha  occ. eigenvalues --   -2.37665  -2.37641  -2.37636  -2.37629  -0.47164
 Alpha  occ. eigenvalues --   -0.03040  -0.03032  -0.03004
 Alpha virt. eigenvalues --    0.14601   0.16037   0.16355   0.17290   0.18293
 Alpha virt. eigenvalues --    0.18401   0.18635   0.19637   0.20870   0.21125
 Alpha virt. eigenvalues --    0.21547   0.21797   0.22144   0.22909   0.23359
 Alpha virt. eigenvalues --    0.23918   0.24389   0.25048   0.25325   0.26134
 Alpha virt. eigenvalues --    0.26550   0.27197   0.27816   0.28258   0.28473
 Alpha virt. eigenvalues --    0.28906   0.29132   0.30399   0.30499   0.30728
 Alpha virt. eigenvalues --    0.31689   0.32446   0.32952   0.33556   0.33803
 Alpha virt. eigenvalues --    0.34306   0.34631   0.34917   0.35597   0.36487
 Alpha virt. eigenvalues --    0.36716   0.37278   0.37997   0.38354   0.38534
 Alpha virt. eigenvalues --    0.38900   0.39727   0.40005   0.40444   0.41217
 Alpha virt. eigenvalues --    0.41923   0.42275   0.42789   0.43241   0.43700
 Alpha virt. eigenvalues --    0.44674   0.45428   0.45618   0.45802   0.46720
 Alpha virt. eigenvalues --    0.47166   0.49061   0.49905   0.52624   0.62055
 Alpha virt. eigenvalues --    0.62417   0.62590   0.62892   0.63189   0.63576
 Alpha virt. eigenvalues --    0.63839   0.64335   0.64727   0.65480   0.66127
 Alpha virt. eigenvalues --    0.66755   0.66994   0.67821   0.68185   0.68446
 Alpha virt. eigenvalues --    0.68920   0.69093   0.69643   0.70121   0.71235
 Alpha virt. eigenvalues --    0.71418   0.71762   0.72417   0.72858   0.73184
 Alpha virt. eigenvalues --    0.73524   0.73795   0.74104   0.74284   0.74370
 Alpha virt. eigenvalues --    0.74555   0.75044   0.75458   0.75615   0.75905
 Alpha virt. eigenvalues --    0.76010   0.76471   0.76906   0.77174   0.77348
 Alpha virt. eigenvalues --    0.77736   0.78500   0.78663   0.78900   0.79268
 Alpha virt. eigenvalues --    0.79944   0.80067   0.80471   0.80606   0.80889
 Alpha virt. eigenvalues --    0.81071   0.81521   0.81725   0.82343   0.82685
 Alpha virt. eigenvalues --    0.82699   0.83096   0.83188   0.83832   0.84190
 Alpha virt. eigenvalues --    0.84583   0.84782   0.85541   0.85727   0.85845
 Alpha virt. eigenvalues --    0.86457   0.86614   0.87111   0.87889   0.88433
 Alpha virt. eigenvalues --    0.88608   0.89370   0.89612   0.89823   0.90404
 Alpha virt. eigenvalues --    0.90556   0.91060   0.91430   0.91733   0.92083
 Alpha virt. eigenvalues --    0.92346   0.92892   0.93322   0.93757   0.94030
 Alpha virt. eigenvalues --    0.94771   0.94988   0.95464   0.95627   0.96202
 Alpha virt. eigenvalues --    0.96413   0.96932   0.97616   0.97825   0.98065
 Alpha virt. eigenvalues --    0.98511   0.98788   0.99437   0.99884   1.00634
 Alpha virt. eigenvalues --    1.00909   1.01525   1.02334   1.02632   1.02809
 Alpha virt. eigenvalues --    1.03752   1.04151   1.04666   1.05127   1.05572
 Alpha virt. eigenvalues --    1.05960   1.06199   1.06649   1.06743   1.06963
 Alpha virt. eigenvalues --    1.08373   1.08730   1.09148   1.09311   1.09840
 Alpha virt. eigenvalues --    1.11329   1.11642   1.12022   1.12666   1.12949
 Alpha virt. eigenvalues --    1.14322   1.15181   1.16169   1.17698   1.18443
 Alpha virt. eigenvalues --    1.19357   1.20354   1.21915   1.25051   1.26970
 Alpha virt. eigenvalues --    1.28978   1.64466   1.65123   1.67209   1.67963
 Alpha virt. eigenvalues --    1.68126   1.68538   1.68925   1.69632   1.69761
 Alpha virt. eigenvalues --    1.69940   1.70215   1.70595   1.70677   1.71085
 Alpha virt. eigenvalues --    1.71437   1.71951   1.72534   1.72574   1.73185
 Alpha virt. eigenvalues --    1.73690   1.73785   1.74361   1.74635   1.74803
 Alpha virt. eigenvalues --    1.75326   1.75543   1.75953   1.76174   1.76475
 Alpha virt. eigenvalues --    1.76537   1.76907   1.77078   1.77313   1.77743
 Alpha virt. eigenvalues --    1.78353   1.78615   1.78931   1.79584   1.79725
 Alpha virt. eigenvalues --    1.80139   1.80306   1.80739   1.80895   1.80906
 Alpha virt. eigenvalues --    1.81540   1.82063   1.82742   1.82958   1.83123
 Alpha virt. eigenvalues --    1.83953   1.84165   1.84461   1.84982   1.85551
 Alpha virt. eigenvalues --    1.86593   1.87109   1.87916   1.88282   1.89721
 Alpha virt. eigenvalues --    1.89963   1.90942   1.91590   1.92649   1.93596
 Alpha virt. eigenvalues --    1.96627   1.97274   1.98582   1.99028   1.99352
 Alpha virt. eigenvalues --    1.99649   1.99770   2.00436   2.00697   2.01000
 Alpha virt. eigenvalues --    2.01185   2.01235   2.01426   2.01621   2.01841
 Alpha virt. eigenvalues --    2.02173   2.02389   2.02546   2.02629   2.02971
 Alpha virt. eigenvalues --    2.03112   2.03275   2.03518   2.03786   2.04026
 Alpha virt. eigenvalues --    2.04267   2.04526   2.05055   2.05367   2.05707
 Alpha virt. eigenvalues --    2.05753   2.06003   2.06571   2.06692   2.07028
 Alpha virt. eigenvalues --    2.07224   2.07590   2.07728   2.08021   2.08371
 Alpha virt. eigenvalues --    2.08752   2.09044   2.09351   2.09730   2.10554
 Alpha virt. eigenvalues --    2.11240   2.11809   2.12263   2.12620   2.12658
 Alpha virt. eigenvalues --    2.12859   2.13636   2.14228   2.14459   2.15516
 Alpha virt. eigenvalues --    2.15715   2.15897   2.16237   2.16608   2.16892
 Alpha virt. eigenvalues --    2.17272   2.17720   2.18028   2.18584   2.19016
 Alpha virt. eigenvalues --    2.19279   2.19288   2.19716   2.19984   2.20596
 Alpha virt. eigenvalues --    2.20764   2.21605   2.22040   2.22354   2.22758
 Alpha virt. eigenvalues --    2.23433   2.23949   2.24708   2.25727   2.26209
 Alpha virt. eigenvalues --    2.27230   2.27376   2.28308   2.28593   2.28894
 Alpha virt. eigenvalues --    2.29582   2.30407   2.31792   2.32202   2.33269
 Alpha virt. eigenvalues --    2.34332   2.34956   2.36736   2.36788   2.37526
 Alpha virt. eigenvalues --    2.38941   2.39878   2.40690   2.41451   2.42022
 Alpha virt. eigenvalues --    2.42475   2.42897   2.43314   2.43404   2.43442
 Alpha virt. eigenvalues --    2.43488   2.44231   2.45188   2.45711   2.46362
 Alpha virt. eigenvalues --    2.46679   2.46974   2.47081   2.47501   2.48484
 Alpha virt. eigenvalues --    2.48775   2.49103   2.49827   2.50861   2.51548
 Alpha virt. eigenvalues --    2.51976   2.52283   2.53295   2.53747   2.54065
 Alpha virt. eigenvalues --    2.56009   2.56999   2.57744   2.66785   2.66958
 Alpha virt. eigenvalues --    2.68694   2.69180   2.69241   2.69480   2.70067
 Alpha virt. eigenvalues --    2.70289   2.70332   2.70854   2.71203   2.71783
 Alpha virt. eigenvalues --    2.71975   2.73232   2.73777   2.74054   2.74465
 Alpha virt. eigenvalues --    2.74780   2.75348   2.75470   2.77652   2.78304
 Alpha virt. eigenvalues --    2.78630   2.79731   2.79862   2.80500   2.81799
 Alpha virt. eigenvalues --    2.82018   2.82469   2.83264   2.84131   2.84436
 Alpha virt. eigenvalues --    2.84680   2.85082   2.85261   2.85807   2.86134
 Alpha virt. eigenvalues --    2.86701   2.87035   2.87712   2.88532   2.88868
 Alpha virt. eigenvalues --    2.89134   2.89674   2.90634   2.92145   2.93042
 Alpha virt. eigenvalues --    2.93618   2.93954   2.94804   2.95651   2.96038
 Alpha virt. eigenvalues --    2.97407   2.97743   2.99168   2.99913   3.00738
 Alpha virt. eigenvalues --    3.01263   3.01725   3.03122   3.03203   3.04899
 Alpha virt. eigenvalues --    3.06005   3.07566   3.13937   3.14734   3.15443
 Alpha virt. eigenvalues --    3.16273   3.17357   3.17584   3.19812   3.21499
 Alpha virt. eigenvalues --    3.21761   3.22242   3.24038   3.24639   3.24781
 Alpha virt. eigenvalues --    3.25232   3.26482   3.27855   3.29007   3.29798
 Alpha virt. eigenvalues --    3.30975   3.32573   3.34757   3.35596   3.37912
 Alpha virt. eigenvalues --    3.42335   3.43137   3.45368   3.46244   3.49205
 Alpha virt. eigenvalues --    3.52662   3.54389   3.59508   3.63943   4.51761
 Alpha virt. eigenvalues --    4.51896   4.51973   4.52061   4.52099   4.52199
 Alpha virt. eigenvalues --    4.52229   4.52456   4.52519   4.52553   4.52614
 Alpha virt. eigenvalues --    4.52624   4.52850   4.53020   4.53150   4.53668
 Alpha virt. eigenvalues --    4.53705   4.54094   4.54274   4.54851   4.54860
 Alpha virt. eigenvalues --    4.55239   4.55499   4.55754   4.55922   4.55945
 Alpha virt. eigenvalues --    4.56179   4.56339   4.56783   4.56862   4.56982
 Alpha virt. eigenvalues --    4.57402   4.59705   4.59773   4.59800   4.60001
 Alpha virt. eigenvalues --    4.60227   4.60473   4.60581   4.60685   4.60799
 Alpha virt. eigenvalues --    4.60828   4.60868   4.60960   4.60990   4.61312
 Alpha virt. eigenvalues --    4.61440   4.61451   4.61545   4.61642   4.61924
 Alpha virt. eigenvalues --    4.62200   4.62329   4.62712   4.63226   4.63432
 Alpha virt. eigenvalues --    4.63793   4.64484   4.64508   4.65249   4.65315
 Alpha virt. eigenvalues --    4.65466   4.65982   4.66226   4.74440   4.74782
 Alpha virt. eigenvalues --    4.75055   4.75088   4.75628   4.75768   4.75798
 Alpha virt. eigenvalues --    4.75950   4.76761   4.77066   4.77216   4.77637
 Alpha virt. eigenvalues --    4.77812   4.78508   4.79500   4.79543   4.79687
 Alpha virt. eigenvalues --    4.80161   4.80820   4.81376   4.81730   4.81850
 Alpha virt. eigenvalues --    4.81933   4.82227   4.82687   4.82849   4.83354
 Alpha virt. eigenvalues --    4.83578   4.84209   4.84586   4.85152   4.85777
 Alpha virt. eigenvalues --    4.86268   4.87143   4.87360   4.87546   4.87736
 Alpha virt. eigenvalues --    4.87822   4.88121   4.88156   4.88517   4.88696
 Alpha virt. eigenvalues --    4.89093   4.89301   4.89941   4.90377   4.90594
 Alpha virt. eigenvalues --    4.91112   4.91712   4.92261   4.92399   4.93043
 Alpha virt. eigenvalues --    4.93071   4.94557   4.94717   4.95363   4.96121
 Alpha virt. eigenvalues --    4.96352   4.97957   4.99360   5.00213   5.02640
 Alpha virt. eigenvalues --    5.03108   5.04291   5.04786   5.04830   5.06229
 Alpha virt. eigenvalues --    5.06584   5.06798   5.07269   5.07332   5.08023
 Alpha virt. eigenvalues --    5.08716   5.09046   5.09589   5.09768   5.10168
 Alpha virt. eigenvalues --    5.10510   5.10603   5.11485   5.12403   5.12947
 Alpha virt. eigenvalues --    5.13836   5.14670   5.15112   5.16333   5.16569
 Alpha virt. eigenvalues --    5.19035   5.19779   5.21129   5.21813   5.22785
 Alpha virt. eigenvalues --    5.23783   5.25118   5.28328   5.32389   5.33352
 Alpha virt. eigenvalues --    5.36299   5.37288   5.37529   5.37827   5.38318
 Alpha virt. eigenvalues --    5.40404   5.42204   5.43456   5.43674   5.44303
 Alpha virt. eigenvalues --    5.44453   5.45598   5.46424   5.47375   5.48560
[...]
   Z20       33.20249  -0.01823   0.00000  -0.01931  -0.02068  33.18181
   X21       37.71893  -0.00125   0.00000  -0.01268  -0.01341  37.70553
   Y21       41.27162  -0.01239   0.00000  -0.00920  -0.00940  41.26222
   Z21       34.22294   0.01688   0.00000   0.04534   0.04438  34.26732
   X22       35.79141  -0.00673   0.00000   0.02146   0.02043  35.81184
   Y22       43.35032   0.00779   0.00000   0.02863   0.02796  43.37828
   Z22       33.84500   0.00444   0.00000  -0.00578  -0.00771  33.83729
   X23       32.33321  -0.02347   0.00000  -0.02440  -0.02648  32.30674
   Y23       39.58976   0.01000   0.00000   0.00535   0.00567  39.59543
   Z23       41.02595   0.00577   0.00000   0.02059   0.01868  41.04464
   X24       33.24028   0.01127   0.00000   0.00701   0.00543  33.24572
   Y24       38.60710  -0.00539   0.00000   0.02044   0.02065  38.62776
   Z24       39.81653  -0.01157   0.00000  -0.01108  -0.01253  39.80400
   X25       33.48595   0.01209   0.00000   0.02150   0.01906  33.50500
   Y25       39.77874  -0.00176   0.00000  -0.00893  -0.00805  39.77068
   Z25       42.40545   0.00843   0.00000   0.00906   0.00741  42.41286
   X26       45.93924   0.01497   0.00000   0.00474   0.00300  45.94224
   Y26       38.47482   0.01868   0.00000   0.01258   0.01546  38.49028
   Z26       40.55352   0.01319   0.00000   0.01036   0.01207  40.56560
   X27       44.61643  -0.01634   0.00000  -0.01411  -0.01573  44.60070
   Y27       37.34099  -0.01674   0.00000  -0.02611  -0.02339  37.31760
   Z27       41.02595   0.00033   0.00000  -0.01140  -0.00974  41.01622
   X28       46.10932  -0.00369   0.00000  -0.01553  -0.01678  46.09254
   Y28       38.26695  -0.00315   0.00000   0.00027   0.00275  38.26971
   Z28       38.77718  -0.01488   0.00000  -0.01296  -0.01115  38.76603
   X29       34.46860  -0.00526   0.00000  -0.01455  -0.01352  34.45508
   Y29       28.98840  -0.02742   0.00000  -0.03914  -0.03936  28.94904
   Z29       36.96304  -0.02752   0.00000  -0.04582  -0.04472  36.91833
   X30       34.22294   0.00221   0.00000   0.01166   0.01225  34.23519
   Y30       30.74584   0.01400   0.00000  -0.01572  -0.01591  30.72994
   Z30       37.24650   0.01486   0.00000   0.03039   0.03102  37.27752
   X31       35.14891   0.00336   0.00000   0.00030   0.00105  35.14995
   Y31       28.36479   0.00587   0.00000   0.01513   0.01542  28.38021
   Z31       38.51262   0.00865   0.00000  -0.01174  -0.01034  38.50228
   X32       43.69047   0.00241   0.00000  -0.01562  -0.01514  43.67533
   Y32       31.97417   0.00123   0.00000   0.02725   0.02879  32.00295
   Z32       36.69848   0.01828   0.00000   0.00768   0.01034  36.70883
   X33       42.34876  -0.00836   0.00000   0.00984   0.01069  42.35946
   Y33       31.67181  -0.00756   0.00000  -0.03265  -0.03166  31.64015
   Z33       35.52685  -0.01816   0.00000  -0.04595  -0.04352  35.48333
   X34       44.84320   0.00721   0.00000   0.00951   0.01001  44.85321
   Y34       33.05131   0.00638   0.00000   0.00330   0.00485  33.05616
   Z34       35.81031  -0.00955   0.00000  -0.02373  -0.02102  35.78929
   X35       40.21337   0.01192   0.00000  -0.00320  -0.00245  40.21092
   Y35       40.06219  -0.00934   0.00000  -0.00770  -0.00858  40.05362
   Z35       29.25296   0.00061   0.00000   0.00366   0.00360  29.25656
   X36       39.51417  -0.00923   0.00000  -0.02429  -0.02408  39.49009
   Y36       40.95037   0.00822   0.00000   0.02060   0.01991  40.97028
   Z36       30.68915   0.00435   0.00000  -0.00465  -0.00511  30.68404
   X37       39.02284  -0.00957   0.00000  -0.01432  -0.01331  39.00953
   Y37       40.36455   0.00635   0.00000   0.02141   0.01998  40.38453
   Z37       27.93015  -0.00521   0.00000  -0.00109  -0.00152  27.92863
   X38       36.88745  -0.01300   0.00000  -0.00898  -0.01302  36.87443
   Y38       44.31408   0.00491   0.00000  -0.00166   0.00053  44.31461
   Z38       45.25894   0.00842   0.00000   0.00140  -0.00048  45.25846
   X39       37.92680   0.00240   0.00000   0.00618   0.00173  37.92853
   Y39       45.69358  -0.00284   0.00000  -0.01341  -0.01087  45.68270
   Z39       45.84476  -0.00107   0.00000   0.00254   0.00061  45.84536
   X40       37.94570   0.01202   0.00000   0.02157   0.01800  37.96370
   Y40       43.44480  -0.00022   0.00000   0.02061   0.02274  43.46754
   Z40       44.06841  -0.01095   0.00000  -0.01986  -0.02128  44.04714
   X41       41.72515   0.00869   0.00000   0.02164   0.01890  41.74406
   Y41       35.86700   0.00405   0.00000   0.00176   0.00524  35.87224
   Z41       46.65734   0.01178   0.00000   0.01510   0.01639  46.67373
   X42       41.32831   0.00036   0.00000   0.02141   0.01923  41.34754
   Y42       34.69537  -0.00389   0.00000  -0.00440  -0.00132  34.69406
   Z42       45.33453  -0.00571   0.00000   0.00219   0.00366  45.33819
   X43       40.61021  -0.00514   0.00000  -0.01479  -0.01772  40.59250
   Y43       37.26540  -0.00408   0.00000  -0.02743  -0.02425  37.24115
   Z43       46.37388  -0.00388   0.00000  -0.01002  -0.00934  46.36454
   X44       32.40880  -0.00187   0.00000   0.00208   0.00274  32.41155
   Y44       40.74250   0.00679   0.00000   0.00106  -0.00139  40.74110
   Z44       29.08289  -0.02650   0.00000  -0.03378  -0.03593  29.04696
   X45       32.84344   0.00341   0.00000   0.00637   0.00687  32.85031
   Y45       39.68425  -0.00001   0.00000   0.03662   0.03460  39.71884
   Z45       30.48128   0.02046   0.00000   0.02883   0.02702  30.50831
   X46       31.65291   0.00197   0.00000   0.00831   0.00849  31.66140
   Y46       42.21648  -0.00359   0.00000  -0.01043  -0.01285  42.20363
   Z46       29.83878   0.00375   0.00000  -0.00261  -0.00529  29.83349
   X47       41.00706   0.00826   0.00000  -0.00792  -0.00622  41.00084
   Y47       35.09221  -0.02990   0.00000  -0.02855  -0.02926  35.06296
   Z47       29.34745   0.00288   0.00000  -0.01339  -0.01209  29.33535
   X48       39.72204  -0.00803   0.00000  -0.02059  -0.01849  39.70355
   Y48       34.35522  -0.00368   0.00000   0.00086  -0.00034  34.35488
   Z48       28.32699  -0.01074   0.00000  -0.04000  -0.03886  28.28813
   X49       40.68580  -0.00239   0.00000   0.00987   0.01122  40.69703
   Y49       36.86856   0.03292   0.00000   0.02862   0.02785  36.89641
   Z49       29.25296   0.00591   0.00000   0.03767   0.03847  29.29143
   X50       33.01352  -0.01057   0.00000  -0.01148  -0.00991  33.00360
   Y50       34.18515   0.00175   0.00000  -0.00420  -0.00618  34.17897
   Z50       30.61356  -0.00092   0.00000  -0.00409  -0.00457  30.60900
   X51       32.42770  -0.00138   0.00000  -0.00641  -0.00449  32.42321
   Y51       34.48750   0.00223   0.00000   0.01369   0.01121  34.49871
   Z51       28.91281   0.00042   0.00000  -0.00166  -0.00235  28.91046
   X52       34.69537   0.01189   0.00000   0.01105   0.01278  34.70816
   Y52       33.58043  -0.00373   0.00000   0.00031  -0.00138  33.57905
   Z52       30.38680   0.00089   0.00000   0.00766   0.00774  30.39454
   X53       33.39146   0.02239   0.00000  -0.00878  -0.01055  33.38092
   Y53       33.56154  -0.00564   0.00000   0.01407   0.01542  33.57695
   Z53       44.52195   0.01575   0.00000   0.02739   0.02715  44.54909
   X54       33.24028  -0.00406   0.00000  -0.01887  -0.02108  33.21920
   Y54       33.56154   0.00172   0.00000   0.00757   0.00930  33.57084
   Z54       46.33608   0.00093   0.00000   0.02131   0.02103  46.35711
   X55       31.78519  -0.03189   0.00000  -0.04420  -0.04594  31.73926
   Y55       34.10956   0.01762   0.00000   0.05305   0.05394  34.16349
   Z55       43.93613  -0.00417   0.00000   0.02077   0.01999  43.95612
   X56       41.59287   0.00293   0.00000  -0.00239  -0.00052  41.59235
   Y56       30.80254  -0.00838   0.00000  -0.00580  -0.00576  30.79677
   Z56       32.03086   0.00536   0.00000   0.00024   0.00268  32.03354
   X57       40.40234  -0.00188   0.00000  -0.00743  -0.00516  40.39719
   Y57       29.61201  -0.00363   0.00000  -0.01053  -0.01088  29.60113
   Z57       31.35056   0.00166   0.00000   0.00895   0.01137  31.36192
   X58       41.17713  -0.00483   0.00000  -0.01873  -0.01696  41.16017
   Y58       32.37101   0.01216   0.00000   0.01954   0.01931  32.39032
   Z58       31.19938  -0.00089   0.00000   0.01665   0.01861  31.21799
   X59       36.50951  -0.00337   0.00000  -0.00986  -0.01359  36.49592
   Y59       48.05574   0.01622   0.00000   0.01348   0.01460  48.07034
   Z59       41.00706  -0.00405   0.00000  -0.00498  -0.00783  40.99923
   X60       36.16936  -0.00280   0.00000  -0.00805  -0.01195  36.15740
   Y60       47.11087  -0.01033   0.00000  -0.02168  -0.02026  47.09061
   Z60       42.51884   0.00370   0.00000  -0.00880  -0.01150  42.50734
   X61       36.96304   0.00633   0.00000   0.02862   0.02544  36.98848
   Y61       46.78962  -0.00865   0.00000  -0.00865  -0.00770  46.78192
   Z61       39.79763  -0.00110   0.00000   0.01267   0.01025  39.80788
   X62       29.17737  -0.00308   0.00000  -0.02450  -0.02652  29.15085
   Y62       36.30164  -0.02359   0.00000  -0.02462  -0.02435  36.27729
   Z62       43.46370   0.00134   0.00000  -0.00837  -0.01028  43.45342
   X63       29.61201   0.01370   0.00000   0.05045   0.04841  29.66042
   Y63       37.70004   0.01470   0.00000  -0.00058  -0.00046  37.69957
   Z63       42.40545  -0.01262   0.00000  -0.00481  -0.00693  42.39852
   X64       28.13802  -0.00814   0.00000  -0.00720  -0.00969  28.12834
   Y64       37.00084   0.00488   0.00000   0.00427   0.00464  37.00547
   Z64       44.74871   0.01120   0.00000   0.01746   0.01512  44.76383
   X65       42.40545  -0.00667   0.00000   0.00500   0.00259  42.40805
   Y65       46.20380   0.00024   0.00000   0.00093   0.00232  46.20613
   Z65       37.13312   0.00622   0.00000   0.00894   0.00799  37.14111
   X66       43.78495   0.00744   0.00000   0.01922   0.01646  43.80142
   Y66       47.12977   0.00467   0.00000   0.00885   0.01067  47.14044
   Z66       37.85121   0.00182   0.00000  -0.00288  -0.00371  37.84751
   X67       43.02906   0.00190   0.00000  -0.00341  -0.00530  43.02376
   Y67       45.59909  -0.00643   0.00000  -0.02064  -0.01950  45.57959
   Z67       35.54575  -0.00771   0.00000  -0.00275  -0.00340  35.54235
   X68       33.33477   0.00872   0.00000   0.01796   0.01583  33.35060
   Y68       46.33608  -0.00215   0.00000  -0.02074  -0.02141  46.31468
   Z68       35.92369  -0.01341   0.00000  -0.00633  -0.00954  35.91415
   X69       31.89858  -0.00712   0.00000  -0.01292  -0.01479  31.88378
   Y69       45.25894  -0.00369   0.00000  -0.00221  -0.00321  45.25573
   Z69       35.69693   0.00522   0.00000   0.02456   0.02123  35.71816
   X70       33.35367  -0.00171   0.00000  -0.00025  -0.00290  33.35077
   Y70       46.71403   0.00234   0.00000   0.00761   0.00736  46.72139
   Z70       37.70004   0.01114   0.00000   0.00678   0.00347  37.70350
   X71       43.93613   0.00001   0.00000  -0.00142  -0.00265  43.93348
   Y71       30.85923  -0.00314   0.00000  -0.00705  -0.00363  30.85560
   Z71       44.55974   0.01740   0.00000   0.01726   0.02026  44.58001
   X72       44.48415  -0.00051   0.00000  -0.00228  -0.00309  44.48107
   Y72       29.15847   0.00139   0.00000   0.00328   0.00671  29.16518
   Z72       44.21959  -0.00842   0.00000  -0.03561  -0.03209  44.18751
   X73       43.74716  -0.00068   0.00000  -0.00135  -0.00233  43.74483
   Y73       31.61512   0.00304   0.00000   0.00275   0.00575  31.62087
   Z73       42.93458  -0.01018   0.00000   0.00100   0.00377  42.93835
   X74       38.11578  -0.00730   0.00000  -0.01273  -0.01690  38.09888
   Y74       39.49528  -0.00003   0.00000   0.00615   0.00959  39.50486
   Z74       49.56752   0.01206   0.00000   0.01096   0.01050  49.57802
   X75       37.64334  -0.00033   0.00000   0.00355  -0.00014  37.64320
   Y75       39.28741   0.00011   0.00000   0.00026   0.00320  39.29060
   Z75       47.82897  -0.00962   0.00000  -0.00787  -0.00839  47.82058
   X76       39.74094   0.00471   0.00000   0.00370  -0.00060  39.74034
   Y76       40.28896   0.00106   0.00000  -0.00835  -0.00460  40.28436
   Z76       49.51082  -0.00335   0.00000  -0.00826  -0.00849  49.50233
   X77       48.52817   0.00969   0.00000   0.01355   0.01261  48.54078
   Y77       41.42280   0.00561   0.00000   0.02473   0.02681  41.44960
   Z77       34.95993  -0.01583   0.00000  -0.01191  -0.01024  34.94970
   X78       48.73604  -0.00262   0.00000  -0.00674  -0.00805  48.72799
   Y78       41.10154  -0.00225   0.00000  -0.00450  -0.00197  41.09957
   Z78       36.71738   0.01370   0.00000   0.00678   0.00857  36.72595
   X79       46.77072  -0.00860   0.00000  -0.01362  -0.01458  46.75615
   Y79       41.81964  -0.00491   0.00000  -0.03337  -0.03168  41.78796
   Z79       34.77096   0.00534   0.00000   0.01709   0.01824  34.78921
   X80       30.89702   0.00581   0.00000   0.00994   0.00645  30.90347
   Y80       45.97704   0.00181   0.00000   0.00249   0.00270  45.97974
   Z80       41.74405  -0.00385   0.00000  -0.00524  -0.00898  41.73507
   X81       31.33166   0.00164   0.00000   0.01067   0.00732  31.33898
   Y81       44.35187  -0.00224   0.00000  -0.00330  -0.00285  44.34903
   Z81       42.44325  -0.00146   0.00000  -0.01078  -0.01404  42.42921
   X82       29.12068  -0.00516   0.00000   0.00140  -0.00221  29.11847
   Y82       46.12821  -0.00074   0.00000  -0.00409  -0.00416  46.12406
   Z82       42.06530   0.00115   0.00000   0.00271  -0.00151  42.06379
   X83       46.05263   0.00595   0.00000   0.00190   0.00320  46.05583
   Y83       34.37412   0.00585   0.00000   0.00437   0.00516  34.37928
   Z83       31.50173   0.00981   0.00000   0.02196   0.02466  31.52640
   X84       44.42746  -0.00349   0.00000   0.00466   0.00622  44.43368
   Y84       33.78830  -0.00236   0.00000   0.00514   0.00548  33.79378
   Z84       30.95371  -0.00694   0.00000  -0.02314  -0.02070  30.93301
   X85       47.24315  -0.00122   0.00000  -0.00546  -0.00373  47.23942
   Y85       33.41036  -0.00140   0.00000   0.00206   0.00285  33.41321
   Z85       30.51908   0.00042   0.00000   0.00996   0.01318  30.53225
   X86       36.64179   0.00237   0.00000   0.00858   0.00687  36.64866
   Y86       30.10334  -0.00539   0.00000  -0.02634  -0.02376  30.07958
   Z86       47.09198   0.00179   0.00000   0.00660   0.00798  47.09996
   X87       35.94259   0.00547   0.00000   0.03477   0.03295  35.97554
   Y87       31.61512  -0.00218   0.00000  -0.02309  -0.02082  31.59430
   Z87       46.37388  -0.00479   0.00000  -0.02174  -0.02088  46.35300
   X88       35.56465  -0.00153   0.00000  -0.00444  -0.00643  35.55821
   Y88       29.74429   0.00069   0.00000   0.00530   0.00800  29.75229
   Z88       48.50927   0.00259   0.00000   0.00761   0.00880  48.51807
   X89       44.89989   0.01655   0.00000   0.01592   0.01646  44.91635
   Y89       27.98684  -0.01216   0.00000  -0.02117  -0.01870  27.96815
   Z89       39.68425   0.01680   0.00000   0.01754   0.02146  39.70571
   X90       44.63533  -0.00339   0.00000   0.00606   0.00653  44.64186
   Y90       29.51752   0.01075   0.00000  -0.01024  -0.00804  29.50948
   Z90       38.75828  -0.01142   0.00000  -0.01636  -0.01288  38.74541
   X91       43.44480  -0.01133   0.00000  -0.01524  -0.01443  43.43037
   Y91       26.98529  -0.00329   0.00000   0.00000   0.00210  26.98739
   Z91       39.34410  -0.00296   0.00000  -0.00049   0.00329  39.34739
   X92       46.90300   0.02130   0.00000   0.05578   0.05266  46.95566
   Y92       38.56931  -0.00789   0.00000   0.01863   0.02299  38.59230
   Z92       46.07152  -0.00347   0.00000  -0.00487  -0.00292  46.06860
   X93       45.76917  -0.01576   0.00000  -0.02473  -0.02826  45.74090
   Y93       39.68425   0.00847   0.00000  -0.01607  -0.01176  39.67249
   Z93       46.88411   0.00562   0.00000  -0.00676  -0.00536  46.87874
   X94       46.71403  -0.00134   0.00000   0.00030  -0.00244  46.71159
   Y94       38.92836  -0.00097   0.00000  -0.01587  -0.01198  38.91638
   Z94       44.29518  -0.00532   0.00000  -0.01274  -0.01093  44.28425
   X95       39.24961  -0.01246   0.00000  -0.01007  -0.01277  39.23684
   Y95       50.13443   0.01818   0.00000   0.01625   0.01657  50.15100
   Z95       35.22450  -0.01284   0.00000  -0.01481  -0.01746  35.20703
   X96       39.92991   0.00918   0.00000   0.00382   0.00120  39.93111
   Y96       48.69824  -0.01534   0.00000  -0.00567  -0.00502  48.69322
   Z96       36.05597   0.00961   0.00000   0.00613   0.00398  36.05996
   X97       40.66691   0.00231   0.00000   0.00791   0.00505  40.67196
   Y97       51.24937  -0.00132   0.00000  -0.00137  -0.00082  51.24856
   Z97       34.99773   0.00204   0.00000   0.00851   0.00596  35.00369
         Item               Value     Threshold  Converged?
 Maximum Force            0.032920     0.000450     NO 
 RMS     Force            0.009726     0.000300     NO 
 Maximum Displacement     0.060930     0.001800     NO 
 RMS     Displacement     0.017478     0.001200     NO 
 Predicted change in Energy=-2.511948D-02
 GradGradGradGradGradGradGradGradGradGradGradGradGradGradGradGradGradGrad

 Leave Link  103 at Wed May  2 23:01:26 2018, MaxMem= 14763950080 cpu:        52.5
 (Enter /cm/shared/gaussian/g09.e01/intel64-sandybridge/g09/l9999.exe)
 1\1\GINC-POPLE03\Force\RPBE1PBE\CC-pVDZ\Br1H64O32(1-)\M.PELUSO\02-May-
 2018\0\\#p PBE1PBE/cc-pvDZ force Counterpoise=2 noSymm\\forces on chlo
 ride comput - NWATER: 32\\-1,1\Br,20.,20.,20.\O,22.14,18.38,21.5\H,22.
 32,17.78,20.77\H,21.4,18.9,21.19\O,18.54,17.41,21.1\H,18.84,18.29,20.8
 7\H,18.07,17.52,21.92\O,22.92,20.86,18.6\H,22.07,20.53,18.91\H,22.97,2
 0.58,17.69\O,17.31,20.34,17.81\H,18.01,20.26,18.47\H,17.29,19.49,17.38
 \O,19.69,19.84,23.49\H,19.92,20.,22.57\H,19.02,19.16,23.45\O,21.16,22.
 95,21.61\H,21.85,23.36,21.09\H,20.76,22.31,21.02\O,19.77,22.6,17.57\H,
 19.96,21.84,18.11\H,18.94,22.94,17.91\O,17.11,20.95,21.71\H,17.59,20.4
 3,21.07\H,17.72,21.05,22.44\O,24.31,20.36,21.46\H,23.61,19.76,21.71\H,
 24.4,20.25,20.52\O,18.24,15.34,19.56\H,18.11,16.27,19.71\H,18.6,15.01,
 20.38\O,23.12,16.92,19.42\H,22.41,16.76,18.8\H,23.73,17.49,18.95\O,21.
 28,21.2,15.48\H,20.91,21.67,16.24\H,20.65,21.36,14.78\O,19.52,23.45,23
 .95\H,20.07,24.18,24.26\H,20.08,22.99,23.32\O,22.08,18.98,24.69\H,21.8
 7,18.36,23.99\H,21.49,19.72,24.54\O,17.15,21.56,15.39\H,17.38,21.,16.1
 3\H,16.75,22.34,15.79\O,21.7,18.57,15.53\H,21.02,18.18,14.99\H,21.53,1
 9.51,15.48\O,17.47,18.09,16.2\H,17.16,18.25,15.3\H,18.36,17.77,16.08\O
 ,17.67,17.76,23.56\H,17.59,17.76,24.52\H,16.82,18.05,23.25\O,22.01,16.
 3,16.95\H,21.38,15.67,16.59\H,21.79,17.13,16.51\O,19.32,25.43,21.7\H,1
 9.14,24.93,22.5\H,19.56,24.76,21.06\O,15.44,19.21,23.\H,15.67,19.95,22
 .44\H,14.89,19.58,23.68\O,22.44,24.45,19.65\H,23.17,24.94,20.03\H,22.7
 7,24.13,18.81\O,17.64,24.52,19.01\H,16.88,23.95,18.89\H,17.65,24.72,19
 .95\O,23.25,16.33,23.58\H,23.54,15.43,23.4\H,23.15,16.73,22.72\O,20.17
 ,20.9,26.23\H,19.92,20.79,25.31\H,21.03,21.32,26.2\O,25.68,21.92,18.5\
 H,25.79,21.75,19.43\H,24.75,22.13,18.4\O,16.35,24.33,22.09\H,16.58,23.
 47,22.46\H,15.41,24.41,22.26\O,24.37,18.19,16.67\H,23.51,17.88,16.38\H
 ,25.,17.68,16.15\O,19.39,15.93,24.92\H,19.02,16.73,24.54\H,18.82,15.74
 ,25.67\O,23.76,14.81,21.\H,23.62,15.62,20.51\H,22.99,14.28,20.82\O,24.
 82,20.41,24.38\H,24.22,21.,24.81\H,24.72,20.6,23.44\O,20.77,26.53,18.6
 4\H,21.13,25.77,19.08\H,21.52,27.12,18.52\\Version=ES64L-G09RevE.01\HF
 =-2443.1546844\RMSD=8.750e-09\RMSF=9.726e-03\Dipole=-3.8751456,0.31807
 27,-4.1917516\Quadrupole=-112.1561045,234.878053,-122.7219485,-1577.23
 83215,-1843.63003,-1579.6496463\PG=C01 [X(Br1H64O32)]\\@


 A BIRD IN THE HAND IS SAFER THAN ONE OVERHEAD.

                       -- NEWTON'S SEVENTH LAW
 Job cpu time:       0 days  8 hours 43 minutes 51.5 seconds.
 File lengths (MBytes):  RWF=    482 Int=      0 D2E=      0 Chk=    160 Scr=      1
 Normal termination of Gaussian 09 at Wed May  2 23:01:26 2018.
