 Entering Gaussian System, Link 0=/cm/shared/gaussian/g09.e01/intel64-sandybridge/g09/g09
 Initial command:
 /cm/shared/gaussian/g09.e01/intel64-sandybridge/g09/l1.exe "/local/scratch/m.peluso/32_wat/Gau-17842.inp" -scrdir="/local/scratch/m.peluso/32_wat/"
 Entering Link 1 = /cm/shared/gaussian/g09.e01/intel64-sandybridge/g09/l1.exe PID=     17843.
  
 Copyright (c) 1988,1990,1992,1993,1995,1998,2003,2009,2015,
            Gaussian, Inc.  All Rights Reserved.
  
 This is part of the Gaussian(R) 09 program.  It is based on
 the Gaussian(R) 03 system (copyright 2003, Gaussian, Inc.),
 the Gaussian(R) 98 system (copyright 1998, Gaussian, Inc.),
 the Gaussian(R) 94 system (copyright 1995, Gaussian, Inc.),
 the Gaussian 92(TM) system (copyright 1992, Gaussian, Inc.),
 the Gaussian 90(TM) system (copyright 1990, Gaussian, Inc.),
 the Gaussian 88(TM) system (copyright 1988, Gaussian, Inc.),
 the Gaussian 86(TM) system (copyright 1986, Carnegie Mellon
 University), and the Gaussian 82(TM) system (copyright 1983,
 Carnegie Mellon University). Gaussian is a federally registered
 trademark of Gaussian, Inc.
  
 This software contains proprietary and confidential information,
 including trade secrets, belonging to Gaussian, Inc.
  
 This software is provided under written license and may be
 used, copied, transmitted, or stored only in accord with that
 written license.
  
 The following legend is applicable only to US Government
 contracts under FAR:
  
                    RESTRICTED RIGHTS LEGEND
  
 Use, reproduction and disclosure by the US Government is
 subject to restrictions as set forth in subparagraphs (a)
 and (c) of the Commercial Computer Software - Restricted
 Rights clause in FAR 52.227-19.
  
 Gaussian, Inc.
 340 Quinnipiac St., Bldg. 40, Wallingford CT 06492
  
  
 ---------------------------------------------------------------
 Warning -- This program may not be used in any manner that
 competes with the business of Gaussian, Inc. or will provide
 assistance to any competitor of Gaussian, Inc.  The licensee
 of this program is prohibited from giving any competitor of
 Gaussian, Inc. access to this program.  By using this program,
 the user acknowledges that Gaussian, Inc. is engaged in the
 business of creating and licensing software in the field of
 computational chemistry and represents and warrants to the
 licensee that it is not a competitor of Gaussian, Inc. and that
 it will not use this program in any manner prohibited above.
 ---------------------------------------------------------------
  

 Cite this work as:
 Gaussian 09, Revision E.01,
 M. J. Frisch, G. W. Trucks, H. B. Schlegel, G. E. Scuseria, 
 M. A. Robb, J. R. Cheeseman, G. Scalmani, V. Barone, B. Mennucci, 
 G. A. Petersson, H. Nakatsuji, M. Caricato, X. Li, H. P. Hratchian, 
 A. F. Izmaylov, J. Bloino, G. Zheng, J. L. Sonnenberg, M. Hada, 
 M. Ehara, K. Toyota, R. Fukuda, J. Hasegawa, M. Ishida, T. Nakajima, 
 Y. Honda, O. Kitao, H. Nakai, T. Vreven, J. A. Montgomery, Jr., 
 J. E. Peralta, F. Ogliaro, M. Bearpark, J. J. Heyd, E. Brothers, 
 K. N. Kudin, V. N. Staroverov, T. Keith, R. Kobayashi, J. Normand, 
 K. Raghavachari, A. Rendell, J. C. Burant, S. S. Iyengar, J. Tomasi, 
 M. Cossi, N. Rega, J. M. Millam, M. Klene, J. E. Knox, J. B. Cross, 
 V. Bakken, C. Adamo, J. Jaramillo, R. Gomperts, R. E. Stratmann, 
 O. Yazyev, A. J. Austin, R. Cammi, C. Pomelli, J. W. Ochterski, 
 R. L. Martin, K. Morokuma, V. G. Zakrzewski, G. A. Voth, 
 P. Salvador, J. J. Dannenberg, S. Dapprich, A. D. Daniels, 
 O. Farkas, J. B. Foresman, J. V. Ortiz, J. Cioslowski, 
 and D. J. Fox, Gaussian, Inc., Wallingford CT, 2013.
 
 ******************************************
 Gaussian 09:  ES64L-G09RevE.01 30-Nov-2015
                 2-May-2018 
 ******************************************
 %Mem=110GB
 %NProcShared=64
 Will use up to   64 processors via shared memory.
 %chk=snap24.chk
 ----------------------------------------------
 #p PBE1PBE/cc-pvDZ force Counterpoise=2 noSymm
 ----------------------------------------------
 1/10=7,30=1,38=1,62=2/1,3;
 2/12=2,15=1,17=6,18=5,40=1/2;
 1/10=7,30=1,38=1,53=2,62=2,63=101/22;
 3/5=16,11=2,16=1,25=1,30=1,71=1,74=-13/1,2,3;
 4//1;
 5/5=2,38=5/2;
 6/7=2,8=2,9=2,10=2,28=1/1;
 7/7=1,29=1,30=1,33=-1/1,2,3,16;
 1/10=7,30=1,53=2,62=2,63=101/22;
 3/5=7,6=11,11=2,16=1,25=1,30=1,71=1,74=-13,82=7/1,2,3;
 4//1;
 5/5=2,38=5/2;
 6/7=2,8=2,9=2,10=2,28=1/1;
 7/7=1,29=1,30=1,33=-1/1,2,3,16;
 1/10=7,30=1,53=2,62=2,63=101/22(-5);
 7/9=1,29=1,44=-1/16;
 1/10=7,30=1,62=2/3;
 99//99;
 Leave Link    1 at Wed May  2 22:04:41 2018, MaxMem= 14763950080 cpu:         7.4
 (Enter /cm/shared/gaussian/g09.e01/intel64-sandybridge/g09/l101.exe)
 --------------------------------------
 forces on chloride comput - NWATER: 32
 --------------------------------------
 Symbolic Z-matrix:
 Charge = -1 Multiplicity = 1 in supermolecule
 Charge = -1 Multiplicity = 1 in fragment      1.
 Charge =  0 Multiplicity = 1 in fragment      2.
 Br(Fragment=1)        20.       20.       20. 
 O(Fragment=2)         18.65     17.34     19.57 
 H(Fragment=2)         17.87     17.45     19.04 
 H(Fragment=2)         18.99     18.22     19.7 
 O(Fragment=2)         23.16     20.3      19.92 
 H(Fragment=2)         22.21     20.21     19.91 
 H(Fragment=2)         23.38     20.72     19.09 
 O(Fragment=2)         21.42     19.34     22.8 
 H(Fragment=2)         21.02     19.45     21.93 
 H(Fragment=2)         21.13     18.48     23.1 
 O(Fragment=2)         18.79     21.16     22.78 
 H(Fragment=2)         19.31     21.95     22.91 
 H(Fragment=2)         19.16     20.76     21.99 
 O(Fragment=2)         19.45     23.21     19.44 
 H(Fragment=2)         20.16     23.74     19.79 
 H(Fragment=2)         19.64     22.32     19.73 
 O(Fragment=2)         16.67     20.04     19.65 
 H(Fragment=2)         16.46     19.27     19.13 
 H(Fragment=2)         17.6      19.94     19.87 
 O(Fragment=2)         21.91     20.91     17.34 
 H(Fragment=2)         21.14     20.87     17.91 
 H(Fragment=2)         21.92     21.81     17.01 
 O(Fragment=2)         22.61     18.26     18.04 
 H(Fragment=2)         21.74     18.36     18.43 
 H(Fragment=2)         23.17     18.85     18.54 
 O(Fragment=2)         16.38     21.54     21.84 
 H(Fragment=2)         16.4      20.9      21.13 
 H(Fragment=2)         17.3      21.62     22.1 
 O(Fragment=2)         17.84     20.16     16.19 
 H(Fragment=2)         18.64     19.66     16.4 
 H(Fragment=2)         18.07     21.06     16.4 
 O(Fragment=2)         18.52     16.59     22.07 
 H(Fragment=2)         18.51     15.68     22.36 
 H(Fragment=2)         18.53     16.54     21.11 
 O(Fragment=2)         17.9      23.22     17.1 
 H(Fragment=2)         17.08     22.99     17.55 
 H(Fragment=2)         18.59     22.98     17.73 
 O(Fragment=2)         20.61     15.46     19.14 
 H(Fragment=2)         19.88     16.08     19.17 
 H(Fragment=2)         20.33     14.73     19.69 
 O(Fragment=2)         20.88     18.85     15.59 
 H(Fragment=2)         21.41     19.26     16.27 
 H(Fragment=2)         21.13     19.3      14.79 
 O(Fragment=2)         17.62     18.76     23.74 
 H(Fragment=2)         17.9      18.21     23.01 
 H(Fragment=2)         17.79     19.66     23.44 
 O(Fragment=2)         23.85     20.63     22.58 
 H(Fragment=2)         23.81     20.69     21.62 
 H(Fragment=2)         23.12     20.05     22.81 
 O(Fragment=2)         22.24     16.32     21.72 
 H(Fragment=2)         21.31     16.39     21.96 
 H(Fragment=2)         22.25     15.81     20.91 
 O(Fragment=2)         20.46     20.28     25.37 
 H(Fragment=2)         19.57     19.97     25.22 
 H(Fragment=2)         20.86     20.28     24.5 
 O(Fragment=2)         15.62     22.26     18.44 
 H(Fragment=2)         15.75     21.45     18.94 
 H(Fragment=2)         15.31     21.96     17.58 
 O(Fragment=2)         16.16     17.67     18.52 
 H(Fragment=2)         15.53     17.14     19.02 
 H(Fragment=2)         16.12     17.31     17.64 
 O(Fragment=2)         21.54     24.46     20.69 
 H(Fragment=2)         22.21     24.01     21.21 
 H(Fragment=2)         21.91     25.32     20.51 
 O(Fragment=2)         25.47     19.22     19.32 
 H(Fragment=2)         26.24     19.73     19.56 
 H(Fragment=2)         24.73     19.71     19.67 
 O(Fragment=2)         17.26     25.03     19.35 
 H(Fragment=2)         17.77     24.22     19.42 
 H(Fragment=2)         16.58     24.82     18.7 
 O(Fragment=2)         19.15     24.86     22.1 
 H(Fragment=2)         20.05     24.52     22.02 
 H(Fragment=2)         18.94     25.17     21.22 
 O(Fragment=2)         20.58     17.11     24.26 
 H(Fragment=2)         20.42     17.06     25.2 
 H(Fragment=2)         19.74     16.91     23.86 
 O(Fragment=2)         21.5      23.01     23.78 
 H(Fragment=2)         21.66     23.94     23.89 
 H(Fragment=2)         22.36     22.63     23.59 
 O(Fragment=2)         14.88     18.35     22.36 
 H(Fragment=2)         15.8      18.45     22.58 
 H(Fragment=2)         14.48     19.19     22.6 
 O(Fragment=2)         22.45     15.59     17.28 
 H(Fragment=2)         21.75     15.6      17.93 
 H(Fragment=2)         22.99     16.35     17.5 
 O(Fragment=2)         23.91     23.61     21.71 
 H(Fragment=2)         24.59     24.08     22.19 
 H(Fragment=2)         24.27     22.74     21.55 
 O(Fragment=2)         21.8      23.22     16.17 
 H(Fragment=2)         22.15     24.03     15.79 
 H(Fragment=2)         21.03     23.02     15.64 
 O(Fragment=2)         15.14     20.69     16.4 
 H(Fragment=2)         15.18     21.       15.49 
 H(Fragment=2)         15.91     20.14     16.5 
 O(Fragment=2)         24.33     17.83     15.7 
 H(Fragment=2)         23.94     18.1      14.86 
 H(Fragment=2)         23.64     17.99     16.34 
 
 NAtoms=     97 NQM=       97 NQMF=       0 NMMI=      0 NMMIF=      0
                NMic=       0 NMicF=      0.
                    Isotopes and Nuclear Properties:
 (Nuclear quadrupole moments (NQMom) in fm**2, nuclear magnetic moments (NMagM)
  in nuclear magnetons)

  Atom         1           2           3           4           5           6           7           8           9          10
 IAtWgt=          79          16           1           1          16           1           1          16           1           1
 AtmWgt=  78.9183361  15.9949146   1.0078250   1.0078250  15.9949146   1.0078250   1.0078250  15.9949146   1.0078250   1.0078250
 NucSpn=           3           0           1           1           0           1           1           0           1           1
 AtZEff=   0.0000000   0.0000000   0.0000000   0.0000000   0.0000000   0.0000000   0.0000000   0.0000000   0.0000000   0.0000000
 NQMom=   31.3000000   0.0000000   0.0000000   0.0000000   0.0000000   0.0000000   0.0000000   0.0000000   0.0000000   0.0000000
 NMagM=    2.1063990   0.0000000   2.7928460   2.7928460   0.0000000   2.7928460   2.7928460   0.0000000   2.7928460   2.7928460
 AtZNuc=  35.0000000   8.0000000   1.0000000   1.0000000   8.0000000   1.0000000   1.0000000   8.0000000   1.0000000   1.0000000

  Atom        11          12          13          14          15          16          17          18          19          20
 IAtWgt=          16           1           1          16           1           1          16           1           1          16
 AtmWgt=  15.9949146   1.0078250   1.0078250  15.9949146   1.0078250   1.0078250  15.9949146   1.0078250   1.0078250  15.9949146
 NucSpn=           0           1           1           0           1           1           0           1           1           0
 AtZEff=   0.0000000   0.0000000   0.0000000   0.0000000   0.0000000   0.0000000   0.0000000   0.0000000   0.0000000   0.0000000
 NQMom=    0.0000000   0.0000000   0.0000000   0.0000000   0.0000000   0.0000000   0.0000000   0.0000000   0.0000000   0.0000000
 NMagM=    0.0000000   2.7928460   2.7928460   0.0000000   2.7928460   2.7928460   0.0000000   2.7928460   2.7928460   0.0000000
 AtZNuc=   8.0000000   1.0000000   1.0000000   8.0000000   1.0000000   1.0000000   8.0000000   1.0000000   1.0000000   8.0000000

  Atom        21          22          23          24          25          26          27          28          29          30
 IAtWgt=           1           1          16           1           1          16           1           1          16           1
 AtmWgt=   1.0078250   1.0078250  15.9949146   1.0078250   1.0078250  15.9949146   1.0078250   1.0078250  15.9949146   1.0078250
 NucSpn=           1           1           0           1           1           0           1           1           0           1
 AtZEff=   0.0000000   0.0000000   0.0000000   0.0000000   0.0000000   0.0000000   0.0000000   0.0000000   0.0000000   0.0000000
 NQMom=    0.0000000   0.0000000   0.0000000   0.0000000   0.0000000   0.0000000   0.0000000   0.0000000   0.0000000   0.0000000
 NMagM=    2.7928460   2.7928460   0.0000000   2.7928460   2.7928460   0.0000000   2.7928460   2.7928460   0.0000000   2.7928460
 AtZNuc=   1.0000000   1.0000000   8.0000000   1.0000000   1.0000000   8.0000000   1.0000000   1.0000000   8.0000000   1.0000000

  Atom        31          32          33          34          35          36          37          38          39          40
 IAtWgt=           1          16           1           1          16           1           1          16           1           1
 AtmWgt=   1.0078250  15.9949146   1.0078250   1.0078250  15.9949146   1.0078250   1.0078250  15.9949146   1.0078250   1.0078250
 NucSpn=           1           0           1           1           0           1           1           0           1           1
 AtZEff=   0.0000000   0.0000000   0.0000000   0.0000000   0.0000000   0.0000000   0.0000000   0.0000000   0.0000000   0.0000000
 NQMom=    0.0000000   0.0000000   0.0000000   0.0000000   0.0000000   0.0000000   0.0000000   0.0000000   0.0000000   0.0000000
 NMagM=    2.7928460   0.0000000   2.7928460   2.7928460   0.0000000   2.7928460   2.7928460   0.0000000   2.7928460   2.7928460
 AtZNuc=   1.0000000   8.0000000   1.0000000   1.0000000   8.0000000   1.0000000   1.0000000   8.0000000   1.0000000   1.0000000

  Atom        41          42          43          44          45          46          47          48          49          50
 IAtWgt=          16           1           1          16           1           1          16           1           1          16
 AtmWgt=  15.9949146   1.0078250   1.0078250  15.9949146   1.0078250   1.0078250  15.9949146   1.0078250   1.0078250  15.9949146
 NucSpn=           0           1           1           0           1           1           0           1           1           0
 AtZEff=   0.0000000   0.0000000   0.0000000   0.0000000   0.0000000   0.0000000   0.0000000   0.0000000   0.0000000   0.0000000
 NQMom=    0.0000000   0.0000000   0.0000000   0.0000000   0.0000000   0.0000000   0.0000000   0.0000000   0.0000000   0.0000000
 NMagM=    0.0000000   2.7928460   2.7928460   0.0000000   2.7928460   2.7928460   0.0000000   2.7928460   2.7928460   0.0000000
 AtZNuc=   8.0000000   1.0000000   1.0000000   8.0000000   1.0000000   1.0000000   8.0000000   1.0000000   1.0000000   8.0000000

  Atom        51          52          53          54          55          56          57          58          59          60
 IAtWgt=           1           1          16           1           1          16           1           1          16           1
 AtmWgt=   1.0078250   1.0078250  15.9949146   1.0078250   1.0078250  15.9949146   1.0078250   1.0078250  15.9949146   1.0078250
 NucSpn=           1           1           0           1           1           0           1           1           0           1
 AtZEff=   0.0000000   0.0000000   0.0000000   0.0000000   0.0000000   0.0000000   0.0000000   0.0000000   0.0000000   0.0000000
 NQMom=    0.0000000   0.0000000   0.0000000   0.0000000   0.0000000   0.0000000   0.0000000   0.0000000   0.0000000   0.0000000
 NMagM=    2.7928460   2.7928460   0.0000000   2.7928460   2.7928460   0.0000000   2.7928460   2.7928460   0.0000000   2.7928460
 AtZNuc=   1.0000000   1.0000000   8.0000000   1.0000000   1.0000000   8.0000000   1.0000000   1.0000000   8.0000000   1.0000000

  Atom        61          62          63          64          65          66          67          68          69          70
 IAtWgt=           1          16           1           1          16           1           1          16           1           1
 AtmWgt=   1.0078250  15.9949146   1.0078250   1.0078250  15.9949146   1.0078250   1.0078250  15.9949146   1.0078250   1.0078250
 NucSpn=           1           0           1           1           0           1           1           0           1           1
 AtZEff=   0.0000000   0.0000000   0.0000000   0.0000000   0.0000000   0.0000000   0.0000000   0.0000000   0.0000000   0.0000000
 NQMom=    0.0000000   0.0000000   0.0000000   0.0000000   0.0000000   0.0000000   0.0000000   0.0000000   0.0000000   0.0000000
 NMagM=    2.7928460   0.0000000   2.7928460   2.7928460   0.0000000   2.7928460   2.7928460   0.0000000   2.7928460   2.7928460
 AtZNuc=   1.0000000   8.0000000   1.0000000   1.0000000   8.0000000   1.0000000   1.0000000   8.0000000   1.0000000   1.0000000

  Atom        71          72          73          74          75          76          77          78          79          80
 IAtWgt=          16           1           1          16           1           1          16           1           1          16
 AtmWgt=  15.9949146   1.0078250   1.0078250  15.9949146   1.0078250   1.0078250  15.9949146   1.0078250   1.0078250  15.9949146
 NucSpn=           0           1           1           0           1           1           0           1           1           0
 AtZEff=   0.0000000   0.0000000   0.0000000   0.0000000   0.0000000   0.0000000   0.0000000   0.0000000   0.0000000   0.0000000
 NQMom=    0.0000000   0.0000000   0.0000000   0.0000000   0.0000000   0.0000000   0.0000000   0.0000000   0.0000000   0.0000000
 NMagM=    0.0000000   2.7928460   2.7928460   0.0000000   2.7928460   2.7928460   0.0000000   2.7928460   2.7928460   0.0000000
 AtZNuc=   8.0000000   1.0000000   1.0000000   8.0000000   1.0000000   1.0000000   8.0000000   1.0000000   1.0000000   8.0000000

  Atom        81          82          83          84          85          86          87          88          89          90
 IAtWgt=           1           1          16           1           1          16           1           1          16           1
 AtmWgt=   1.0078250   1.0078250  15.9949146   1.0078250   1.0078250  15.9949146   1.0078250   1.0078250  15.9949146   1.0078250
 NucSpn=           1           1           0           1           1           0           1           1           0           1
 AtZEff=   0.0000000   0.0000000   0.0000000   0.0000000   0.0000000   0.0000000   0.0000000   0.0000000   0.0000000   0.0000000
 NQMom=    0.0000000   0.0000000   0.0000000   0.0000000   0.0000000   0.0000000   0.0000000   0.0000000   0.0000000   0.0000000
 NMagM=    2.7928460   2.7928460   0.0000000   2.7928460   2.7928460   0.0000000   2.7928460   2.7928460   0.0000000   2.7928460
 AtZNuc=   1.0000000   1.0000000   8.0000000   1.0000000   1.0000000   8.0000000   1.0000000   1.0000000   8.0000000   1.0000000

  Atom        91          92          93          94          95          96          97
 IAtWgt=           1          16           1           1          16           1           1
 AtmWgt=   1.0078250  15.9949146   1.0078250   1.0078250  15.9949146   1.0078250   1.0078250
 NucSpn=           1           0           1           1           0           1           1
 AtZEff=   0.0000000   0.0000000   0.0000000   0.0000000   0.0000000   0.0000000   0.0000000
 NQMom=    0.0000000   0.0000000   0.0000000   0.0000000   0.0000000   0.0000000   0.0000000
 NMagM=    2.7928460   0.0000000   2.7928460   2.7928460   0.0000000   2.7928460   2.7928460
 AtZNuc=   1.0000000   8.0000000   1.0000000   1.0000000   8.0000000   1.0000000   1.0000000
 Leave Link  101 at Wed May  2 22:04:41 2018, MaxMem= 14763950080 cpu:        12.5
 (Enter /cm/shared/gaussian/g09.e01/intel64-sandybridge/g09/l103.exe)

 GradGradGradGradGradGradGradGradGradGradGradGradGradGradGradGradGradGrad
 Berny optimization.
 Initialization pass.
 Trust Radius=3.00D-01 FncErr=1.00D-07 GrdErr=1.00D-07
 Number of steps in this run=      2 maximum allowed number of steps=      2.
 GradGradGradGradGradGradGradGradGradGradGradGradGradGradGradGradGradGrad

 Leave Link  103 at Wed May  2 22:04:41 2018, MaxMem= 14763950080 cpu:         1.7
 (Enter /cm/shared/gaussian/g09.e01/intel64-sandybridge/g09/l202.exe)
 Symmetry turned off by external request.
 Stoichiometry    BrH64O32(1-)
 Framework group  C1[X(BrH64O32)]
 Deg. of freedom   285
 Full point group                 C1      NOp   1
                          Input orientation:                          
 ---------------------------------------------------------------------
 Center     Atomic      Atomic             Coordinates (Angstroms)
 Number     Number       Type             X           Y           Z
 ---------------------------------------------------------------------
      1         35           0       20.000000   20.000000   20.000000
      2          8           0       18.650000   17.340000   19.570000
      3          1           0       17.870000   17.450000   19.040000
      4          1           0       18.990000   18.220000   19.700000
      5          8           0       23.160000   20.300000   19.920000
      6          1           0       22.210000   20.210000   19.910000
      7          1           0       23.380000   20.720000   19.090000
      8          8           0       21.420000   19.340000   22.800000
      9          1           0       21.020000   19.450000   21.930000
     10          1           0       21.130000   18.480000   23.100000
     11          8           0       18.790000   21.160000   22.780000
     12          1           0       19.310000   21.950000   22.910000
     13          1           0       19.160000   20.760000   21.990000
     14          8           0       19.450000   23.210000   19.440000
     15          1           0       20.160000   23.740000   19.790000
     16          1           0       19.640000   22.320000   19.730000
     17          8           0       16.670000   20.040000   19.650000
     18          1           0       16.460000   19.270000   19.130000
     19          1           0       17.600000   19.940000   19.870000
     20          8           0       21.910000   20.910000   17.340000
     21          1           0       21.140000   20.870000   17.910000
     22          1           0       21.920000   21.810000   17.010000
     23          8           0       22.610000   18.260000   18.040000
     24          1           0       21.740000   18.360000   18.430000
     25          1           0       23.170000   18.850000   18.540000
     26          8           0       16.380000   21.540000   21.840000
     27          1           0       16.400000   20.900000   21.130000
     28          1           0       17.300000   21.620000   22.100000
     29          8           0       17.840000   20.160000   16.190000
     30          1           0       18.640000   19.660000   16.400000
     31          1           0       18.070000   21.060000   16.400000
     32          8           0       18.520000   16.590000   22.070000
     33          1           0       18.510000   15.680000   22.360000
     34          1           0       18.530000   16.540000   21.110000
     35          8           0       17.900000   23.220000   17.100000
     36          1           0       17.080000   22.990000   17.550000
     37          1           0       18.590000   22.980000   17.730000
     38          8           0       20.610000   15.460000   19.140000
     39          1           0       19.880000   16.080000   19.170000
     40          1           0       20.330000   14.730000   19.690000
     41          8           0       20.880000   18.850000   15.590000
     42          1           0       21.410000   19.260000   16.270000
     43          1           0       21.130000   19.300000   14.790000
     44          8           0       17.620000   18.760000   23.740000
     45          1           0       17.900000   18.210000   23.010000
     46          1           0       17.790000   19.660000   23.440000
     47          8           0       23.850000   20.630000   22.580000
     48          1           0       23.810000   20.690000   21.620000
     49          1           0       23.120000   20.050000   22.810000
     50          8           0       22.240000   16.320000   21.720000
     51          1           0       21.310000   16.390000   21.960000
     52          1           0       22.250000   15.810000   20.910000
     53          8           0       20.460000   20.280000   25.370000
     54          1           0       19.570000   19.970000   25.220000
     55          1           0       20.860000   20.280000   24.500000
     56          8           0       15.620000   22.260000   18.440000
     57          1           0       15.750000   21.450000   18.940000
     58          1           0       15.310000   21.960000   17.580000
     59          8           0       16.160000   17.670000   18.520000
     60          1           0       15.530000   17.140000   19.020000
     61          1           0       16.120000   17.310000   17.640000
     62          8           0       21.540000   24.460000   20.690000
     63          1           0       22.210000   24.010000   21.210000
     64          1           0       21.910000   25.320000   20.510000
     65          8           0       25.470000   19.220000   19.320000
     66          1           0       26.240000   19.730000   19.560000
     67          1           0       24.730000   19.710000   19.670000
     68          8           0       17.260000   25.030000   19.350000
     69          1           0       17.770000   24.220000   19.420000
     70          1           0       16.580000   24.820000   18.700000
     71          8           0       19.150000   24.860000   22.100000
     72          1           0       20.050000   24.520000   22.020000
     73          1           0       18.940000   25.170000   21.220000
     74          8           0       20.580000   17.110000   24.260000
     75          1           0       20.420000   17.060000   25.200000
     76          1           0       19.740000   16.910000   23.860000
     77          8           0       21.500000   23.010000   23.780000
     78          1           0       21.660000   23.940000   23.890000
     79          1           0       22.360000   22.630000   23.590000
     80          8           0       14.880000   18.350000   22.360000
     81          1           0       15.800000   18.450000   22.580000
     82          1           0       14.480000   19.190000   22.600000
     83          8           0       22.450000   15.590000   17.280000
     84          1           0       21.750000   15.600000   17.930000
     85          1           0       22.990000   16.350000   17.500000
     86          8           0       23.910000   23.610000   21.710000
     87          1           0       24.590000   24.080000   22.190000
     88          1           0       24.270000   22.740000   21.550000
     89          8           0       21.800000   23.220000   16.170000
     90          1           0       22.150000   24.030000   15.790000
     91          1           0       21.030000   23.020000   15.640000
     92          8           0       15.140000   20.690000   16.400000
     93          1           0       15.180000   21.000000   15.490000
     94          1           0       15.910000   20.140000   16.500000
     95          8           0       24.330000   17.830000   15.700000
     96          1           0       23.940000   18.100000   14.860000
     97          1           0       23.640000   17.990000   16.340000
 ---------------------------------------------------------------------
 Rotational constants (GHZ):      0.0619009      0.0574092      0.0555278
 Leave Link  202 at Wed May  2 22:04:41 2018, MaxMem= 14763950080 cpu:         0.5
 (Enter /cm/shared/gaussian/g09.e01/intel64-sandybridge/g09/l122.exe)
 Counterpoise: doing full dimer calculation.
 Leave Link  122 at Wed May  2 22:04:41 2018, MaxMem= 14763950080 cpu:         0.1
 (Enter /cm/shared/gaussian/g09.e01/intel64-sandybridge/g09/l301.exe)
 Standard basis: CC-pVDZ (5D, 7F)
 Ernie: Thresh=  0.10000D-02 Tol=  0.10000D-05 Strict=F.
 Ernie:  87 primitive shells out of 1114 were deleted.
   795 basis functions,  1651 primitive gaussians,   829 cartesian basis functions
   178 alpha electrons      178 beta electrons
       nuclear repulsion energy      6299.5684462360 Hartrees.
 IExCor= 1009 DFT=T Ex+Corr=PBE1PBE ExCW=0 ScaHFX=  0.250000
 ScaDFX=  0.750000  0.750000  1.000000  1.000000 ScalE2=  1.000000  1.000000
 IRadAn=      0 IRanWt=     -1 IRanGd=            0 ICorTp=0 IEmpDi=  4
 NAtoms=   97 NActive=   97 NUniq=   97 SFac= 1.00D+00 NAtFMM=   60 NAOKFM=T Big=T
 Integral buffers will be    131072 words long.
 Raffenetti 2 integral format.
 Two-electron integral symmetry is turned off.
 Leave Link  301 at Wed May  2 22:04:41 2018, MaxMem= 14763950080 cpu:         4.3
 (Enter /cm/shared/gaussian/g09.e01/intel64-sandybridge/g09/l302.exe)
 NPDir=0 NMtPBC=     1 NCelOv=     1 NCel=       1 NClECP=     1 NCelD=      1
         NCelK=      1 NCelE2=     1 NClLst=     1 CellRange=     0.0.
 One-electron integrals computed using PRISM.
 NBasis=   795 RedAO= T EigKep=  1.41D-02  NBF=   795
 NBsUse=   795 1.00D-06 EigRej= -1.00D+00 NBFU=   795
 Precomputing XC quadrature grid using
 IXCGrd= 4 IRadAn=           0 IRanWt=          -1 IRanGd=           0 AccXCQ= 0.00D+00.
 Generated NRdTot=       0 NPtTot=           0 NUsed=           0 NTot=          32
 NSgBfM=   760   760   760   764   770 MxSgAt=    97 MxSgA2=    97.
 Leave Link  302 at Wed May  2 22:04:47 2018, MaxMem= 14763950080 cpu:       393.6
 (Enter /cm/shared/gaussian/g09.e01/intel64-sandybridge/g09/l303.exe)
 DipDrv:  MaxL=1.
 Leave Link  303 at Wed May  2 22:04:48 2018, MaxMem= 14763950080 cpu:        29.5
 (Enter /cm/shared/gaussian/g09.e01/intel64-sandybridge/g09/l401.exe)
 ExpMin= 1.22D-01 ExpMax= 6.40D+05 ExpMxC= 6.18D+03 IAcc=2 IRadAn=         4 AccDes= 0.00D+00
 Harris functional with IExCor= 1009 and IRadAn=       4 diagonalized for initial guess.
 HarFok:  IExCor= 1009 AccDes= 0.00D+00 IRadAn=         4 IDoV= 1 UseB2=F ITyADJ=14
 ICtDFT=  3500011 ScaDFX=  1.000000  1.000000  1.000000  1.000000
 FoFCou: FMM=F IPFlag=           0 FMFlag=      100000 FMFlg1=        2001
         NFxFlg=           0 DoJE=T BraDBF=F KetDBF=T FulRan=T
         wScrn=  0.000000 ICntrl=     500 IOpCl=  0 I1Cent=   200000004 NGrid=           0
         NMat0=    1 NMatS0=      1 NMatT0=    0 NMatD0=    1 NMtDS0=    0 NMtDT0=    0
 Symmetry not used in FoFCou.
 Harris En= -5018.42231769830    
 JPrj=0 DoOrth=F DoCkMO=F.
 Leave Link  401 at Wed May  2 22:04:53 2018, MaxMem= 14763950080 cpu:       322.3
 (Enter /cm/shared/gaussian/g09.e01/intel64-sandybridge/g09/l502.exe)
 Closed shell SCF:
 Using DIIS extrapolation, IDIIS=  1040.
 Two-electron integral symmetry not used.
 IVT=     2138497 IEndB=     2138497 NGot= 14763950080 MDV= 14762516294
 LenX= 14762516294 LenY= 14761828224
 Requested convergence on RMS density matrix=1.00D-08 within 128 cycles.
 Requested convergence on MAX density matrix=1.00D-06.
 Requested convergence on             energy=1.00D-06.
 No special actions if energy rises.
 Fock matrices will be formed incrementally for  20 cycles.
 Integral accuracy reduced to 1.0D-05 until final iterations.

 Cycle   1  Pass 0  IDiag  1:
 FoFJK:  IHMeth= 1 ICntrl=       0 DoSepK=F KAlg= 0 I1Cent=   0 FoldK=F
 IRaf= 860000000 NMat=   1 IRICut=       1 DoRegI=T DoRafI=F ISym2E= 0.
 FoFCou: FMM=T IPFlag=           0 FMFlag=      100000 FMFlg1=        2001
         NFxFlg=           0 DoJE=F BraDBF=F KetDBF=F FulRan=T
         wScrn=  0.000000 ICntrl=       0 IOpCl=  0 I1Cent=           0 NGrid=           0
         NMat0=    1 NMatS0=      1 NMatT0=    0 NMatD0=    1 NMtDS0=    0 NMtDT0=    0
 Symmetry not used in FoFCou.
 FMM levels:  10  Number of levels for PrismC:   9
 E= -5015.36704297467    
 DIIS: error= 2.87D-02 at cycle   1 NSaved=   1.
 NSaved= 1 IEnMin= 1 EnMin= -5015.36704297467     IErMin= 1 ErrMin= 2.87D-02
 ErrMax= 2.87D-02  0.00D+00 EMaxC= 1.00D-01 BMatC= 2.67D+00 BMatP= 2.67D+00
 IDIUse=3 WtCom= 7.13D-01 WtEn= 2.87D-01
 Coeff-Com:  0.100D+01
 Coeff-En:   0.100D+01
 Coeff:      0.100D+01
 Gap=     0.372 Goal=   None    Shift=    0.000
 GapD=    0.372 DampG=1.000 DampE=0.500 DampFc=0.5000 IDamp=-1.
 Damping current iteration by 5.00D-01
 RMSDP=2.89D-03 MaxDP=1.60D-01              OVMax= 1.75D-01

 Cycle   2  Pass 0  IDiag  1:
 RMSU=  1.44D-03    CP:  9.86D-01
 E= -5016.14459808402     Delta-E=       -0.777555109351 Rises=F Damp=T
 DIIS: error= 8.36D-03 at cycle   2 NSaved=   2.
 NSaved= 2 IEnMin= 2 EnMin= -5016.14459808402     IErMin= 2 ErrMin= 8.36D-03
 ErrMax= 8.36D-03  0.00D+00 EMaxC= 1.00D-01 BMatC= 8.38D-02 BMatP= 2.67D+00
 IDIUse=3 WtCom= 9.16D-01 WtEn= 8.36D-02
 Coeff-Com:  0.117D+00 0.883D+00
 Coeff-En:   0.213D+00 0.787D+00
 Coeff:      0.125D+00 0.875D+00
 Gap=     0.205 Goal=   None    Shift=    0.000
 RMSDP=3.65D-04 MaxDP=1.80D-02 DE=-7.78D-01 OVMax= 1.06D-01

 Cycle   3  Pass 0  IDiag  1:
 RMSU=  2.82D-04    CP:  9.88D-01  8.39D-01
 E= -5017.27149316544     Delta-E=       -1.126895081423 Rises=F Damp=F
 DIIS: error= 7.14D-04 at cycle   3 NSaved=   3.
 NSaved= 3 IEnMin= 3 EnMin= -5017.27149316544     IErMin= 3 ErrMin= 7.14D-04
 ErrMax= 7.14D-04  0.00D+00 EMaxC= 1.00D-01 BMatC= 1.80D-03 BMatP= 8.38D-02
 IDIUse=3 WtCom= 9.93D-01 WtEn= 7.14D-03
 Coeff-Com:  0.842D-02 0.702D-01 0.921D+00
 Coeff-En:   0.000D+00 0.000D+00 0.100D+01
 Coeff:      0.836D-02 0.697D-01 0.922D+00
 Gap=     0.220 Goal=   None    Shift=    0.000
 RMSDP=9.27D-05 MaxDP=1.23D-02 DE=-1.13D+00 OVMax= 1.25D-02

 Cycle   4  Pass 0  IDiag  1:
 RMSU=  8.34D-05    CP:  9.88D-01  8.46D-01  8.60D-01
 E= -5017.27196986581     Delta-E=       -0.000476700363 Rises=F Damp=F
 DIIS: error= 7.05D-04 at cycle   4 NSaved=   4.
 NSaved= 4 IEnMin= 4 EnMin= -5017.27196986581     IErMin= 4 ErrMin= 7.05D-04
 ErrMax= 7.05D-04  0.00D+00 EMaxC= 1.00D-01 BMatC= 1.69D-03 BMatP= 1.80D-03
 IDIUse=3 WtCom= 9.93D-01 WtEn= 7.05D-03
 Coeff-Com:  0.127D-02 0.661D-02 0.490D+00 0.502D+00
 Coeff-En:   0.000D+00 0.000D+00 0.420D+00 0.580D+00
 Coeff:      0.126D-02 0.656D-02 0.490D+00 0.502D+00
 Gap=     0.219 Goal=   None    Shift=    0.000
 RMSDP=4.01D-05 MaxDP=4.65D-03 DE=-4.77D-04 OVMax= 4.29D-03

 Cycle   5  Pass 0  IDiag  1:
 RMSU=  1.82D-05    CP:  9.88D-01  8.43D-01  9.11D-01  6.12D-01
 E= -5017.27327021088     Delta-E=       -0.001300345071 Rises=F Damp=F
 DIIS: error= 1.04D-04 at cycle   5 NSaved=   5.
 NSaved= 5 IEnMin= 5 EnMin= -5017.27327021088     IErMin= 5 ErrMin= 1.04D-04
 ErrMax= 1.04D-04  0.00D+00 EMaxC= 1.00D-01 BMatC= 3.96D-05 BMatP= 1.69D-03
 IDIUse=3 WtCom= 9.99D-01 WtEn= 1.04D-03
 Coeff-Com:  0.445D-03-0.166D-02 0.149D+00 0.193D+00 0.659D+00
 Coeff-En:   0.000D+00 0.000D+00 0.000D+00 0.000D+00 0.100D+01
 Coeff:      0.445D-03-0.166D-02 0.149D+00 0.193D+00 0.660D+00
 Gap=     0.218 Goal=   None    Shift=    0.000
 RMSDP=8.44D-06 MaxDP=1.11D-03 DE=-1.30D-03 OVMax= 1.20D-03

 Cycle   6  Pass 0  IDiag  1:
 RMSU=  5.77D-06    CP:  9.88D-01  8.42D-01  9.21D-01  5.95D-01  7.20D-01
 E= -5017.27330168110     Delta-E=       -0.000031470221 Rises=F Damp=F
 DIIS: error= 7.07D-05 at cycle   6 NSaved=   6.
 NSaved= 6 IEnMin= 6 EnMin= -5017.27330168110     IErMin= 6 ErrMin= 7.07D-05
 ErrMax= 7.07D-05  0.00D+00 EMaxC= 1.00D-01 BMatC= 3.86D-06 BMatP= 3.96D-05
 IDIUse=1 WtCom= 1.00D+00 WtEn= 0.00D+00
 Coeff-Com:  0.724D-04-0.190D-02 0.339D-01 0.466D-01 0.275D+00 0.646D+00
 Coeff:      0.724D-04-0.190D-02 0.339D-01 0.466D-01 0.275D+00 0.646D+00
 Gap=     0.218 Goal=   None    Shift=    0.000
 RMSDP=2.32D-06 MaxDP=4.23D-04 DE=-3.15D-05 OVMax= 3.63D-04

 Initial convergence to 1.0D-05 achieved.  Increase integral accuracy.
 Cycle   7  Pass 1  IDiag  1:
 E= -5017.27408522520     Delta-E=       -0.000783544101 Rises=F Damp=F
 DIIS: error= 3.83D-05 at cycle   1 NSaved=   1.
 NSaved= 1 IEnMin= 1 EnMin= -5017.27408522520     IErMin= 1 ErrMin= 3.83D-05
 ErrMax= 3.83D-05  0.00D+00 EMaxC= 1.00D-01 BMatC= 1.72D-06 BMatP= 1.72D-06
 IDIUse=1 WtCom= 1.00D+00 WtEn= 0.00D+00
 Coeff-Com:  0.100D+01
 Coeff:      0.100D+01
 Gap=     0.218 Goal=   None    Shift=    0.000
 RMSDP=2.32D-06 MaxDP=4.23D-04 DE=-7.84D-04 OVMax= 1.94D-04

 Cycle   8  Pass 1  IDiag  1:
 RMSU=  4.91D-06    CP:  1.00D+00
 E= -5017.27408683974     Delta-E=       -0.000001614544 Rises=F Damp=F
 DIIS: error= 1.30D-05 at cycle   2 NSaved=   2.
 NSaved= 2 IEnMin= 2 EnMin= -5017.27408683974     IErMin= 2 ErrMin= 1.30D-05
 ErrMax= 1.30D-05  0.00D+00 EMaxC= 1.00D-01 BMatC= 3.08D-07 BMatP= 1.72D-06
 IDIUse=1 WtCom= 1.00D+00 WtEn= 0.00D+00
 Coeff-Com:  0.212D+00 0.788D+00
 Coeff:      0.212D+00 0.788D+00
 Gap=     0.218 Goal=   None    Shift=    0.000
 RMSDP=8.51D-07 MaxDP=1.14D-04 DE=-1.61D-06 OVMax= 8.61D-05

 Cycle   9  Pass 1  IDiag  1:
 RMSU=  8.50D-07    CP:  1.00D+00  9.93D-01
 E= -5017.27408690600     Delta-E=       -0.000000066255 Rises=F Damp=F
 DIIS: error= 1.20D-05 at cycle   3 NSaved=   3.
 NSaved= 3 IEnMin= 3 EnMin= -5017.27408690600     IErMin= 3 ErrMin= 1.20D-05
 ErrMax= 1.20D-05  0.00D+00 EMaxC= 1.00D-01 BMatC= 2.26D-07 BMatP= 3.08D-07
 IDIUse=1 WtCom= 1.00D+00 WtEn= 0.00D+00
 Coeff-Com: -0.560D-02 0.461D+00 0.544D+00
 Coeff:     -0.560D-02 0.461D+00 0.544D+00
 Gap=     0.218 Goal=   None    Shift=    0.000
 RMSDP=3.84D-07 MaxDP=5.78D-05 DE=-6.63D-08 OVMax= 4.52D-05

 Cycle  10  Pass 1  IDiag  1:
 RMSU=  1.15D-07    CP:  1.00D+00  1.01D+00  5.82D-01
 E= -5017.27408706749     Delta-E=       -0.000000161492 Rises=F Damp=F
 DIIS: error= 1.07D-06 at cycle   4 NSaved=   4.
 NSaved= 4 IEnMin= 4 EnMin= -5017.27408706749     IErMin= 4 ErrMin= 1.07D-06
 ErrMax= 1.07D-06  0.00D+00 EMaxC= 1.00D-01 BMatC= 1.66D-09 BMatP= 2.26D-07
 IDIUse=1 WtCom= 1.00D+00 WtEn= 0.00D+00
 Coeff-Com: -0.497D-02 0.206D+00 0.253D+00 0.547D+00
 Coeff:     -0.497D-02 0.206D+00 0.253D+00 0.547D+00
 Gap=     0.218 Goal=   None    Shift=    0.000
 RMSDP=4.92D-08 MaxDP=8.92D-06 DE=-1.61D-07 OVMax= 8.00D-06

 Cycle  11  Pass 1  IDiag  1:
 RMSU=  3.35D-08    CP:  1.00D+00  1.01D+00  5.78D-01  6.95D-01
 E= -5017.27408706884     Delta-E=       -0.000000001350 Rises=F Damp=F
 DIIS: error= 1.68D-07 at cycle   5 NSaved=   5.
 NSaved= 5 IEnMin= 5 EnMin= -5017.27408706884     IErMin= 5 ErrMin= 1.68D-07
 ErrMax= 1.68D-07  0.00D+00 EMaxC= 1.00D-01 BMatC= 7.10D-11 BMatP= 1.66D-09
 IDIUse=1 WtCom= 1.00D+00 WtEn= 0.00D+00
 Coeff-Com: -0.174D-02 0.590D-01 0.740D-01 0.225D+00 0.644D+00
 Coeff:     -0.174D-02 0.590D-01 0.740D-01 0.225D+00 0.644D+00
 Gap=     0.218 Goal=   None    Shift=    0.000
 RMSDP=9.26D-09 MaxDP=7.55D-07 DE=-1.35D-09 OVMax= 8.10D-07

 SCF Done:  E(RPBE1PBE) =  -5017.27408707     A.U. after   11 cycles
            NFock= 11  Conv=0.93D-08     -V/T= 2.0027
 KE= 5.003679417441D+03 PE=-2.456709674048D+04 EE= 8.246574789731D+03
 Leave Link  502 at Wed May  2 22:07:02 2018, MaxMem= 14763950080 cpu:      8143.7
 (Enter /cm/shared/gaussian/g09.e01/intel64-sandybridge/g09/l601.exe)
 Copying SCF densities to generalized density rwf, IOpCl= 0 IROHF=0.

 **********************************************************************

            Population analysis using the SCF density.

 **********************************************************************

 Alpha  occ. eigenvalues -- -483.18091 -62.58437 -56.35677 -56.35659 -56.35653
 Alpha  occ. eigenvalues --  -19.22079 -19.18583 -19.17946 -19.16329 -19.16135
 Alpha  occ. eigenvalues --  -19.15837 -19.15536 -19.14374 -19.13914 -19.13515
 Alpha  occ. eigenvalues --  -19.13310 -19.13224 -19.13119 -19.12437 -19.12109
 Alpha  occ. eigenvalues --  -19.12099 -19.11481 -19.11442 -19.10791 -19.10078
 Alpha  occ. eigenvalues --  -19.09850 -19.09517 -19.08743 -19.08632 -19.08354
 Alpha  occ. eigenvalues --  -19.08082 -19.07555 -19.07446 -19.05904 -19.05861
 Alpha  occ. eigenvalues --  -19.03291 -19.03174  -8.68822  -6.49201  -6.49112
 Alpha  occ. eigenvalues --   -6.49083  -2.57477  -2.57458  -2.57432  -2.57361
 Alpha  occ. eigenvalues --   -2.57358  -1.04635  -1.01279  -1.00547  -1.00147
 Alpha  occ. eigenvalues --   -0.99912  -0.98252  -0.98158  -0.97173  -0.97011
 Alpha  occ. eigenvalues --   -0.96412  -0.96255  -0.96001  -0.95507  -0.95383
 Alpha  occ. eigenvalues --   -0.94646  -0.94493  -0.94467  -0.93993  -0.93457
 Alpha  occ. eigenvalues --   -0.93048  -0.92283  -0.91835  -0.91321  -0.91161
 Alpha  occ. eigenvalues --   -0.90775  -0.90537  -0.89954  -0.89829  -0.88464
 Alpha  occ. eigenvalues --   -0.88192  -0.86442  -0.86308  -0.68928  -0.54263
 Alpha  occ. eigenvalues --   -0.52005  -0.51396  -0.51032  -0.50848  -0.49629
 Alpha  occ. eigenvalues --   -0.49044  -0.48367  -0.48116  -0.47557  -0.47301
 Alpha  occ. eigenvalues --   -0.46927  -0.45954  -0.45789  -0.45690  -0.45622
 Alpha  occ. eigenvalues --   -0.45084  -0.44623  -0.44410  -0.44131  -0.43482
 Alpha  occ. eigenvalues --   -0.43266  -0.42580  -0.42522  -0.42060  -0.41934
 Alpha  occ. eigenvalues --   -0.41699  -0.41171  -0.40955  -0.40050  -0.39316
 Alpha  occ. eigenvalues --   -0.39086  -0.39005  -0.38542  -0.37982  -0.37287
 Alpha  occ. eigenvalues --   -0.36585  -0.35132  -0.34838  -0.34421  -0.33443
 Alpha  occ. eigenvalues --   -0.33217  -0.32824  -0.32347  -0.32220  -0.31930
 Alpha  occ. eigenvalues --   -0.31230  -0.31132  -0.30878  -0.30692  -0.30586
 Alpha  occ. eigenvalues --   -0.29822  -0.29175  -0.28877  -0.28787  -0.28547
 Alpha  occ. eigenvalues --   -0.28307  -0.28154  -0.28076  -0.27891  -0.27711
 Alpha  occ. eigenvalues --   -0.27656  -0.27104  -0.26832  -0.26750  -0.26396
 Alpha  occ. eigenvalues --   -0.25873  -0.25284  -0.25183  -0.25074  -0.24822
 Alpha  occ. eigenvalues --   -0.24415  -0.24326  -0.24082  -0.23823  -0.23556
 Alpha  occ. eigenvalues --   -0.23231  -0.23160  -0.22811  -0.22644  -0.22583
 Alpha  occ. eigenvalues --   -0.22199  -0.21987  -0.21422  -0.21214  -0.20968
 Alpha  occ. eigenvalues --   -0.20942  -0.20415  -0.20283  -0.19982  -0.19780
 Alpha  occ. eigenvalues --   -0.19658  -0.18858  -0.18748  -0.18403  -0.16803
 Alpha  occ. eigenvalues --   -0.16561  -0.15010  -0.14915
 Alpha virt. eigenvalues --    0.06869   0.08449   0.09281   0.09493   0.12119
 Alpha virt. eigenvalues --    0.13233   0.13733   0.14236   0.14605   0.15566
 Alpha virt. eigenvalues --    0.15885   0.16332   0.16805   0.17162   0.18290
 Alpha virt. eigenvalues --    0.18912   0.19169   0.19583   0.19714   0.20335
 Alpha virt. eigenvalues --    0.20661   0.20901   0.21520   0.21671   0.22583
 Alpha virt. eigenvalues --    0.23242   0.23654   0.24458   0.25074   0.25615
 Alpha virt. eigenvalues --    0.26156   0.26349   0.27073   0.27161   0.27652
 Alpha virt. eigenvalues --    0.28238   0.28512   0.28955   0.29938   0.30125
 Alpha virt. eigenvalues --    0.30960   0.31412   0.31602   0.31914   0.32024
 Alpha virt. eigenvalues --    0.32840   0.33296   0.33632   0.33759   0.34515
 Alpha virt. eigenvalues --    0.35040   0.35728   0.36272   0.36712   0.37130
 Alpha virt. eigenvalues --    0.37380   0.37809   0.37963   0.38513   0.38992
 Alpha virt. eigenvalues --    0.39937   0.40861   0.41821   0.42772   0.55767
 Alpha virt. eigenvalues --    0.56127   0.56806   0.58551   0.58696   0.60228
 Alpha virt. eigenvalues --    0.61156   0.61528   0.61924   0.62446   0.62780
 Alpha virt. eigenvalues --    0.63230   0.63863   0.64075   0.64503   0.65276
 Alpha virt. eigenvalues --    0.65478   0.66046   0.66488   0.66606   0.66950
 Alpha virt. eigenvalues --    0.67156   0.67294   0.67736   0.68087   0.68166
 Alpha virt. eigenvalues --    0.68771   0.69061   0.69191   0.69353   0.69711
 Alpha virt. eigenvalues --    0.70172   0.70741   0.70828   0.71235   0.71410
 Alpha virt. eigenvalues --    0.72005   0.72492   0.72635   0.73050   0.73190
 Alpha virt. eigenvalues --    0.73337   0.73480   0.73846   0.74174   0.74533
 Alpha virt. eigenvalues --    0.74950   0.74974   0.75811   0.76107   0.76398
 Alpha virt. eigenvalues --    0.76500   0.77077   0.77296   0.77616   0.78654
 Alpha virt. eigenvalues --    0.79272   0.79594   0.79719   0.80159   0.81062
 Alpha virt. eigenvalues --    0.81578   0.82069   0.82496   0.83260   0.83757
 Alpha virt. eigenvalues --    0.85019   0.85806   0.86889   0.88566   0.90321
 Alpha virt. eigenvalues --    0.93349   0.94046   0.94309   0.94928   0.95317
 Alpha virt. eigenvalues --    0.95551   0.96471   0.97257   0.97328   0.98267
 Alpha virt. eigenvalues --    0.98342   0.98920   0.99244   0.99674   0.99817
 Alpha virt. eigenvalues --    1.00137   1.00965   1.01191   1.01383   1.01444
 Alpha virt. eigenvalues --    1.01806   1.02295   1.02703   1.02965   1.03044
 Alpha virt. eigenvalues --    1.03680   1.03843   1.04011   1.04461   1.04953
 Alpha virt. eigenvalues --    1.05008   1.05241   1.05445   1.06033   1.06292
 Alpha virt. eigenvalues --    1.06784   1.06994   1.07352   1.07437   1.07723
 Alpha virt. eigenvalues --    1.07883   1.08336   1.09254   1.09411   1.09840
 Alpha virt. eigenvalues --    1.10052   1.10174   1.10674   1.10873   1.11104
 Alpha virt. eigenvalues --    1.11565   1.11706   1.11962   1.12157   1.12696
 Alpha virt. eigenvalues --    1.12717   1.13170   1.13334   1.13927   1.14006
 Alpha virt. eigenvalues --    1.14825   1.15074   1.15157   1.15403   1.15700
 Alpha virt. eigenvalues --    1.15908   1.16306   1.16591   1.17151   1.17499
 Alpha virt. eigenvalues --    1.17726   1.18768   1.18968   1.19284   1.20242
 Alpha virt. eigenvalues --    1.20626   1.21132   1.21239   1.21630   1.22203
 Alpha virt. eigenvalues --    1.22354   1.22812   1.22993   1.23892   1.24433
 Alpha virt. eigenvalues --    1.24898   1.25075   1.25248   1.25625   1.26301
 Alpha virt. eigenvalues --    1.26387   1.26958   1.27071   1.27588   1.28003
 Alpha virt. eigenvalues --    1.28632   1.28950   1.29218   1.29462   1.29916
 Alpha virt. eigenvalues --    1.30487   1.30631   1.30918   1.31193   1.31541
 Alpha virt. eigenvalues --    1.31833   1.32250   1.32452   1.32652   1.33048
 Alpha virt. eigenvalues --    1.33148   1.33633   1.33948   1.34021   1.34530
 Alpha virt. eigenvalues --    1.35065   1.35199   1.35495   1.35667   1.35988
 Alpha virt. eigenvalues --    1.36097   1.36325   1.36973   1.37449   1.37621
 Alpha virt. eigenvalues --    1.37774   1.38327   1.38506   1.38792   1.39048
 Alpha virt. eigenvalues --    1.39270   1.39437   1.39732   1.39858   1.40671
 Alpha virt. eigenvalues --    1.40691   1.41304   1.41453   1.41608   1.42040
 Alpha virt. eigenvalues --    1.42482   1.42931   1.43645   1.43776   1.44241
 Alpha virt. eigenvalues --    1.44613   1.45014   1.45464   1.45889   1.46890
 Alpha virt. eigenvalues --    1.47128   1.47494   1.47736   1.48513   1.49144
 Alpha virt. eigenvalues --    1.49950   1.50093   1.50288   1.51411   1.51798
 Alpha virt. eigenvalues --    1.52098   1.52716   1.52887   1.53370   1.53939
 Alpha virt. eigenvalues --    1.54713   1.55051   1.55158   1.55626   1.55830
 Alpha virt. eigenvalues --    1.56665   1.56922   1.57541   1.57867   1.58088
 Alpha virt. eigenvalues --    1.58751   1.58915   1.59735   1.59960   1.60331
 Alpha virt. eigenvalues --    1.60802   1.61053   1.61821   1.62150   1.62319
 Alpha virt. eigenvalues --    1.62802   1.63436   1.63768   1.64168   1.64994
 Alpha virt. eigenvalues --    1.65699   1.66653   1.66973   1.67665   1.69591
 Alpha virt. eigenvalues --    1.69755   1.70485   1.71593   1.72225   1.72528
 Alpha virt. eigenvalues --    1.73494   1.74830   1.75284   1.75709   1.76290
 Alpha virt. eigenvalues --    1.76559   1.77028   1.77196   1.78036   1.78417
 Alpha virt. eigenvalues --    1.78599   1.79155   1.79474   1.79713   1.80120
 Alpha virt. eigenvalues --    1.80371   1.80946   1.81258   1.81921   1.82402
 Alpha virt. eigenvalues --    1.82874   1.83529   1.83971   1.84104   1.84867
 Alpha virt. eigenvalues --    1.85311   1.85616   1.85995   1.86287   1.86628
 Alpha virt. eigenvalues --    1.87194   1.88204   1.88408   1.88858   1.89606
 Alpha virt. eigenvalues --    1.90339   1.90924   1.91079   1.92163   1.92244
 Alpha virt. eigenvalues --    1.92688   1.93673   1.93897   1.94138   1.95476
 Alpha virt. eigenvalues --    1.96911   1.97606   1.97804   1.99106   2.00079
 Alpha virt. eigenvalues --    2.01555   2.02152   2.02789   2.03403   2.04062
 Alpha virt. eigenvalues --    2.05606   2.07075   2.10992   2.15042   2.15149
 Alpha virt. eigenvalues --    2.18017   2.18446   2.20752   2.21024   2.21443
 Alpha virt. eigenvalues --    2.21766   2.21807   2.22083   2.22598   2.23819
 Alpha virt. eigenvalues --    2.23942   2.24334   2.24666   2.25316   2.25599
 Alpha virt. eigenvalues --    2.25878   2.26357   2.26554   2.27000   2.27762
 Alpha virt. eigenvalues --    2.28101   2.28218   2.28682   2.28773   2.29112
 Alpha virt. eigenvalues --    2.30093   2.31279   2.31431   2.31705   2.32183
 Alpha virt. eigenvalues --    2.33258   2.33857   2.34950   2.35641   2.36228
 Alpha virt. eigenvalues --    2.36928   2.37464   2.37595   2.38224   2.40461
 Alpha virt. eigenvalues --    2.41623   2.42353   2.42917   2.43064   2.44508
 Alpha virt. eigenvalues --    2.44615   2.47976   2.49004   2.49292   2.50530
 Alpha virt. eigenvalues --    2.51511   2.53351   2.54008   2.56337   2.56670
 Alpha virt. eigenvalues --    2.59743   2.61525   2.61643   2.64016   2.65604
 Alpha virt. eigenvalues --    2.67009   2.76686   2.94415   2.95201   2.95379
 Alpha virt. eigenvalues --    2.96503   2.97371   2.98153   2.98339   2.98777
 Alpha virt. eigenvalues --    2.99080   2.99426   2.99973   3.00438   3.00665
 Alpha virt. eigenvalues --    3.00741   3.00933   3.01107   3.01272   3.01489
 Alpha virt. eigenvalues --    3.01612   3.01907   3.02132   3.02802   3.02911
 Alpha virt. eigenvalues --    3.03104   3.03618   3.03751   3.03839   3.04040
 Alpha virt. eigenvalues --    3.04422   3.04832   3.04978   3.05694   3.05784
 Alpha virt. eigenvalues --    3.05820   3.06257   3.06324   3.06584   3.06830
 Alpha virt. eigenvalues --    3.06933   3.07255   3.07512   3.07544   3.07827
 Alpha virt. eigenvalues --    3.07910   3.08397   3.08625   3.09024   3.09150
 Alpha virt. eigenvalues --    3.09497   3.09892   3.10095   3.10112   3.10244
 Alpha virt. eigenvalues --    3.10311   3.10626   3.11367   3.11556   3.11923
 Alpha virt. eigenvalues --    3.13203   3.13695   3.14020   3.14583   3.16356
 Alpha virt. eigenvalues --    3.16435   3.17033   3.17132   3.19315   3.21396
 Alpha virt. eigenvalues --    3.21938   3.22817   3.22910   3.23146   3.23600
 Alpha virt. eigenvalues --    3.24108   3.24420   3.24637   3.25235   3.25794
 Alpha virt. eigenvalues --    3.25944   3.26340   3.26512   3.26589   3.26805
 Alpha virt. eigenvalues --    3.27481   3.27656   3.28216   3.28394   3.28508
 Alpha virt. eigenvalues --    3.29674   3.29911   3.30283   3.30979   3.31180
 Alpha virt. eigenvalues --    3.33046   3.33452   3.33615   3.50724   3.52099
 Alpha virt. eigenvalues --    3.57357   3.57861   3.58009   3.58661   3.58823
 Alpha virt. eigenvalues --    3.59176   3.60055   3.60775   3.61274   3.61957
 Alpha virt. eigenvalues --    3.62229   3.63221   3.63757   3.63984   3.64383
 Alpha virt. eigenvalues --    3.64648   3.64890   3.65429   3.65793   3.66339
 Alpha virt. eigenvalues --    3.67101   3.67432   3.67975   3.68316   3.69114
 Alpha virt. eigenvalues --    3.69834   3.70373   3.72204   3.74464   3.74973
 Alpha virt. eigenvalues --    3.78870   3.79258   3.80953   3.85073   3.86452
 Alpha virt. eigenvalues --    3.86838   3.87074   3.87318   3.88158   3.88851
 Alpha virt. eigenvalues --    3.89103   3.89599   3.90072   3.90606   3.91150
 Alpha virt. eigenvalues --    3.91727   3.92384   3.92579   3.92892   3.93962
 Alpha virt. eigenvalues --    3.94471   3.94494   3.95273   3.96224   3.97006
 Alpha virt. eigenvalues --    3.97689   3.98327   3.98877   3.99686   4.00069
 Alpha virt. eigenvalues --    4.01255   4.02848
          Condensed to atoms (all electrons):
 Mulliken charges:
               1
     1  Br  -0.710151
     2  O   -0.271865
     3  H    0.121654
     4  H    0.177332
     5  O   -0.244092
     6  H    0.159263
     7  H    0.125703
     8  O   -0.275207
     9  H    0.146550
    10  H    0.139526
    11  O   -0.242410
    12  H    0.153425
    13  H    0.140806
    14  O   -0.261714
    15  H    0.128472
    16  H    0.142352
    17  O   -0.259147
    18  H    0.135576
    19  H    0.131726
    20  O   -0.292741
    21  H    0.132644
    22  H    0.142586
    23  O   -0.248880
    24  H    0.134954
    25  H    0.126548
    26  O   -0.335275
    27  H    0.115862
    28  H    0.124378
    29  O   -0.292775
    30  H    0.132214
    31  H    0.106583
    32  O   -0.255346
    33  H    0.134179
    34  H    0.130316
    35  O   -0.329913
    36  H    0.116284
    37  H    0.131171
    38  O   -0.242790
    39  H    0.137612
    40  H    0.120724
    41  O   -0.278164
    42  H    0.130305
    43  H    0.118580
    44  O   -0.304663
    45  H    0.133674
    46  H    0.142404
    47  O   -0.342054
    48  H    0.135668
    49  H    0.156886
    50  O   -0.276769
    51  H    0.098349
    52  H    0.126711
    53  O   -0.312083
    54  H    0.116298
    55  H    0.133956
    56  O   -0.301515
    57  H    0.143499
    58  H    0.132861
    59  O   -0.207972
    60  H    0.177243
    61  H    0.163232
    62  O   -0.252316
    63  H    0.140828
    64  H    0.136756
    65  O   -0.274689
    66  H    0.115454
    67  H    0.132994
    68  O   -0.314837
    69  H    0.136991
    70  H    0.133127
    71  O   -0.300492
    72  H    0.112416
    73  H    0.132538
    74  O   -0.231263
    75  H    0.142436
    76  H    0.121178
    77  O   -0.241067
    78  H    0.126759
    79  H    0.125159
    80  O   -0.312146
    81  H    0.107555
    82  H    0.145194
    83  O   -0.345605
    84  H    0.126154
    85  H    0.128011
    86  O   -0.241545
    87  H    0.143306
    88  H    0.143506
    89  O   -0.220686
    90  H    0.144184
    91  H    0.151902
    92  O   -0.262058
    93  H    0.143650
    94  H    0.132980
    95  O   -0.292754
    96  H    0.114616
    97  H    0.139183
 Sum of Mulliken charges =  -1.00000
 Mulliken charges with hydrogens summed into heavy atoms:
               1
     1  Br  -0.710151
     2  O    0.027122
     5  O    0.040873
     8  O    0.010869
    11  O    0.051821
    14  O    0.009111
    17  O    0.008156
    20  O   -0.017510
    23  O    0.012622
    26  O   -0.095036
    29  O   -0.053979
    32  O    0.009149
    35  O   -0.082459
    38  O    0.015546
    41  O   -0.029279
    44  O   -0.028585
    47  O   -0.049501
    50  O   -0.051709
    53  O   -0.061828
    56  O   -0.025155
    59  O    0.132503
    62  O    0.025268
    65  O   -0.026241
    68  O   -0.044719
    71  O   -0.055538
    74  O    0.032350
    77  O    0.010851
    80  O   -0.059397
    83  O   -0.091440
    86  O    0.045267
    89  O    0.075400
    92  O    0.014572
    95  O   -0.038954
         Mulliken charges condensed to fragments:
      1     -0.710151
      2     -0.289849
 Electronic spatial extent (au):  <R**2>=        1558777.7657
 Charge=             -1.0000 electrons
 Dipole moment (field-independent basis, Debye):
    X=            -93.9923    Y=            -95.8144    Z=           -104.0318  Tot=            169.8163
 Quadrupole moment (field-independent basis, Debye-Ang):
   XX=          -2129.4088   YY=          -2160.3527   ZZ=          -2515.9786
   XY=          -1759.9339   XZ=          -2003.5075   YZ=          -2115.9896
 Traceless Quadrupole moment (field-independent basis, Debye-Ang):
   XX=            139.1712   YY=            108.2273   ZZ=           -247.3986
   XY=          -1759.9339   XZ=          -2003.5075   YZ=          -2115.9896
 Octapole moment (field-independent basis, Debye-Ang**2):
  XXX=         -53280.0518  YYY=         -53230.9070  ZZZ=         -64865.4588  XYY=         -37699.7870
  XXY=         -37777.3618  XXZ=         -44377.4085  XZZ=         -48113.7723  YZZ=         -51752.9372
  YYZ=         -47917.8191  XYZ=         -38568.9597
 Hexadecapole moment (field-independent basis, Debye-Ang**3):
 XXXX=       -1402072.0134 YYYY=       -1380410.2079 ZZZZ=       -1720821.9833 XXXY=        -917007.2993
 XXXZ=       -1087247.7380 YYYX=        -902715.3517 YYYZ=       -1172259.1632 ZZZX=       -1240846.5348
 ZZZY=       -1339982.6857 XXYY=        -759115.0372 XXZZ=       -1039415.5786 YYZZ=       -1162884.4209
 XXYZ=        -811066.4681 YYXZ=        -836927.8857 ZZXY=        -947785.4001
 N-N= 6.299568446236D+03 E-N=-2.456709672171D+04  KE= 5.003679417441D+03
 No NMR shielding tensors so no spin-rotation constants.
 Leave Link  601 at Wed May  2 22:07:05 2018, MaxMem= 14763950080 cpu:        71.9
 (Enter /cm/shared/gaussian/g09.e01/intel64-sandybridge/g09/l701.exe)
 Compute integral first derivatives.
 ... and contract with generalized density number  0.
 Leave Link  701 at Wed May  2 22:07:07 2018, MaxMem= 14763950080 cpu:       130.0
 (Enter /cm/shared/gaussian/g09.e01/intel64-sandybridge/g09/l702.exe)
 L702 exits ... SP integral derivatives will be done elsewhere.
 Leave Link  702 at Wed May  2 22:07:07 2018, MaxMem= 14763950080 cpu:         1.7
 (Enter /cm/shared/gaussian/g09.e01/intel64-sandybridge/g09/l703.exe)
 Compute integral first derivatives, UseDBF=F ICtDFT=           0.
 Integral derivatives from FoFJK, PRISM(SPDF).
 Calling FoFJK, ICntrl=      2127 FMM=T ISym2X=0 I1Cent= 0 IOpClX= 0 NMat=1 NMatS=1 NMatT=0.
 FoFJK:  IHMeth= 1 ICntrl=    2127 DoSepK=F KAlg= 0 I1Cent=   0 FoldK=F
 IRaf=         0 NMat=   1 IRICut=       1 DoRegI=T DoRafI=F ISym2E= 0.
 FoFCou: FMM=T IPFlag=           0 FMFlag=      100000 FMFlg1=        2001
         NFxFlg=           0 DoJE=F BraDBF=F KetDBF=F FulRan=T
         wScrn=  0.000000 ICntrl=    2127 IOpCl=  0 I1Cent=           0 NGrid=           0
         NMat0=    1 NMatS0=      1 NMatT0=    0 NMatD0=    1 NMtDS0=    0 NMtDT0=    0
 Symmetry not used in FoFCou.
 FMM levels:  10  Number of levels for PrismC:   9
 Leave Link  703 at Wed May  2 22:07:25 2018, MaxMem= 14763950080 cpu:      1131.4
 (Enter /cm/shared/gaussian/g09.e01/intel64-sandybridge/g09/l716.exe)
 Dipole        =-3.69794271D+01-3.76962704D+01-4.09292692D+01
 Cartesian Forces:  Max     0.038476498 RMS     0.009805946
 Leave Link  716 at Wed May  2 22:07:25 2018, MaxMem= 14763950080 cpu:         3.5
 (Enter /cm/shared/gaussian/g09.e01/intel64-sandybridge/g09/l122.exe)
 CPIOFr:  IOpCl= 0 IRwI=-1 IRwCP=  731 ICalc= -1 LCPTot=     1005244 Len1MO=     2550559 IndFrg=     1005244
 CPIOFr:  IOpCl= 0 IRwI=-1 IRwCP=  731 ICalc=  0 LCPTot=     1005244 Len1MO=     2550559 IndFrg=     3555803
 Counterpoise: doing DCBS calculation for fragment   1 NewBq=T
 Leave Link  122 at Wed May  2 22:07:25 2018, MaxMem= 14763950080 cpu:         7.0
 (Enter /cm/shared/gaussian/g09.e01/intel64-sandybridge/g09/l301.exe)
 Basis read from rwf:  (5D, 7F)
 No pseudopotential information found on rwf file.
   795 basis functions,  1651 primitive gaussians,   829 cartesian basis functions
    18 alpha electrons       18 beta electrons
       nuclear repulsion energy         0.0000000000 Hartrees.
 IExCor= 1009 DFT=T Ex+Corr=PBE1PBE ExCW=0 ScaHFX=  0.250000
 ScaDFX=  0.750000  0.750000  1.000000  1.000000 ScalE2=  1.000000  1.000000
 IRadAn=      0 IRanWt=     -1 IRanGd=            0 ICorTp=0 IEmpDi=  4
 NAtoms=   97 NActive=   97 NUniq=   97 SFac= 1.00D+00 NAtFMM=   60 NAOKFM=T Big=T
 Integral buffers will be    131072 words long.
 Raffenetti 2 integral format.
 Two-electron integral symmetry is turned off.
 No density basis found on file   718.
 Leave Link  301 at Wed May  2 22:07:26 2018, MaxMem= 14763950080 cpu:         4.7
 (Enter /cm/shared/gaussian/g09.e01/intel64-sandybridge/g09/l302.exe)
 NPDir=0 NMtPBC=     1 NCelOv=     1 NCel=       1 NClECP=     1 NCelD=      1
         NCelK=      1 NCelE2=     1 NClLst=     1 CellRange=     0.0.
 One-electron integrals computed using PRISM.
 NBasis=   795 RedAO= T EigKep=  1.41D-02  NBF=   795
 NBsUse=   795 1.00D-06 EigRej= -1.00D+00 NBFU=   795
 Precomputing XC quadrature grid using
 IXCGrd= 4 IRadAn=           0 IRanWt=          -1 IRanGd=           0 AccXCQ= 0.00D+00.
 Generated NRdTot=       0 NPtTot=           0 NUsed=           0 NTot=          32
 NSgBfM=   760   760   760   764   770 MxSgAt=    97 MxSgA2=    97.
 Leave Link  302 at Wed May  2 22:07:29 2018, MaxMem= 14763950080 cpu:       247.3
 (Enter /cm/shared/gaussian/g09.e01/intel64-sandybridge/g09/l303.exe)
 DipDrv:  MaxL=1.
 Leave Link  303 at Wed May  2 22:07:30 2018, MaxMem= 14763950080 cpu:        29.0
 (Enter /cm/shared/gaussian/g09.e01/intel64-sandybridge/g09/l401.exe)
 ExpMin= 1.22D-01 ExpMax= 6.40D+05 ExpMxC= 6.18D+03 IAcc=2 IRadAn=         4 AccDes= 0.00D+00
 Harris functional with IExCor= 1009 and IRadAn=       4 diagonalized for initial guess.
 HarFok:  IExCor= 1009 AccDes= 0.00D+00 IRadAn=         4 IDoV= 1 UseB2=F ITyADJ=14
 ICtDFT=  3500011 ScaDFX=  1.000000  1.000000  1.000000  1.000000
 FoFCou: FMM=F IPFlag=           0 FMFlag=      100000 FMFlg1=        2001
         NFxFlg=           0 DoJE=T BraDBF=F KetDBF=T FulRan=T
         wScrn=  0.000000 ICntrl=     500 IOpCl=  0 I1Cent=   200000004 NGrid=           0
         NMat0=    1 NMatS0=      1 NMatT0=    0 NMatD0=    1 NMtDS0=    0 NMtDT0=    0
 Symmetry not used in FoFCou.
 Harris En= -2574.02017697336    
 JPrj=0 DoOrth=F DoCkMO=F.
 Leave Link  401 at Wed May  2 22:07:34 2018, MaxMem= 14763950080 cpu:       276.7
 (Enter /cm/shared/gaussian/g09.e01/intel64-sandybridge/g09/l502.exe)
 Closed shell SCF:
 Using DIIS extrapolation, IDIIS=  1040.
 Two-electron integral symmetry not used.
 IVT=     2138497 IEndB=     2138497 NGot= 14763950080 MDV= 14762516294
 LenX= 14762516294 LenY= 14761828224
 Requested convergence on RMS density matrix=1.00D-08 within 128 cycles.
 Requested convergence on MAX density matrix=1.00D-06.
 Requested convergence on             energy=1.00D-06.
 No special actions if energy rises.
 Fock matrices will be formed incrementally for  20 cycles.
 Integral accuracy reduced to 1.0D-05 until final iterations.

 Cycle   1  Pass 0  IDiag  1:
 FoFJK:  IHMeth= 1 ICntrl=       0 DoSepK=F KAlg= 0 I1Cent=   0 FoldK=F
 IRaf= 860000000 NMat=   1 IRICut=       1 DoRegI=T DoRafI=F ISym2E= 0.
 FoFCou: FMM=T IPFlag=           0 FMFlag=      100000 FMFlg1=        2001
         NFxFlg=           0 DoJE=F BraDBF=F KetDBF=F FulRan=T
         wScrn=  0.000000 ICntrl=       0 IOpCl=  0 I1Cent=           0 NGrid=           0
         NMat0=    1 NMatS0=      1 NMatT0=    0 NMatD0=    1 NMtDS0=    0 NMtDT0=    0
 Symmetry not used in FoFCou.
 FMM levels:  10  Number of levels for PrismC:   9
 E= -2573.87824970662    
 DIIS: error= 1.01D-02 at cycle   1 NSaved=   1.
 NSaved= 1 IEnMin= 1 EnMin= -2573.87824970662     IErMin= 1 ErrMin= 1.01D-02
 ErrMax= 1.01D-02  0.00D+00 EMaxC= 1.00D-01 BMatC= 3.93D-02 BMatP= 3.93D-02
 IDIUse=3 WtCom= 8.99D-01 WtEn= 1.01D-01
 Coeff-Com:  0.100D+01
 Coeff-En:   0.100D+01
 Coeff:      0.100D+01
 Gap=     0.182 Goal=   None    Shift=    0.000
 GapD=    0.182 DampG=1.000 DampE=0.500 DampFc=0.5000 IDamp=-1.
 Damping current iteration by 5.00D-01
 RMSDP=5.00D-04 MaxDP=6.62D-02              OVMax= 1.51D-01

 Cycle   2  Pass 0  IDiag  1:
 RMSU=  2.47D-04    CP:  9.94D-01
 E= -2573.89536482565     Delta-E=       -0.017115119024 Rises=F Damp=T
 DIIS: error= 5.93D-03 at cycle   2 NSaved=   2.
 NSaved= 2 IEnMin= 2 EnMin= -2573.89536482565     IErMin= 2 ErrMin= 5.93D-03
 ErrMax= 5.93D-03  0.00D+00 EMaxC= 1.00D-01 BMatC= 9.30D-03 BMatP= 3.93D-02
 IDIUse=3 WtCom= 9.41D-01 WtEn= 5.93D-02
 Coeff-Com: -0.574D+00 0.157D+01
 Coeff-En:   0.000D+00 0.100D+01
 Coeff:     -0.540D+00 0.154D+01
 Gap=     0.193 Goal=   None    Shift=    0.000
 RMSDP=1.81D-04 MaxDP=4.25D-02 DE=-1.71D-02 OVMax= 6.83D-02

 Cycle   3  Pass 0  IDiag  1:
 RMSU=  1.53D-04    CP:  9.93D-01  1.39D+00
 E= -2573.90905268879     Delta-E=       -0.013687863147 Rises=F Damp=F
 DIIS: error= 2.61D-03 at cycle   3 NSaved=   3.
 NSaved= 3 IEnMin= 3 EnMin= -2573.90905268879     IErMin= 3 ErrMin= 2.61D-03
 ErrMax= 2.61D-03  0.00D+00 EMaxC= 1.00D-01 BMatC= 2.66D-03 BMatP= 9.30D-03
 IDIUse=3 WtCom= 9.74D-01 WtEn= 2.61D-02
 Coeff-Com: -0.306D+00 0.725D+00 0.580D+00
 Coeff-En:   0.000D+00 0.000D+00 0.100D+01
 Coeff:     -0.298D+00 0.706D+00 0.591D+00
 Gap=     0.175 Goal=   None    Shift=    0.000
 RMSDP=7.24D-05 MaxDP=1.78D-02 DE=-1.37D-02 OVMax= 2.16D-02

 Cycle   4  Pass 0  IDiag  1:
 RMSU=  9.03D-06    CP:  9.91D-01  1.56D+00  6.24D-01
 E= -2573.91193068087     Delta-E=       -0.002877992072 Rises=F Damp=F
 DIIS: error= 6.81D-05 at cycle   4 NSaved=   4.
 NSaved= 4 IEnMin= 4 EnMin= -2573.91193068087     IErMin= 4 ErrMin= 6.81D-05
 ErrMax= 6.81D-05  0.00D+00 EMaxC= 1.00D-01 BMatC= 1.22D-06 BMatP= 2.66D-03
 IDIUse=1 WtCom= 1.00D+00 WtEn= 0.00D+00
 Coeff-Com: -0.157D-01 0.291D-01 0.342D-01 0.952D+00
 Coeff:     -0.157D-01 0.291D-01 0.342D-01 0.952D+00
 Gap=     0.177 Goal=   None    Shift=    0.000
 RMSDP=2.58D-06 MaxDP=3.98D-04 DE=-2.88D-03 OVMax= 6.79D-04

 Initial convergence to 1.0D-05 achieved.  Increase integral accuracy.
 Cycle   5  Pass 1  IDiag  1:
 E= -2573.91284787327     Delta-E=       -0.000917192398 Rises=F Damp=F
 DIIS: error= 8.77D-06 at cycle   1 NSaved=   1.
 NSaved= 1 IEnMin= 1 EnMin= -2573.91284787327     IErMin= 1 ErrMin= 8.77D-06
 ErrMax= 8.77D-06  0.00D+00 EMaxC= 1.00D-01 BMatC= 9.59D-08 BMatP= 9.59D-08
 IDIUse=1 WtCom= 1.00D+00 WtEn= 0.00D+00
 Coeff-Com:  0.100D+01
 Coeff:      0.100D+01
 Gap=     0.177 Goal=   None    Shift=    0.000
 RMSDP=2.58D-06 MaxDP=3.98D-04 DE=-9.17D-04 OVMax= 2.91D-04

 Cycle   6  Pass 1  IDiag  1:
 RMSU=  1.38D-06    CP:  1.00D+00
 E= -2573.91284805057     Delta-E=       -0.000000177306 Rises=F Damp=F
 DIIS: error= 5.65D-06 at cycle   2 NSaved=   2.
 NSaved= 2 IEnMin= 2 EnMin= -2573.91284805057     IErMin= 2 ErrMin= 5.65D-06
 ErrMax= 5.65D-06  0.00D+00 EMaxC= 1.00D-01 BMatC= 1.89D-08 BMatP= 9.59D-08
 IDIUse=1 WtCom= 1.00D+00 WtEn= 0.00D+00
 Coeff-Com:  0.253D+00 0.747D+00
 Coeff:      0.253D+00 0.747D+00
 Gap=     0.177 Goal=   None    Shift=    0.000
 RMSDP=2.93D-07 MaxDP=6.04D-05 DE=-1.77D-07 OVMax= 1.01D-04

 Cycle   7  Pass 1  IDiag  1:
 RMSU=  2.91D-07    CP:  1.00D+00  9.81D-01
 E= -2573.91284807020     Delta-E=       -0.000000019633 Rises=F Damp=F
 DIIS: error= 2.08D-06 at cycle   3 NSaved=   3.
 NSaved= 3 IEnMin= 3 EnMin= -2573.91284807020     IErMin= 3 ErrMin= 2.08D-06
 ErrMax= 2.08D-06  0.00D+00 EMaxC= 1.00D-01 BMatC= 3.71D-09 BMatP= 1.89D-08
 IDIUse=1 WtCom= 1.00D+00 WtEn= 0.00D+00
 Coeff-Com: -0.388D-01 0.280D+00 0.759D+00
 Coeff:     -0.388D-01 0.280D+00 0.759D+00
 Gap=     0.177 Goal=   None    Shift=    0.000
 RMSDP=1.00D-07 MaxDP=2.48D-05 DE=-1.96D-08 OVMax= 2.72D-05

 Cycle   8  Pass 1  IDiag  1:
 RMSU=  4.36D-08    CP:  1.00D+00  1.02D+00  7.72D-01
 E= -2573.91284807461     Delta-E=       -0.000000004407 Rises=F Damp=F
 DIIS: error= 2.52D-07 at cycle   4 NSaved=   4.
 NSaved= 4 IEnMin= 4 EnMin= -2573.91284807461     IErMin= 4 ErrMin= 2.52D-07
 ErrMax= 2.52D-07  0.00D+00 EMaxC= 1.00D-01 BMatC= 3.62D-11 BMatP= 3.71D-09
 IDIUse=1 WtCom= 1.00D+00 WtEn= 0.00D+00
 Coeff-Com: -0.119D-01 0.817D-01 0.241D+00 0.689D+00
 Coeff:     -0.119D-01 0.817D-01 0.241D+00 0.689D+00
 Gap=     0.177 Goal=   None    Shift=    0.000
 RMSDP=1.07D-08 MaxDP=1.63D-06 DE=-4.41D-09 OVMax= 4.24D-06

 Cycle   9  Pass 1  IDiag  1:
 RMSU=  8.69D-09    CP:  1.00D+00  1.03D+00  7.83D-01  8.88D-01
 E= -2573.91284807465     Delta-E=       -0.000000000038 Rises=F Damp=F
 DIIS: error= 5.93D-08 at cycle   5 NSaved=   5.
 NSaved= 5 IEnMin= 5 EnMin= -2573.91284807465     IErMin= 5 ErrMin= 5.93D-08
 ErrMax= 5.93D-08  0.00D+00 EMaxC= 1.00D-01 BMatC= 1.80D-12 BMatP= 3.62D-11
 IDIUse=1 WtCom= 1.00D+00 WtEn= 0.00D+00
 Coeff-Com:  0.780D-03-0.976D-02-0.209D-01 0.157D+00 0.873D+00
 Coeff:      0.780D-03-0.976D-02-0.209D-01 0.157D+00 0.873D+00
 Gap=     0.177 Goal=   None    Shift=    0.000
 RMSDP=3.00D-09 MaxDP=2.99D-07 DE=-3.77D-11 OVMax= 1.28D-06

 SCF Done:  E(RPBE1PBE) =  -2573.91284807     A.U. after    9 cycles
            NFock=  9  Conv=0.30D-08     -V/T= 2.0013
 KE= 2.570506157526D+03 PE=-6.162879370712D+03 EE= 1.018460365112D+03
 Leave Link  502 at Wed May  2 22:09:10 2018, MaxMem= 14763950080 cpu:      6016.2
 (Enter /cm/shared/gaussian/g09.e01/intel64-sandybridge/g09/l601.exe)
 Copying SCF densities to generalized density rwf, IOpCl= 0 IROHF=0.

 **********************************************************************

            Population analysis using the SCF density.

 **********************************************************************

 Alpha  occ. eigenvalues -- -482.99063 -62.39202 -56.16459 -56.16454 -56.16453
 Alpha  occ. eigenvalues --   -8.49336  -6.29647  -6.29637  -6.29630  -2.37914
 Alpha  occ. eigenvalues --   -2.37912  -2.37906  -2.37898  -2.37897  -0.47372
 Alpha  occ. eigenvalues --   -0.03227  -0.03218  -0.03205
 Alpha virt. eigenvalues --    0.14483   0.16223   0.16427   0.16823   0.18791
 Alpha virt. eigenvalues --    0.18818   0.19167   0.19933   0.20232   0.21783
 Alpha virt. eigenvalues --    0.21875   0.22845   0.23548   0.24293   0.24472
 Alpha virt. eigenvalues --    0.24992   0.25498   0.25739   0.26344   0.26935
 Alpha virt. eigenvalues --    0.27340   0.27766   0.28948   0.29477   0.29566
 Alpha virt. eigenvalues --    0.30025   0.30433   0.31101   0.31311   0.32313
 Alpha virt. eigenvalues --    0.33008   0.33093   0.34318   0.34623   0.34898
 Alpha virt. eigenvalues --    0.35336   0.35817   0.36309   0.36684   0.37760
 Alpha virt. eigenvalues --    0.38106   0.38659   0.39624   0.39762   0.40607
 Alpha virt. eigenvalues --    0.41021   0.41730   0.42059   0.42491   0.42767
 Alpha virt. eigenvalues --    0.42966   0.43207   0.44669   0.44760   0.45162
 Alpha virt. eigenvalues --    0.46490   0.46660   0.47122   0.47590   0.48120
 Alpha virt. eigenvalues --    0.48536   0.49621   0.51371   0.53287   0.60804
 Alpha virt. eigenvalues --    0.62950   0.63426   0.63844   0.64645   0.64846
 Alpha virt. eigenvalues --    0.65017   0.65687   0.65961   0.66679   0.66922
 Alpha virt. eigenvalues --    0.67438   0.68070   0.68712   0.69142   0.69564
 Alpha virt. eigenvalues --    0.69832   0.70798   0.71484   0.71965   0.72238
 Alpha virt. eigenvalues --    0.72643   0.72983   0.73694   0.74060   0.74316
 Alpha virt. eigenvalues --    0.74361   0.74878   0.75097   0.75324   0.76053
 Alpha virt. eigenvalues --    0.76083   0.76384   0.76499   0.76705   0.76919
 Alpha virt. eigenvalues --    0.77165   0.77760   0.78033   0.78514   0.79156
 Alpha virt. eigenvalues --    0.79625   0.79807   0.80078   0.80928   0.81022
 Alpha virt. eigenvalues --    0.81395   0.81685   0.81963   0.82741   0.83363
 Alpha virt. eigenvalues --    0.83570   0.83662   0.84006   0.84157   0.84840
 Alpha virt. eigenvalues --    0.85333   0.85595   0.85789   0.86812   0.87154
 Alpha virt. eigenvalues --    0.87590   0.87946   0.88165   0.88616   0.88689
 Alpha virt. eigenvalues --    0.88937   0.89823   0.90291   0.90455   0.90744
 Alpha virt. eigenvalues --    0.91263   0.91703   0.92042   0.92482   0.92885
 Alpha virt. eigenvalues --    0.93655   0.93810   0.94212   0.94371   0.94926
 Alpha virt. eigenvalues --    0.95332   0.95539   0.95597   0.95843   0.96838
 Alpha virt. eigenvalues --    0.97439   0.97673   0.97894   0.98117   0.98595
 Alpha virt. eigenvalues --    0.99518   0.99678   1.00326   1.00666   1.01052
 Alpha virt. eigenvalues --    1.01180   1.01797   1.02138   1.02914   1.02961
 Alpha virt. eigenvalues --    1.03187   1.04054   1.04355   1.04717   1.05209
 Alpha virt. eigenvalues --    1.05941   1.06709   1.06897   1.07813   1.08143
 Alpha virt. eigenvalues --    1.08832   1.09742   1.10201   1.10806   1.11248
 Alpha virt. eigenvalues --    1.11961   1.12858   1.13535   1.13733   1.14658
 Alpha virt. eigenvalues --    1.14709   1.15342   1.17086   1.17171   1.18038
 Alpha virt. eigenvalues --    1.18169   1.18691   1.19244   1.20619   1.22062
 Alpha virt. eigenvalues --    1.24188   1.25661   1.27173   1.27790   1.29182
 Alpha virt. eigenvalues --    1.31834   1.65936   1.66893   1.67312   1.68123
 Alpha virt. eigenvalues --    1.68473   1.68861   1.69562   1.69857   1.70544
 Alpha virt. eigenvalues --    1.70985   1.71277   1.71555   1.71975   1.72479
 Alpha virt. eigenvalues --    1.73093   1.73179   1.73531   1.73546   1.74099
 Alpha virt. eigenvalues --    1.74591   1.74746   1.74804   1.75110   1.75325
 Alpha virt. eigenvalues --    1.75559   1.76190   1.76839   1.76957   1.77585
 Alpha virt. eigenvalues --    1.77966   1.78029   1.78529   1.78656   1.79162
 Alpha virt. eigenvalues --    1.79557   1.79820   1.80222   1.80322   1.80846
 Alpha virt. eigenvalues --    1.80892   1.81222   1.81773   1.81942   1.82456
 Alpha virt. eigenvalues --    1.83353   1.83493   1.83614   1.83986   1.84312
 Alpha virt. eigenvalues --    1.84568   1.85282   1.85528   1.85815   1.87335
 Alpha virt. eigenvalues --    1.88227   1.89000   1.89378   1.89709   1.91702
 Alpha virt. eigenvalues --    1.92689   1.93218   1.93759   1.95017   1.95656
 Alpha virt. eigenvalues --    1.96998   1.97195   1.97385   2.00187   2.00343
 Alpha virt. eigenvalues --    2.00488   2.00787   2.01203   2.01255   2.01316
 Alpha virt. eigenvalues --    2.01472   2.01698   2.01984   2.02096   2.02331
 Alpha virt. eigenvalues --    2.02720   2.03115   2.03479   2.03724   2.04009
 Alpha virt. eigenvalues --    2.04075   2.04347   2.04624   2.04963   2.05420
 Alpha virt. eigenvalues --    2.05636   2.05742   2.06206   2.06371   2.07069
 Alpha virt. eigenvalues --    2.07320   2.07788   2.07877   2.08219   2.08652
 Alpha virt. eigenvalues --    2.08939   2.09253   2.09929   2.10162   2.10538
 Alpha virt. eigenvalues --    2.10596   2.11057   2.12276   2.12730   2.13165
 Alpha virt. eigenvalues --    2.13361   2.13570   2.13709   2.14577   2.15043
 Alpha virt. eigenvalues --    2.15139   2.15661   2.16188   2.17567   2.17687
 Alpha virt. eigenvalues --    2.17977   2.18354   2.18468   2.19128   2.19415
 Alpha virt. eigenvalues --    2.19607   2.19960   2.20121   2.20884   2.21019
 Alpha virt. eigenvalues --    2.21549   2.22406   2.22714   2.23502   2.24009
 Alpha virt. eigenvalues --    2.24458   2.24797   2.25245   2.25826   2.26704
 Alpha virt. eigenvalues --    2.27261   2.27748   2.28083   2.29615   2.30420
 Alpha virt. eigenvalues --    2.30963   2.31326   2.31805   2.32551   2.34207
 Alpha virt. eigenvalues --    2.34691   2.35018   2.35402   2.35672   2.35877
 Alpha virt. eigenvalues --    2.36884   2.38754   2.39479   2.40229   2.40431
 Alpha virt. eigenvalues --    2.40820   2.41995   2.42179   2.42479   2.42733
 Alpha virt. eigenvalues --    2.42951   2.43320   2.43993   2.44623   2.44975
 Alpha virt. eigenvalues --    2.46218   2.46421   2.46694   2.47086   2.48216
 Alpha virt. eigenvalues --    2.48319   2.48798   2.49067   2.49718   2.50112
 Alpha virt. eigenvalues --    2.50437   2.51191   2.51496   2.52063   2.53334
 Alpha virt. eigenvalues --    2.54379   2.55668   2.56881   2.57914   2.58282
 Alpha virt. eigenvalues --    2.59550   2.61766   2.62338   2.68034   2.69724
 Alpha virt. eigenvalues --    2.69897   2.70491   2.70585   2.71408   2.71735
 Alpha virt. eigenvalues --    2.72512   2.72568   2.72867   2.73654   2.74280
 Alpha virt. eigenvalues --    2.74616   2.74874   2.75162   2.75233   2.76255
 Alpha virt. eigenvalues --    2.76571   2.77572   2.79337   2.80012   2.80716
 Alpha virt. eigenvalues --    2.81042   2.82251   2.83060   2.83678   2.84542
 Alpha virt. eigenvalues --    2.84736   2.85147   2.85497   2.86511   2.86795
 Alpha virt. eigenvalues --    2.87216   2.87773   2.88626   2.88699   2.89619
 Alpha virt. eigenvalues --    2.90068   2.90653   2.91315   2.91915   2.92298
 Alpha virt. eigenvalues --    2.92759   2.93559   2.93935   2.94245   2.94824
 Alpha virt. eigenvalues --    2.96542   2.96810   2.97441   2.97816   2.98587
 Alpha virt. eigenvalues --    2.99600   3.00140   3.01288   3.02110   3.03527
 Alpha virt. eigenvalues --    3.03765   3.05834   3.06429   3.10415   3.10693
 Alpha virt. eigenvalues --    3.12958   3.13626   3.15021   3.18195   3.18359
 Alpha virt. eigenvalues --    3.18913   3.20451   3.20795   3.23964   3.24107
 Alpha virt. eigenvalues --    3.26351   3.26519   3.27481   3.28294   3.29419
 Alpha virt. eigenvalues --    3.30689   3.31216   3.33897   3.36456   3.38191
 Alpha virt. eigenvalues --    3.39838   3.40201   3.44543   3.46984   3.48890
 Alpha virt. eigenvalues --    3.52228   3.53226   3.55002   3.57134   3.60119
 Alpha virt. eigenvalues --    3.61290   3.62983   3.63847   3.70522   4.51208
 Alpha virt. eigenvalues --    4.51945   4.52380   4.52490   4.52569   4.52674
 Alpha virt. eigenvalues --    4.52808   4.52927   4.53033   4.53095   4.53127
 Alpha virt. eigenvalues --    4.53187   4.53342   4.53467   4.53867   4.53979
 Alpha virt. eigenvalues --    4.54135   4.54248   4.54271   4.55070   4.55126
 Alpha virt. eigenvalues --    4.55187   4.55817   4.56023   4.56307   4.56345
 Alpha virt. eigenvalues --    4.56419   4.56581   4.57520   4.58277   4.58874
 Alpha virt. eigenvalues --    4.59436   4.60023   4.60230   4.60466   4.60608
 Alpha virt. eigenvalues --    4.60653   4.60675   4.60883   4.61319   4.61439
 Alpha virt. eigenvalues --    4.61478   4.61668   4.61906   4.61959   4.62067
 Alpha virt. eigenvalues --    4.62128   4.62205   4.62285   4.62515   4.62849
 Alpha virt. eigenvalues --    4.62980   4.63232   4.63451   4.63715   4.64092
 Alpha virt. eigenvalues --    4.64337   4.64663   4.65840   4.65970   4.66282
 Alpha virt. eigenvalues --    4.67603   4.67750   4.68192   4.75409   4.75868
 Alpha virt. eigenvalues --    4.76505   4.76773   4.76950   4.77191   4.77424
 Alpha virt. eigenvalues --    4.77464   4.77997   4.78639   4.78999   4.79227
 Alpha virt. eigenvalues --    4.79728   4.80109   4.80162   4.80993   4.81236
 Alpha virt. eigenvalues --    4.81273   4.81604   4.82516   4.82811   4.83102
 Alpha virt. eigenvalues --    4.83262   4.83406   4.83594   4.84132   4.84690
 Alpha virt. eigenvalues --    4.84751   4.85948   4.86246   4.86660   4.87241
 Alpha virt. eigenvalues --    4.87496   4.87821   4.88030   4.88322   4.88538
 Alpha virt. eigenvalues --    4.88627   4.89077   4.89460   4.89626   4.90327
 Alpha virt. eigenvalues --    4.90673   4.91223   4.91498   4.91805   4.91837
 Alpha virt. eigenvalues --    4.92351   4.93764   4.93981   4.94829   4.95536
 Alpha virt. eigenvalues --    4.96856   4.97926   4.98921   4.99439   4.99502
 Alpha virt. eigenvalues --    5.01930   5.03266   5.03741   5.04097   5.04546
 Alpha virt. eigenvalues --    5.05498   5.05663   5.06843   5.07012   5.07366
 Alpha virt. eigenvalues --    5.07630   5.08655   5.09348   5.09512   5.09868
 Alpha virt. eigenvalues --    5.10314   5.10747   5.12238   5.12663   5.13212
 Alpha virt. eigenvalues --    5.13541   5.14645   5.15097   5.16542   5.17725
 Alpha virt. eigenvalues --    5.18320   5.18353   5.19190   5.20168   5.21425
 Alpha virt. eigenvalues --    5.22815   5.24438   5.25471   5.26908   5.27755
 Alpha virt. eigenvalues --    5.28058   5.29670   5.30968   5.33700   5.37480
 Alpha virt. eigenvalues --    5.37898   5.38191   5.39647   5.40146   5.40766
 Alpha virt. eigenvalues --    5.41388   5.42746   5.42986   5.43229   5.44368
[...]
   Z20       32.76785   0.00331   0.00000   0.01839   0.01659  32.78444
   X21       39.94881  -0.00868   0.00000  -0.00997  -0.01034  39.93847
   Y21       39.43858   0.00029   0.00000   0.00135   0.00055  39.43913
   Z21       33.84500   0.00747   0.00000   0.01417   0.01243  33.85742
   X22       41.42280   0.00392   0.00000   0.02022   0.01926  41.44205
   Y22       41.21493   0.01435   0.00000   0.00478   0.00419  41.21911
   Z22       32.14424  -0.00462   0.00000   0.00123  -0.00082  32.14342
   X23       42.72671   0.00166   0.00000   0.00426   0.00541  42.73211
   Y23       34.50640  -0.01125   0.00000  -0.01335  -0.01327  34.49313
   Z23       34.09066  -0.01427   0.00000  -0.01982  -0.02093  34.06973
   X24       41.08265  -0.00462   0.00000   0.00125   0.00236  41.08501
   Y24       34.69537  -0.00068   0.00000  -0.01065  -0.01097  34.68441
   Z24       34.82765   0.00341   0.00000   0.00006  -0.00103  34.82662
   X25       43.78495   0.00600   0.00000   0.00518   0.00602  43.79097
   Y25       35.62134   0.00401   0.00000  -0.01289  -0.01235  35.60899
   Z25       35.03552   0.00881   0.00000   0.01297   0.01165  35.04718
   X26       30.95371  -0.02005   0.00000  -0.04005  -0.04057  30.91315
   Y26       40.70470   0.00630   0.00000   0.00935   0.00688  40.71158
   Z26       41.27162   0.00685   0.00000   0.01617   0.01453  41.28615
   X27       30.99151  -0.00549   0.00000  -0.02954  -0.02973  30.96178
   Y27       39.49528  -0.00620   0.00000   0.00016  -0.00249  39.49278
   Z27       39.92991  -0.00562   0.00000   0.00410   0.00265  39.93256
   X28       32.69226   0.00623   0.00000  -0.01975  -0.02030  32.67197
   Y28       40.85588   0.00313   0.00000   0.01382   0.01196  40.86784
   Z28       41.76295   0.00539   0.00000   0.01452   0.01281  41.77576
   X29       33.71271  -0.00529   0.00000  -0.00205  -0.00212  33.71060
   Y29       38.09688  -0.02110   0.00000  -0.01134  -0.01452  38.08236
   Z29       30.59467  -0.00270   0.00000   0.00874   0.00740  30.60207
   X30       35.22450   0.00421   0.00000   0.01596   0.01620  35.24069
   Y30       37.15202  -0.00168   0.00000   0.00005  -0.00261  37.14941
   Z30       30.99151  -0.00461   0.00000  -0.02142  -0.02268  30.96883
   X31       34.14735   0.00046   0.00000  -0.01640  -0.01698  34.13037
   Y31       39.79763   0.02414   0.00000   0.02780   0.02480  39.82244
   Z31       30.99151   0.00638   0.00000   0.01149   0.00988  31.00139
   X32       34.99773   0.00396   0.00000   0.01448   0.01684  35.01457
   Y32       31.35056   0.00013   0.00000  -0.01010  -0.01125  31.33930
   Z32       41.70626   0.01923   0.00000   0.02810   0.02770  41.73396
   X33       34.97883  -0.00297   0.00000  -0.00275   0.00015  34.97898
   Y33       29.63091  -0.00903   0.00000  -0.02421  -0.02530  29.60560
   Z33       42.25428   0.00488   0.00000   0.00888   0.00873  42.26301
   X34       35.01663   0.00040   0.00000  -0.00010   0.00221  35.01884
   Y34       31.25607   0.01042   0.00000   0.04589   0.04447  31.30054
   Z34       39.89212  -0.01713   0.00000  -0.00428  -0.00467  39.88745
   X35       33.82610   0.01179   0.00000   0.01281   0.01105  33.83715
   Y35       43.87944  -0.00579   0.00000  -0.05478  -0.05767  43.82177
   Z35       32.31432  -0.02639   0.00000  -0.04737  -0.04956  32.26476
   X36       32.27652  -0.01097   0.00000   0.00548   0.00388  32.28040
   Y36       43.44480  -0.00881   0.00000  -0.01686  -0.02009  43.42471
   Z36       33.16469   0.01391   0.00000   0.02053   0.01846  33.18315
   X37       35.13001   0.00168   0.00000  -0.00120  -0.00281  35.12720
   Y37       43.42591   0.00740   0.00000   0.04755   0.04523  43.47113
   Z37       33.50484   0.01059   0.00000   0.02361   0.02144  33.52628
   X38       38.94726   0.00785   0.00000  -0.00933  -0.00650  38.94075
   Y38       29.21517  -0.00820   0.00000  -0.00133  -0.00210  29.21307
   Z38       36.16936   0.00625   0.00000   0.03044   0.03023  36.19959
   X39       37.56776  -0.01326   0.00000  -0.01891  -0.01645  37.55131
   Y39       30.38680   0.01539   0.00000   0.02638   0.02520  30.41199
   Z39       36.22605   0.00127   0.00000   0.00885   0.00850  36.23455
   X40       38.41813  -0.00133   0.00000  -0.01260  -0.00931  38.40882
   Y40       27.83567  -0.00692   0.00000  -0.02055  -0.02133  27.81433
   Z40       37.20871   0.00299   0.00000   0.00968   0.00969  37.21840
   X41       39.45748  -0.02000   0.00000  -0.02820  -0.02755  39.42993
   Y41       35.62134  -0.01545   0.00000  -0.00026  -0.00186  35.61948
   Z41       29.46083  -0.00074   0.00000   0.00802   0.00685  29.46768
   X42       40.45904   0.01376   0.00000   0.01735   0.01780  40.47684
   Y42       36.39613   0.01054   0.00000   0.01124   0.01015  36.40627
   Z42       30.74584   0.01146   0.00000   0.00630   0.00498  30.75083
   X43       39.92991   0.00365   0.00000  -0.00295  -0.00261  39.92731
   Y43       36.47171   0.00788   0.00000   0.00814   0.00647  36.47819
   Z43       27.94905  -0.00876   0.00000  -0.00216  -0.00347  27.94558
   X44       33.29697  -0.01006   0.00000  -0.02756  -0.02635  33.27063
   Y44       35.45126  -0.00096   0.00000   0.00082  -0.00041  35.45085
   Z44       44.86210   0.01050   0.00000  -0.00207  -0.00302  44.85908
   X45       33.82610   0.00742   0.00000   0.01785   0.01934  33.84544
   Y45       34.41191  -0.01014   0.00000  -0.01465  -0.01590  34.39601
   Z45       43.48260  -0.00891   0.00000  -0.00007  -0.00088  43.48172
   X46       33.61823   0.00235   0.00000   0.00420   0.00487  33.62310
   Y46       37.15202   0.00992   0.00000   0.01295   0.01175  37.16376
   Z46       44.29518  -0.00111   0.00000   0.00626   0.00505  44.30023
   X47       45.06997   0.02191   0.00000   0.01769   0.01773  45.08770
   Y47       38.98505   0.02222   0.00000   0.03777   0.03982  39.02487
   Z47       42.67002   0.00654   0.00000   0.01431   0.01245  42.68247
   X48       44.99438  -0.00692   0.00000  -0.01508  -0.01510  44.97928
   Y48       39.09843  -0.00959   0.00000  -0.03441  -0.03265  39.06578
   Z48       40.85588  -0.00338   0.00000   0.00390   0.00205  40.85793
   X49       43.69047  -0.01461   0.00000  -0.00156  -0.00115  43.68932
   Y49       37.88901  -0.00998   0.00000   0.00359   0.00528  37.89429
   Z49       43.10465  -0.00057   0.00000  -0.00110  -0.00274  43.10191
   X50       42.02751   0.00367   0.00000   0.00168   0.00418  42.03169
   Y50       30.84033   0.00285   0.00000  -0.00901  -0.00812  30.83221
   Z50       41.04485   0.00912   0.00000   0.01133   0.01077  41.05563
   X51       40.27006  -0.00131   0.00000  -0.00309  -0.00062  40.26944
   Y51       30.97261  -0.00165   0.00000  -0.00481  -0.00439  30.96822
   Z51       41.49839  -0.00160   0.00000  -0.00316  -0.00367  41.49471
   X52       42.04641  -0.00461   0.00000  -0.01761  -0.01488  42.03153
   Y52       29.87657  -0.00031   0.00000   0.01628   0.01694  29.89351
   Z52       39.51417  -0.01016   0.00000  -0.01971  -0.02012  39.49405
   X53       38.66380   0.00680   0.00000   0.00447   0.00491  38.66871
   Y53       38.32365   0.00297   0.00000  -0.00669  -0.00582  38.31783
   Z53       47.94235   0.02037   0.00000   0.02420   0.02266  47.96502
   X54       36.98194  -0.00902   0.00000  -0.00687  -0.00627  36.97568
   Y54       37.73783  -0.00353   0.00000  -0.00195  -0.00164  37.73619
   Z54       47.65889  -0.00826   0.00000  -0.01758  -0.01898  47.63992
   X55       39.41969   0.00006   0.00000  -0.00978  -0.00940  39.41029
   Y55       38.32365  -0.00248   0.00000  -0.00728  -0.00643  38.31722
   Z55       46.29829  -0.01242   0.00000  -0.00428  -0.00584  46.29245
   X56       29.51752  -0.00022   0.00000  -0.00632  -0.00748  29.51005
   Y56       42.06530   0.02912   0.00000   0.05752   0.05368  42.11899
   Z56       34.84655   0.00086   0.00000  -0.00204  -0.00383  34.84272
   X57       29.76319   0.00868   0.00000   0.03696   0.03631  29.79950
   Y57       40.53463  -0.00446   0.00000   0.04221   0.03860  40.57322
   Z57       35.79141   0.00609   0.00000   0.00830   0.00673  35.79814
   X58       28.93171  -0.00498   0.00000  -0.01123  -0.01224  28.91946
   Y58       41.49839  -0.01046   0.00000  -0.02032  -0.02457  41.47381
   Z58       33.22139  -0.00428   0.00000   0.01032   0.00865  33.23003
   X59       30.53797   0.00098   0.00000  -0.00039   0.00113  30.53911
   Y59       33.39146  -0.00231   0.00000  -0.01692  -0.02043  33.37103
   Z59       34.99773   0.00443   0.00000  -0.00871  -0.00926  34.98847
   X60       29.34745  -0.00332   0.00000  -0.00987  -0.00802  29.33942
   Y60       32.38991   0.00090   0.00000   0.00915   0.00542  32.39533
   Z60       35.94259   0.00691   0.00000   0.01725   0.01688  35.95947
   X61       30.46239  -0.00161   0.00000  -0.01349  -0.01182  30.45056
   Y61       32.71116  -0.00279   0.00000   0.00013  -0.00365  32.70751
   Z61       33.33477  -0.01669   0.00000  -0.03333  -0.03377  33.30100
   X62       40.70470  -0.01462   0.00000  -0.00454  -0.00680  40.69790
   Y62       46.22270  -0.00211   0.00000  -0.00116  -0.00097  46.22173
   Z62       39.09843  -0.00559   0.00000   0.00417   0.00142  39.09985
   X63       41.97082   0.01440   0.00000   0.02640   0.02443  41.99524
   Y63       45.37232  -0.00641   0.00000  -0.00661  -0.00588  45.36645
   Z63       40.08109   0.00634   0.00000   0.00038  -0.00229  40.07880
   X64       41.40390   0.00441   0.00000   0.00487   0.00209  41.40599
   Y64       47.84787   0.00895   0.00000   0.00932   0.00968  47.85755
   Z64       38.75828  -0.00147   0.00000  -0.00010  -0.00312  38.75517
   X65       48.13132   0.00896   0.00000   0.02051   0.02118  48.15250
   Y65       36.32054  -0.01063   0.00000  -0.00749  -0.00540  36.31513
   Z65       36.50951  -0.01262   0.00000  -0.02776  -0.02932  36.48019
   X66       49.58641   0.00685   0.00000   0.01488   0.01527  49.60168
   Y66       37.28430   0.00454   0.00000   0.00346   0.00606  37.29035
   Z66       36.96304   0.00229   0.00000   0.00351   0.00177  36.96481
   X67       46.73293  -0.00613   0.00000   0.00801   0.00843  46.74136
   Y67       37.24650  -0.00180   0.00000  -0.03917  -0.03741  37.20910
   Z67       37.17091   0.01337   0.00000   0.04297   0.04133  37.21224
   X68       32.61667  -0.00384   0.00000   0.00797   0.00529  32.62196
   Y68       47.29985   0.01531   0.00000   0.02493   0.02230  47.32214
   Z68       36.56620   0.00192   0.00000   0.00798   0.00533  36.57153
   X69       33.58043   0.00318   0.00000  -0.00149  -0.00369  33.57674
   Y69       45.76917  -0.00974   0.00000  -0.00153  -0.00386  45.76531
   Z69       36.69848   0.00064   0.00000   0.00802   0.00557  36.70405
   X70       31.33166   0.00235   0.00000   0.00943   0.00684  31.33850
   Y70       46.90300  -0.00375   0.00000  -0.00572  -0.00893  46.89408
   Z70       35.33788   0.00279   0.00000   0.01591   0.01336  35.35124
   X71       36.18826   0.00043   0.00000   0.00274   0.00033  36.18859
   Y71       46.97859  -0.00181   0.00000   0.00890   0.00811  46.98671
   Z71       41.76295   0.01700   0.00000   0.02910   0.02637  41.78932
   X72       37.88901  -0.00137   0.00000  -0.00380  -0.00602  37.88299
   Y72       46.33608   0.00140   0.00000   0.00423   0.00393  46.34001
   Z72       41.61177  -0.00599   0.00000  -0.01809  -0.02077  41.59100
   X73       35.79141  -0.00440   0.00000  -0.01658  -0.01922  35.77219
   Y73       47.56441   0.00036   0.00000  -0.01029  -0.01145  47.55295
   Z73       40.09999  -0.00868   0.00000   0.00739   0.00460  40.10459
   X74       38.89056   0.01455   0.00000   0.00670   0.00890  38.89947
   Y74       32.33321  -0.00406   0.00000  -0.03389  -0.03327  32.29995
   Z74       45.84476  -0.00730   0.00000  -0.01629  -0.01696  45.82780
   X75       38.58821  -0.00088   0.00000   0.00207   0.00434  38.59255
   Y75       32.23873   0.00583   0.00000   0.02929   0.03008  32.26881
   Z75       47.62110   0.00871   0.00000   0.00168   0.00103  47.62212
   X76       37.30319  -0.01706   0.00000  -0.03231  -0.03003  37.27316
   Y76       31.95527   0.00067   0.00000   0.01500   0.01503  31.97030
   Z76       45.08887  -0.00642   0.00000  -0.00774  -0.00830  45.08056
   X77       40.62911  -0.01371   0.00000  -0.01249  -0.01372  40.61539
   Y77       43.48260  -0.01095   0.00000  -0.00954  -0.00852  43.47408
   Z77       44.93769  -0.00432   0.00000  -0.01794  -0.02030  44.91739
   X78       40.93147   0.00383   0.00000   0.00572   0.00395  40.93542
   Y78       45.24004   0.01320   0.00000   0.00595   0.00710  45.24715
   Z78       45.14556   0.00241   0.00000   0.00685   0.00422  45.14978
   X79       42.25428   0.00863   0.00000   0.00458   0.00355  42.25783
   Y79       42.76450  -0.00496   0.00000  -0.01207  -0.01060  42.75390
   Z79       44.57864  -0.00421   0.00000  -0.01093  -0.01324  44.56540
   X80       28.11912  -0.01907   0.00000  -0.01182  -0.01046  28.10867
   Y80       34.67647  -0.01212   0.00000  -0.00691  -0.01010  34.66637
   Z80       42.25428  -0.01200   0.00000  -0.02337  -0.02403  42.23025
   X81       29.85767   0.01637   0.00000   0.00306   0.00437  29.86205
   Y81       34.86545   0.00788   0.00000   0.01521   0.01263  34.87808
   Z81       42.67002   0.01134   0.00000   0.03001   0.02926  42.69928
   X82       27.36323   0.00537   0.00000   0.01686   0.01775  27.38098
   Y82       36.26384   0.00565   0.00000   0.00886   0.00552  36.26936
   Z82       42.70781   0.00078   0.00000  -0.00518  -0.00604  42.70177
   X83       42.42435   0.01210   0.00000   0.02320   0.02584  42.45019
   Y83       29.46083  -0.01188   0.00000  -0.02188  -0.02210  29.43874
   Z83       32.65447  -0.01848   0.00000  -0.02916  -0.02952  32.62495
   X84       41.10154  -0.00505   0.00000   0.00933   0.01200  41.11355
   Y84       29.47973   0.00042   0.00000  -0.00849  -0.00894  29.47079
   Z84       33.88279   0.00593   0.00000  -0.01421  -0.01453  33.86826
   X85       43.44480   0.00073   0.00000  -0.00430  -0.00209  43.44271
   Y85       30.89702   0.00506   0.00000   0.00151   0.00166  30.89869
   Z85       33.07021   0.00285   0.00000  -0.00154  -0.00215  33.06806
   X86       45.18335  -0.00879   0.00000   0.00244   0.00073  45.18408
   Y86       44.61643   0.01054   0.00000   0.01243   0.01427  44.63071
   Z86       41.02595  -0.00482   0.00000  -0.01237  -0.01505  41.01091
   X87       46.46837   0.00572   0.00000   0.00850   0.00654  46.47491
   Y87       45.50461   0.00140   0.00000  -0.00424  -0.00187  45.50274
   Z87       41.93302   0.00523   0.00000   0.01395   0.01111  41.94413
   X88       45.86365   0.00179   0.00000  -0.01199  -0.01321  45.85045
   Y88       42.97237  -0.01350   0.00000  -0.02120  -0.01920  42.95318
   Z88       40.72360   0.00447   0.00000   0.02888   0.02643  40.75003
   X89       41.19603   0.00424   0.00000  -0.00332  -0.00515  41.19088
   Y89       43.87944   0.00557   0.00000   0.01427   0.01337  43.89281
   Z89       30.55687   0.00003   0.00000  -0.00828  -0.01071  30.54616
   X90       41.85743   0.00121   0.00000   0.00560   0.00327  41.86070
   Y90       45.41012   0.00195   0.00000   0.01303   0.01223  45.42235
   Z90       29.83878   0.00081   0.00000   0.00104  -0.00164  29.83713
   X91       39.74094  -0.01051   0.00000  -0.01982  -0.02158  39.71936
   Y91       43.50150   0.00012   0.00000   0.01218   0.01068  43.51217
   Z91       29.55532  -0.00531   0.00000  -0.00688  -0.00921  29.54611
   X92       28.61045  -0.02799   0.00000  -0.04306  -0.04341  28.56704
   Y92       39.09843   0.00519   0.00000  -0.02616  -0.03086  39.06758
   Z92       30.99151  -0.00636   0.00000  -0.02472  -0.02603  30.96548
   X93       28.68604   0.00380   0.00000   0.01050   0.00990  28.69595
   Y93       39.68425  -0.00149   0.00000   0.00233  -0.00257  39.68168
   Z93       29.27186  -0.00200   0.00000  -0.01109  -0.01250  29.25936
   X94       30.06554   0.02479   0.00000   0.03649   0.03644  30.10199
   Y94       38.05908  -0.00625   0.00000   0.02711   0.02291  38.08199
   Z94       31.18048  -0.00112   0.00000  -0.00583  -0.00705  31.17343
   X95       45.97704   0.01514   0.00000   0.01484   0.01608  45.99312
   Y95       33.69382   0.00041   0.00000   0.01354   0.01397  33.70779
   Z95       29.66870  -0.01270   0.00000  -0.00593  -0.00704  29.66166
   X96       45.24004  -0.00348   0.00000  -0.01558  -0.01453  45.22551
   Y96       34.20404  -0.00208   0.00000  -0.00842  -0.00845  34.19559
   Z96       28.08133   0.00349   0.00000   0.00551   0.00436  28.08569
   X97       44.67313  -0.01375   0.00000  -0.01279  -0.01159  44.66153
   Y97       33.99617   0.00213   0.00000  -0.00342  -0.00322  33.99295
   Z97       30.87813   0.00986   0.00000   0.00632   0.00522  30.88335
         Item               Value     Threshold  Converged?
 Maximum Force            0.038882     0.000450     NO 
 RMS     Force            0.009814     0.000300     NO 
 Maximum Displacement     0.057675     0.001800     NO 
 RMS     Displacement     0.017533     0.001200     NO 
 Predicted change in Energy=-2.760568D-02
 GradGradGradGradGradGradGradGradGradGradGradGradGradGradGradGradGradGrad

 Leave Link  103 at Wed May  2 22:14:20 2018, MaxMem= 14763950080 cpu:        52.8
 (Enter /cm/shared/gaussian/g09.e01/intel64-sandybridge/g09/l9999.exe)
 1\1\GINC-POPLE03\Force\RPBE1PBE\CC-pVDZ\Br1H64O32(1-)\M.PELUSO\02-May-
 2018\0\\#p PBE1PBE/cc-pvDZ force Counterpoise=2 noSymm\\forces on chlo
 ride comput - NWATER: 32\\-1,1\Br,20.,20.,20.\O,18.65,17.34,19.57\H,17
 .87,17.45,19.04\H,18.99,18.22,19.7\O,23.16,20.3,19.92\H,22.21,20.21,19
 .91\H,23.38,20.72,19.09\O,21.42,19.34,22.8\H,21.02,19.45,21.93\H,21.13
 ,18.48,23.1\O,18.79,21.16,22.78\H,19.31,21.95,22.91\H,19.16,20.76,21.9
 9\O,19.45,23.21,19.44\H,20.16,23.74,19.79\H,19.64,22.32,19.73\O,16.67,
 20.04,19.65\H,16.46,19.27,19.13\H,17.6,19.94,19.87\O,21.91,20.91,17.34
 \H,21.14,20.87,17.91\H,21.92,21.81,17.01\O,22.61,18.26,18.04\H,21.74,1
 8.36,18.43\H,23.17,18.85,18.54\O,16.38,21.54,21.84\H,16.4,20.9,21.13\H
 ,17.3,21.62,22.1\O,17.84,20.16,16.19\H,18.64,19.66,16.4\H,18.07,21.06,
 16.4\O,18.52,16.59,22.07\H,18.51,15.68,22.36\H,18.53,16.54,21.11\O,17.
 9,23.22,17.1\H,17.08,22.99,17.55\H,18.59,22.98,17.73\O,20.61,15.46,19.
 14\H,19.88,16.08,19.17\H,20.33,14.73,19.69\O,20.88,18.85,15.59\H,21.41
 ,19.26,16.27\H,21.13,19.3,14.79\O,17.62,18.76,23.74\H,17.9,18.21,23.01
 \H,17.79,19.66,23.44\O,23.85,20.63,22.58\H,23.81,20.69,21.62\H,23.12,2
 0.05,22.81\O,22.24,16.32,21.72\H,21.31,16.39,21.96\H,22.25,15.81,20.91
 \O,20.46,20.28,25.37\H,19.57,19.97,25.22\H,20.86,20.28,24.5\O,15.62,22
 .26,18.44\H,15.75,21.45,18.94\H,15.31,21.96,17.58\O,16.16,17.67,18.52\
 H,15.53,17.14,19.02\H,16.12,17.31,17.64\O,21.54,24.46,20.69\H,22.21,24
 .01,21.21\H,21.91,25.32,20.51\O,25.47,19.22,19.32\H,26.24,19.73,19.56\
 H,24.73,19.71,19.67\O,17.26,25.03,19.35\H,17.77,24.22,19.42\H,16.58,24
 .82,18.7\O,19.15,24.86,22.1\H,20.05,24.52,22.02\H,18.94,25.17,21.22\O,
 20.58,17.11,24.26\H,20.42,17.06,25.2\H,19.74,16.91,23.86\O,21.5,23.01,
 23.78\H,21.66,23.94,23.89\H,22.36,22.63,23.59\O,14.88,18.35,22.36\H,15
 .8,18.45,22.58\H,14.48,19.19,22.6\O,22.45,15.59,17.28\H,21.75,15.6,17.
 93\H,22.99,16.35,17.5\O,23.91,23.61,21.71\H,24.59,24.08,22.19\H,24.27,
 22.74,21.55\O,21.8,23.22,16.17\H,22.15,24.03,15.79\H,21.03,23.02,15.64
 \O,15.14,20.69,16.4\H,15.18,21.,15.49\H,15.91,20.14,16.5\O,24.33,17.83
 ,15.7\H,23.94,18.1,14.86\H,23.64,17.99,16.34\\Version=ES64L-G09RevE.01
 \HF=-2443.2084619\RMSD=4.438e-09\RMSF=9.814e-03\Dipole=0.7436629,0.383
 0799,-3.1136462\Quadrupole=103.0937683,80.8263057,-183.920074,-1308.75
 62995,-1490.2967397,-1573.2980332\PG=C01 [X(Br1H64O32)]\\@


 GOOD SENSE ABOUT TRIVIALITIES IS BETTER THAN NONSENSE
 ABOUT THINGS THAT MATTER

                                       -- MAX BEERBOHM
 Job cpu time:       0 days 10 hours  3 minutes 43.4 seconds.
 File lengths (MBytes):  RWF=    482 Int=      0 D2E=      0 Chk=    160 Scr=      1
 Normal termination of Gaussian 09 at Wed May  2 22:14:21 2018.
