 Entering Gaussian System, Link 0=/cm/shared/gaussian/g09.e01/intel64-sandybridge/g09/g09
 Initial command:
 /cm/shared/gaussian/g09.e01/intel64-sandybridge/g09/l1.exe "/local/scratch/m.peluso/32_wat/Gau-34166.inp" -scrdir="/local/scratch/m.peluso/32_wat/"
 Entering Link 1 = /cm/shared/gaussian/g09.e01/intel64-sandybridge/g09/l1.exe PID=     34167.
  
 Copyright (c) 1988,1990,1992,1993,1995,1998,2003,2009,2015,
            Gaussian, Inc.  All Rights Reserved.
  
 This is part of the Gaussian(R) 09 program.  It is based on
 the Gaussian(R) 03 system (copyright 2003, Gaussian, Inc.),
 the Gaussian(R) 98 system (copyright 1998, Gaussian, Inc.),
 the Gaussian(R) 94 system (copyright 1995, Gaussian, Inc.),
 the Gaussian 92(TM) system (copyright 1992, Gaussian, Inc.),
 the Gaussian 90(TM) system (copyright 1990, Gaussian, Inc.),
 the Gaussian 88(TM) system (copyright 1988, Gaussian, Inc.),
 the Gaussian 86(TM) system (copyright 1986, Carnegie Mellon
 University), and the Gaussian 82(TM) system (copyright 1983,
 Carnegie Mellon University). Gaussian is a federally registered
 trademark of Gaussian, Inc.
  
 This software contains proprietary and confidential information,
 including trade secrets, belonging to Gaussian, Inc.
  
 This software is provided under written license and may be
 used, copied, transmitted, or stored only in accord with that
 written license.
  
 The following legend is applicable only to US Government
 contracts under FAR:
  
                    RESTRICTED RIGHTS LEGEND
  
 Use, reproduction and disclosure by the US Government is
 subject to restrictions as set forth in subparagraphs (a)
 and (c) of the Commercial Computer Software - Restricted
 Rights clause in FAR 52.227-19.
  
 Gaussian, Inc.
 340 Quinnipiac St., Bldg. 40, Wallingford CT 06492
  
  
 ---------------------------------------------------------------
 Warning -- This program may not be used in any manner that
 competes with the business of Gaussian, Inc. or will provide
 assistance to any competitor of Gaussian, Inc.  The licensee
 of this program is prohibited from giving any competitor of
 Gaussian, Inc. access to this program.  By using this program,
 the user acknowledges that Gaussian, Inc. is engaged in the
 business of creating and licensing software in the field of
 computational chemistry and represents and warrants to the
 licensee that it is not a competitor of Gaussian, Inc. and that
 it will not use this program in any manner prohibited above.
 ---------------------------------------------------------------
  

 Cite this work as:
 Gaussian 09, Revision E.01,
 M. J. Frisch, G. W. Trucks, H. B. Schlegel, G. E. Scuseria, 
 M. A. Robb, J. R. Cheeseman, G. Scalmani, V. Barone, B. Mennucci, 
 G. A. Petersson, H. Nakatsuji, M. Caricato, X. Li, H. P. Hratchian, 
 A. F. Izmaylov, J. Bloino, G. Zheng, J. L. Sonnenberg, M. Hada, 
 M. Ehara, K. Toyota, R. Fukuda, J. Hasegawa, M. Ishida, T. Nakajima, 
 Y. Honda, O. Kitao, H. Nakai, T. Vreven, J. A. Montgomery, Jr., 
 J. E. Peralta, F. Ogliaro, M. Bearpark, J. J. Heyd, E. Brothers, 
 K. N. Kudin, V. N. Staroverov, T. Keith, R. Kobayashi, J. Normand, 
 K. Raghavachari, A. Rendell, J. C. Burant, S. S. Iyengar, J. Tomasi, 
 M. Cossi, N. Rega, J. M. Millam, M. Klene, J. E. Knox, J. B. Cross, 
 V. Bakken, C. Adamo, J. Jaramillo, R. Gomperts, R. E. Stratmann, 
 O. Yazyev, A. J. Austin, R. Cammi, C. Pomelli, J. W. Ochterski, 
 R. L. Martin, K. Morokuma, V. G. Zakrzewski, G. A. Voth, 
 P. Salvador, J. J. Dannenberg, S. Dapprich, A. D. Daniels, 
 O. Farkas, J. B. Foresman, J. V. Ortiz, J. Cioslowski, 
 and D. J. Fox, Gaussian, Inc., Wallingford CT, 2013.
 
 ******************************************
 Gaussian 09:  ES64L-G09RevE.01 30-Nov-2015
                 3-May-2018 
 ******************************************
 %Mem=110GB
 %NProcShared=64
 Will use up to   64 processors via shared memory.
 %chk=snap0.chk
 ----------------------------------------------
 #p PBE1PBE/cc-pvDZ force Counterpoise=2 noSymm
 ----------------------------------------------
 1/10=7,30=1,38=1,62=2/1,3;
 2/12=2,15=1,17=6,18=5,40=1/2;
 1/10=7,30=1,38=1,53=2,62=2,63=101/22;
 3/5=16,11=2,16=1,25=1,30=1,71=1,74=-13/1,2,3;
 4//1;
 5/5=2,38=5/2;
 6/7=2,8=2,9=2,10=2,28=1/1;
 7/7=1,29=1,30=1,33=-1/1,2,3,16;
 1/10=7,30=1,53=2,62=2,63=101/22;
 3/5=7,6=11,11=2,16=1,25=1,30=1,71=1,74=-13,82=7/1,2,3;
 4//1;
 5/5=2,38=5/2;
 6/7=2,8=2,9=2,10=2,28=1/1;
 7/7=1,29=1,30=1,33=-1/1,2,3,16;
 1/10=7,30=1,53=2,62=2,63=101/22(-5);
 7/9=1,29=1,44=-1/16;
 1/10=7,30=1,62=2/3;
 99//99;
 Leave Link    1 at Thu May  3 00:48:37 2018, MaxMem= 14763950080 cpu:         7.4
 (Enter /cm/shared/gaussian/g09.e01/intel64-sandybridge/g09/l101.exe)
 --------------------------------------
 forces on chloride comput - NWATER: 32
 --------------------------------------
 Symbolic Z-matrix:
 Charge = -1 Multiplicity = 1 in supermolecule
 Charge = -1 Multiplicity = 1 in fragment      1.
 Charge =  0 Multiplicity = 1 in fragment      2.
 Br(Fragment=1)        20.       20.       20. 
 O(Fragment=2)         18.37     18.34     22.04 
 H(Fragment=2)         18.71     18.91     21.34 
 H(Fragment=2)         17.42     18.39     21.95 
 O(Fragment=2)         20.77     16.99     19.52 
 H(Fragment=2)         20.56     17.91     19.72 
 H(Fragment=2)         21.38     16.73     20.21 
 O(Fragment=2)         17.54     19.85     17.97 
 H(Fragment=2)         18.35     19.84     18.47 
 H(Fragment=2)         17.51     20.72     17.57 
 O(Fragment=2)         18.51     22.82     19.62 
 H(Fragment=2)         18.96     22.       19.8 
 H(Fragment=2)         18.12     22.69     18.75 
 O(Fragment=2)         21.19     21.69     22.49 
 H(Fragment=2)         20.7      21.41     21.71 
 H(Fragment=2)         22.04     21.27     22.4 
 O(Fragment=2)         21.17     22.65     17.87 
 H(Fragment=2)         20.82     21.96     18.44 
 H(Fragment=2)         20.4      23.18     17.63 
 O(Fragment=2)         16.29     19.86     20.51 
 H(Fragment=2)         16.26     20.1      19.58 
 H(Fragment=2)         16.98     20.4      20.88 
 O(Fragment=2)         23.5      20.79     18.09 
 H(Fragment=2)         23.19     20.51     18.95 
 H(Fragment=2)         22.81     21.36     17.76 
 O(Fragment=2)         18.11     21.45     23.34 
 H(Fragment=2)         18.33     20.85     24.06 
 H(Fragment=2)         18.96     21.64     22.93 
 O(Fragment=2)         18.53     17.05     17.61 
 H(Fragment=2)         19.34     16.99     18.12 
 H(Fragment=2)         18.18     17.91     17.82 
 O(Fragment=2)         21.41     17.8      23.42 
 H(Fragment=2)         21.09     17.52     24.28 
 H(Fragment=2)         20.63     17.9      22.88 
 O(Fragment=2)         20.64     24.3      21.03 
 H(Fragment=2)         20.92     23.5      21.48 
 H(Fragment=2)         19.8      24.07     20.64 
 O(Fragment=2)         22.69     16.79     21.43 
 H(Fragment=2)         22.18     17.04     22.2 
 H(Fragment=2)         22.87     15.86     21.55 
 O(Fragment=2)         17.89     22.34     16.96 
 H(Fragment=2)         18.6      22.41     16.32 
 H(Fragment=2)         17.15     22.76     16.54 
 O(Fragment=2)         23.83     20.5      22.2 
 H(Fragment=2)         24.07     19.61     22.46 
 H(Fragment=2)         24.18     21.05     22.91 
 O(Fragment=2)         23.7      23.03     20.39 
 H(Fragment=2)         23.44     22.7      21.25 
 H(Fragment=2)         23.42     23.95     20.39 
 O(Fragment=2)         16.41     23.38     21.55 
 H(Fragment=2)         16.79     22.73     22.13 
 H(Fragment=2)         16.92     23.31     20.74 
 O(Fragment=2)         24.26     16.75     18.78 
 H(Fragment=2)         23.42     16.96     19.18 
 H(Fragment=2)         24.17     17.01     17.87 
 O(Fragment=2)         18.71     17.       24.52 
 H(Fragment=2)         18.03     16.37     24.28 
 H(Fragment=2)         18.66     17.67     23.85 
 O(Fragment=2)         21.69     14.7      17.67 
 H(Fragment=2)         21.17     13.92     17.87 
 H(Fragment=2)         21.27     15.4      18.18 
 O(Fragment=2)         15.4      18.18     17.31 
 H(Fragment=2)         16.17     18.59     16.92 
 H(Fragment=2)         15.2      17.45     16.73 
 O(Fragment=2)         21.85     25.39     17.79 
 H(Fragment=2)         22.78     25.64     17.81 
 H(Fragment=2)         21.85     24.44     17.88 
 O(Fragment=2)         14.74     17.75     21.77 
 H(Fragment=2)         15.14     18.55     21.42 
 H(Fragment=2)         14.94     17.08     21.11 
 O(Fragment=2)         18.91     18.94     14.16 
 H(Fragment=2)         19.24     18.55     14.97 
 H(Fragment=2)         19.61     18.8      13.52 
 O(Fragment=2)         19.99     22.26     15.18 
 H(Fragment=2)         19.69     22.21     14.27 
 H(Fragment=2)         20.94     22.35     15.11 
 O(Fragment=2)         21.5      17.25     15.08 
 H(Fragment=2)         21.96     17.06     14.26 
 H(Fragment=2)         22.19     17.43     15.71 
 O(Fragment=2)         17.08     14.55     18.72 
 H(Fragment=2)         17.85     14.11     19.09 
 H(Fragment=2)         17.42     15.36     18.34 
 O(Fragment=2)         26.1      21.54     17.93 
 H(Fragment=2)         25.33     21.19     18.36 
 H(Fragment=2)         26.18     22.43     18.27 
 O(Fragment=2)         18.15     23.2      25.41 
 H(Fragment=2)         17.71     22.89     26.2 
 H(Fragment=2)         17.97     22.52     24.76 
 O(Fragment=2)         22.96     22.03     15.12 
 H(Fragment=2)         23.15     22.77     15.68 
 H(Fragment=2)         23.41     21.29     15.52 
 O(Fragment=2)         19.54     20.82     25.72 
 H(Fragment=2)         20.36     20.35     25.88 
 H(Fragment=2)         19.26     21.11     26.59 
 O(Fragment=2)         25.       18.19     23.3 
 H(Fragment=2)         25.21     17.7      22.51 
 H(Fragment=2)         24.11     17.91     23.52 
 
 NAtoms=     97 NQM=       97 NQMF=       0 NMMI=      0 NMMIF=      0
                NMic=       0 NMicF=      0.
                    Isotopes and Nuclear Properties:
 (Nuclear quadrupole moments (NQMom) in fm**2, nuclear magnetic moments (NMagM)
  in nuclear magnetons)

  Atom         1           2           3           4           5           6           7           8           9          10
 IAtWgt=          79          16           1           1          16           1           1          16           1           1
 AtmWgt=  78.9183361  15.9949146   1.0078250   1.0078250  15.9949146   1.0078250   1.0078250  15.9949146   1.0078250   1.0078250
 NucSpn=           3           0           1           1           0           1           1           0           1           1
 AtZEff=   0.0000000   0.0000000   0.0000000   0.0000000   0.0000000   0.0000000   0.0000000   0.0000000   0.0000000   0.0000000
 NQMom=   31.3000000   0.0000000   0.0000000   0.0000000   0.0000000   0.0000000   0.0000000   0.0000000   0.0000000   0.0000000
 NMagM=    2.1063990   0.0000000   2.7928460   2.7928460   0.0000000   2.7928460   2.7928460   0.0000000   2.7928460   2.7928460
 AtZNuc=  35.0000000   8.0000000   1.0000000   1.0000000   8.0000000   1.0000000   1.0000000   8.0000000   1.0000000   1.0000000

  Atom        11          12          13          14          15          16          17          18          19          20
 IAtWgt=          16           1           1          16           1           1          16           1           1          16
 AtmWgt=  15.9949146   1.0078250   1.0078250  15.9949146   1.0078250   1.0078250  15.9949146   1.0078250   1.0078250  15.9949146
 NucSpn=           0           1           1           0           1           1           0           1           1           0
 AtZEff=   0.0000000   0.0000000   0.0000000   0.0000000   0.0000000   0.0000000   0.0000000   0.0000000   0.0000000   0.0000000
 NQMom=    0.0000000   0.0000000   0.0000000   0.0000000   0.0000000   0.0000000   0.0000000   0.0000000   0.0000000   0.0000000
 NMagM=    0.0000000   2.7928460   2.7928460   0.0000000   2.7928460   2.7928460   0.0000000   2.7928460   2.7928460   0.0000000
 AtZNuc=   8.0000000   1.0000000   1.0000000   8.0000000   1.0000000   1.0000000   8.0000000   1.0000000   1.0000000   8.0000000

  Atom        21          22          23          24          25          26          27          28          29          30
 IAtWgt=           1           1          16           1           1          16           1           1          16           1
 AtmWgt=   1.0078250   1.0078250  15.9949146   1.0078250   1.0078250  15.9949146   1.0078250   1.0078250  15.9949146   1.0078250
 NucSpn=           1           1           0           1           1           0           1           1           0           1
 AtZEff=   0.0000000   0.0000000   0.0000000   0.0000000   0.0000000   0.0000000   0.0000000   0.0000000   0.0000000   0.0000000
 NQMom=    0.0000000   0.0000000   0.0000000   0.0000000   0.0000000   0.0000000   0.0000000   0.0000000   0.0000000   0.0000000
 NMagM=    2.7928460   2.7928460   0.0000000   2.7928460   2.7928460   0.0000000   2.7928460   2.7928460   0.0000000   2.7928460
 AtZNuc=   1.0000000   1.0000000   8.0000000   1.0000000   1.0000000   8.0000000   1.0000000   1.0000000   8.0000000   1.0000000

  Atom        31          32          33          34          35          36          37          38          39          40
 IAtWgt=           1          16           1           1          16           1           1          16           1           1
 AtmWgt=   1.0078250  15.9949146   1.0078250   1.0078250  15.9949146   1.0078250   1.0078250  15.9949146   1.0078250   1.0078250
 NucSpn=           1           0           1           1           0           1           1           0           1           1
 AtZEff=   0.0000000   0.0000000   0.0000000   0.0000000   0.0000000   0.0000000   0.0000000   0.0000000   0.0000000   0.0000000
 NQMom=    0.0000000   0.0000000   0.0000000   0.0000000   0.0000000   0.0000000   0.0000000   0.0000000   0.0000000   0.0000000
 NMagM=    2.7928460   0.0000000   2.7928460   2.7928460   0.0000000   2.7928460   2.7928460   0.0000000   2.7928460   2.7928460
 AtZNuc=   1.0000000   8.0000000   1.0000000   1.0000000   8.0000000   1.0000000   1.0000000   8.0000000   1.0000000   1.0000000

  Atom        41          42          43          44          45          46          47          48          49          50
 IAtWgt=          16           1           1          16           1           1          16           1           1          16
 AtmWgt=  15.9949146   1.0078250   1.0078250  15.9949146   1.0078250   1.0078250  15.9949146   1.0078250   1.0078250  15.9949146
 NucSpn=           0           1           1           0           1           1           0           1           1           0
 AtZEff=   0.0000000   0.0000000   0.0000000   0.0000000   0.0000000   0.0000000   0.0000000   0.0000000   0.0000000   0.0000000
 NQMom=    0.0000000   0.0000000   0.0000000   0.0000000   0.0000000   0.0000000   0.0000000   0.0000000   0.0000000   0.0000000
 NMagM=    0.0000000   2.7928460   2.7928460   0.0000000   2.7928460   2.7928460   0.0000000   2.7928460   2.7928460   0.0000000
 AtZNuc=   8.0000000   1.0000000   1.0000000   8.0000000   1.0000000   1.0000000   8.0000000   1.0000000   1.0000000   8.0000000

  Atom        51          52          53          54          55          56          57          58          59          60
 IAtWgt=           1           1          16           1           1          16           1           1          16           1
 AtmWgt=   1.0078250   1.0078250  15.9949146   1.0078250   1.0078250  15.9949146   1.0078250   1.0078250  15.9949146   1.0078250
 NucSpn=           1           1           0           1           1           0           1           1           0           1
 AtZEff=   0.0000000   0.0000000   0.0000000   0.0000000   0.0000000   0.0000000   0.0000000   0.0000000   0.0000000   0.0000000
 NQMom=    0.0000000   0.0000000   0.0000000   0.0000000   0.0000000   0.0000000   0.0000000   0.0000000   0.0000000   0.0000000
 NMagM=    2.7928460   2.7928460   0.0000000   2.7928460   2.7928460   0.0000000   2.7928460   2.7928460   0.0000000   2.7928460
 AtZNuc=   1.0000000   1.0000000   8.0000000   1.0000000   1.0000000   8.0000000   1.0000000   1.0000000   8.0000000   1.0000000

  Atom        61          62          63          64          65          66          67          68          69          70
 IAtWgt=           1          16           1           1          16           1           1          16           1           1
 AtmWgt=   1.0078250  15.9949146   1.0078250   1.0078250  15.9949146   1.0078250   1.0078250  15.9949146   1.0078250   1.0078250
 NucSpn=           1           0           1           1           0           1           1           0           1           1
 AtZEff=   0.0000000   0.0000000   0.0000000   0.0000000   0.0000000   0.0000000   0.0000000   0.0000000   0.0000000   0.0000000
 NQMom=    0.0000000   0.0000000   0.0000000   0.0000000   0.0000000   0.0000000   0.0000000   0.0000000   0.0000000   0.0000000
 NMagM=    2.7928460   0.0000000   2.7928460   2.7928460   0.0000000   2.7928460   2.7928460   0.0000000   2.7928460   2.7928460
 AtZNuc=   1.0000000   8.0000000   1.0000000   1.0000000   8.0000000   1.0000000   1.0000000   8.0000000   1.0000000   1.0000000

  Atom        71          72          73          74          75          76          77          78          79          80
 IAtWgt=          16           1           1          16           1           1          16           1           1          16
 AtmWgt=  15.9949146   1.0078250   1.0078250  15.9949146   1.0078250   1.0078250  15.9949146   1.0078250   1.0078250  15.9949146
 NucSpn=           0           1           1           0           1           1           0           1           1           0
 AtZEff=   0.0000000   0.0000000   0.0000000   0.0000000   0.0000000   0.0000000   0.0000000   0.0000000   0.0000000   0.0000000
 NQMom=    0.0000000   0.0000000   0.0000000   0.0000000   0.0000000   0.0000000   0.0000000   0.0000000   0.0000000   0.0000000
 NMagM=    0.0000000   2.7928460   2.7928460   0.0000000   2.7928460   2.7928460   0.0000000   2.7928460   2.7928460   0.0000000
 AtZNuc=   8.0000000   1.0000000   1.0000000   8.0000000   1.0000000   1.0000000   8.0000000   1.0000000   1.0000000   8.0000000

  Atom        81          82          83          84          85          86          87          88          89          90
 IAtWgt=           1           1          16           1           1          16           1           1          16           1
 AtmWgt=   1.0078250   1.0078250  15.9949146   1.0078250   1.0078250  15.9949146   1.0078250   1.0078250  15.9949146   1.0078250
 NucSpn=           1           1           0           1           1           0           1           1           0           1
 AtZEff=   0.0000000   0.0000000   0.0000000   0.0000000   0.0000000   0.0000000   0.0000000   0.0000000   0.0000000   0.0000000
 NQMom=    0.0000000   0.0000000   0.0000000   0.0000000   0.0000000   0.0000000   0.0000000   0.0000000   0.0000000   0.0000000
 NMagM=    2.7928460   2.7928460   0.0000000   2.7928460   2.7928460   0.0000000   2.7928460   2.7928460   0.0000000   2.7928460
 AtZNuc=   1.0000000   1.0000000   8.0000000   1.0000000   1.0000000   8.0000000   1.0000000   1.0000000   8.0000000   1.0000000

  Atom        91          92          93          94          95          96          97
 IAtWgt=           1          16           1           1          16           1           1
 AtmWgt=   1.0078250  15.9949146   1.0078250   1.0078250  15.9949146   1.0078250   1.0078250
 NucSpn=           1           0           1           1           0           1           1
 AtZEff=   0.0000000   0.0000000   0.0000000   0.0000000   0.0000000   0.0000000   0.0000000
 NQMom=    0.0000000   0.0000000   0.0000000   0.0000000   0.0000000   0.0000000   0.0000000
 NMagM=    2.7928460   0.0000000   2.7928460   2.7928460   0.0000000   2.7928460   2.7928460
 AtZNuc=   1.0000000   8.0000000   1.0000000   1.0000000   8.0000000   1.0000000   1.0000000
 Leave Link  101 at Thu May  3 00:48:37 2018, MaxMem= 14763950080 cpu:        12.6
 (Enter /cm/shared/gaussian/g09.e01/intel64-sandybridge/g09/l103.exe)

 GradGradGradGradGradGradGradGradGradGradGradGradGradGradGradGradGradGrad
 Berny optimization.
 Initialization pass.
 Trust Radius=3.00D-01 FncErr=1.00D-07 GrdErr=1.00D-07
 Number of steps in this run=      2 maximum allowed number of steps=      2.
 GradGradGradGradGradGradGradGradGradGradGradGradGradGradGradGradGradGrad

 Leave Link  103 at Thu May  3 00:48:37 2018, MaxMem= 14763950080 cpu:         1.7
 (Enter /cm/shared/gaussian/g09.e01/intel64-sandybridge/g09/l202.exe)
 Symmetry turned off by external request.
 Stoichiometry    BrH64O32(1-)
 Framework group  C1[X(BrH64O32)]
 Deg. of freedom   285
 Full point group                 C1      NOp   1
                          Input orientation:                          
 ---------------------------------------------------------------------
 Center     Atomic      Atomic             Coordinates (Angstroms)
 Number     Number       Type             X           Y           Z
 ---------------------------------------------------------------------
      1         35           0       20.000000   20.000000   20.000000
      2          8           0       18.370000   18.340000   22.040000
      3          1           0       18.710000   18.910000   21.340000
      4          1           0       17.420000   18.390000   21.950000
      5          8           0       20.770000   16.990000   19.520000
      6          1           0       20.560000   17.910000   19.720000
      7          1           0       21.380000   16.730000   20.210000
      8          8           0       17.540000   19.850000   17.970000
      9          1           0       18.350000   19.840000   18.470000
     10          1           0       17.510000   20.720000   17.570000
     11          8           0       18.510000   22.820000   19.620000
     12          1           0       18.960000   22.000000   19.800000
     13          1           0       18.120000   22.690000   18.750000
     14          8           0       21.190000   21.690000   22.490000
     15          1           0       20.700000   21.410000   21.710000
     16          1           0       22.040000   21.270000   22.400000
     17          8           0       21.170000   22.650000   17.870000
     18          1           0       20.820000   21.960000   18.440000
     19          1           0       20.400000   23.180000   17.630000
     20          8           0       16.290000   19.860000   20.510000
     21          1           0       16.260000   20.100000   19.580000
     22          1           0       16.980000   20.400000   20.880000
     23          8           0       23.500000   20.790000   18.090000
     24          1           0       23.190000   20.510000   18.950000
     25          1           0       22.810000   21.360000   17.760000
     26          8           0       18.110000   21.450000   23.340000
     27          1           0       18.330000   20.850000   24.060000
     28          1           0       18.960000   21.640000   22.930000
     29          8           0       18.530000   17.050000   17.610000
     30          1           0       19.340000   16.990000   18.120000
     31          1           0       18.180000   17.910000   17.820000
     32          8           0       21.410000   17.800000   23.420000
     33          1           0       21.090000   17.520000   24.280000
     34          1           0       20.630000   17.900000   22.880000
     35          8           0       20.640000   24.300000   21.030000
     36          1           0       20.920000   23.500000   21.480000
     37          1           0       19.800000   24.070000   20.640000
     38          8           0       22.690000   16.790000   21.430000
     39          1           0       22.180000   17.040000   22.200000
     40          1           0       22.870000   15.860000   21.550000
     41          8           0       17.890000   22.340000   16.960000
     42          1           0       18.600000   22.410000   16.320000
     43          1           0       17.150000   22.760000   16.540000
     44          8           0       23.830000   20.500000   22.200000
     45          1           0       24.070000   19.610000   22.460000
     46          1           0       24.180000   21.050000   22.910000
     47          8           0       23.700000   23.030000   20.390000
     48          1           0       23.440000   22.700000   21.250000
     49          1           0       23.420000   23.950000   20.390000
     50          8           0       16.410000   23.380000   21.550000
     51          1           0       16.790000   22.730000   22.130000
     52          1           0       16.920000   23.310000   20.740000
     53          8           0       24.260000   16.750000   18.780000
     54          1           0       23.420000   16.960000   19.180000
     55          1           0       24.170000   17.010000   17.870000
     56          8           0       18.710000   17.000000   24.520000
     57          1           0       18.030000   16.370000   24.280000
     58          1           0       18.660000   17.670000   23.850000
     59          8           0       21.690000   14.700000   17.670000
     60          1           0       21.170000   13.920000   17.870000
     61          1           0       21.270000   15.400000   18.180000
     62          8           0       15.400000   18.180000   17.310000
     63          1           0       16.170000   18.590000   16.920000
     64          1           0       15.200000   17.450000   16.730000
     65          8           0       21.850000   25.390000   17.790000
     66          1           0       22.780000   25.640000   17.810000
     67          1           0       21.850000   24.440000   17.880000
     68          8           0       14.740000   17.750000   21.770000
     69          1           0       15.140000   18.550000   21.420000
     70          1           0       14.940000   17.080000   21.110000
     71          8           0       18.910000   18.940000   14.160000
     72          1           0       19.240000   18.550000   14.970000
     73          1           0       19.610000   18.800000   13.520000
     74          8           0       19.990000   22.260000   15.180000
     75          1           0       19.690000   22.210000   14.270000
     76          1           0       20.940000   22.350000   15.110000
     77          8           0       21.500000   17.250000   15.080000
     78          1           0       21.960000   17.060000   14.260000
     79          1           0       22.190000   17.430000   15.710000
     80          8           0       17.080000   14.550000   18.720000
     81          1           0       17.850000   14.110000   19.090000
     82          1           0       17.420000   15.360000   18.340000
     83          8           0       26.100000   21.540000   17.930000
     84          1           0       25.330000   21.190000   18.360000
     85          1           0       26.180000   22.430000   18.270000
     86          8           0       18.150000   23.200000   25.410000
     87          1           0       17.710000   22.890000   26.200000
     88          1           0       17.970000   22.520000   24.760000
     89          8           0       22.960000   22.030000   15.120000
     90          1           0       23.150000   22.770000   15.680000
     91          1           0       23.410000   21.290000   15.520000
     92          8           0       19.540000   20.820000   25.720000
     93          1           0       20.360000   20.350000   25.880000
     94          1           0       19.260000   21.110000   26.590000
     95          8           0       25.000000   18.190000   23.300000
     96          1           0       25.210000   17.700000   22.510000
     97          1           0       24.110000   17.910000   23.520000
 ---------------------------------------------------------------------
 Rotational constants (GHZ):      0.0564401      0.0521055      0.0485221
 Leave Link  202 at Thu May  3 00:48:37 2018, MaxMem= 14763950080 cpu:         0.5
 (Enter /cm/shared/gaussian/g09.e01/intel64-sandybridge/g09/l122.exe)
 Counterpoise: doing full dimer calculation.
 Leave Link  122 at Thu May  3 00:48:37 2018, MaxMem= 14763950080 cpu:         0.1
 (Enter /cm/shared/gaussian/g09.e01/intel64-sandybridge/g09/l301.exe)
 Standard basis: CC-pVDZ (5D, 7F)
 Ernie: Thresh=  0.10000D-02 Tol=  0.10000D-05 Strict=F.
 Ernie:  87 primitive shells out of 1114 were deleted.
   795 basis functions,  1651 primitive gaussians,   829 cartesian basis functions
   178 alpha electrons      178 beta electrons
       nuclear repulsion energy      6009.2786382811 Hartrees.
 IExCor= 1009 DFT=T Ex+Corr=PBE1PBE ExCW=0 ScaHFX=  0.250000
 ScaDFX=  0.750000  0.750000  1.000000  1.000000 ScalE2=  1.000000  1.000000
 IRadAn=      0 IRanWt=     -1 IRanGd=            0 ICorTp=0 IEmpDi=  4
 NAtoms=   97 NActive=   97 NUniq=   97 SFac= 1.00D+00 NAtFMM=   60 NAOKFM=T Big=T
 Integral buffers will be    131072 words long.
 Raffenetti 2 integral format.
 Two-electron integral symmetry is turned off.
 Leave Link  301 at Thu May  3 00:48:37 2018, MaxMem= 14763950080 cpu:         4.3
 (Enter /cm/shared/gaussian/g09.e01/intel64-sandybridge/g09/l302.exe)
 NPDir=0 NMtPBC=     1 NCelOv=     1 NCel=       1 NClECP=     1 NCelD=      1
         NCelK=      1 NCelE2=     1 NClLst=     1 CellRange=     0.0.
 One-electron integrals computed using PRISM.
 NBasis=   795 RedAO= T EigKep=  1.44D-02  NBF=   795
 NBsUse=   795 1.00D-06 EigRej= -1.00D+00 NBFU=   795
 Precomputing XC quadrature grid using
 IXCGrd= 4 IRadAn=           0 IRanWt=          -1 IRanGd=           0 AccXCQ= 0.00D+00.
 Generated NRdTot=       0 NPtTot=           0 NUsed=           0 NTot=          32
 NSgBfM=   677   693   699   714   714 MxSgAt=    97 MxSgA2=    97.
 Leave Link  302 at Thu May  3 00:48:44 2018, MaxMem= 14763950080 cpu:       424.3
 (Enter /cm/shared/gaussian/g09.e01/intel64-sandybridge/g09/l303.exe)
 DipDrv:  MaxL=1.
 Leave Link  303 at Thu May  3 00:48:45 2018, MaxMem= 14763950080 cpu:        28.9
 (Enter /cm/shared/gaussian/g09.e01/intel64-sandybridge/g09/l401.exe)
 ExpMin= 1.22D-01 ExpMax= 6.40D+05 ExpMxC= 6.18D+03 IAcc=2 IRadAn=         4 AccDes= 0.00D+00
 Harris functional with IExCor= 1009 and IRadAn=       4 diagonalized for initial guess.
 HarFok:  IExCor= 1009 AccDes= 0.00D+00 IRadAn=         4 IDoV= 1 UseB2=F ITyADJ=14
 ICtDFT=  3500011 ScaDFX=  1.000000  1.000000  1.000000  1.000000
 FoFCou: FMM=F IPFlag=           0 FMFlag=      100000 FMFlg1=        2001
         NFxFlg=           0 DoJE=T BraDBF=F KetDBF=T FulRan=T
         wScrn=  0.000000 ICntrl=     500 IOpCl=  0 I1Cent=   200000004 NGrid=           0
         NMat0=    1 NMatS0=      1 NMatT0=    0 NMatD0=    1 NMtDS0=    0 NMtDT0=    0
 Symmetry not used in FoFCou.
 Harris En= -5018.41971866348    
 JPrj=0 DoOrth=F DoCkMO=F.
 Leave Link  401 at Thu May  3 00:48:50 2018, MaxMem= 14763950080 cpu:       306.8
 (Enter /cm/shared/gaussian/g09.e01/intel64-sandybridge/g09/l502.exe)
 Closed shell SCF:
 Using DIIS extrapolation, IDIIS=  1040.
 Two-electron integral symmetry not used.
 IVT=     2138497 IEndB=     2138497 NGot= 14763950080 MDV= 14762516294
 LenX= 14762516294 LenY= 14761828224
 Requested convergence on RMS density matrix=1.00D-08 within 128 cycles.
 Requested convergence on MAX density matrix=1.00D-06.
 Requested convergence on             energy=1.00D-06.
 No special actions if energy rises.
 Fock matrices will be formed incrementally for  20 cycles.
 Integral accuracy reduced to 1.0D-05 until final iterations.

 Cycle   1  Pass 0  IDiag  1:
 FoFJK:  IHMeth= 1 ICntrl=       0 DoSepK=F KAlg= 0 I1Cent=   0 FoldK=F
 IRaf= 790000000 NMat=   1 IRICut=       1 DoRegI=T DoRafI=F ISym2E= 0.
 FoFCou: FMM=T IPFlag=           0 FMFlag=      100000 FMFlg1=        2001
         NFxFlg=           0 DoJE=F BraDBF=F KetDBF=F FulRan=T
         wScrn=  0.000000 ICntrl=       0 IOpCl=  0 I1Cent=           0 NGrid=           0
         NMat0=    1 NMatS0=      1 NMatT0=    0 NMatD0=    1 NMtDS0=    0 NMtDT0=    0
 Symmetry not used in FoFCou.
 FMM levels:  10  Number of levels for PrismC:   9
 E= -5015.26051901193    
 DIIS: error= 3.39D-02 at cycle   1 NSaved=   1.
 NSaved= 1 IEnMin= 1 EnMin= -5015.26051901193     IErMin= 1 ErrMin= 3.39D-02
 ErrMax= 3.39D-02  0.00D+00 EMaxC= 1.00D-01 BMatC= 2.76D+00 BMatP= 2.76D+00
 IDIUse=3 WtCom= 6.61D-01 WtEn= 3.39D-01
 Coeff-Com:  0.100D+01
 Coeff-En:   0.100D+01
 Coeff:      0.100D+01
 Gap=     0.339 Goal=   None    Shift=    0.000
 GapD=    0.339 DampG=1.000 DampE=0.500 DampFc=0.5000 IDamp=-1.
 Damping current iteration by 5.00D-01
 RMSDP=2.85D-03 MaxDP=1.59D-01              OVMax= 1.79D-01

 Cycle   2  Pass 0  IDiag  1:
 RMSU=  1.41D-03    CP:  9.85D-01
 E= -5016.06273659988     Delta-E=       -0.802217587949 Rises=F Damp=T
 DIIS: error= 7.68D-03 at cycle   2 NSaved=   2.
 NSaved= 2 IEnMin= 2 EnMin= -5016.06273659988     IErMin= 2 ErrMin= 7.68D-03
 ErrMax= 7.68D-03  0.00D+00 EMaxC= 1.00D-01 BMatC= 8.79D-02 BMatP= 2.76D+00
 IDIUse=3 WtCom= 9.23D-01 WtEn= 7.68D-02
 Coeff-Com:  0.120D+00 0.880D+00
 Coeff-En:   0.215D+00 0.785D+00
 Coeff:      0.127D+00 0.873D+00
 Gap=     0.241 Goal=   None    Shift=    0.000
 RMSDP=3.49D-04 MaxDP=2.20D-02 DE=-8.02D-01 OVMax= 1.07D-01

 Cycle   3  Pass 0  IDiag  1:
 RMSU=  2.69D-04    CP:  9.87D-01  8.45D-01
 E= -5017.22910330801     Delta-E=       -1.166366708130 Rises=F Damp=F
 DIIS: error= 1.13D-03 at cycle   3 NSaved=   3.
 NSaved= 3 IEnMin= 3 EnMin= -5017.22910330801     IErMin= 3 ErrMin= 1.13D-03
 ErrMax= 1.13D-03  0.00D+00 EMaxC= 1.00D-01 BMatC= 1.33D-03 BMatP= 8.79D-02
 IDIUse=3 WtCom= 9.89D-01 WtEn= 1.13D-02
 Coeff-Com:  0.800D-02 0.544D-01 0.938D+00
 Coeff-En:   0.000D+00 0.000D+00 0.100D+01
 Coeff:      0.791D-02 0.538D-01 0.938D+00
 Gap=     0.250 Goal=   None    Shift=    0.000
 RMSDP=8.58D-05 MaxDP=1.33D-02 DE=-1.17D+00 OVMax= 1.29D-02

 Cycle   4  Pass 0  IDiag  1:
 RMSU=  7.59D-05    CP:  9.87D-01  8.48D-01  8.52D-01
 E= -5017.22954852221     Delta-E=       -0.000445214195 Rises=F Damp=F
 DIIS: error= 8.42D-04 at cycle   4 NSaved=   4.
 NSaved= 4 IEnMin= 4 EnMin= -5017.22954852221     IErMin= 4 ErrMin= 8.42D-04
 ErrMax= 8.42D-04  0.00D+00 EMaxC= 1.00D-01 BMatC= 1.18D-03 BMatP= 1.33D-03
 IDIUse=3 WtCom= 9.92D-01 WtEn= 8.42D-03
 Coeff-Com:  0.223D-02 0.669D-02 0.482D+00 0.509D+00
 Coeff-En:   0.000D+00 0.000D+00 0.397D+00 0.603D+00
 Coeff:      0.221D-02 0.663D-02 0.481D+00 0.510D+00
 Gap=     0.249 Goal=   None    Shift=    0.000
 RMSDP=3.71D-05 MaxDP=5.46D-03 DE=-4.45D-04 OVMax= 5.70D-03

 Cycle   5  Pass 0  IDiag  1:
 RMSU=  1.60D-05    CP:  9.87D-01  8.45D-01  9.06D-01  6.05D-01
 E= -5017.23050632600     Delta-E=       -0.000957803790 Rises=F Damp=F
 DIIS: error= 1.33D-04 at cycle   5 NSaved=   5.
 NSaved= 5 IEnMin= 5 EnMin= -5017.23050632600     IErMin= 5 ErrMin= 1.33D-04
 ErrMax= 1.33D-04  0.00D+00 EMaxC= 1.00D-01 BMatC= 3.98D-05 BMatP= 1.18D-03
 IDIUse=3 WtCom= 9.99D-01 WtEn= 1.33D-03
 Coeff-Com:  0.716D-03-0.194D-02 0.143D+00 0.203D+00 0.655D+00
 Coeff-En:   0.000D+00 0.000D+00 0.000D+00 0.000D+00 0.100D+01
 Coeff:      0.715D-03-0.193D-02 0.143D+00 0.203D+00 0.655D+00
 Gap=     0.249 Goal=   None    Shift=    0.000
 RMSDP=7.44D-06 MaxDP=8.08D-04 DE=-9.58D-04 OVMax= 7.55D-04

 Initial convergence to 1.0D-05 achieved.  Increase integral accuracy.
 Cycle   6  Pass 1  IDiag  1:
 E= -5017.23141034382     Delta-E=       -0.000904017827 Rises=F Damp=F
 DIIS: error= 6.35D-05 at cycle   1 NSaved=   1.
 NSaved= 1 IEnMin= 1 EnMin= -5017.23141034382     IErMin= 1 ErrMin= 6.35D-05
 ErrMax= 6.35D-05  0.00D+00 EMaxC= 1.00D-01 BMatC= 5.05D-06 BMatP= 5.05D-06
 IDIUse=1 WtCom= 1.00D+00 WtEn= 0.00D+00
 Coeff-Com:  0.100D+01
 Coeff:      0.100D+01
 Gap=     0.249 Goal=   None    Shift=    0.000
 RMSDP=7.44D-06 MaxDP=8.08D-04 DE=-9.04D-04 OVMax= 4.73D-04

 Cycle   7  Pass 1  IDiag  1:
 RMSU=  5.74D-06    CP:  1.00D+00
 E= -5017.23141034366     Delta-E=        0.000000000162 Rises=F Damp=F
 DIIS: error= 5.24D-05 at cycle   2 NSaved=   2.
 NSaved= 2 IEnMin= 1 EnMin= -5017.23141034382     IErMin= 2 ErrMin= 5.24D-05
 ErrMax= 5.24D-05  0.00D+00 EMaxC= 1.00D-01 BMatC= 5.69D-06 BMatP= 5.05D-06
 IDIUse=1 WtCom= 1.00D+00 WtEn= 0.00D+00
 Coeff-Com:  0.516D+00 0.484D+00
 Coeff:      0.516D+00 0.484D+00
 Gap=     0.249 Goal=   None    Shift=    0.000
 RMSDP=2.26D-06 MaxDP=2.40D-04 DE= 1.62D-10 OVMax= 2.42D-04

 Cycle   8  Pass 1  IDiag  1:
 RMSU=  1.75D-06    CP:  1.00D+00  7.50D-01
 E= -5017.23141437861     Delta-E=       -0.000004034946 Rises=F Damp=F
 DIIS: error= 1.08D-05 at cycle   3 NSaved=   3.
 NSaved= 3 IEnMin= 3 EnMin= -5017.23141437861     IErMin= 3 ErrMin= 1.08D-05
 ErrMax= 1.08D-05  0.00D+00 EMaxC= 1.00D-01 BMatC= 1.72D-07 BMatP= 5.05D-06
 IDIUse=1 WtCom= 1.00D+00 WtEn= 0.00D+00
 Coeff-Com:  0.950D-01 0.179D+00 0.726D+00
 Coeff:      0.950D-01 0.179D+00 0.726D+00
 Gap=     0.249 Goal=   None    Shift=    0.000
 RMSDP=5.14D-07 MaxDP=7.85D-05 DE=-4.03D-06 OVMax= 7.74D-05

 Cycle   9  Pass 1  IDiag  1:
 RMSU=  4.78D-07    CP:  1.00D+00  7.65D-01  9.04D-01
 E= -5017.23141449124     Delta-E=       -0.000000112628 Rises=F Damp=F
 DIIS: error= 5.35D-06 at cycle   4 NSaved=   4.
 NSaved= 4 IEnMin= 4 EnMin= -5017.23141449124     IErMin= 4 ErrMin= 5.35D-06
 ErrMax= 5.35D-06  0.00D+00 EMaxC= 1.00D-01 BMatC= 1.68D-08 BMatP= 1.72D-07
 IDIUse=1 WtCom= 1.00D+00 WtEn= 0.00D+00
 Coeff-Com: -0.352D-02 0.349D-01 0.314D+00 0.655D+00
 Coeff:     -0.352D-02 0.349D-01 0.314D+00 0.655D+00
 Gap=     0.249 Goal=   None    Shift=    0.000
 RMSDP=1.85D-07 MaxDP=3.93D-05 DE=-1.13D-07 OVMax= 3.58D-05

 Cycle  10  Pass 1  IDiag  1:
 RMSU=  4.34D-08    CP:  1.00D+00  7.75D-01  9.13D-01  6.44D-01
 E= -5017.23141450747     Delta-E=       -0.000000016229 Rises=F Damp=F
 DIIS: error= 3.32D-07 at cycle   5 NSaved=   5.
 NSaved= 5 IEnMin= 5 EnMin= -5017.23141450747     IErMin= 5 ErrMin= 3.32D-07
 ErrMax= 3.32D-07  0.00D+00 EMaxC= 1.00D-01 BMatC= 1.62D-10 BMatP= 1.68D-08
 IDIUse=1 WtCom= 1.00D+00 WtEn= 0.00D+00
 Coeff-Com: -0.213D-02 0.114D-01 0.112D+00 0.258D+00 0.621D+00
 Coeff:     -0.213D-02 0.114D-01 0.112D+00 0.258D+00 0.621D+00
 Gap=     0.249 Goal=   None    Shift=    0.000
 RMSDP=1.48D-08 MaxDP=1.48D-06 DE=-1.62D-08 OVMax= 1.59D-06

 Cycle  11  Pass 1  IDiag  1:
 RMSU=  1.28D-08    CP:  1.00D+00  7.75D-01  9.13D-01  6.56D-01  8.98D-01
 E= -5017.23141450771     Delta-E=       -0.000000000242 Rises=F Damp=F
 DIIS: error= 1.34D-07 at cycle   6 NSaved=   6.
 NSaved= 6 IEnMin= 6 EnMin= -5017.23141450771     IErMin= 6 ErrMin= 1.34D-07
 ErrMax= 1.34D-07  0.00D+00 EMaxC= 1.00D-01 BMatC= 2.37D-11 BMatP= 1.62D-10
 IDIUse=1 WtCom= 1.00D+00 WtEn= 0.00D+00
 Coeff-Com: -0.576D-03 0.105D-02 0.147D-01 0.459D-01 0.296D+00 0.643D+00
 Coeff:     -0.576D-03 0.105D-02 0.147D-01 0.459D-01 0.296D+00 0.643D+00
 Gap=     0.249 Goal=   None    Shift=    0.000
 RMSDP=5.45D-09 MaxDP=7.04D-07 DE=-2.42D-10 OVMax= 6.79D-07

 SCF Done:  E(RPBE1PBE) =  -5017.23141451     A.U. after   11 cycles
            NFock= 11  Conv=0.55D-08     -V/T= 2.0028
 KE= 5.003252632689D+03 PE=-2.398595068101D+04 EE= 7.956187995534D+03
 Leave Link  502 at Thu May  3 00:50:43 2018, MaxMem= 14763950080 cpu:      7186.8
 (Enter /cm/shared/gaussian/g09.e01/intel64-sandybridge/g09/l601.exe)
 Copying SCF densities to generalized density rwf, IOpCl= 0 IROHF=0.

 **********************************************************************

            Population analysis using the SCF density.

 **********************************************************************

 Alpha  occ. eigenvalues -- -483.15880 -62.56216 -56.33459 -56.33437 -56.33434
 Alpha  occ. eigenvalues --  -19.17679 -19.17558 -19.17008 -19.15821 -19.15677
 Alpha  occ. eigenvalues --  -19.15123 -19.15082 -19.14590 -19.14346 -19.13763
 Alpha  occ. eigenvalues --  -19.13017 -19.12525 -19.12229 -19.12225 -19.11733
 Alpha  occ. eigenvalues --  -19.11709 -19.11575 -19.11535 -19.11182 -19.11177
 Alpha  occ. eigenvalues --  -19.10820 -19.10781 -19.10682 -19.10405 -19.09822
 Alpha  occ. eigenvalues --  -19.09367 -19.08910 -19.08622 -19.08377 -19.08118
 Alpha  occ. eigenvalues --  -19.06854 -19.06208  -8.66582  -6.46966  -6.46862
 Alpha  occ. eigenvalues --   -6.46846  -2.55239  -2.55211  -2.55198  -2.55116
 Alpha  occ. eigenvalues --   -2.55109  -1.00851  -1.00674  -0.99654  -0.98427
 Alpha  occ. eigenvalues --   -0.98391  -0.97535  -0.97343  -0.96800  -0.96647
 Alpha  occ. eigenvalues --   -0.96271  -0.95420  -0.95330  -0.95222  -0.95037
 Alpha  occ. eigenvalues --   -0.94825  -0.94303  -0.94148  -0.94108  -0.93437
 Alpha  occ. eigenvalues --   -0.93386  -0.93336  -0.93142  -0.93131  -0.92907
 Alpha  occ. eigenvalues --   -0.92290  -0.91977  -0.91347  -0.91159  -0.91060
 Alpha  occ. eigenvalues --   -0.90878  -0.89467  -0.88991  -0.66485  -0.52022
 Alpha  occ. eigenvalues --   -0.50911  -0.49818  -0.49126  -0.48568  -0.48291
 Alpha  occ. eigenvalues --   -0.47904  -0.47669  -0.47531  -0.47137  -0.46912
 Alpha  occ. eigenvalues --   -0.46448  -0.46139  -0.45998  -0.45966  -0.45464
 Alpha  occ. eigenvalues --   -0.44917  -0.44663  -0.44215  -0.44120  -0.44037
 Alpha  occ. eigenvalues --   -0.43867  -0.43838  -0.43228  -0.43173  -0.42233
 Alpha  occ. eigenvalues --   -0.42221  -0.42134  -0.41961  -0.41738  -0.40593
 Alpha  occ. eigenvalues --   -0.40037  -0.38618  -0.37807  -0.35771  -0.35371
 Alpha  occ. eigenvalues --   -0.35002  -0.34655  -0.34514  -0.33930  -0.33489
 Alpha  occ. eigenvalues --   -0.33422  -0.32832  -0.32381  -0.32358  -0.31640
 Alpha  occ. eigenvalues --   -0.31296  -0.31133  -0.30931  -0.30538  -0.29869
 Alpha  occ. eigenvalues --   -0.29794  -0.29474  -0.29335  -0.29176  -0.29153
 Alpha  occ. eigenvalues --   -0.29002  -0.28278  -0.28172  -0.27954  -0.27856
 Alpha  occ. eigenvalues --   -0.27389  -0.27311  -0.27156  -0.26788  -0.26671
 Alpha  occ. eigenvalues --   -0.26551  -0.26247  -0.25789  -0.25635  -0.25469
 Alpha  occ. eigenvalues --   -0.25021  -0.24928  -0.24169  -0.23907  -0.23762
 Alpha  occ. eigenvalues --   -0.23316  -0.23210  -0.23007  -0.22802  -0.22615
 Alpha  occ. eigenvalues --   -0.22361  -0.21780  -0.21651  -0.21602  -0.21497
 Alpha  occ. eigenvalues --   -0.21250  -0.21144  -0.20897  -0.20831  -0.20293
 Alpha  occ. eigenvalues --   -0.20178  -0.20012  -0.19822  -0.19622  -0.19247
 Alpha  occ. eigenvalues --   -0.19242  -0.17806  -0.17350
 Alpha virt. eigenvalues --    0.07591   0.09114   0.10157   0.11032   0.11589
 Alpha virt. eigenvalues --    0.12519   0.12884   0.13511   0.14272   0.14943
 Alpha virt. eigenvalues --    0.15119   0.15778   0.16424   0.16579   0.17144
 Alpha virt. eigenvalues --    0.17494   0.18259   0.18378   0.18783   0.19241
 Alpha virt. eigenvalues --    0.19593   0.20200   0.20465   0.20635   0.20926
 Alpha virt. eigenvalues --    0.20953   0.21534   0.21874   0.22160   0.22727
 Alpha virt. eigenvalues --    0.23416   0.23785   0.24810   0.25097   0.25944
 Alpha virt. eigenvalues --    0.26435   0.26646   0.26760   0.27097   0.27682
 Alpha virt. eigenvalues --    0.28516   0.28808   0.29151   0.29267   0.29876
 Alpha virt. eigenvalues --    0.30257   0.30887   0.31194   0.31773   0.32372
 Alpha virt. eigenvalues --    0.32554   0.33174   0.33747   0.34079   0.34589
 Alpha virt. eigenvalues --    0.34924   0.35634   0.36197   0.36503   0.36709
 Alpha virt. eigenvalues --    0.37051   0.37664   0.38702   0.40053   0.56758
 Alpha virt. eigenvalues --    0.58098   0.59961   0.60510   0.61265   0.61730
 Alpha virt. eigenvalues --    0.62240   0.62577   0.62881   0.63161   0.63483
 Alpha virt. eigenvalues --    0.63953   0.64318   0.64592   0.65233   0.65473
 Alpha virt. eigenvalues --    0.65560   0.65819   0.66329   0.66502   0.66917
 Alpha virt. eigenvalues --    0.67201   0.67331   0.67613   0.67996   0.68134
 Alpha virt. eigenvalues --    0.68405   0.68547   0.68613   0.69004   0.69171
 Alpha virt. eigenvalues --    0.69487   0.70112   0.70303   0.70558   0.70820
 Alpha virt. eigenvalues --    0.70994   0.71326   0.71692   0.72039   0.72590
 Alpha virt. eigenvalues --    0.72734   0.73045   0.73515   0.73676   0.73907
 Alpha virt. eigenvalues --    0.74210   0.74324   0.74580   0.74836   0.75867
 Alpha virt. eigenvalues --    0.76131   0.76473   0.76811   0.76871   0.77269
 Alpha virt. eigenvalues --    0.77469   0.77925   0.78480   0.79285   0.80271
 Alpha virt. eigenvalues --    0.80686   0.82213   0.82374   0.83126   0.83385
 Alpha virt. eigenvalues --    0.84654   0.85303   0.86883   0.88236   0.89300
 Alpha virt. eigenvalues --    0.92204   0.92503   0.92643   0.94491   0.95213
 Alpha virt. eigenvalues --    0.95735   0.95914   0.96312   0.96900   0.96936
 Alpha virt. eigenvalues --    0.97485   0.97801   0.98163   0.99067   0.99267
 Alpha virt. eigenvalues --    0.99863   1.00225   1.00486   1.00937   1.01382
 Alpha virt. eigenvalues --    1.01802   1.01948   1.02160   1.02282   1.02695
 Alpha virt. eigenvalues --    1.03039   1.03475   1.03704   1.03962   1.04087
 Alpha virt. eigenvalues --    1.04443   1.04759   1.04995   1.05063   1.05308
 Alpha virt. eigenvalues --    1.05375   1.05671   1.06350   1.06519   1.06658
 Alpha virt. eigenvalues --    1.07128   1.07254   1.07837   1.07876   1.08153
 Alpha virt. eigenvalues --    1.08289   1.08565   1.08758   1.08964   1.09315
 Alpha virt. eigenvalues --    1.09700   1.09897   1.10270   1.10621   1.10850
 Alpha virt. eigenvalues --    1.11105   1.11233   1.11558   1.12148   1.12301
 Alpha virt. eigenvalues --    1.12945   1.13159   1.13449   1.13755   1.14063
 Alpha virt. eigenvalues --    1.14339   1.14533   1.14950   1.15087   1.15605
 Alpha virt. eigenvalues --    1.15824   1.15982   1.16063   1.16853   1.16927
 Alpha virt. eigenvalues --    1.17409   1.17631   1.17858   1.18273   1.18710
 Alpha virt. eigenvalues --    1.19208   1.19755   1.20111   1.20696   1.20797
 Alpha virt. eigenvalues --    1.21372   1.22302   1.22672   1.22818   1.23453
 Alpha virt. eigenvalues --    1.23691   1.24505   1.24801   1.25843   1.26034
 Alpha virt. eigenvalues --    1.26547   1.26968   1.27631   1.27644   1.27958
 Alpha virt. eigenvalues --    1.28201   1.29073   1.29472   1.29836   1.30131
 Alpha virt. eigenvalues --    1.30338   1.30589   1.30783   1.31195   1.31302
 Alpha virt. eigenvalues --    1.31486   1.31721   1.31985   1.32322   1.32592
 Alpha virt. eigenvalues --    1.32826   1.32934   1.33362   1.33565   1.33660
 Alpha virt. eigenvalues --    1.33832   1.33866   1.34140   1.34317   1.34509
 Alpha virt. eigenvalues --    1.34657   1.35099   1.35212   1.35325   1.35600
 Alpha virt. eigenvalues --    1.35854   1.36130   1.36282   1.37232   1.37351
 Alpha virt. eigenvalues --    1.37651   1.37875   1.38448   1.38862   1.39371
 Alpha virt. eigenvalues --    1.39590   1.39828   1.40215   1.40559   1.40898
 Alpha virt. eigenvalues --    1.41149   1.41363   1.41940   1.42296   1.43371
 Alpha virt. eigenvalues --    1.44003   1.44548   1.45231   1.45727   1.45842
 Alpha virt. eigenvalues --    1.46436   1.46929   1.47173   1.47883   1.48379
 Alpha virt. eigenvalues --    1.49254   1.49412   1.50393   1.50940   1.51336
 Alpha virt. eigenvalues --    1.51377   1.51895   1.52133   1.52938   1.53477
 Alpha virt. eigenvalues --    1.53626   1.53751   1.54101   1.54209   1.54386
 Alpha virt. eigenvalues --    1.54692   1.55517   1.55779   1.55961   1.56286
 Alpha virt. eigenvalues --    1.56391   1.56749   1.57153   1.57911   1.58196
 Alpha virt. eigenvalues --    1.58529   1.59806   1.60363   1.61063   1.62258
 Alpha virt. eigenvalues --    1.64598   1.64992   1.65353   1.66062   1.68294
 Alpha virt. eigenvalues --    1.69272   1.69445   1.69939   1.70557   1.71049
 Alpha virt. eigenvalues --    1.73238   1.73875   1.73976   1.74111   1.74265
 Alpha virt. eigenvalues --    1.74684   1.74966   1.75159   1.75728   1.75858
 Alpha virt. eigenvalues --    1.76002   1.76269   1.76364   1.76958   1.77240
 Alpha virt. eigenvalues --    1.77755   1.77869   1.78175   1.78443   1.78891
 Alpha virt. eigenvalues --    1.79536   1.80058   1.80588   1.80826   1.80993
 Alpha virt. eigenvalues --    1.81236   1.81690   1.82108   1.83287   1.83552
 Alpha virt. eigenvalues --    1.83698   1.83981   1.84597   1.84916   1.85147
 Alpha virt. eigenvalues --    1.86063   1.86092   1.86449   1.86782   1.86932
 Alpha virt. eigenvalues --    1.88169   1.88472   1.88996   1.89552   1.91061
 Alpha virt. eigenvalues --    1.91597   1.91774   1.92057   1.93201   1.94620
 Alpha virt. eigenvalues --    1.95189   1.96858   1.97260   1.97616   1.98780
 Alpha virt. eigenvalues --    2.00137   2.01981   2.06073   2.18509   2.19450
 Alpha virt. eigenvalues --    2.20631   2.20670   2.20861   2.21015   2.21466
 Alpha virt. eigenvalues --    2.21631   2.21923   2.22814   2.22950   2.23324
 Alpha virt. eigenvalues --    2.23374   2.23593   2.23702   2.23999   2.24590
 Alpha virt. eigenvalues --    2.24770   2.25104   2.25172   2.25578   2.25868
 Alpha virt. eigenvalues --    2.26060   2.26318   2.26670   2.26729   2.26898
 Alpha virt. eigenvalues --    2.27077   2.27695   2.27985   2.28411   2.28851
 Alpha virt. eigenvalues --    2.29203   2.29502   2.31037   2.31362   2.31840
 Alpha virt. eigenvalues --    2.32281   2.32522   2.34058   2.35652   2.36104
 Alpha virt. eigenvalues --    2.37186   2.37355   2.38079   2.38606   2.39405
 Alpha virt. eigenvalues --    2.41087   2.42274   2.43453   2.44032   2.44225
 Alpha virt. eigenvalues --    2.44915   2.45377   2.46302   2.46430   2.47546
 Alpha virt. eigenvalues --    2.49466   2.51021   2.51818   2.54295   2.62892
 Alpha virt. eigenvalues --    2.63748   2.64495   2.95084   2.97422   2.97567
 Alpha virt. eigenvalues --    2.97715   2.97763   2.98104   2.98800   2.99044
 Alpha virt. eigenvalues --    2.99527   3.00244   3.00262   3.00410   3.00723
 Alpha virt. eigenvalues --    3.00747   3.01232   3.01356   3.01694   3.01959
 Alpha virt. eigenvalues --    3.02026   3.02208   3.02339   3.02406   3.02493
 Alpha virt. eigenvalues --    3.02595   3.02776   3.03085   3.03113   3.03276
 Alpha virt. eigenvalues --    3.03684   3.03788   3.03874   3.04163   3.04459
 Alpha virt. eigenvalues --    3.04493   3.04670   3.04896   3.05036   3.05367
 Alpha virt. eigenvalues --    3.05554   3.06033   3.06218   3.06373   3.06523
 Alpha virt. eigenvalues --    3.06698   3.06844   3.06901   3.06954   3.07169
 Alpha virt. eigenvalues --    3.07258   3.07689   3.07732   3.07837   3.07944
 Alpha virt. eigenvalues --    3.08155   3.08711   3.08870   3.09054   3.09073
 Alpha virt. eigenvalues --    3.10120   3.10410   3.11175   3.11737   3.12129
 Alpha virt. eigenvalues --    3.14599   3.18269   3.19121   3.19825   3.20107
 Alpha virt. eigenvalues --    3.20892   3.21039   3.21159   3.21980   3.22404
 Alpha virt. eigenvalues --    3.23605   3.24017   3.24247   3.24441   3.24905
 Alpha virt. eigenvalues --    3.24945   3.25080   3.25341   3.25545   3.25621
 Alpha virt. eigenvalues --    3.25808   3.25936   3.26390   3.26472   3.26900
 Alpha virt. eigenvalues --    3.27420   3.27505   3.28348   3.28587   3.29503
 Alpha virt. eigenvalues --    3.29850   3.30320   3.31253   3.53651   3.55206
 Alpha virt. eigenvalues --    3.56709   3.57097   3.57278   3.57543   3.58170
 Alpha virt. eigenvalues --    3.58985   3.59036   3.59289   3.59542   3.60012
 Alpha virt. eigenvalues --    3.60561   3.60790   3.61062   3.61334   3.61633
 Alpha virt. eigenvalues --    3.61862   3.62428   3.62838   3.63233   3.63475
 Alpha virt. eigenvalues --    3.64876   3.64935   3.65209   3.65955   3.66504
 Alpha virt. eigenvalues --    3.67370   3.67833   3.68689   3.69846   3.72233
 Alpha virt. eigenvalues --    3.81453   3.82327   3.82705   3.84000   3.84743
 Alpha virt. eigenvalues --    3.85207   3.85836   3.86123   3.86600   3.86977
 Alpha virt. eigenvalues --    3.87330   3.87963   3.88231   3.88756   3.88893
 Alpha virt. eigenvalues --    3.89332   3.89903   3.90675   3.91184   3.91674
 Alpha virt. eigenvalues --    3.92214   3.92934   3.93767   3.94005   3.95170
 Alpha virt. eigenvalues --    3.95782   3.97073   3.97893   3.98304   3.99278
 Alpha virt. eigenvalues --    3.99791   4.01845
          Condensed to atoms (all electrons):
 Mulliken charges:
               1
     1  Br  -0.706333
     2  O   -0.300527
     3  H    0.161022
     4  H    0.126207
     5  O   -0.303648
     6  H    0.164196
     7  H    0.111528
     8  O   -0.283216
     9  H    0.141773
    10  H    0.133677
    11  O   -0.281056
    12  H    0.134437
    13  H    0.133138
    14  O   -0.284261
    15  H    0.156937
    16  H    0.114409
    17  O   -0.264290
    18  H    0.143001
    19  H    0.152394
    20  O   -0.267532
    21  H    0.138279
    22  H    0.112573
    23  O   -0.272571
    24  H    0.151951
    25  H    0.120348
    26  O   -0.254518
    27  H    0.142132
    28  H    0.145386
    29  O   -0.290497
    30  H    0.131487
    31  H    0.128554
    32  O   -0.259771
    33  H    0.157060
    34  H    0.159674
    35  O   -0.308602
    36  H    0.101889
    37  H    0.128960
    38  O   -0.261802
    39  H    0.141713
    40  H    0.142450
    41  O   -0.243469
    42  H    0.153330
    43  H    0.152741
    44  O   -0.252318
    45  H    0.118216
    46  H    0.142470
    47  O   -0.279865
    48  H    0.118553
    49  H    0.136089
    50  O   -0.312687
    51  H    0.128664
    52  H    0.121250
    53  O   -0.282823
    54  H    0.118041
    55  H    0.128878
    56  O   -0.305446
    57  H    0.140180
    58  H    0.137780
    59  O   -0.292546
    60  H    0.122866
    61  H    0.135877
    62  O   -0.274612
    63  H    0.139698
    64  H    0.125215
    65  O   -0.297908
    66  H    0.127048
    67  H    0.125252
    68  O   -0.310078
    69  H    0.150455
    70  H    0.136780
    71  O   -0.295166
    72  H    0.145150
    73  H    0.122999
    74  O   -0.255987
    75  H    0.140026
    76  H    0.126387
    77  O   -0.248432
    78  H    0.128330
    79  H    0.135399
    80  O   -0.305804
    81  H    0.118330
    82  H    0.129832
    83  O   -0.307062
    84  H    0.132608
    85  H    0.116743
    86  O   -0.283353
    87  H    0.100678
    88  H    0.125306
    89  O   -0.249421
    90  H    0.147438
    91  H    0.160498
    92  O   -0.232780
    93  H    0.132418
    94  H    0.119842
    95  O   -0.247125
    96  H    0.156573
    97  H    0.142388
 Sum of Mulliken charges =  -1.00000
 Mulliken charges with hydrogens summed into heavy atoms:
               1
     1  Br  -0.706333
     2  O   -0.013298
     5  O   -0.027923
     8  O   -0.007765
    11  O   -0.013481
    14  O   -0.012915
    17  O    0.031105
    20  O   -0.016679
    23  O   -0.000272
    26  O    0.032999
    29  O   -0.030455
    32  O    0.056963
    35  O   -0.077753
    38  O    0.022360
    41  O    0.062602
    44  O    0.008368
    47  O   -0.025223
    50  O   -0.062774
    53  O   -0.035904
    56  O   -0.027485
    59  O   -0.033803
    62  O   -0.009699
    65  O   -0.045608
    68  O   -0.022843
    71  O   -0.027017
    74  O    0.010427
    77  O    0.015296
    80  O   -0.057642
    83  O   -0.057711
    86  O   -0.057369
    89  O    0.058515
    92  O    0.019480
    95  O    0.051836
         Mulliken charges condensed to fragments:
      1     -0.706333
      2     -0.293667
 Electronic spatial extent (au):  <R**2>=        1553780.3912
 Charge=             -1.0000 electrons
 Dipole moment (field-independent basis, Debye):
    X=            -89.5448    Y=            -99.5573    Z=            -95.8364  Tot=            164.6650
 Quadrupole moment (field-independent basis, Debye-Ang):
   XX=          -1986.0150   YY=          -2354.2528   ZZ=          -2119.0879
   XY=          -1870.5056   XZ=          -1757.5732   YZ=          -2030.7856
 Traceless Quadrupole moment (field-independent basis, Debye-Ang):
   XX=            167.1036   YY=           -201.1342   ZZ=             34.0306
   XY=          -1870.5056   XZ=          -1757.5732   YZ=          -2030.7856
 Octapole moment (field-independent basis, Debye-Ang**2):
  XXX=         -50254.9876  YYY=         -60385.5280  ZZZ=         -50421.2501  XYY=         -44753.3418
  XXY=         -41371.0269  XXZ=         -38448.0253  XZZ=         -38603.3635  YZZ=         -45537.9607
  YYZ=         -48763.3872  XYZ=         -37552.6616
 Hexadecapole moment (field-independent basis, Debye-Ang**3):
 XXXX=       -1364710.1971 YYYY=       -1609123.0160 ZZZZ=       -1255299.7776 XXXY=       -1036929.4923
 XXXZ=        -965531.6978 YYYX=       -1160633.7124 YYYZ=       -1260158.2573 ZZZX=        -920331.3589
 ZZZY=       -1089014.6445 XXYY=        -976925.3235 XXZZ=        -829289.9711 YYZZ=       -1095178.7364
 XXYZ=        -816821.4170 YYXZ=        -913671.8069 ZZXY=        -836542.3516
 N-N= 6.009278638281D+03 E-N=-2.398595062273D+04  KE= 5.003252632689D+03
 No NMR shielding tensors so no spin-rotation constants.
 Leave Link  601 at Thu May  3 00:50:46 2018, MaxMem= 14763950080 cpu:        69.7
 (Enter /cm/shared/gaussian/g09.e01/intel64-sandybridge/g09/l701.exe)
 Compute integral first derivatives.
 ... and contract with generalized density number  0.
 Leave Link  701 at Thu May  3 00:50:48 2018, MaxMem= 14763950080 cpu:       122.3
 (Enter /cm/shared/gaussian/g09.e01/intel64-sandybridge/g09/l702.exe)
 L702 exits ... SP integral derivatives will be done elsewhere.
 Leave Link  702 at Thu May  3 00:50:48 2018, MaxMem= 14763950080 cpu:         1.7
 (Enter /cm/shared/gaussian/g09.e01/intel64-sandybridge/g09/l703.exe)
 Compute integral first derivatives, UseDBF=F ICtDFT=           0.
 Integral derivatives from FoFJK, PRISM(SPDF).
 Calling FoFJK, ICntrl=      2127 FMM=T ISym2X=0 I1Cent= 0 IOpClX= 0 NMat=1 NMatS=1 NMatT=0.
 FoFJK:  IHMeth= 1 ICntrl=    2127 DoSepK=F KAlg= 0 I1Cent=   0 FoldK=F
 IRaf=         0 NMat=   1 IRICut=       1 DoRegI=T DoRafI=F ISym2E= 0.
 FoFCou: FMM=T IPFlag=           0 FMFlag=      100000 FMFlg1=        2001
         NFxFlg=           0 DoJE=F BraDBF=F KetDBF=F FulRan=T
         wScrn=  0.000000 ICntrl=    2127 IOpCl=  0 I1Cent=           0 NGrid=           0
         NMat0=    1 NMatS0=      1 NMatT0=    0 NMatD0=    1 NMtDS0=    0 NMtDT0=    0
 Symmetry not used in FoFCou.
 FMM levels:  10  Number of levels for PrismC:   9
 Leave Link  703 at Thu May  3 00:51:03 2018, MaxMem= 14763950080 cpu:       952.1
 (Enter /cm/shared/gaussian/g09.e01/intel64-sandybridge/g09/l716.exe)
 Dipole        =-3.52296524D+01-3.91688654D+01-3.77049326D+01
 Cartesian Forces:  Max     0.027139449 RMS     0.009936791
 Leave Link  716 at Thu May  3 00:51:03 2018, MaxMem= 14763950080 cpu:         3.6
 (Enter /cm/shared/gaussian/g09.e01/intel64-sandybridge/g09/l122.exe)
 CPIOFr:  IOpCl= 0 IRwI=-1 IRwCP=  731 ICalc= -1 LCPTot=     1005244 Len1MO=     2550559 IndFrg=     1005244
 CPIOFr:  IOpCl= 0 IRwI=-1 IRwCP=  731 ICalc=  0 LCPTot=     1005244 Len1MO=     2550559 IndFrg=     3555803
 Counterpoise: doing DCBS calculation for fragment   1 NewBq=T
 Leave Link  122 at Thu May  3 00:51:04 2018, MaxMem= 14763950080 cpu:         7.1
 (Enter /cm/shared/gaussian/g09.e01/intel64-sandybridge/g09/l301.exe)
 Basis read from rwf:  (5D, 7F)
 No pseudopotential information found on rwf file.
   795 basis functions,  1651 primitive gaussians,   829 cartesian basis functions
    18 alpha electrons       18 beta electrons
       nuclear repulsion energy         0.0000000000 Hartrees.
 IExCor= 1009 DFT=T Ex+Corr=PBE1PBE ExCW=0 ScaHFX=  0.250000
 ScaDFX=  0.750000  0.750000  1.000000  1.000000 ScalE2=  1.000000  1.000000
 IRadAn=      0 IRanWt=     -1 IRanGd=            0 ICorTp=0 IEmpDi=  4
 NAtoms=   97 NActive=   97 NUniq=   97 SFac= 1.00D+00 NAtFMM=   60 NAOKFM=T Big=T
 Integral buffers will be    131072 words long.
 Raffenetti 2 integral format.
 Two-electron integral symmetry is turned off.
 No density basis found on file   718.
 Leave Link  301 at Thu May  3 00:51:04 2018, MaxMem= 14763950080 cpu:         4.6
 (Enter /cm/shared/gaussian/g09.e01/intel64-sandybridge/g09/l302.exe)
 NPDir=0 NMtPBC=     1 NCelOv=     1 NCel=       1 NClECP=     1 NCelD=      1
         NCelK=      1 NCelE2=     1 NClLst=     1 CellRange=     0.0.
 One-electron integrals computed using PRISM.
 NBasis=   795 RedAO= T EigKep=  1.44D-02  NBF=   795
 NBsUse=   795 1.00D-06 EigRej= -1.00D+00 NBFU=   795
 Precomputing XC quadrature grid using
 IXCGrd= 4 IRadAn=           0 IRanWt=          -1 IRanGd=           0 AccXCQ= 0.00D+00.
 Generated NRdTot=       0 NPtTot=           0 NUsed=           0 NTot=          32
 NSgBfM=   677   693   699   714   714 MxSgAt=    97 MxSgA2=    97.
 Leave Link  302 at Thu May  3 00:51:08 2018, MaxMem= 14763950080 cpu:       243.5
 (Enter /cm/shared/gaussian/g09.e01/intel64-sandybridge/g09/l303.exe)
 DipDrv:  MaxL=1.
 Leave Link  303 at Thu May  3 00:51:08 2018, MaxMem= 14763950080 cpu:        28.3
 (Enter /cm/shared/gaussian/g09.e01/intel64-sandybridge/g09/l401.exe)
 ExpMin= 1.22D-01 ExpMax= 6.40D+05 ExpMxC= 6.18D+03 IAcc=2 IRadAn=         4 AccDes= 0.00D+00
 Harris functional with IExCor= 1009 and IRadAn=       4 diagonalized for initial guess.
 HarFok:  IExCor= 1009 AccDes= 0.00D+00 IRadAn=         4 IDoV= 1 UseB2=F ITyADJ=14
 ICtDFT=  3500011 ScaDFX=  1.000000  1.000000  1.000000  1.000000
 FoFCou: FMM=F IPFlag=           0 FMFlag=      100000 FMFlg1=        2001
         NFxFlg=           0 DoJE=T BraDBF=F KetDBF=T FulRan=T
         wScrn=  0.000000 ICntrl=     500 IOpCl=  0 I1Cent=   200000004 NGrid=           0
         NMat0=    1 NMatS0=      1 NMatT0=    0 NMatD0=    1 NMtDS0=    0 NMtDT0=    0
 Symmetry not used in FoFCou.
 Harris En= -2574.01986991602    
 JPrj=0 DoOrth=F DoCkMO=F.
 Leave Link  401 at Thu May  3 00:51:12 2018, MaxMem= 14763950080 cpu:       265.7
 (Enter /cm/shared/gaussian/g09.e01/intel64-sandybridge/g09/l502.exe)
 Closed shell SCF:
 Using DIIS extrapolation, IDIIS=  1040.
 Two-electron integral symmetry not used.
 IVT=     2138497 IEndB=     2138497 NGot= 14763950080 MDV= 14762516294
 LenX= 14762516294 LenY= 14761828224
 Requested convergence on RMS density matrix=1.00D-08 within 128 cycles.
 Requested convergence on MAX density matrix=1.00D-06.
 Requested convergence on             energy=1.00D-06.
 No special actions if energy rises.
 Fock matrices will be formed incrementally for  20 cycles.
 Integral accuracy reduced to 1.0D-05 until final iterations.

 Cycle   1  Pass 0  IDiag  1:
 FoFJK:  IHMeth= 1 ICntrl=       0 DoSepK=F KAlg= 0 I1Cent=   0 FoldK=F
 IRaf= 790000000 NMat=   1 IRICut=       1 DoRegI=T DoRafI=F ISym2E= 0.
 FoFCou: FMM=T IPFlag=           0 FMFlag=      100000 FMFlg1=        2001
         NFxFlg=           0 DoJE=F BraDBF=F KetDBF=F FulRan=T
         wScrn=  0.000000 ICntrl=       0 IOpCl=  0 I1Cent=           0 NGrid=           0
         NMat0=    1 NMatS0=      1 NMatT0=    0 NMatD0=    1 NMtDS0=    0 NMtDT0=    0
 Symmetry not used in FoFCou.
 FMM levels:  10  Number of levels for PrismC:   9
 E= -2573.87845771115    
 DIIS: error= 8.46D-03 at cycle   1 NSaved=   1.
 NSaved= 1 IEnMin= 1 EnMin= -2573.87845771115     IErMin= 1 ErrMin= 8.46D-03
 ErrMax= 8.46D-03  0.00D+00 EMaxC= 1.00D-01 BMatC= 3.86D-02 BMatP= 3.86D-02
 IDIUse=3 WtCom= 9.15D-01 WtEn= 8.46D-02
 Coeff-Com:  0.100D+01
 Coeff-En:   0.100D+01
 Coeff:      0.100D+01
 Gap=     0.186 Goal=   None    Shift=    0.000
 GapD=    0.186 DampG=1.000 DampE=1.000 DampFc=1.0000 IDamp=-1.
 RMSDP=4.81D-04 MaxDP=6.82D-02              OVMax= 1.50D-01

 Cycle   2  Pass 0  IDiag  1:
 RMSU=  4.77D-04    CP:  9.89D-01
 E= -2573.90017099906     Delta-E=       -0.021713287908 Rises=F Damp=F
 DIIS: error= 3.69D-03 at cycle   2 NSaved=   2.
 NSaved= 2 IEnMin= 2 EnMin= -2573.90017099906     IErMin= 2 ErrMin= 3.69D-03
 ErrMax= 3.69D-03  0.00D+00 EMaxC= 1.00D-01 BMatC= 7.35D-03 BMatP= 3.86D-02
 IDIUse=3 WtCom= 9.63D-01 WtEn= 3.69D-02
 Coeff-Com:  0.223D+00 0.777D+00
 Coeff-En:   0.299D-01 0.970D+00
 Coeff:      0.216D+00 0.784D+00
 Gap=     0.198 Goal=   None    Shift=    0.000
 RMSDP=2.17D-04 MaxDP=5.32D-02 DE=-2.17D-02 OVMax= 6.83D-02

 Cycle   3  Pass 0  IDiag  1:
 RMSU=  1.51D-04    CP:  9.94D-01  6.79D-01
 E= -2573.90808935948     Delta-E=       -0.007918360424 Rises=F Damp=F
 DIIS: error= 2.62D-03 at cycle   3 NSaved=   3.
 NSaved= 3 IEnMin= 3 EnMin= -2573.90808935948     IErMin= 3 ErrMin= 2.62D-03
 ErrMax= 2.62D-03  0.00D+00 EMaxC= 1.00D-01 BMatC= 2.76D-03 BMatP= 7.35D-03
 IDIUse=3 WtCom= 9.74D-01 WtEn= 2.62D-02
 Coeff-Com:  0.605D-01 0.367D+00 0.573D+00
 Coeff-En:   0.000D+00 0.181D+00 0.819D+00
 Coeff:      0.589D-01 0.362D+00 0.579D+00
 Gap=     0.177 Goal=   None    Shift=    0.000
 RMSDP=7.57D-05 MaxDP=1.85D-02 DE=-7.92D-03 OVMax= 2.32D-02

 Cycle   4  Pass 0  IDiag  1:
 RMSU=  8.47D-06    CP:  9.92D-01  7.76D-01  6.11D-01
 E= -2573.91118064807     Delta-E=       -0.003091288586 Rises=F Damp=F
 DIIS: error= 7.10D-05 at cycle   4 NSaved=   4.
 NSaved= 4 IEnMin= 4 EnMin= -2573.91118064807     IErMin= 4 ErrMin= 7.10D-05
 ErrMax= 7.10D-05  0.00D+00 EMaxC= 1.00D-01 BMatC= 1.27D-06 BMatP= 2.76D-03
 IDIUse=1 WtCom= 1.00D+00 WtEn= 0.00D+00
 Coeff-Com: -0.821D-03 0.121D-01 0.333D-01 0.955D+00
 Coeff:     -0.821D-03 0.121D-01 0.333D-01 0.955D+00
 Gap=     0.177 Goal=   None    Shift=    0.000
 RMSDP=2.33D-06 MaxDP=5.85D-04 DE=-3.09D-03 OVMax= 6.63D-04

 Initial convergence to 1.0D-05 achieved.  Increase integral accuracy.
 Cycle   5  Pass 1  IDiag  1:
 E= -2573.91210484283     Delta-E=       -0.000924194764 Rises=F Damp=F
 DIIS: error= 1.56D-05 at cycle   1 NSaved=   1.
 NSaved= 1 IEnMin= 1 EnMin= -2573.91210484283     IErMin= 1 ErrMin= 1.56D-05
 ErrMax= 1.56D-05  0.00D+00 EMaxC= 1.00D-01 BMatC= 6.20D-08 BMatP= 6.20D-08
 IDIUse=1 WtCom= 1.00D+00 WtEn= 0.00D+00
 Coeff-Com:  0.100D+01
 Coeff:      0.100D+01
 Gap=     0.177 Goal=   None    Shift=    0.000
 RMSDP=2.33D-06 MaxDP=5.85D-04 DE=-9.24D-04 OVMax= 2.05D-04

 Cycle   6  Pass 1  IDiag  1:
 RMSU=  1.04D-06    CP:  1.00D+00
 E= -2573.91210493011     Delta-E=       -0.000000087276 Rises=F Damp=F
 DIIS: error= 7.10D-06 at cycle   2 NSaved=   2.
 NSaved= 2 IEnMin= 2 EnMin= -2573.91210493011     IErMin= 2 ErrMin= 7.10D-06
 ErrMax= 7.10D-06  0.00D+00 EMaxC= 1.00D-01 BMatC= 1.75D-08 BMatP= 6.20D-08
 IDIUse=1 WtCom= 1.00D+00 WtEn= 0.00D+00
 Coeff-Com:  0.309D+00 0.691D+00
 Coeff:      0.309D+00 0.691D+00
 Gap=     0.177 Goal=   None    Shift=    0.000
 RMSDP=2.55D-07 MaxDP=5.14D-05 DE=-8.73D-08 OVMax= 8.46D-05

 Cycle   7  Pass 1  IDiag  1:
 RMSU=  2.50D-07    CP:  1.00D+00  9.58D-01
 E= -2573.91210495083     Delta-E=       -0.000000020717 Rises=F Damp=F
 DIIS: error= 2.12D-06 at cycle   3 NSaved=   3.
 NSaved= 3 IEnMin= 3 EnMin= -2573.91210495083     IErMin= 3 ErrMin= 2.12D-06
 ErrMax= 2.12D-06  0.00D+00 EMaxC= 1.00D-01 BMatC= 1.43D-09 BMatP= 1.75D-08
 IDIUse=1 WtCom= 1.00D+00 WtEn= 0.00D+00
 Coeff-Com: -0.237D-01 0.199D+00 0.825D+00
 Coeff:     -0.237D-01 0.199D+00 0.825D+00
 Gap=     0.177 Goal=   None    Shift=    0.000
 RMSDP=6.61D-08 MaxDP=1.55D-05 DE=-2.07D-08 OVMax= 2.08D-05

 Cycle   8  Pass 1  IDiag  1:
 RMSU=  3.18D-08    CP:  1.00D+00  1.00D+00  8.66D-01
 E= -2573.91210495249     Delta-E=       -0.000000001660 Rises=F Damp=F
 DIIS: error= 3.94D-07 at cycle   4 NSaved=   4.
 NSaved= 4 IEnMin= 4 EnMin= -2573.91210495249     IErMin= 4 ErrMin= 3.94D-07
 ErrMax= 3.94D-07  0.00D+00 EMaxC= 1.00D-01 BMatC= 5.99D-11 BMatP= 1.43D-09
 IDIUse=1 WtCom= 1.00D+00 WtEn= 0.00D+00
 Coeff-Com: -0.162D-01 0.720D-01 0.344D+00 0.600D+00
 Coeff:     -0.162D-01 0.720D-01 0.344D+00 0.600D+00
 Gap=     0.177 Goal=   None    Shift=    0.000
 RMSDP=1.20D-08 MaxDP=2.02D-06 DE=-1.66D-09 OVMax= 3.77D-06

 Cycle   9  Pass 1  IDiag  1:
 RMSU=  7.00D-09    CP:  1.00D+00  1.01D+00  8.77D-01  7.21D-01
 E= -2573.91210495255     Delta-E=       -0.000000000059 Rises=F Damp=F
 DIIS: error= 2.25D-08 at cycle   5 NSaved=   5.
 NSaved= 5 IEnMin= 5 EnMin= -2573.91210495255     IErMin= 5 ErrMin= 2.25D-08
 ErrMax= 2.25D-08  0.00D+00 EMaxC= 1.00D-01 BMatC= 4.10D-13 BMatP= 5.99D-11
 IDIUse=1 WtCom= 1.00D+00 WtEn= 0.00D+00
 Coeff-Com:  0.843D-03-0.787D-02-0.396D-01 0.100D-01 0.104D+01
 Coeff:      0.843D-03-0.787D-02-0.396D-01 0.100D-01 0.104D+01
 Gap=     0.177 Goal=   None    Shift=    0.000
 RMSDP=2.04D-09 MaxDP=2.92D-07 DE=-5.91D-11 OVMax= 8.24D-07

 SCF Done:  E(RPBE1PBE) =  -2573.91210495     A.U. after    9 cycles
            NFock=  9  Conv=0.20D-08     -V/T= 2.0013
 KE= 2.570506081857D+03 PE=-6.162927652345D+03 EE= 1.018509465536D+03
 Leave Link  502 at Thu May  3 00:52:34 2018, MaxMem= 14763950080 cpu:      5165.2
 (Enter /cm/shared/gaussian/g09.e01/intel64-sandybridge/g09/l601.exe)
 Copying SCF densities to generalized density rwf, IOpCl= 0 IROHF=0.

 **********************************************************************

            Population analysis using the SCF density.

 **********************************************************************

 Alpha  occ. eigenvalues -- -482.98925 -62.39064 -56.16321 -56.16318 -56.16314
 Alpha  occ. eigenvalues --   -8.49190  -6.29503  -6.29494  -6.29480  -2.37770
 Alpha  occ. eigenvalues --   -2.37769  -2.37758  -2.37750  -2.37748  -0.47228
 Alpha  occ. eigenvalues --   -0.03096  -0.03088  -0.03067
 Alpha virt. eigenvalues --    0.14645   0.16208   0.16583   0.16925   0.18400
 Alpha virt. eigenvalues --    0.18645   0.19208   0.19593   0.20103   0.20471
 Alpha virt. eigenvalues --    0.21646   0.21908   0.22434   0.23038   0.23720
 Alpha virt. eigenvalues --    0.24550   0.24770   0.25021   0.25554   0.26218
 Alpha virt. eigenvalues --    0.26451   0.26724   0.27091   0.27504   0.27820
 Alpha virt. eigenvalues --    0.28487   0.29430   0.29748   0.31389   0.31837
 Alpha virt. eigenvalues --    0.32223   0.32613   0.33075   0.33836   0.34457
 Alpha virt. eigenvalues --    0.34610   0.35025   0.35710   0.36119   0.36699
 Alpha virt. eigenvalues --    0.36862   0.37271   0.37862   0.38177   0.38743
 Alpha virt. eigenvalues --    0.38821   0.39588   0.40291   0.40488   0.40792
 Alpha virt. eigenvalues --    0.41161   0.42049   0.42521   0.42878   0.43261
 Alpha virt. eigenvalues --    0.43935   0.45362   0.45810   0.47297   0.49394
 Alpha virt. eigenvalues --    0.49775   0.50208   0.52196   0.52474   0.61800
 Alpha virt. eigenvalues --    0.62231   0.63190   0.63438   0.63775   0.64600
 Alpha virt. eigenvalues --    0.64914   0.65257   0.65575   0.66272   0.66465
 Alpha virt. eigenvalues --    0.67032   0.67197   0.67224   0.67974   0.68271
 Alpha virt. eigenvalues --    0.68960   0.69257   0.69783   0.70269   0.70496
 Alpha virt. eigenvalues --    0.70718   0.71470   0.71755   0.72359   0.72745
 Alpha virt. eigenvalues --    0.73086   0.73223   0.73680   0.73877   0.74333
 Alpha virt. eigenvalues --    0.74652   0.74917   0.75156   0.75439   0.75961
 Alpha virt. eigenvalues --    0.76224   0.76273   0.76996   0.77179   0.77583
 Alpha virt. eigenvalues --    0.77829   0.78423   0.78464   0.78885   0.79061
 Alpha virt. eigenvalues --    0.79283   0.79662   0.79835   0.80109   0.80676
 Alpha virt. eigenvalues --    0.80985   0.81302   0.81653   0.82046   0.82603
 Alpha virt. eigenvalues --    0.82718   0.82904   0.83355   0.83876   0.84137
 Alpha virt. eigenvalues --    0.84356   0.84532   0.84877   0.85453   0.85526
 Alpha virt. eigenvalues --    0.86422   0.86589   0.86993   0.87530   0.87731
 Alpha virt. eigenvalues --    0.88005   0.88488   0.88940   0.89848   0.90527
 Alpha virt. eigenvalues --    0.90608   0.90732   0.91106   0.91587   0.92137
 Alpha virt. eigenvalues --    0.92417   0.92465   0.92914   0.93584   0.94023
 Alpha virt. eigenvalues --    0.94303   0.94717   0.95360   0.95815   0.96122
 Alpha virt. eigenvalues --    0.96192   0.96823   0.96994   0.97453   0.97835
 Alpha virt. eigenvalues --    0.98161   0.98555   0.99355   0.99762   1.00019
 Alpha virt. eigenvalues --    1.00652   1.01266   1.01562   1.01863   1.02036
 Alpha virt. eigenvalues --    1.03126   1.03432   1.03663   1.03774   1.04712
 Alpha virt. eigenvalues --    1.05442   1.05707   1.06183   1.07480   1.07650
 Alpha virt. eigenvalues --    1.08644   1.09147   1.09551   1.09871   1.10640
 Alpha virt. eigenvalues --    1.11565   1.12340   1.13051   1.14170   1.14910
 Alpha virt. eigenvalues --    1.15354   1.15523   1.16021   1.18547   1.19829
 Alpha virt. eigenvalues --    1.20750   1.22211   1.22976   1.25448   1.26900
 Alpha virt. eigenvalues --    1.29791   1.67536   1.67915   1.68467   1.68685
 Alpha virt. eigenvalues --    1.68905   1.68982   1.69524   1.69899   1.70209
 Alpha virt. eigenvalues --    1.70786   1.71017   1.71062   1.71450   1.71817
 Alpha virt. eigenvalues --    1.72195   1.72462   1.72586   1.73162   1.73435
 Alpha virt. eigenvalues --    1.73733   1.74318   1.74637   1.74934   1.75176
 Alpha virt. eigenvalues --    1.75349   1.75470   1.75894   1.75956   1.76268
 Alpha virt. eigenvalues --    1.76638   1.76677   1.77167   1.77452   1.77892
 Alpha virt. eigenvalues --    1.78562   1.78866   1.79113   1.79290   1.79497
 Alpha virt. eigenvalues --    1.79744   1.80392   1.80790   1.81090   1.81709
 Alpha virt. eigenvalues --    1.81933   1.82142   1.82382   1.83618   1.83883
 Alpha virt. eigenvalues --    1.84186   1.84712   1.85434   1.86321   1.87562
 Alpha virt. eigenvalues --    1.88171   1.89635   1.89752   1.90481   1.90817
 Alpha virt. eigenvalues --    1.91388   1.92457   1.93050   1.93127   1.95446
 Alpha virt. eigenvalues --    1.96797   1.97616   1.99271   1.99878   2.00113
 Alpha virt. eigenvalues --    2.00378   2.00797   2.00899   2.00991   2.01114
 Alpha virt. eigenvalues --    2.01258   2.01347   2.01459   2.01603   2.01639
 Alpha virt. eigenvalues --    2.01952   2.02124   2.02148   2.02547   2.02683
 Alpha virt. eigenvalues --    2.02945   2.03510   2.03726   2.04015   2.04138
 Alpha virt. eigenvalues --    2.04568   2.04829   2.05284   2.05643   2.05866
 Alpha virt. eigenvalues --    2.05997   2.06340   2.06616   2.07049   2.07142
 Alpha virt. eigenvalues --    2.07640   2.07892   2.08046   2.08331   2.08601
 Alpha virt. eigenvalues --    2.09139   2.09484   2.09625   2.09971   2.10501
 Alpha virt. eigenvalues --    2.10844   2.11656   2.12278   2.12641   2.13050
 Alpha virt. eigenvalues --    2.13304   2.13785   2.14266   2.14560   2.15589
 Alpha virt. eigenvalues --    2.15634   2.16252   2.16570   2.16911   2.17228
 Alpha virt. eigenvalues --    2.17341   2.17493   2.17797   2.17844   2.18294
 Alpha virt. eigenvalues --    2.18472   2.18577   2.19176   2.19436   2.19581
 Alpha virt. eigenvalues --    2.20190   2.21004   2.21551   2.21845   2.22331
 Alpha virt. eigenvalues --    2.23170   2.23606   2.23957   2.24215   2.24636
 Alpha virt. eigenvalues --    2.25194   2.26548   2.27024   2.27364   2.28898
 Alpha virt. eigenvalues --    2.29631   2.30165   2.30538   2.31438   2.32204
 Alpha virt. eigenvalues --    2.32366   2.36265   2.37031   2.37407   2.38645
 Alpha virt. eigenvalues --    2.39782   2.39946   2.40483   2.41048   2.41132
 Alpha virt. eigenvalues --    2.41459   2.42125   2.42310   2.42632   2.43011
 Alpha virt. eigenvalues --    2.43476   2.43703   2.44040   2.44083   2.44245
 Alpha virt. eigenvalues --    2.44871   2.45886   2.46472   2.46700   2.47064
 Alpha virt. eigenvalues --    2.47487   2.49352   2.49602   2.50001   2.50576
 Alpha virt. eigenvalues --    2.51017   2.51375   2.52282   2.53224   2.54294
 Alpha virt. eigenvalues --    2.56620   2.57807   2.58301   2.67282   2.67550
 Alpha virt. eigenvalues --    2.67745   2.67979   2.68371   2.68719   2.69233
 Alpha virt. eigenvalues --    2.69832   2.70160   2.70316   2.70596   2.70616
 Alpha virt. eigenvalues --    2.71052   2.71144   2.71921   2.72293   2.73205
 Alpha virt. eigenvalues --    2.74036   2.74904   2.76481   2.77070   2.77663
 Alpha virt. eigenvalues --    2.78243   2.78687   2.79976   2.82171   2.82770
 Alpha virt. eigenvalues --    2.83011   2.83308   2.83643   2.83999   2.84446
 Alpha virt. eigenvalues --    2.84862   2.85089   2.86120   2.86348   2.86506
 Alpha virt. eigenvalues --    2.87094   2.87225   2.87756   2.88277   2.88870
 Alpha virt. eigenvalues --    2.89548   2.89792   2.90206   2.90308   2.91779
 Alpha virt. eigenvalues --    2.92350   2.94656   2.95654   2.95867   2.96890
 Alpha virt. eigenvalues --    2.97715   2.98362   2.99205   3.00123   3.00541
 Alpha virt. eigenvalues --    3.02492   3.03119   3.05431   3.07269   3.08370
 Alpha virt. eigenvalues --    3.10495   3.12093   3.12909   3.14327   3.15358
 Alpha virt. eigenvalues --    3.15889   3.16130   3.18024   3.18814   3.19198
 Alpha virt. eigenvalues --    3.19796   3.20620   3.20874   3.21293   3.25117
 Alpha virt. eigenvalues --    3.25841   3.26654   3.28459   3.30072   3.30409
 Alpha virt. eigenvalues --    3.34671   3.36526   3.37749   3.39379   3.41928
 Alpha virt. eigenvalues --    3.42973   3.44989   3.45615   3.46439   3.47579
 Alpha virt. eigenvalues --    3.49559   3.50861   3.61546   3.65229   4.51388
 Alpha virt. eigenvalues --    4.51839   4.51909   4.52171   4.52238   4.52272
 Alpha virt. eigenvalues --    4.52284   4.52706   4.52773   4.52779   4.52926
 Alpha virt. eigenvalues --    4.53132   4.53220   4.53244   4.53291   4.53425
 Alpha virt. eigenvalues --    4.53471   4.53607   4.54203   4.54980   4.55010
 Alpha virt. eigenvalues --    4.55129   4.55229   4.55352   4.55497   4.55650
 Alpha virt. eigenvalues --    4.55952   4.56455   4.56869   4.56973   4.57792
 Alpha virt. eigenvalues --    4.58067   4.60011   4.60042   4.60088   4.60114
 Alpha virt. eigenvalues --    4.60130   4.60330   4.60607   4.60619   4.60945
 Alpha virt. eigenvalues --    4.61000   4.61198   4.61393   4.61515   4.61584
 Alpha virt. eigenvalues --    4.61592   4.61774   4.61910   4.61968   4.62051
 Alpha virt. eigenvalues --    4.62207   4.62584   4.63062   4.63194   4.63330
 Alpha virt. eigenvalues --    4.63480   4.63575   4.64268   4.64313   4.64527
 Alpha virt. eigenvalues --    4.64864   4.65756   4.68199   4.74684   4.74710
 Alpha virt. eigenvalues --    4.74829   4.74955   4.75116   4.75197   4.76133
 Alpha virt. eigenvalues --    4.76214   4.76377   4.76749   4.76892   4.77033
 Alpha virt. eigenvalues --    4.77255   4.77425   4.77853   4.79030   4.79935
 Alpha virt. eigenvalues --    4.80802   4.80990   4.81441   4.81512   4.81762
 Alpha virt. eigenvalues --    4.82890   4.83264   4.83295   4.83683   4.84168
 Alpha virt. eigenvalues --    4.84620   4.84825   4.85297   4.85466   4.86105
 Alpha virt. eigenvalues --    4.86340   4.86936   4.87047   4.87215   4.87363
 Alpha virt. eigenvalues --    4.87610   4.88130   4.88825   4.88927   4.89227
 Alpha virt. eigenvalues --    4.89316   4.89456   4.89523   4.90225   4.90462
 Alpha virt. eigenvalues --    4.90879   4.91198   4.91918   4.92700   4.93254
 Alpha virt. eigenvalues --    4.93740   4.94407   4.94629   4.95623   4.96084
 Alpha virt. eigenvalues --    4.97054   4.97916   4.98383   4.99002   5.00571
 Alpha virt. eigenvalues --    5.02553   5.03242   5.03891   5.04479   5.04741
 Alpha virt. eigenvalues --    5.05879   5.06013   5.06236   5.06615   5.06735
 Alpha virt. eigenvalues --    5.06963   5.07495   5.07873   5.08369   5.10223
 Alpha virt. eigenvalues --    5.10621   5.11447   5.12837   5.13321   5.14077
 Alpha virt. eigenvalues --    5.15222   5.16775   5.17026   5.19496   5.19652
 Alpha virt. eigenvalues --    5.20153   5.20996   5.22556   5.25771   5.26840
 Alpha virt. eigenvalues --    5.28099   5.29449   5.31231   5.33108   5.35646
 Alpha virt. eigenvalues --    5.35848   5.36148   5.36309   5.36588   5.37718
 Alpha virt. eigenvalues --    5.38813   5.39134   5.39990   5.40093   5.41547
 Alpha virt. eigenvalues --    5.42006   5.42120   5.43663   5.44017   5.47077
[...]
   Z20       38.75828   0.01031   0.00000   0.02524   0.02633  38.78461
   X21       30.72695   0.00565   0.00000   0.02972   0.02862  30.75557
   Y21       37.98350  -0.00497   0.00000  -0.04781  -0.04754  37.93596
   Z21       37.00084  -0.01036   0.00000  -0.00718  -0.00610  36.99473
   X22       32.08755   0.00823   0.00000  -0.00634  -0.00690  32.08065
   Y22       38.55041   0.01236   0.00000   0.02653   0.02700  38.57741
   Z22       39.45748   0.00612   0.00000   0.01309   0.01384  39.47133
   X23       44.40856   0.01206   0.00000  -0.00986  -0.01178  44.39679
   Y23       39.28741  -0.01292   0.00000  -0.04186  -0.04016  39.24725
   Z23       34.18515  -0.00764   0.00000  -0.01701  -0.01924  34.16590
   X24       43.82275  -0.00586   0.00000  -0.00884  -0.01031  43.81244
   Y24       38.75828  -0.00022   0.00000   0.00627   0.00794  38.76623
   Z24       35.81031   0.00959   0.00000   0.01520   0.01311  35.82342
   X25       43.10465  -0.01100   0.00000  -0.00202  -0.00421  43.10044
   Y25       40.36455   0.01216   0.00000   0.02598   0.02753  40.39208
   Z25       33.56154  -0.00020   0.00000   0.01737   0.01543  33.57696
   X26       34.22294  -0.01476   0.00000  -0.01847  -0.01813  34.20481
   Y26       40.53463  -0.00045   0.00000  -0.03370  -0.03292  40.50171
   Z26       44.10621  -0.01046   0.00000  -0.03590  -0.03570  44.07051
   X27       34.63868   0.00835   0.00000   0.02057   0.02136  34.66004
   Y27       39.40079  -0.00667   0.00000  -0.01225  -0.01140  39.38939
   Z27       45.46681   0.00300   0.00000  -0.01137  -0.01126  45.45556
   X28       35.82921   0.00947   0.00000   0.01587   0.01599  35.84520
   Y28       40.89367   0.00182   0.00000   0.01401   0.01495  40.90863
   Z28       43.33142   0.00495   0.00000   0.03150   0.03130  43.36272
   X29       35.01663  -0.00273   0.00000  -0.00045  -0.00182  35.01481
   Y29       32.21983  -0.01859   0.00000  -0.02260  -0.02193  32.19790
   Z29       33.27808  -0.01072   0.00000  -0.01059  -0.01043  33.26764
   X30       36.54730   0.00897   0.00000   0.00742   0.00630  36.55360
   Y30       32.10645  -0.00156   0.00000  -0.00805  -0.00719  32.09926
   Z30       34.24184   0.00693   0.00000   0.01031   0.01010  34.25194
   X31       34.35522  -0.01027   0.00000  -0.02492  -0.02637  34.32885
   Y31       33.84500   0.01462   0.00000  -0.00233  -0.00173  33.84326
   Z31       33.67492   0.00334   0.00000  -0.00354  -0.00325  33.67167
   X32       40.45904   0.01856   0.00000   0.00028   0.00140  40.46044
   Y32       33.63713   0.00367   0.00000   0.01646   0.01792  33.65505
   Z32       44.25739   0.00537   0.00000   0.01481   0.01362  44.27101
   X33       39.85432  -0.01041   0.00000  -0.03678  -0.03520  39.81912
   Y33       33.10800  -0.00572   0.00000  -0.02571  -0.02429  33.08371
   Z33       45.88255   0.00305   0.00000  -0.00265  -0.00367  45.87888
   X34       38.98505  -0.01948   0.00000  -0.03113  -0.03027  38.95478
   Y34       33.82610   0.00512   0.00000   0.02391   0.02519  33.85129
   Z34       43.23693  -0.00439   0.00000   0.01354   0.01272  43.24965
   X35       39.00395   0.01398   0.00000   0.02177   0.02047  39.02442
   Y35       45.92035   0.01213   0.00000   0.00520   0.00642  45.92677
   Z35       39.74094   0.00189   0.00000   0.00024  -0.00082  39.74012
   X36       39.53307   0.00089   0.00000  -0.00173  -0.00265  39.53042
   Y36       44.40856  -0.00779   0.00000  -0.00692  -0.00562  44.40294
   Z36       40.59132   0.00691   0.00000   0.02201   0.02085  40.61217
   X37       37.41658  -0.01158   0.00000   0.00426   0.00283  37.41941
   Y37       45.48571  -0.00509   0.00000  -0.00512  -0.00408  45.48162
   Z37       39.00395  -0.00802   0.00000  -0.01567  -0.01634  38.98761
   X38       42.87789   0.01685   0.00000   0.02975   0.03017  42.90806
   Y38       31.72850  -0.00244   0.00000  -0.01826  -0.01661  31.71190
   Z38       40.49683  -0.02397   0.00000  -0.01741  -0.01915  40.47768
   X39       41.91413  -0.00907   0.00000   0.02042   0.02115  41.93528
   Y39       32.20093   0.00678   0.00000   0.00542   0.00700  32.20793
   Z39       41.95192   0.02283   0.00000   0.02126   0.01975  41.97167
   X40       43.21804   0.00351   0.00000   0.01496   0.01563  43.23366
   Y40       29.97106  -0.01115   0.00000  -0.03044  -0.02874  29.94231
   Z40       40.72360   0.00066   0.00000  -0.00239  -0.00417  40.71943
   X41       33.80720  -0.00821   0.00000  -0.00393  -0.00668  33.80052
   Y41       42.21648  -0.00208   0.00000   0.02135   0.02186  42.23834
   Z41       32.04976   0.01802   0.00000   0.00318   0.00345  32.05321
   X42       35.14891   0.02376   0.00000   0.04050   0.03745  35.18636
   Y42       42.34876  -0.00437   0.00000  -0.02966  -0.02902  42.31974
   Z42       30.84033  -0.01523   0.00000  -0.01120  -0.01127  30.82906
   X43       32.40880  -0.01462   0.00000  -0.02113  -0.02416  32.38464
   Y43       43.01017   0.00847   0.00000   0.01961   0.01996  43.03012
   Z43       31.25607  -0.00665   0.00000  -0.01611  -0.01551  31.24056
   X44       45.03217  -0.01253   0.00000  -0.03743  -0.03742  44.99476
   Y44       38.73939   0.02164   0.00000   0.02724   0.02915  38.76853
   Z44       41.95192  -0.00634   0.00000   0.00974   0.00737  41.95929
   X45       45.48571   0.00861   0.00000   0.02000   0.02031  45.50602
   Y45       37.05753  -0.01286   0.00000   0.00750   0.00947  37.06700
   Z45       42.44325   0.00570   0.00000  -0.00312  -0.00558  42.43767
   X46       45.69358   0.00446   0.00000   0.02159   0.02182  45.71540
   Y46       39.77874  -0.00262   0.00000  -0.00380  -0.00178  39.77695
   Z46       43.29363   0.00139   0.00000   0.00403   0.00147  43.29510
   X47       44.78651   0.00889   0.00000   0.03172   0.03039  44.81690
   Y47       43.52039  -0.00025   0.00000   0.00737   0.00920  43.52959
   Z47       38.53152  -0.00968   0.00000  -0.00598  -0.00839  38.52312
   X48       44.29518  -0.00449   0.00000  -0.01090  -0.01177  44.28342
   Y48       42.89678  -0.00248   0.00000  -0.00994  -0.00814  42.88864
   Z48       40.15668   0.00426   0.00000  -0.01191  -0.01418  40.14250
   X49       44.25739  -0.00800   0.00000  -0.03632  -0.03783  44.21956
   Y49       45.25894   0.00179   0.00000  -0.00726  -0.00550  45.25344
   Z49       38.53152   0.00180   0.00000   0.00306   0.00076  38.53228
   X50       31.01041  -0.01725   0.00000  -0.02491  -0.02578  30.98463
   Y50       44.18180   0.01293   0.00000  -0.00178  -0.00141  44.18038
   Z50       40.72360  -0.00413   0.00000  -0.00915  -0.00824  40.71536
   X51       31.72850   0.00885   0.00000   0.00743   0.00697  31.73547
   Y51       42.95348  -0.01125   0.00000  -0.00155  -0.00108  42.95239
   Z51       41.81964   0.00986   0.00000   0.01305   0.01380  41.83344
   X52       31.97417   0.01011   0.00000   0.03146   0.03024  32.00440
   Y52       44.04952  -0.00371   0.00000  -0.00845  -0.00800  44.04152
   Z52       39.19292  -0.00224   0.00000   0.01284   0.01351  39.20643
   X53       45.84476   0.01516   0.00000   0.01275   0.01198  45.85674
   Y53       31.65291  -0.00734   0.00000  -0.00542  -0.00353  31.64938
   Z53       35.48906   0.01020   0.00000   0.01727   0.01482  35.50388
   X54       44.25739  -0.01265   0.00000  -0.01239  -0.01302  44.24436
   Y54       32.04976   0.00438   0.00000   0.00654   0.00826  32.05802
   Z54       36.24495   0.00353   0.00000   0.00461   0.00254  36.24749
   X55       45.67468  -0.00421   0.00000  -0.00633  -0.00758  45.66710
   Y55       32.14424   0.00375   0.00000  -0.00107   0.00077  32.14501
   Z55       33.76941  -0.01115   0.00000  -0.00074  -0.00315  33.76625
   X56       35.35678   0.01357   0.00000   0.02188   0.02368  35.38045
   Y56       32.12534  -0.01051   0.00000   0.00292   0.00386  32.12921
   Z56       46.33608   0.02429   0.00000   0.01603   0.01610  46.35219
   X57       34.07176  -0.00360   0.00000   0.01168   0.01349  34.08525
   Y57       30.93482  -0.00238   0.00000   0.00216   0.00295  30.93777
   Z57       45.88255  -0.00481   0.00000  -0.00307  -0.00266  45.87989
   X58       35.26229  -0.00778   0.00000  -0.02458  -0.02324  35.23905
   Y58       33.39146   0.01598   0.00000   0.01130   0.01221  33.40367
   Z58       45.06997  -0.02154   0.00000  -0.02615  -0.02606  45.04390
   X59       40.98816   0.00796   0.00000   0.01454   0.01368  41.00184
   Y59       27.77897   0.00001   0.00000   0.00181   0.00313  27.78210
   Z59       33.39146  -0.00371   0.00000   0.00734   0.00614  33.39760
   X60       40.00550  -0.00473   0.00000  -0.01031  -0.01092  39.99458
   Y60       26.30499  -0.00241   0.00000   0.00632   0.00754  26.31253
   Z60       33.76941   0.00136   0.00000   0.00096   0.00003  33.76943
   X61       40.19447  -0.00289   0.00000   0.00143   0.00066  40.19513
   Y61       29.10178   0.00704   0.00000   0.01597   0.01722  29.11901
   Z61       34.35522   0.00307   0.00000  -0.00167  -0.00270  34.35252
   X62       29.10178  -0.01126   0.00000  -0.02182  -0.02357  29.07822
   Y62       34.35522   0.00303   0.00000   0.00759   0.00761  34.36283
   Z62       32.71116   0.00926   0.00000  -0.00419  -0.00264  32.70852
   X63       30.55687   0.01073   0.00000   0.01600   0.01400  30.57087
   Y63       35.13001   0.00448   0.00000   0.00202   0.00218  35.13219
   Z63       31.97417  -0.00075   0.00000   0.02028   0.02146  31.99563
   X64       28.72384  -0.00004   0.00000   0.00929   0.00743  28.73127
   Y64       32.97572  -0.00869   0.00000  -0.01538  -0.01542  32.96030
   Z64       31.61512  -0.00635   0.00000  -0.00892  -0.00726  31.60786
   X65       41.29052  -0.00022   0.00000   0.00666   0.00366  41.29417
   Y65       47.98015   0.01784   0.00000   0.00793   0.00929  47.98944
   Z65       33.61823  -0.00735   0.00000  -0.03131  -0.03296  33.58527
   X66       43.04796  -0.00024   0.00000   0.00683   0.00380  43.05176
   Y66       48.45258  -0.00255   0.00000  -0.00590  -0.00435  48.44823
   Z66       33.65602   0.00117   0.00000   0.00722   0.00514  33.66116
   X67       41.29052   0.00334   0.00000   0.01351   0.01076  41.30128
   Y67       46.18491  -0.01622   0.00000  -0.01055  -0.00919  46.17572
   Z67       33.78830   0.00925   0.00000   0.04601   0.04440  33.83270
   X68       27.85456  -0.00256   0.00000   0.02386   0.02425  27.87882
   Y68       33.54264  -0.00826   0.00000  -0.00544  -0.00540  33.53724
   Z68       41.13934   0.01247   0.00000   0.01866   0.02051  41.15985
   X69       28.61045   0.00451   0.00000  -0.00329  -0.00324  28.60722
   Y69       35.05442   0.01017   0.00000   0.01207   0.01218  35.06660
   Z69       40.47793  -0.00977   0.00000  -0.02626  -0.02461  40.45333
   X70       28.23251   0.00239   0.00000   0.00510   0.00531  28.23782
   Y70       32.27652   0.00107   0.00000   0.01164   0.01169  32.28822
   Z70       39.89212  -0.00510   0.00000  -0.01259  -0.01080  39.88132
   X71       35.73472  -0.01225   0.00000  -0.00627  -0.00961  35.72511
   Y71       35.79141   0.00973   0.00000   0.01785   0.01848  35.80990
   Z71       26.75852  -0.00656   0.00000  -0.00085  -0.00093  26.75759
   X72       36.35833   0.00748   0.00000   0.01171   0.00883  36.36716
   Y72       35.05442  -0.00676   0.00000  -0.01219  -0.01146  35.04296
   Z72       28.28920   0.00644   0.00000  -0.00221  -0.00243  28.28677
   X73       37.05753   0.00610   0.00000   0.01349   0.00990  37.06743
   Y73       35.52685  -0.00361   0.00000  -0.01036  -0.00961  35.51724
   Z73       25.54910   0.00266   0.00000   0.01737   0.01697  25.56607
   X74       37.77563  -0.01947   0.00000  -0.02035  -0.02390  37.75172
   Y74       42.06530   0.00479   0.00000   0.03463   0.03552  42.10082
   Z74       28.68604   0.00214   0.00000  -0.00299  -0.00368  28.68237
   X75       37.20871  -0.00110   0.00000   0.00392  -0.00003  37.20868
   Y75       41.97082  -0.00405   0.00000  -0.02267  -0.02188  41.94894
   Z75       26.96639  -0.00435   0.00000  -0.01252  -0.01307  26.95332
   X76       39.57087   0.01867   0.00000   0.01773   0.01415  39.58501
   Y76       42.23538  -0.00482   0.00000  -0.03724  -0.03616  42.19922
   Z76       28.55376   0.00436   0.00000   0.02928   0.02815  28.58191
   X77       40.62911  -0.01704   0.00000  -0.01824  -0.02081  40.60830
   Y77       32.59778   0.00218   0.00000   0.02059   0.02178  32.61955
   Z77       28.49707  -0.00712   0.00000  -0.01162  -0.01282  28.48425
   X78       41.49839   0.00455   0.00000   0.01124   0.00834  41.50672
   Y78       32.23873  -0.00186   0.00000  -0.00853  -0.00728  32.23145
   Z78       26.94749  -0.00168   0.00000   0.00431   0.00291  26.95040
   X79       41.93302   0.00960   0.00000  -0.00065  -0.00296  41.93007
   Y79       32.93793   0.00102   0.00000  -0.00696  -0.00561  32.93232
   Z79       29.68760   0.00868   0.00000   0.00961   0.00809  29.69569
   X80       32.27652  -0.01143   0.00000  -0.00869  -0.00904  32.26748
   Y80       27.49552  -0.01348   0.00000  -0.00399  -0.00358  27.49194
   Z80       35.37567   0.00472   0.00000  -0.00524  -0.00434  35.37134
   X81       33.73161   0.00352   0.00000   0.00566   0.00556  33.73717
   Y81       26.66404   0.00319   0.00000   0.01504   0.01562  26.67966
   Z81       36.07487  -0.00040   0.00000  -0.00365  -0.00308  36.07179
   X82       32.91903   0.00954   0.00000   0.01491   0.01421  32.93324
   Y82       29.02619   0.01550   0.00000   0.01882   0.01929  29.04548
   Z82       34.65758  -0.00581   0.00000  -0.00296  -0.00224  34.65534
   X83       49.32185   0.02715   0.00000   0.04886   0.04671  49.36857
   Y83       40.70470   0.00129   0.00000  -0.00302  -0.00078  40.70392
   Z83       33.88279  -0.01464   0.00000   0.00369   0.00023  33.88302
   X84       47.86676  -0.02209   0.00000  -0.02381  -0.02570  47.84107
   Y84       40.04330  -0.00328   0.00000   0.01204   0.01413  40.05742
   Z84       34.69537   0.00510   0.00000  -0.03258  -0.03566  34.65971
   X85       49.47303  -0.00317   0.00000  -0.00640  -0.00857  49.46446
   Y85       42.38656   0.00572   0.00000   0.00689   0.00915  42.39571
   Z85       34.52530   0.00572   0.00000   0.01593   0.01241  34.53771
   X86       34.29853   0.00391   0.00000  -0.00375  -0.00282  34.29571
   Y86       43.84165   0.01807   0.00000   0.03285   0.03371  43.87536
   Z86       48.01794   0.01405   0.00000   0.03358   0.03370  48.05164
   X87       33.46705  -0.00627   0.00000  -0.02809  -0.02673  33.44032
   Y87       43.25583  -0.00185   0.00000  -0.00541  -0.00462  43.25122
   Z87       49.51082   0.00510   0.00000   0.01232   0.01266  49.52348
   X88       33.95838   0.00000   0.00000   0.01676   0.01752  33.97590
   Y88       42.55663  -0.00423   0.00000   0.04064   0.04144  42.59807
   Z88       46.78962  -0.01484   0.00000  -0.02250  -0.02228  46.76734
   X89       43.38811  -0.01515   0.00000  -0.01296  -0.01649  43.37163
   Y89       41.63067  -0.00149   0.00000   0.00614   0.00763  41.63829
   Z89       28.57266  -0.02175   0.00000  -0.01506  -0.01710  28.55556
   X90       43.74716   0.00714   0.00000   0.01600   0.01258  43.75974
   Y90       43.02906   0.01242   0.00000   0.00738   0.00893  43.03799
   Z90       29.63091   0.01465   0.00000   0.02059   0.01844  29.64935
   X91       44.23849   0.00584   0.00000  -0.00386  -0.00705  44.23144
   Y91       40.23227  -0.00813   0.00000  -0.00087   0.00072  40.23299
   Z91       29.32855   0.00969   0.00000   0.01477   0.01256  29.34111
   X92       36.92525  -0.00358   0.00000  -0.01524  -0.01368  36.91156
   Y92       39.34410  -0.00672   0.00000  -0.04102  -0.03986  39.30423
   Z92       48.60376  -0.00559   0.00000  -0.00625  -0.00668  48.59708
   X93       38.47482   0.00462   0.00000   0.00972   0.01144  38.48627
   Y93       38.45593  -0.00311   0.00000  -0.00905  -0.00772  38.44821
   Z93       48.90611  -0.00062   0.00000  -0.00516  -0.00596  48.90016
   X94       36.39613  -0.00049   0.00000   0.00519   0.00708  36.40320
   Y94       39.89212   0.00443   0.00000   0.01650   0.01763  39.90975
   Z94       50.24782   0.00248   0.00000  -0.00962  -0.00993  50.23789
   X95       47.24315   0.00224   0.00000  -0.01205  -0.01106  47.23210
   Y95       34.37412   0.01213   0.00000   0.00829   0.01048  34.38459
   Z95       44.03062   0.01108   0.00000   0.00668   0.00385  44.03447
   X96       47.64000  -0.00035   0.00000  -0.01129  -0.01056  47.62943
   Y96       33.44815  -0.00843   0.00000  -0.00683  -0.00462  33.44353
   Z96       42.53774  -0.01325   0.00000  -0.01178  -0.01468  42.52305
   X97       45.56130  -0.00853   0.00000  -0.01653  -0.01538  45.54592
   Y97       33.84500  -0.00631   0.00000  -0.02194  -0.01993  33.82507
   Z97       44.44636  -0.00028   0.00000  -0.00168  -0.00409  44.44226
         Item               Value     Threshold  Converged?
 Maximum Force            0.027150     0.000450     NO 
 RMS     Force            0.009958     0.000300     NO 
 Maximum Displacement     0.047537     0.001800     NO 
 RMS     Displacement     0.017524     0.001200     NO 
 Predicted change in Energy=-2.499363D-02
 GradGradGradGradGradGradGradGradGradGradGradGradGradGradGradGradGradGrad

 Leave Link  103 at Thu May  3 00:57:09 2018, MaxMem= 14763950080 cpu:        52.6
 (Enter /cm/shared/gaussian/g09.e01/intel64-sandybridge/g09/l9999.exe)
 1\1\GINC-POPLE03\Force\RPBE1PBE\CC-pVDZ\Br1H64O32(1-)\M.PELUSO\03-May-
 2018\0\\#p PBE1PBE/cc-pvDZ force Counterpoise=2 noSymm\\forces on chlo
 ride comput - NWATER: 32\\-1,1\Br,20.,20.,20.\O,18.37,18.34,22.04\H,18
 .71,18.91,21.34\H,17.42,18.39,21.95\O,20.77,16.99,19.52\H,20.56,17.91,
 19.72\H,21.38,16.73,20.21\O,17.54,19.85,17.97\H,18.35,19.84,18.47\H,17
 .51,20.72,17.57\O,18.51,22.82,19.62\H,18.96,22.,19.8\H,18.12,22.69,18.
 75\O,21.19,21.69,22.49\H,20.7,21.41,21.71\H,22.04,21.27,22.4\O,21.17,2
 2.65,17.87\H,20.82,21.96,18.44\H,20.4,23.18,17.63\O,16.29,19.86,20.51\
 H,16.26,20.1,19.58\H,16.98,20.4,20.88\O,23.5,20.79,18.09\H,23.19,20.51
 ,18.95\H,22.81,21.36,17.76\O,18.11,21.45,23.34\H,18.33,20.85,24.06\H,1
 8.96,21.64,22.93\O,18.53,17.05,17.61\H,19.34,16.99,18.12\H,18.18,17.91
 ,17.82\O,21.41,17.8,23.42\H,21.09,17.52,24.28\H,20.63,17.9,22.88\O,20.
 64,24.3,21.03\H,20.92,23.5,21.48\H,19.8,24.07,20.64\O,22.69,16.79,21.4
 3\H,22.18,17.04,22.2\H,22.87,15.86,21.55\O,17.89,22.34,16.96\H,18.6,22
 .41,16.32\H,17.15,22.76,16.54\O,23.83,20.5,22.2\H,24.07,19.61,22.46\H,
 24.18,21.05,22.91\O,23.7,23.03,20.39\H,23.44,22.7,21.25\H,23.42,23.95,
 20.39\O,16.41,23.38,21.55\H,16.79,22.73,22.13\H,16.92,23.31,20.74\O,24
 .26,16.75,18.78\H,23.42,16.96,19.18\H,24.17,17.01,17.87\O,18.71,17.,24
 .52\H,18.03,16.37,24.28\H,18.66,17.67,23.85\O,21.69,14.7,17.67\H,21.17
 ,13.92,17.87\H,21.27,15.4,18.18\O,15.4,18.18,17.31\H,16.17,18.59,16.92
 \H,15.2,17.45,16.73\O,21.85,25.39,17.79\H,22.78,25.64,17.81\H,21.85,24
 .44,17.88\O,14.74,17.75,21.77\H,15.14,18.55,21.42\H,14.94,17.08,21.11\
 O,18.91,18.94,14.16\H,19.24,18.55,14.97\H,19.61,18.8,13.52\O,19.99,22.
 26,15.18\H,19.69,22.21,14.27\H,20.94,22.35,15.11\O,21.5,17.25,15.08\H,
 21.96,17.06,14.26\H,22.19,17.43,15.71\O,17.08,14.55,18.72\H,17.85,14.1
 1,19.09\H,17.42,15.36,18.34\O,26.1,21.54,17.93\H,25.33,21.19,18.36\H,2
 6.18,22.43,18.27\O,18.15,23.2,25.41\H,17.71,22.89,26.2\H,17.97,22.52,2
 4.76\O,22.96,22.03,15.12\H,23.15,22.77,15.68\H,23.41,21.29,15.52\O,19.
 54,20.82,25.72\H,20.36,20.35,25.88\H,19.26,21.11,26.59\O,25.,18.19,23.
 3\H,25.21,17.7,22.51\H,24.11,17.91,23.52\\Version=ES64L-G09RevE.01\HF=
 -2443.183458\RMSD=5.277e-09\RMSF=9.958e-03\Dipole=2.8240992,-1.4254262
 ,-0.15617\Quadrupole=116.7354571,-145.1455953,28.4101382,-1392.1993325
 ,-1308.6570377,-1506.0311163\PG=C01 [X(Br1H64O32)]\\@


 THERE IS MUCH PLEASURE TO BE GAINED FROM USELESS KNOWLEDGE

                                       -- BERTRAND RUSSELL
 Job cpu time:       0 days  8 hours 50 minutes 45.5 seconds.
 File lengths (MBytes):  RWF=    482 Int=      0 D2E=      0 Chk=    160 Scr=      1
 Normal termination of Gaussian 09 at Thu May  3 00:57:09 2018.
