 Entering Gaussian System, Link 0=/cm/shared/gaussian/g09.e01/intel64-sandybridge/g09/g09
 Initial command:
 /cm/shared/gaussian/g09.e01/intel64-sandybridge/g09/l1.exe "/local/scratch/m.peluso/32_wat/Gau-63770.inp" -scrdir="/local/scratch/m.peluso/32_wat/"
 Entering Link 1 = /cm/shared/gaussian/g09.e01/intel64-sandybridge/g09/l1.exe PID=     63771.
  
 Copyright (c) 1988,1990,1992,1993,1995,1998,2003,2009,2015,
            Gaussian, Inc.  All Rights Reserved.
  
 This is part of the Gaussian(R) 09 program.  It is based on
 the Gaussian(R) 03 system (copyright 2003, Gaussian, Inc.),
 the Gaussian(R) 98 system (copyright 1998, Gaussian, Inc.),
 the Gaussian(R) 94 system (copyright 1995, Gaussian, Inc.),
 the Gaussian 92(TM) system (copyright 1992, Gaussian, Inc.),
 the Gaussian 90(TM) system (copyright 1990, Gaussian, Inc.),
 the Gaussian 88(TM) system (copyright 1988, Gaussian, Inc.),
 the Gaussian 86(TM) system (copyright 1986, Carnegie Mellon
 University), and the Gaussian 82(TM) system (copyright 1983,
 Carnegie Mellon University). Gaussian is a federally registered
 trademark of Gaussian, Inc.
  
 This software contains proprietary and confidential information,
 including trade secrets, belonging to Gaussian, Inc.
  
 This software is provided under written license and may be
 used, copied, transmitted, or stored only in accord with that
 written license.
  
 The following legend is applicable only to US Government
 contracts under FAR:
  
                    RESTRICTED RIGHTS LEGEND
  
 Use, reproduction and disclosure by the US Government is
 subject to restrictions as set forth in subparagraphs (a)
 and (c) of the Commercial Computer Software - Restricted
 Rights clause in FAR 52.227-19.
  
 Gaussian, Inc.
 340 Quinnipiac St., Bldg. 40, Wallingford CT 06492
  
  
 ---------------------------------------------------------------
 Warning -- This program may not be used in any manner that
 competes with the business of Gaussian, Inc. or will provide
 assistance to any competitor of Gaussian, Inc.  The licensee
 of this program is prohibited from giving any competitor of
 Gaussian, Inc. access to this program.  By using this program,
 the user acknowledges that Gaussian, Inc. is engaged in the
 business of creating and licensing software in the field of
 computational chemistry and represents and warrants to the
 licensee that it is not a competitor of Gaussian, Inc. and that
 it will not use this program in any manner prohibited above.
 ---------------------------------------------------------------
  

 Cite this work as:
 Gaussian 09, Revision E.01,
 M. J. Frisch, G. W. Trucks, H. B. Schlegel, G. E. Scuseria, 
 M. A. Robb, J. R. Cheeseman, G. Scalmani, V. Barone, B. Mennucci, 
 G. A. Petersson, H. Nakatsuji, M. Caricato, X. Li, H. P. Hratchian, 
 A. F. Izmaylov, J. Bloino, G. Zheng, J. L. Sonnenberg, M. Hada, 
 M. Ehara, K. Toyota, R. Fukuda, J. Hasegawa, M. Ishida, T. Nakajima, 
 Y. Honda, O. Kitao, H. Nakai, T. Vreven, J. A. Montgomery, Jr., 
 J. E. Peralta, F. Ogliaro, M. Bearpark, J. J. Heyd, E. Brothers, 
 K. N. Kudin, V. N. Staroverov, T. Keith, R. Kobayashi, J. Normand, 
 K. Raghavachari, A. Rendell, J. C. Burant, S. S. Iyengar, J. Tomasi, 
 M. Cossi, N. Rega, J. M. Millam, M. Klene, J. E. Knox, J. B. Cross, 
 V. Bakken, C. Adamo, J. Jaramillo, R. Gomperts, R. E. Stratmann, 
 O. Yazyev, A. J. Austin, R. Cammi, C. Pomelli, J. W. Ochterski, 
 R. L. Martin, K. Morokuma, V. G. Zakrzewski, G. A. Voth, 
 P. Salvador, J. J. Dannenberg, S. Dapprich, A. D. Daniels, 
 O. Farkas, J. B. Foresman, J. V. Ortiz, J. Cioslowski, 
 and D. J. Fox, Gaussian, Inc., Wallingford CT, 2013.
 
 ******************************************
 Gaussian 09:  ES64L-G09RevE.01 30-Nov-2015
                 3-May-2018 
 ******************************************
 %Mem=110GB
 %NProcShared=64
 Will use up to   64 processors via shared memory.
 %chk=snap79.chk
 ----------------------------------------------
 #p PBE1PBE/cc-pvDZ force Counterpoise=2 noSymm
 ----------------------------------------------
 1/10=7,30=1,38=1,62=2/1,3;
 2/12=2,15=1,17=6,18=5,40=1/2;
 1/10=7,30=1,38=1,53=2,62=2,63=101/22;
 3/5=16,11=2,16=1,25=1,30=1,71=1,74=-13/1,2,3;
 4//1;
 5/5=2,38=5/2;
 6/7=2,8=2,9=2,10=2,28=1/1;
 7/7=1,29=1,30=1,33=-1/1,2,3,16;
 1/10=7,30=1,53=2,62=2,63=101/22;
 3/5=7,6=11,11=2,16=1,25=1,30=1,71=1,74=-13,82=7/1,2,3;
 4//1;
 5/5=2,38=5/2;
 6/7=2,8=2,9=2,10=2,28=1/1;
 7/7=1,29=1,30=1,33=-1/1,2,3,16;
 1/10=7,30=1,53=2,62=2,63=101/22(-5);
 7/9=1,29=1,44=-1/16;
 1/10=7,30=1,62=2/3;
 99//99;
 Leave Link    1 at Thu May  3 09:11:35 2018, MaxMem= 14763950080 cpu:         8.6
 (Enter /cm/shared/gaussian/g09.e01/intel64-sandybridge/g09/l101.exe)
 --------------------------------------
 forces on chloride comput - NWATER: 32
 --------------------------------------
 Symbolic Z-matrix:
 Charge = -1 Multiplicity = 1 in supermolecule
 Charge = -1 Multiplicity = 1 in fragment      1.
 Charge =  0 Multiplicity = 1 in fragment      2.
 Br(Fragment=1)        20.       20.       20. 
 O(Fragment=2)         21.39     22.76     21.2 
 H(Fragment=2)         21.99     22.95     20.48 
 H(Fragment=2)         20.92     21.97     20.93 
 O(Fragment=2)         19.27     16.73     19.79 
 H(Fragment=2)         19.9      16.58     19.09 
 H(Fragment=2)         19.33     17.66     19.98 
 O(Fragment=2)         20.66     20.27     23.31 
 H(Fragment=2)         20.4      20.17     22.4 
 H(Fragment=2)         21.47     20.78     23.27 
 O(Fragment=2)         17.62     19.76     22.44 
 H(Fragment=2)         18.38     19.87     21.87 
 H(Fragment=2)         17.49     20.63     22.83 
 O(Fragment=2)         20.81     19.29     16.81 
 H(Fragment=2)         20.01     19.67     16.46 
 H(Fragment=2)         20.63     19.16     17.74 
 O(Fragment=2)         17.64     20.23     17.29 
 H(Fragment=2)         17.37     19.34     17.07 
 H(Fragment=2)         18.08     20.15     18.13 
 O(Fragment=2)         19.83     22.79     17.63 
 H(Fragment=2)         20.06     22.09     18.24 
 H(Fragment=2)         20.59     23.37     17.63 
 O(Fragment=2)         16.88     17.56     17.74 
 H(Fragment=2)         17.57     17.71     18.39 
 H(Fragment=2)         16.36     16.84     18.1 
 O(Fragment=2)         19.26     23.66     22.73 
 H(Fragment=2)         19.92     23.23     22.18 
 H(Fragment=2)         18.63     24.01     22.1 
 O(Fragment=2)         23.79     19.85     17.31 
 H(Fragment=2)         23.99     20.22     18.17 
 H(Fragment=2)         22.85     19.66     17.35 
 O(Fragment=2)         17.98     17.05     22.64 
 H(Fragment=2)         17.94     18.01     22.67 
 H(Fragment=2)         17.16     16.79     22.2 
 O(Fragment=2)         21.78     18.02     24.32 
 H(Fragment=2)         22.36     18.53     24.89 
 H(Fragment=2)         21.3      18.68     23.82 
 O(Fragment=2)         15.36     18.61     20.42 
 H(Fragment=2)         15.93     19.16     20.97 
 H(Fragment=2)         14.88     19.23     19.88 
 O(Fragment=2)         16.35     22.94     18.05 
 H(Fragment=2)         17.22     22.56     17.98 
 H(Fragment=2)         15.96     22.81     17.19 
 O(Fragment=2)         23.93     19.51     21.86 
 H(Fragment=2)         23.98     18.57     22. 
 H(Fragment=2)         24.05     19.89     22.73 
 O(Fragment=2)         22.76     23.48     18.61 
 H(Fragment=2)         22.95     22.66     18.16 
 H(Fragment=2)         23.61     23.92     18.68 
 O(Fragment=2)         24.76     21.06     19.76 
 H(Fragment=2)         24.4      20.49     20.44 
 H(Fragment=2)         25.68     20.81     19.69 
 O(Fragment=2)         17.97     24.7      20.3 
 H(Fragment=2)         18.19     24.05     19.64 
 H(Fragment=2)         17.68     25.46     19.81 
 O(Fragment=2)         20.02     15.57     22.16 
 H(Fragment=2)         19.81     15.61     21.22 
 H(Fragment=2)         19.42     16.19     22.57 
 O(Fragment=2)         15.81     22.09     20.83 
 H(Fragment=2)         16.35     22.74     20.37 
 H(Fragment=2)         16.19     22.05     21.71 
 O(Fragment=2)         17.12     22.15     23.25 
 H(Fragment=2)         17.91     22.68     23.14 
 H(Fragment=2)         16.7      22.51     24.04 
 O(Fragment=2)         23.24     16.61     21.43 
 H(Fragment=2)         23.78     15.94     21.85 
 H(Fragment=2)         22.69     16.12     20.82 
 O(Fragment=2)         18.8      19.08     25.2 
 H(Fragment=2)         18.6      18.44     24.52 
 H(Fragment=2)         19.31     19.76     24.75 
 O(Fragment=2)         21.18     21.74     14.67 
 H(Fragment=2)         21.74     20.97     14.61 
 H(Fragment=2)         21.19     21.97     15.6 
 O(Fragment=2)         22.67     23.71     23.63 
 H(Fragment=2)         22.27     23.57     22.78 
 H(Fragment=2)         21.99     23.48     24.26 
 O(Fragment=2)         14.52     20.56     18.5 
 H(Fragment=2)         15.27     20.38     17.94 
 H(Fragment=2)         14.84     21.19     19.14 
 O(Fragment=2)         23.55     21.04     24.12 
 H(Fragment=2)         23.02     21.82     23.94 
 H(Fragment=2)         23.68     21.06     25.07 
 O(Fragment=2)         25.51     17.32     18.79 
 H(Fragment=2)         24.82     17.7      19.34 
 H(Fragment=2)         25.13     16.51     18.45 
 O(Fragment=2)         22.55     15.3      19.09 
 H(Fragment=2)         21.98     14.67     19.52 
 H(Fragment=2)         22.67     14.96     18.2 
 O(Fragment=2)         15.6      16.5      21.83 
 H(Fragment=2)         15.44     17.32     21.34 
 H(Fragment=2)         14.82     15.97     21.66 
 O(Fragment=2)         17.52     14.3      20.52 
 H(Fragment=2)         16.9      14.97     20.83 
 H(Fragment=2)         18.31     14.79     20.31 
 O(Fragment=2)         20.1      16.27     15.54 
 H(Fragment=2)         19.58     15.9      16.25 
 H(Fragment=2)         21.       16.27     15.88 
 
 NAtoms=     97 NQM=       97 NQMF=       0 NMMI=      0 NMMIF=      0
                NMic=       0 NMicF=      0.
                    Isotopes and Nuclear Properties:
 (Nuclear quadrupole moments (NQMom) in fm**2, nuclear magnetic moments (NMagM)
  in nuclear magnetons)

  Atom         1           2           3           4           5           6           7           8           9          10
 IAtWgt=          79          16           1           1          16           1           1          16           1           1
 AtmWgt=  78.9183361  15.9949146   1.0078250   1.0078250  15.9949146   1.0078250   1.0078250  15.9949146   1.0078250   1.0078250
 NucSpn=           3           0           1           1           0           1           1           0           1           1
 AtZEff=   0.0000000   0.0000000   0.0000000   0.0000000   0.0000000   0.0000000   0.0000000   0.0000000   0.0000000   0.0000000
 NQMom=   31.3000000   0.0000000   0.0000000   0.0000000   0.0000000   0.0000000   0.0000000   0.0000000   0.0000000   0.0000000
 NMagM=    2.1063990   0.0000000   2.7928460   2.7928460   0.0000000   2.7928460   2.7928460   0.0000000   2.7928460   2.7928460
 AtZNuc=  35.0000000   8.0000000   1.0000000   1.0000000   8.0000000   1.0000000   1.0000000   8.0000000   1.0000000   1.0000000

  Atom        11          12          13          14          15          16          17          18          19          20
 IAtWgt=          16           1           1          16           1           1          16           1           1          16
 AtmWgt=  15.9949146   1.0078250   1.0078250  15.9949146   1.0078250   1.0078250  15.9949146   1.0078250   1.0078250  15.9949146
 NucSpn=           0           1           1           0           1           1           0           1           1           0
 AtZEff=   0.0000000   0.0000000   0.0000000   0.0000000   0.0000000   0.0000000   0.0000000   0.0000000   0.0000000   0.0000000
 NQMom=    0.0000000   0.0000000   0.0000000   0.0000000   0.0000000   0.0000000   0.0000000   0.0000000   0.0000000   0.0000000
 NMagM=    0.0000000   2.7928460   2.7928460   0.0000000   2.7928460   2.7928460   0.0000000   2.7928460   2.7928460   0.0000000
 AtZNuc=   8.0000000   1.0000000   1.0000000   8.0000000   1.0000000   1.0000000   8.0000000   1.0000000   1.0000000   8.0000000

  Atom        21          22          23          24          25          26          27          28          29          30
 IAtWgt=           1           1          16           1           1          16           1           1          16           1
 AtmWgt=   1.0078250   1.0078250  15.9949146   1.0078250   1.0078250  15.9949146   1.0078250   1.0078250  15.9949146   1.0078250
 NucSpn=           1           1           0           1           1           0           1           1           0           1
 AtZEff=   0.0000000   0.0000000   0.0000000   0.0000000   0.0000000   0.0000000   0.0000000   0.0000000   0.0000000   0.0000000
 NQMom=    0.0000000   0.0000000   0.0000000   0.0000000   0.0000000   0.0000000   0.0000000   0.0000000   0.0000000   0.0000000
 NMagM=    2.7928460   2.7928460   0.0000000   2.7928460   2.7928460   0.0000000   2.7928460   2.7928460   0.0000000   2.7928460
 AtZNuc=   1.0000000   1.0000000   8.0000000   1.0000000   1.0000000   8.0000000   1.0000000   1.0000000   8.0000000   1.0000000

  Atom        31          32          33          34          35          36          37          38          39          40
 IAtWgt=           1          16           1           1          16           1           1          16           1           1
 AtmWgt=   1.0078250  15.9949146   1.0078250   1.0078250  15.9949146   1.0078250   1.0078250  15.9949146   1.0078250   1.0078250
 NucSpn=           1           0           1           1           0           1           1           0           1           1
 AtZEff=   0.0000000   0.0000000   0.0000000   0.0000000   0.0000000   0.0000000   0.0000000   0.0000000   0.0000000   0.0000000
 NQMom=    0.0000000   0.0000000   0.0000000   0.0000000   0.0000000   0.0000000   0.0000000   0.0000000   0.0000000   0.0000000
 NMagM=    2.7928460   0.0000000   2.7928460   2.7928460   0.0000000   2.7928460   2.7928460   0.0000000   2.7928460   2.7928460
 AtZNuc=   1.0000000   8.0000000   1.0000000   1.0000000   8.0000000   1.0000000   1.0000000   8.0000000   1.0000000   1.0000000

  Atom        41          42          43          44          45          46          47          48          49          50
 IAtWgt=          16           1           1          16           1           1          16           1           1          16
 AtmWgt=  15.9949146   1.0078250   1.0078250  15.9949146   1.0078250   1.0078250  15.9949146   1.0078250   1.0078250  15.9949146
 NucSpn=           0           1           1           0           1           1           0           1           1           0
 AtZEff=   0.0000000   0.0000000   0.0000000   0.0000000   0.0000000   0.0000000   0.0000000   0.0000000   0.0000000   0.0000000
 NQMom=    0.0000000   0.0000000   0.0000000   0.0000000   0.0000000   0.0000000   0.0000000   0.0000000   0.0000000   0.0000000
 NMagM=    0.0000000   2.7928460   2.7928460   0.0000000   2.7928460   2.7928460   0.0000000   2.7928460   2.7928460   0.0000000
 AtZNuc=   8.0000000   1.0000000   1.0000000   8.0000000   1.0000000   1.0000000   8.0000000   1.0000000   1.0000000   8.0000000

  Atom        51          52          53          54          55          56          57          58          59          60
 IAtWgt=           1           1          16           1           1          16           1           1          16           1
 AtmWgt=   1.0078250   1.0078250  15.9949146   1.0078250   1.0078250  15.9949146   1.0078250   1.0078250  15.9949146   1.0078250
 NucSpn=           1           1           0           1           1           0           1           1           0           1
 AtZEff=   0.0000000   0.0000000   0.0000000   0.0000000   0.0000000   0.0000000   0.0000000   0.0000000   0.0000000   0.0000000
 NQMom=    0.0000000   0.0000000   0.0000000   0.0000000   0.0000000   0.0000000   0.0000000   0.0000000   0.0000000   0.0000000
 NMagM=    2.7928460   2.7928460   0.0000000   2.7928460   2.7928460   0.0000000   2.7928460   2.7928460   0.0000000   2.7928460
 AtZNuc=   1.0000000   1.0000000   8.0000000   1.0000000   1.0000000   8.0000000   1.0000000   1.0000000   8.0000000   1.0000000

  Atom        61          62          63          64          65          66          67          68          69          70
 IAtWgt=           1          16           1           1          16           1           1          16           1           1
 AtmWgt=   1.0078250  15.9949146   1.0078250   1.0078250  15.9949146   1.0078250   1.0078250  15.9949146   1.0078250   1.0078250
 NucSpn=           1           0           1           1           0           1           1           0           1           1
 AtZEff=   0.0000000   0.0000000   0.0000000   0.0000000   0.0000000   0.0000000   0.0000000   0.0000000   0.0000000   0.0000000
 NQMom=    0.0000000   0.0000000   0.0000000   0.0000000   0.0000000   0.0000000   0.0000000   0.0000000   0.0000000   0.0000000
 NMagM=    2.7928460   0.0000000   2.7928460   2.7928460   0.0000000   2.7928460   2.7928460   0.0000000   2.7928460   2.7928460
 AtZNuc=   1.0000000   8.0000000   1.0000000   1.0000000   8.0000000   1.0000000   1.0000000   8.0000000   1.0000000   1.0000000

  Atom        71          72          73          74          75          76          77          78          79          80
 IAtWgt=          16           1           1          16           1           1          16           1           1          16
 AtmWgt=  15.9949146   1.0078250   1.0078250  15.9949146   1.0078250   1.0078250  15.9949146   1.0078250   1.0078250  15.9949146
 NucSpn=           0           1           1           0           1           1           0           1           1           0
 AtZEff=   0.0000000   0.0000000   0.0000000   0.0000000   0.0000000   0.0000000   0.0000000   0.0000000   0.0000000   0.0000000
 NQMom=    0.0000000   0.0000000   0.0000000   0.0000000   0.0000000   0.0000000   0.0000000   0.0000000   0.0000000   0.0000000
 NMagM=    0.0000000   2.7928460   2.7928460   0.0000000   2.7928460   2.7928460   0.0000000   2.7928460   2.7928460   0.0000000
 AtZNuc=   8.0000000   1.0000000   1.0000000   8.0000000   1.0000000   1.0000000   8.0000000   1.0000000   1.0000000   8.0000000

  Atom        81          82          83          84          85          86          87          88          89          90
 IAtWgt=           1           1          16           1           1          16           1           1          16           1
 AtmWgt=   1.0078250   1.0078250  15.9949146   1.0078250   1.0078250  15.9949146   1.0078250   1.0078250  15.9949146   1.0078250
 NucSpn=           1           1           0           1           1           0           1           1           0           1
 AtZEff=   0.0000000   0.0000000   0.0000000   0.0000000   0.0000000   0.0000000   0.0000000   0.0000000   0.0000000   0.0000000
 NQMom=    0.0000000   0.0000000   0.0000000   0.0000000   0.0000000   0.0000000   0.0000000   0.0000000   0.0000000   0.0000000
 NMagM=    2.7928460   2.7928460   0.0000000   2.7928460   2.7928460   0.0000000   2.7928460   2.7928460   0.0000000   2.7928460
 AtZNuc=   1.0000000   1.0000000   8.0000000   1.0000000   1.0000000   8.0000000   1.0000000   1.0000000   8.0000000   1.0000000

  Atom        91          92          93          94          95          96          97
 IAtWgt=           1          16           1           1          16           1           1
 AtmWgt=   1.0078250  15.9949146   1.0078250   1.0078250  15.9949146   1.0078250   1.0078250
 NucSpn=           1           0           1           1           0           1           1
 AtZEff=   0.0000000   0.0000000   0.0000000   0.0000000   0.0000000   0.0000000   0.0000000
 NQMom=    0.0000000   0.0000000   0.0000000   0.0000000   0.0000000   0.0000000   0.0000000
 NMagM=    2.7928460   0.0000000   2.7928460   2.7928460   0.0000000   2.7928460   2.7928460
 AtZNuc=   1.0000000   8.0000000   1.0000000   1.0000000   8.0000000   1.0000000   1.0000000
 Leave Link  101 at Thu May  3 09:11:36 2018, MaxMem= 14763950080 cpu:        14.9
 (Enter /cm/shared/gaussian/g09.e01/intel64-sandybridge/g09/l103.exe)

 GradGradGradGradGradGradGradGradGradGradGradGradGradGradGradGradGradGrad
 Berny optimization.
 Initialization pass.
 Trust Radius=3.00D-01 FncErr=1.00D-07 GrdErr=1.00D-07
 Number of steps in this run=      2 maximum allowed number of steps=      2.
 GradGradGradGradGradGradGradGradGradGradGradGradGradGradGradGradGradGrad

 Leave Link  103 at Thu May  3 09:11:36 2018, MaxMem= 14763950080 cpu:         2.3
 (Enter /cm/shared/gaussian/g09.e01/intel64-sandybridge/g09/l202.exe)
 Symmetry turned off by external request.
 Stoichiometry    BrH64O32(1-)
 Framework group  C1[X(BrH64O32)]
 Deg. of freedom   285
 Full point group                 C1      NOp   1
                          Input orientation:                          
 ---------------------------------------------------------------------
 Center     Atomic      Atomic             Coordinates (Angstroms)
 Number     Number       Type             X           Y           Z
 ---------------------------------------------------------------------
      1         35           0       20.000000   20.000000   20.000000
      2          8           0       21.390000   22.760000   21.200000
      3          1           0       21.990000   22.950000   20.480000
      4          1           0       20.920000   21.970000   20.930000
      5          8           0       19.270000   16.730000   19.790000
      6          1           0       19.900000   16.580000   19.090000
      7          1           0       19.330000   17.660000   19.980000
      8          8           0       20.660000   20.270000   23.310000
      9          1           0       20.400000   20.170000   22.400000
     10          1           0       21.470000   20.780000   23.270000
     11          8           0       17.620000   19.760000   22.440000
     12          1           0       18.380000   19.870000   21.870000
     13          1           0       17.490000   20.630000   22.830000
     14          8           0       20.810000   19.290000   16.810000
     15          1           0       20.010000   19.670000   16.460000
     16          1           0       20.630000   19.160000   17.740000
     17          8           0       17.640000   20.230000   17.290000
     18          1           0       17.370000   19.340000   17.070000
     19          1           0       18.080000   20.150000   18.130000
     20          8           0       19.830000   22.790000   17.630000
     21          1           0       20.060000   22.090000   18.240000
     22          1           0       20.590000   23.370000   17.630000
     23          8           0       16.880000   17.560000   17.740000
     24          1           0       17.570000   17.710000   18.390000
     25          1           0       16.360000   16.840000   18.100000
     26          8           0       19.260000   23.660000   22.730000
     27          1           0       19.920000   23.230000   22.180000
     28          1           0       18.630000   24.010000   22.100000
     29          8           0       23.790000   19.850000   17.310000
     30          1           0       23.990000   20.220000   18.170000
     31          1           0       22.850000   19.660000   17.350000
     32          8           0       17.980000   17.050000   22.640000
     33          1           0       17.940000   18.010000   22.670000
     34          1           0       17.160000   16.790000   22.200000
     35          8           0       21.780000   18.020000   24.320000
     36          1           0       22.360000   18.530000   24.890000
     37          1           0       21.300000   18.680000   23.820000
     38          8           0       15.360000   18.610000   20.420000
     39          1           0       15.930000   19.160000   20.970000
     40          1           0       14.880000   19.230000   19.880000
     41          8           0       16.350000   22.940000   18.050000
     42          1           0       17.220000   22.560000   17.980000
     43          1           0       15.960000   22.810000   17.190000
     44          8           0       23.930000   19.510000   21.860000
     45          1           0       23.980000   18.570000   22.000000
     46          1           0       24.050000   19.890000   22.730000
     47          8           0       22.760000   23.480000   18.610000
     48          1           0       22.950000   22.660000   18.160000
     49          1           0       23.610000   23.920000   18.680000
     50          8           0       24.760000   21.060000   19.760000
     51          1           0       24.400000   20.490000   20.440000
     52          1           0       25.680000   20.810000   19.690000
     53          8           0       17.970000   24.700000   20.300000
     54          1           0       18.190000   24.050000   19.640000
     55          1           0       17.680000   25.460000   19.810000
     56          8           0       20.020000   15.570000   22.160000
     57          1           0       19.810000   15.610000   21.220000
     58          1           0       19.420000   16.190000   22.570000
     59          8           0       15.810000   22.090000   20.830000
     60          1           0       16.350000   22.740000   20.370000
     61          1           0       16.190000   22.050000   21.710000
     62          8           0       17.120000   22.150000   23.250000
     63          1           0       17.910000   22.680000   23.140000
     64          1           0       16.700000   22.510000   24.040000
     65          8           0       23.240000   16.610000   21.430000
     66          1           0       23.780000   15.940000   21.850000
     67          1           0       22.690000   16.120000   20.820000
     68          8           0       18.800000   19.080000   25.200000
     69          1           0       18.600000   18.440000   24.520000
     70          1           0       19.310000   19.760000   24.750000
     71          8           0       21.180000   21.740000   14.670000
     72          1           0       21.740000   20.970000   14.610000
     73          1           0       21.190000   21.970000   15.600000
     74          8           0       22.670000   23.710000   23.630000
     75          1           0       22.270000   23.570000   22.780000
     76          1           0       21.990000   23.480000   24.260000
     77          8           0       14.520000   20.560000   18.500000
     78          1           0       15.270000   20.380000   17.940000
     79          1           0       14.840000   21.190000   19.140000
     80          8           0       23.550000   21.040000   24.120000
     81          1           0       23.020000   21.820000   23.940000
     82          1           0       23.680000   21.060000   25.070000
     83          8           0       25.510000   17.320000   18.790000
     84          1           0       24.820000   17.700000   19.340000
     85          1           0       25.130000   16.510000   18.450000
     86          8           0       22.550000   15.300000   19.090000
     87          1           0       21.980000   14.670000   19.520000
     88          1           0       22.670000   14.960000   18.200000
     89          8           0       15.600000   16.500000   21.830000
     90          1           0       15.440000   17.320000   21.340000
     91          1           0       14.820000   15.970000   21.660000
     92          8           0       17.520000   14.300000   20.520000
     93          1           0       16.900000   14.970000   20.830000
     94          1           0       18.310000   14.790000   20.310000
     95          8           0       20.100000   16.270000   15.540000
     96          1           0       19.580000   15.900000   16.250000
     97          1           0       21.000000   16.270000   15.880000
 ---------------------------------------------------------------------
 Rotational constants (GHZ):      0.0594726      0.0557645      0.0527981
 Leave Link  202 at Thu May  3 09:11:36 2018, MaxMem= 14763950080 cpu:         0.6
 (Enter /cm/shared/gaussian/g09.e01/intel64-sandybridge/g09/l122.exe)
 Counterpoise: doing full dimer calculation.
 Leave Link  122 at Thu May  3 09:11:36 2018, MaxMem= 14763950080 cpu:         0.0
 (Enter /cm/shared/gaussian/g09.e01/intel64-sandybridge/g09/l301.exe)
 Standard basis: CC-pVDZ (5D, 7F)
 Ernie: Thresh=  0.10000D-02 Tol=  0.10000D-05 Strict=F.
 Ernie:  87 primitive shells out of 1114 were deleted.
   795 basis functions,  1651 primitive gaussians,   829 cartesian basis functions
   178 alpha electrons      178 beta electrons
       nuclear repulsion energy      6144.6476989414 Hartrees.
 IExCor= 1009 DFT=T Ex+Corr=PBE1PBE ExCW=0 ScaHFX=  0.250000
 ScaDFX=  0.750000  0.750000  1.000000  1.000000 ScalE2=  1.000000  1.000000
 IRadAn=      0 IRanWt=     -1 IRanGd=            0 ICorTp=0 IEmpDi=  4
 NAtoms=   97 NActive=   97 NUniq=   97 SFac= 1.00D+00 NAtFMM=   60 NAOKFM=T Big=T
 Integral buffers will be    131072 words long.
 Raffenetti 2 integral format.
 Two-electron integral symmetry is turned off.
 Leave Link  301 at Thu May  3 09:11:36 2018, MaxMem= 14763950080 cpu:         6.4
 (Enter /cm/shared/gaussian/g09.e01/intel64-sandybridge/g09/l302.exe)
 NPDir=0 NMtPBC=     1 NCelOv=     1 NCel=       1 NClECP=     1 NCelD=      1
         NCelK=      1 NCelE2=     1 NClLst=     1 CellRange=     0.0.
 One-electron integrals computed using PRISM.
 NBasis=   795 RedAO= T EigKep=  1.54D-02  NBF=   795
 NBsUse=   795 1.00D-06 EigRej= -1.00D+00 NBFU=   795
 Precomputing XC quadrature grid using
 IXCGrd= 4 IRadAn=           0 IRanWt=          -1 IRanGd=           0 AccXCQ= 0.00D+00.
 Generated NRdTot=       0 NPtTot=           0 NUsed=           0 NTot=          32
 NSgBfM=   766   772   772   772   772 MxSgAt=    97 MxSgA2=    97.
 Leave Link  302 at Thu May  3 09:11:42 2018, MaxMem= 14763950080 cpu:       378.4
 (Enter /cm/shared/gaussian/g09.e01/intel64-sandybridge/g09/l303.exe)
 DipDrv:  MaxL=1.
 Leave Link  303 at Thu May  3 09:11:42 2018, MaxMem= 14763950080 cpu:        31.1
 (Enter /cm/shared/gaussian/g09.e01/intel64-sandybridge/g09/l401.exe)
 ExpMin= 1.22D-01 ExpMax= 6.40D+05 ExpMxC= 6.18D+03 IAcc=2 IRadAn=         4 AccDes= 0.00D+00
 Harris functional with IExCor= 1009 and IRadAn=       4 diagonalized for initial guess.
 HarFok:  IExCor= 1009 AccDes= 0.00D+00 IRadAn=         4 IDoV= 1 UseB2=F ITyADJ=14
 ICtDFT=  3500011 ScaDFX=  1.000000  1.000000  1.000000  1.000000
 FoFCou: FMM=F IPFlag=           0 FMFlag=      100000 FMFlg1=        2001
         NFxFlg=           0 DoJE=T BraDBF=F KetDBF=T FulRan=T
         wScrn=  0.000000 ICntrl=     500 IOpCl=  0 I1Cent=   200000004 NGrid=           0
         NMat0=    1 NMatS0=      1 NMatT0=    0 NMatD0=    1 NMtDS0=    0 NMtDT0=    0
 Symmetry not used in FoFCou.
 Harris En= -5018.44002791055    
 JPrj=0 DoOrth=F DoCkMO=F.
 Leave Link  401 at Thu May  3 09:11:48 2018, MaxMem= 14763950080 cpu:       339.2
 (Enter /cm/shared/gaussian/g09.e01/intel64-sandybridge/g09/l502.exe)
 Closed shell SCF:
 Using DIIS extrapolation, IDIIS=  1040.
 Two-electron integral symmetry not used.
 IVT=     2138497 IEndB=     2138497 NGot= 14763950080 MDV= 14762516294
 LenX= 14762516294 LenY= 14761828224
 Requested convergence on RMS density matrix=1.00D-08 within 128 cycles.
 Requested convergence on MAX density matrix=1.00D-06.
 Requested convergence on             energy=1.00D-06.
 No special actions if energy rises.
 Fock matrices will be formed incrementally for  20 cycles.
 Integral accuracy reduced to 1.0D-05 until final iterations.

 Cycle   1  Pass 0  IDiag  1:
 FoFJK:  IHMeth= 1 ICntrl=       0 DoSepK=F KAlg= 0 I1Cent=   0 FoldK=F
 IRaf= 850000000 NMat=   1 IRICut=       1 DoRegI=T DoRafI=F ISym2E= 0.
 FoFCou: FMM=T IPFlag=           0 FMFlag=      100000 FMFlg1=        2001
         NFxFlg=           0 DoJE=F BraDBF=F KetDBF=F FulRan=T
         wScrn=  0.000000 ICntrl=       0 IOpCl=  0 I1Cent=           0 NGrid=           0
         NMat0=    1 NMatS0=      1 NMatT0=    0 NMatD0=    1 NMtDS0=    0 NMtDT0=    0
 Symmetry not used in FoFCou.
 FMM levels:  10  Number of levels for PrismC:   9
 E= -5015.35554442591    
 DIIS: error= 4.15D-02 at cycle   1 NSaved=   1.
 NSaved= 1 IEnMin= 1 EnMin= -5015.35554442591     IErMin= 1 ErrMin= 4.15D-02
 ErrMax= 4.15D-02  0.00D+00 EMaxC= 1.00D-01 BMatC= 2.69D+00 BMatP= 2.69D+00
 IDIUse=3 WtCom= 5.85D-01 WtEn= 4.15D-01
 Coeff-Com:  0.100D+01
 Coeff-En:   0.100D+01
 Coeff:      0.100D+01
 Gap=     0.313 Goal=   None    Shift=    0.000
 GapD=    0.313 DampG=1.000 DampE=0.500 DampFc=0.5000 IDamp=-1.
 Damping current iteration by 5.00D-01
 RMSDP=2.86D-03 MaxDP=1.59D-01              OVMax= 1.85D-01

 Cycle   2  Pass 0  IDiag  1:
 RMSU=  1.42D-03    CP:  9.85D-01
 E= -5016.13568612770     Delta-E=       -0.780141701796 Rises=F Damp=T
 DIIS: error= 9.11D-03 at cycle   2 NSaved=   2.
 NSaved= 2 IEnMin= 2 EnMin= -5016.13568612770     IErMin= 2 ErrMin= 9.11D-03
 ErrMax= 9.11D-03  0.00D+00 EMaxC= 1.00D-01 BMatC= 8.73D-02 BMatP= 2.69D+00
 IDIUse=3 WtCom= 9.09D-01 WtEn= 9.11D-02
 Coeff-Com:  0.120D+00 0.880D+00
 Coeff-En:   0.217D+00 0.783D+00
 Coeff:      0.129D+00 0.871D+00
 Gap=     0.195 Goal=   None    Shift=    0.000
 RMSDP=3.62D-04 MaxDP=1.88D-02 DE=-7.80D-01 OVMax= 1.19D-01

 Cycle   3  Pass 0  IDiag  1:
 RMSU=  2.86D-04    CP:  9.87D-01  8.44D-01
 E= -5017.27687114648     Delta-E=       -1.141185018780 Rises=F Damp=F
 DIIS: error= 1.33D-03 at cycle   3 NSaved=   3.
 NSaved= 3 IEnMin= 3 EnMin= -5017.27687114648     IErMin= 3 ErrMin= 1.33D-03
 ErrMax= 1.33D-03  0.00D+00 EMaxC= 1.00D-01 BMatC= 2.41D-03 BMatP= 8.73D-02
 IDIUse=3 WtCom= 9.87D-01 WtEn= 1.33D-02
 Coeff-Com:  0.123D-01 0.852D-01 0.902D+00
 Coeff-En:   0.000D+00 0.000D+00 0.100D+01
 Coeff:      0.121D-01 0.841D-01 0.904D+00
 Gap=     0.202 Goal=   None    Shift=    0.000
 RMSDP=1.02D-04 MaxDP=1.41D-02 DE=-1.14D+00 OVMax= 1.69D-02

 Cycle   4  Pass 0  IDiag  1:
 RMSU=  9.05D-05    CP:  9.87D-01  8.46D-01  8.36D-01
 E= -5017.27729705097     Delta-E=       -0.000425904489 Rises=F Damp=F
 DIIS: error= 9.63D-04 at cycle   4 NSaved=   4.
 NSaved= 4 IEnMin= 4 EnMin= -5017.27729705097     IErMin= 4 ErrMin= 9.63D-04
 ErrMax= 9.63D-04  0.00D+00 EMaxC= 1.00D-01 BMatC= 2.41D-03 BMatP= 2.41D-03
 IDIUse=3 WtCom= 9.90D-01 WtEn= 9.63D-03
 Coeff-Com:  0.225D-02 0.738D-02 0.498D+00 0.492D+00
 Coeff-En:   0.000D+00 0.000D+00 0.448D+00 0.552D+00
 Coeff:      0.222D-02 0.731D-02 0.498D+00 0.493D+00
 Gap=     0.205 Goal=   None    Shift=    0.000
 RMSDP=4.48D-05 MaxDP=5.09D-03 DE=-4.26D-04 OVMax= 5.65D-03

 Cycle   5  Pass 0  IDiag  1:
 RMSU=  1.80D-05    CP:  9.87D-01  8.44D-01  8.97D-01  5.91D-01
 E= -5017.27912293937     Delta-E=       -0.001825888397 Rises=F Damp=F
 DIIS: error= 1.45D-04 at cycle   5 NSaved=   5.
 NSaved= 5 IEnMin= 5 EnMin= -5017.27912293937     IErMin= 5 ErrMin= 1.45D-04
 ErrMax= 1.45D-04  0.00D+00 EMaxC= 1.00D-01 BMatC= 3.20D-05 BMatP= 2.41D-03
 IDIUse=3 WtCom= 9.99D-01 WtEn= 1.45D-03
 Coeff-Com:  0.726D-03-0.151D-02 0.140D+00 0.165D+00 0.696D+00
 Coeff-En:   0.000D+00 0.000D+00 0.000D+00 0.000D+00 0.100D+01
 Coeff:      0.725D-03-0.151D-02 0.140D+00 0.165D+00 0.697D+00
 Gap=     0.205 Goal=   None    Shift=    0.000
 RMSDP=8.53D-06 MaxDP=1.34D-03 DE=-1.83D-03 OVMax= 1.44D-03

 Cycle   6  Pass 0  IDiag  1:
 RMSU=  5.80D-06    CP:  9.87D-01  8.43D-01  9.08D-01  5.74D-01  7.17D-01
 E= -5017.27914894722     Delta-E=       -0.000026007852 Rises=F Damp=F
 DIIS: error= 7.86D-05 at cycle   6 NSaved=   6.
 NSaved= 6 IEnMin= 6 EnMin= -5017.27914894722     IErMin= 6 ErrMin= 7.86D-05
 ErrMax= 7.86D-05  0.00D+00 EMaxC= 1.00D-01 BMatC= 4.69D-06 BMatP= 3.20D-05
 IDIUse=1 WtCom= 1.00D+00 WtEn= 0.00D+00
 Coeff-Com:  0.157D-03-0.194D-02 0.338D-01 0.415D-01 0.306D+00 0.620D+00
 Coeff:      0.157D-03-0.194D-02 0.338D-01 0.415D-01 0.306D+00 0.620D+00
 Gap=     0.205 Goal=   None    Shift=    0.000
 RMSDP=2.52D-06 MaxDP=4.40D-04 DE=-2.60D-05 OVMax= 3.84D-04

 Initial convergence to 1.0D-05 achieved.  Increase integral accuracy.
 Cycle   7  Pass 1  IDiag  1:
 E= -5017.27973147070     Delta-E=       -0.000582523475 Rises=F Damp=F
 DIIS: error= 2.46D-05 at cycle   1 NSaved=   1.
 NSaved= 1 IEnMin= 1 EnMin= -5017.27973147070     IErMin= 1 ErrMin= 2.46D-05
 ErrMax= 2.46D-05  0.00D+00 EMaxC= 1.00D-01 BMatC= 1.47D-06 BMatP= 1.47D-06
 IDIUse=1 WtCom= 1.00D+00 WtEn= 0.00D+00
 Coeff-Com:  0.100D+01
 Coeff:      0.100D+01
 Gap=     0.205 Goal=   None    Shift=    0.000
 RMSDP=2.52D-06 MaxDP=4.40D-04 DE=-5.83D-04 OVMax= 2.03D-04

 Cycle   8  Pass 1  IDiag  1:
 RMSU=  4.34D-06    CP:  1.00D+00
 E= -5017.27973271239     Delta-E=       -0.000001241693 Rises=F Damp=F
 DIIS: error= 1.81D-05 at cycle   2 NSaved=   2.
 NSaved= 2 IEnMin= 2 EnMin= -5017.27973271239     IErMin= 2 ErrMin= 1.81D-05
 ErrMax= 1.81D-05  0.00D+00 EMaxC= 1.00D-01 BMatC= 4.79D-07 BMatP= 1.47D-06
 IDIUse=1 WtCom= 1.00D+00 WtEn= 0.00D+00
 Coeff-Com:  0.309D+00 0.691D+00
 Coeff:      0.309D+00 0.691D+00
 Gap=     0.205 Goal=   None    Shift=    0.000
 RMSDP=9.20D-07 MaxDP=1.37D-04 DE=-1.24D-06 OVMax= 1.18D-04

 Cycle   9  Pass 1  IDiag  1:
 RMSU=  9.12D-07    CP:  1.00D+00  9.72D-01
 E= -5017.27973290340     Delta-E=       -0.000000191016 Rises=F Damp=F
 DIIS: error= 1.06D-05 at cycle   3 NSaved=   3.
 NSaved= 3 IEnMin= 3 EnMin= -5017.27973290340     IErMin= 3 ErrMin= 1.06D-05
 ErrMax= 1.06D-05  0.00D+00 EMaxC= 1.00D-01 BMatC= 2.13D-07 BMatP= 4.79D-07
 IDIUse=1 WtCom= 1.00D+00 WtEn= 0.00D+00
 Coeff-Com: -0.673D-02 0.399D+00 0.607D+00
 Coeff:     -0.673D-02 0.399D+00 0.607D+00
 Gap=     0.205 Goal=   None    Shift=    0.000
 RMSDP=3.81D-07 MaxDP=5.83D-05 DE=-1.91D-07 OVMax= 4.69D-05

 Cycle  10  Pass 1  IDiag  1:
 RMSU=  8.95D-08    CP:  1.00D+00  1.00D+00  6.16D-01
 E= -5017.27973305388     Delta-E=       -0.000000150472 Rises=F Damp=F
 DIIS: error= 1.08D-06 at cycle   4 NSaved=   4.
 NSaved= 4 IEnMin= 4 EnMin= -5017.27973305388     IErMin= 4 ErrMin= 1.08D-06
 ErrMax= 1.08D-06  0.00D+00 EMaxC= 1.00D-01 BMatC= 1.48D-09 BMatP= 2.13D-07
 IDIUse=1 WtCom= 1.00D+00 WtEn= 0.00D+00
 Coeff-Com: -0.534D-02 0.186D+00 0.290D+00 0.530D+00
 Coeff:     -0.534D-02 0.186D+00 0.290D+00 0.530D+00
 Gap=     0.205 Goal=   None    Shift=    0.000
 RMSDP=3.70D-08 MaxDP=4.92D-06 DE=-1.50D-07 OVMax= 4.17D-06

 Cycle  11  Pass 1  IDiag  1:
 RMSU=  2.95D-08    CP:  1.00D+00  1.00D+00  6.23D-01  7.61D-01
 E= -5017.27973305495     Delta-E=       -0.000000001075 Rises=F Damp=F
 DIIS: error= 3.10D-07 at cycle   5 NSaved=   5.
 NSaved= 5 IEnMin= 5 EnMin= -5017.27973305495     IErMin= 5 ErrMin= 3.10D-07
 ErrMax= 3.10D-07  0.00D+00 EMaxC= 1.00D-01 BMatC= 8.36D-11 BMatP= 1.48D-09
 IDIUse=1 WtCom= 1.00D+00 WtEn= 0.00D+00
 Coeff-Com: -0.168D-02 0.441D-01 0.702D-01 0.228D+00 0.659D+00
 Coeff:     -0.168D-02 0.441D-01 0.702D-01 0.228D+00 0.659D+00
 Gap=     0.205 Goal=   None    Shift=    0.000
 RMSDP=9.07D-09 MaxDP=1.03D-06 DE=-1.08D-09 OVMax= 8.49D-07

 Cycle  12  Pass 1  IDiag  1:
 RMSU=  7.52D-09    CP:  1.00D+00  1.00D+00  6.23D-01  8.04D-01  8.95D-01
 E= -5017.27973305494     Delta-E=        0.000000000015 Rises=F Damp=F
 DIIS: error= 3.03D-08 at cycle   6 NSaved=   6.
 NSaved= 6 IEnMin= 5 EnMin= -5017.27973305495     IErMin= 6 ErrMin= 3.03D-08
 ErrMax= 3.03D-08  0.00D+00 EMaxC= 1.00D-01 BMatC= 2.56D-12 BMatP= 8.36D-11
 IDIUse=1 WtCom= 1.00D+00 WtEn= 0.00D+00
 Coeff-Com:  0.143D-03-0.783D-02-0.120D-01 0.266D-02 0.156D+00 0.861D+00
 Coeff:      0.143D-03-0.783D-02-0.120D-01 0.266D-02 0.156D+00 0.861D+00
 Gap=     0.205 Goal=   None    Shift=    0.000
 RMSDP=2.57D-09 MaxDP=1.90D-07 DE= 1.46D-11 OVMax= 3.00D-07

 SCF Done:  E(RPBE1PBE) =  -5017.27973305     A.U. after   12 cycles
            NFock= 12  Conv=0.26D-08     -V/T= 2.0028
 KE= 5.003171258034D+03 PE=-2.425721966041D+04 EE= 8.092120970384D+03
 Leave Link  502 at Thu May  3 09:14:20 2018, MaxMem= 14763950080 cpu:      9619.0
 (Enter /cm/shared/gaussian/g09.e01/intel64-sandybridge/g09/l601.exe)
 Copying SCF densities to generalized density rwf, IOpCl= 0 IROHF=0.

 **********************************************************************

            Population analysis using the SCF density.

 **********************************************************************

 Alpha  occ. eigenvalues -- -483.15362 -62.55614 -56.32875 -56.32857 -56.32827
 Alpha  occ. eigenvalues --  -19.17700 -19.17230 -19.16482 -19.16387 -19.15916
 Alpha  occ. eigenvalues --  -19.15334 -19.15242 -19.14353 -19.14337 -19.14044
 Alpha  occ. eigenvalues --  -19.13991 -19.13391 -19.12952 -19.12791 -19.12411
 Alpha  occ. eigenvalues --  -19.11847 -19.11745 -19.11708 -19.11656 -19.11066
 Alpha  occ. eigenvalues --  -19.10985 -19.10674 -19.10660 -19.10459 -19.10355
 Alpha  occ. eigenvalues --  -19.10092 -19.08111 -19.07853 -19.06762 -19.06204
 Alpha  occ. eigenvalues --  -19.05784 -19.02405  -8.65872  -6.46278  -6.46198
 Alpha  occ. eigenvalues --   -6.46062  -2.54557  -2.54553  -2.54437  -2.54373
 Alpha  occ. eigenvalues --   -2.54351  -1.00212  -0.99884  -0.99419  -0.99063
 Alpha  occ. eigenvalues --   -0.98970  -0.98187  -0.97514  -0.97112  -0.96803
 Alpha  occ. eigenvalues --   -0.96548  -0.96278  -0.96006  -0.95801  -0.95602
 Alpha  occ. eigenvalues --   -0.95224  -0.94750  -0.94678  -0.94257  -0.94053
 Alpha  occ. eigenvalues --   -0.93825  -0.93280  -0.93191  -0.92966  -0.92864
 Alpha  occ. eigenvalues --   -0.92712  -0.92458  -0.90608  -0.90380  -0.89711
 Alpha  occ. eigenvalues --   -0.88705  -0.88431  -0.85195  -0.64987  -0.51032
 Alpha  occ. eigenvalues --   -0.50458  -0.49777  -0.49703  -0.49508  -0.49225
 Alpha  occ. eigenvalues --   -0.48555  -0.47631  -0.47567  -0.47208  -0.47082
 Alpha  occ. eigenvalues --   -0.46698  -0.46600  -0.46282  -0.45911  -0.45715
 Alpha  occ. eigenvalues --   -0.45391  -0.45032  -0.44965  -0.44599  -0.44435
 Alpha  occ. eigenvalues --   -0.43786  -0.43771  -0.43558  -0.43456  -0.43241
 Alpha  occ. eigenvalues --   -0.42105  -0.41273  -0.41199  -0.40326  -0.39408
 Alpha  occ. eigenvalues --   -0.38167  -0.37614  -0.36778  -0.36049  -0.36013
 Alpha  occ. eigenvalues --   -0.35540  -0.35194  -0.34739  -0.33574  -0.33551
 Alpha  occ. eigenvalues --   -0.33299  -0.33245  -0.32601  -0.32507  -0.32062
 Alpha  occ. eigenvalues --   -0.31896  -0.31464  -0.31163  -0.31041  -0.30604
 Alpha  occ. eigenvalues --   -0.30214  -0.29646  -0.29402  -0.29061  -0.28946
 Alpha  occ. eigenvalues --   -0.28897  -0.28611  -0.28039  -0.27750  -0.27661
 Alpha  occ. eigenvalues --   -0.27294  -0.27088  -0.27000  -0.26899  -0.26792
 Alpha  occ. eigenvalues --   -0.26495  -0.26320  -0.25662  -0.25524  -0.24942
 Alpha  occ. eigenvalues --   -0.24912  -0.24792  -0.24400  -0.24094  -0.23705
 Alpha  occ. eigenvalues --   -0.23461  -0.22987  -0.22823  -0.22725  -0.22484
 Alpha  occ. eigenvalues --   -0.22411  -0.22357  -0.21814  -0.21811  -0.21299
 Alpha  occ. eigenvalues --   -0.21169  -0.20967  -0.20895  -0.20709  -0.20313
 Alpha  occ. eigenvalues --   -0.19836  -0.19159  -0.19082  -0.18925  -0.17587
 Alpha  occ. eigenvalues --   -0.17517  -0.16163  -0.13962
 Alpha virt. eigenvalues --    0.06539   0.07957   0.09857   0.10549   0.11235
 Alpha virt. eigenvalues --    0.13073   0.13382   0.14156   0.14814   0.15079
 Alpha virt. eigenvalues --    0.15245   0.15708   0.16480   0.17413   0.17814
 Alpha virt. eigenvalues --    0.18093   0.19135   0.19484   0.19707   0.19781
 Alpha virt. eigenvalues --    0.20424   0.20848   0.21065   0.22088   0.22459
 Alpha virt. eigenvalues --    0.22740   0.22814   0.23552   0.23695   0.24248
 Alpha virt. eigenvalues --    0.24625   0.24767   0.25507   0.26097   0.26584
 Alpha virt. eigenvalues --    0.26630   0.27400   0.27702   0.28044   0.28744
 Alpha virt. eigenvalues --    0.28882   0.29488   0.29827   0.30460   0.30747
 Alpha virt. eigenvalues --    0.31433   0.31739   0.32047   0.32796   0.33017
 Alpha virt. eigenvalues --    0.33817   0.34248   0.34965   0.35328   0.35519
 Alpha virt. eigenvalues --    0.36451   0.37193   0.38189   0.39339   0.39570
 Alpha virt. eigenvalues --    0.39646   0.41115   0.42750   0.44904   0.55847
 Alpha virt. eigenvalues --    0.58829   0.59127   0.59692   0.60409   0.61443
 Alpha virt. eigenvalues --    0.62263   0.62561   0.62872   0.63012   0.63557
 Alpha virt. eigenvalues --    0.64096   0.64443   0.64645   0.65095   0.65424
 Alpha virt. eigenvalues --    0.65809   0.65894   0.66435   0.66830   0.67089
 Alpha virt. eigenvalues --    0.67463   0.67579   0.67848   0.68106   0.68207
 Alpha virt. eigenvalues --    0.68593   0.68875   0.69068   0.69395   0.69681
 Alpha virt. eigenvalues --    0.69843   0.70086   0.70205   0.71017   0.71118
 Alpha virt. eigenvalues --    0.71166   0.71326   0.71636   0.72407   0.72745
 Alpha virt. eigenvalues --    0.73302   0.73438   0.73814   0.74244   0.74539
 Alpha virt. eigenvalues --    0.74686   0.74787   0.75182   0.75409   0.75820
 Alpha virt. eigenvalues --    0.76126   0.76235   0.76916   0.77546   0.77937
 Alpha virt. eigenvalues --    0.78092   0.78702   0.79189   0.79761   0.80548
 Alpha virt. eigenvalues --    0.80860   0.81600   0.82036   0.83158   0.83655
 Alpha virt. eigenvalues --    0.84115   0.85312   0.85517   0.86776   0.87878
 Alpha virt. eigenvalues --    0.89480   0.93064   0.94089   0.94369   0.95079
 Alpha virt. eigenvalues --    0.96204   0.96771   0.97158   0.97451   0.98037
 Alpha virt. eigenvalues --    0.98457   0.98777   0.98868   0.99162   0.99547
 Alpha virt. eigenvalues --    0.99922   1.00199   1.00801   1.01009   1.01670
 Alpha virt. eigenvalues --    1.02041   1.02212   1.02590   1.02946   1.03175
 Alpha virt. eigenvalues --    1.03465   1.03755   1.04269   1.04371   1.04600
 Alpha virt. eigenvalues --    1.04926   1.05022   1.05618   1.05999   1.06066
 Alpha virt. eigenvalues --    1.06248   1.06758   1.07057   1.07577   1.07723
 Alpha virt. eigenvalues --    1.07808   1.08335   1.08535   1.08727   1.09069
 Alpha virt. eigenvalues --    1.09345   1.09504   1.09821   1.10079   1.10182
 Alpha virt. eigenvalues --    1.10917   1.11332   1.11519   1.11816   1.12032
 Alpha virt. eigenvalues --    1.12490   1.12895   1.13403   1.13427   1.13683
 Alpha virt. eigenvalues --    1.14066   1.14399   1.14697   1.14964   1.15242
 Alpha virt. eigenvalues --    1.15749   1.15881   1.16587   1.16886   1.17002
 Alpha virt. eigenvalues --    1.17343   1.17817   1.18157   1.19024   1.19301
 Alpha virt. eigenvalues --    1.19419   1.19584   1.19793   1.20474   1.20768
 Alpha virt. eigenvalues --    1.21265   1.21338   1.21971   1.22671   1.22970
 Alpha virt. eigenvalues --    1.23586   1.23724   1.24048   1.24711   1.24931
 Alpha virt. eigenvalues --    1.25375   1.25937   1.26428   1.26776   1.27288
 Alpha virt. eigenvalues --    1.27316   1.27963   1.28105   1.28524   1.28838
 Alpha virt. eigenvalues --    1.29317   1.29358   1.29442   1.29719   1.30209
 Alpha virt. eigenvalues --    1.30619   1.30720   1.30990   1.31087   1.31600
 Alpha virt. eigenvalues --    1.31862   1.31900   1.32287   1.32562   1.32688
 Alpha virt. eigenvalues --    1.33054   1.33308   1.33460   1.33841   1.34011
 Alpha virt. eigenvalues --    1.34273   1.34558   1.34749   1.35226   1.35341
 Alpha virt. eigenvalues --    1.35553   1.35781   1.35928   1.36097   1.36820
 Alpha virt. eigenvalues --    1.37119   1.37870   1.37989   1.38346   1.38910
 Alpha virt. eigenvalues --    1.39284   1.39551   1.39738   1.40653   1.41255
 Alpha virt. eigenvalues --    1.41570   1.41906   1.42893   1.43119   1.43714
 Alpha virt. eigenvalues --    1.43893   1.44378   1.44506   1.45020   1.45426
 Alpha virt. eigenvalues --    1.46079   1.46248   1.47035   1.47587   1.48531
 Alpha virt. eigenvalues --    1.48633   1.48850   1.49741   1.50396   1.51027
 Alpha virt. eigenvalues --    1.51235   1.51683   1.51721   1.52041   1.52352
 Alpha virt. eigenvalues --    1.53110   1.53313   1.53591   1.54085   1.54798
 Alpha virt. eigenvalues --    1.54987   1.55215   1.55529   1.56192   1.56388
 Alpha virt. eigenvalues --    1.56749   1.57498   1.58320   1.59215   1.59539
 Alpha virt. eigenvalues --    1.59827   1.60403   1.60459   1.61096   1.61766
 Alpha virt. eigenvalues --    1.62136   1.62840   1.62852   1.64178   1.64271
 Alpha virt. eigenvalues --    1.65788   1.65947   1.66372   1.68592   1.68920
 Alpha virt. eigenvalues --    1.70105   1.71085   1.71446   1.71752   1.72173
 Alpha virt. eigenvalues --    1.72494   1.72664   1.73967   1.74394   1.75309
 Alpha virt. eigenvalues --    1.75337   1.75623   1.75807   1.76262   1.76780
 Alpha virt. eigenvalues --    1.77004   1.77367   1.77647   1.77935   1.78118
 Alpha virt. eigenvalues --    1.78982   1.79403   1.79712   1.80102   1.80273
 Alpha virt. eigenvalues --    1.81112   1.81322   1.81681   1.81900   1.82324
 Alpha virt. eigenvalues --    1.82893   1.83225   1.83789   1.84104   1.84548
 Alpha virt. eigenvalues --    1.84921   1.85393   1.86053   1.86629   1.87265
 Alpha virt. eigenvalues --    1.87590   1.87805   1.88164   1.88428   1.89321
 Alpha virt. eigenvalues --    1.89983   1.90663   1.91307   1.92005   1.92479
 Alpha virt. eigenvalues --    1.93107   1.93830   1.94350   1.94667   1.95826
 Alpha virt. eigenvalues --    1.96618   1.97476   1.98737   1.99300   2.01419
 Alpha virt. eigenvalues --    2.01891   2.07265   2.09758   2.18511   2.18582
 Alpha virt. eigenvalues --    2.18757   2.19562   2.20978   2.21074   2.21629
 Alpha virt. eigenvalues --    2.21810   2.22157   2.22499   2.22677   2.23239
 Alpha virt. eigenvalues --    2.23586   2.23818   2.24103   2.24333   2.24558
 Alpha virt. eigenvalues --    2.24809   2.25132   2.25192   2.25799   2.26322
 Alpha virt. eigenvalues --    2.26683   2.27130   2.27595   2.28205   2.28363
 Alpha virt. eigenvalues --    2.28428   2.28820   2.28988   2.29046   2.29405
 Alpha virt. eigenvalues --    2.29829   2.30242   2.30766   2.31686   2.32655
 Alpha virt. eigenvalues --    2.33191   2.33237   2.33503   2.35183   2.35863
 Alpha virt. eigenvalues --    2.36834   2.37230   2.38706   2.38983   2.39769
 Alpha virt. eigenvalues --    2.41219   2.41963   2.42603   2.43689   2.44436
 Alpha virt. eigenvalues --    2.47324   2.48396   2.50626   2.52417   2.55945
 Alpha virt. eigenvalues --    2.56513   2.57142   2.59520   2.64034   2.67300
 Alpha virt. eigenvalues --    2.69667   2.72510   2.95516   2.96473   2.96533
 Alpha virt. eigenvalues --    2.97214   2.97749   2.98776   2.99003   2.99410
 Alpha virt. eigenvalues --    2.99471   3.00021   3.00329   3.00492   3.00616
 Alpha virt. eigenvalues --    3.00854   3.00947   3.01283   3.01600   3.02004
 Alpha virt. eigenvalues --    3.02064   3.02170   3.02576   3.02592   3.03147
 Alpha virt. eigenvalues --    3.03289   3.03306   3.03470   3.03624   3.03687
 Alpha virt. eigenvalues --    3.04140   3.04235   3.04433   3.04708   3.04767
 Alpha virt. eigenvalues --    3.04902   3.05058   3.05104   3.05806   3.05880
 Alpha virt. eigenvalues --    3.06113   3.06480   3.06792   3.07037   3.07139
 Alpha virt. eigenvalues --    3.07391   3.07404   3.07571   3.07624   3.07700
 Alpha virt. eigenvalues --    3.07843   3.08222   3.08656   3.08730   3.09018
 Alpha virt. eigenvalues --    3.09487   3.09790   3.10531   3.10873   3.12179
 Alpha virt. eigenvalues --    3.12618   3.12794   3.13737   3.15765   3.16486
 Alpha virt. eigenvalues --    3.18296   3.18776   3.19200   3.19946   3.20146
 Alpha virt. eigenvalues --    3.20852   3.21295   3.21893   3.22191   3.22403
 Alpha virt. eigenvalues --    3.22634   3.23324   3.23509   3.23658   3.23953
 Alpha virt. eigenvalues --    3.24292   3.24409   3.24719   3.24939   3.25201
 Alpha virt. eigenvalues --    3.25561   3.25934   3.26149   3.26310   3.27822
 Alpha virt. eigenvalues --    3.27968   3.28187   3.28721   3.29338   3.29410
 Alpha virt. eigenvalues --    3.30463   3.31856   3.38504   3.54310   3.54559
 Alpha virt. eigenvalues --    3.55505   3.55598   3.56252   3.57039   3.57763
 Alpha virt. eigenvalues --    3.58301   3.59075   3.59445   3.59949   3.60604
 Alpha virt. eigenvalues --    3.61053   3.61220   3.61597   3.61677   3.62874
 Alpha virt. eigenvalues --    3.63091   3.63237   3.63626   3.64430   3.65375
 Alpha virt. eigenvalues --    3.65825   3.66425   3.66725   3.67098   3.67472
 Alpha virt. eigenvalues --    3.68427   3.69713   3.70039   3.72973   3.81476
 Alpha virt. eigenvalues --    3.82955   3.83210   3.83730   3.84007   3.84870
 Alpha virt. eigenvalues --    3.85363   3.85831   3.86317   3.86433   3.86657
 Alpha virt. eigenvalues --    3.87615   3.87875   3.88319   3.89248   3.89702
 Alpha virt. eigenvalues --    3.90173   3.90539   3.91029   3.91488   3.92030
 Alpha virt. eigenvalues --    3.92228   3.93458   3.93476   3.94563   3.95389
 Alpha virt. eigenvalues --    3.97179   3.97502   3.97764   3.99909   4.00590
 Alpha virt. eigenvalues --    4.01860   4.08879
          Condensed to atoms (all electrons):
 Mulliken charges:
               1
     1  Br  -0.701248
     2  O   -0.281210
     3  H    0.137548
     4  H    0.148771
     5  O   -0.240315
     6  H    0.115777
     7  H    0.160857
     8  O   -0.249261
     9  H    0.146007
    10  H    0.105749
    11  O   -0.273796
    12  H    0.131985
    13  H    0.146770
    14  O   -0.268452
    15  H    0.125457
    16  H    0.134479
    17  O   -0.277674
    18  H    0.151862
    19  H    0.130481
    20  O   -0.265132
    21  H    0.133768
    22  H    0.138844
    23  O   -0.268587
    24  H    0.111853
    25  H    0.147213
    26  O   -0.283822
    27  H    0.136475
    28  H    0.135975
    29  O   -0.320416
    30  H    0.109605
    31  H    0.114237
    32  O   -0.317456
    33  H    0.123050
    34  H    0.145617
    35  O   -0.284838
    36  H    0.092813
    37  H    0.126392
    38  O   -0.274300
    39  H    0.134574
    40  H    0.116752
    41  O   -0.268300
    42  H    0.138517
    43  H    0.139969
    44  O   -0.279985
    45  H    0.136996
    46  H    0.131352
    47  O   -0.249418
    48  H    0.146119
    49  H    0.157345
    50  O   -0.290539
    51  H    0.151934
    52  H    0.139382
    53  O   -0.237122
    54  H    0.135951
    55  H    0.143753
    56  O   -0.336401
    57  H    0.098179
    58  H    0.151495
    59  O   -0.300822
    60  H    0.114993
    61  H    0.124557
    62  O   -0.251226
    63  H    0.129814
    64  H    0.159021
    65  O   -0.237405
    66  H    0.123909
    67  H    0.125318
    68  O   -0.306026
    69  H    0.132867
    70  H    0.121231
    71  O   -0.284789
    72  H    0.139938
    73  H    0.115143
    74  O   -0.246534
    75  H    0.149753
    76  H    0.137805
    77  O   -0.281842
    78  H    0.119323
    79  H    0.147101
    80  O   -0.239722
    81  H    0.110251
    82  H    0.139166
    83  O   -0.286200
    84  H    0.130089
    85  H    0.122448
    86  O   -0.235820
    87  H    0.150053
    88  H    0.138070
    89  O   -0.269480
    90  H    0.150142
    91  H    0.128997
    92  O   -0.302041
    93  H    0.116825
    94  H    0.115493
    95  O   -0.262728
    96  H    0.127253
    97  H    0.129440
 Sum of Mulliken charges =  -1.00000
 Mulliken charges with hydrogens summed into heavy atoms:
               1
     1  Br  -0.701248
     2  O    0.005109
     5  O    0.036318
     8  O    0.002495
    11  O    0.004959
    14  O   -0.008517
    17  O    0.004669
    20  O    0.007481
    23  O   -0.009521
    26  O   -0.011371
    29  O   -0.096575
    32  O   -0.048789
    35  O   -0.065633
    38  O   -0.022975
    41  O    0.010187
    44  O   -0.011636
    47  O    0.054046
    50  O    0.000777
    53  O    0.042582
    56  O   -0.086726
    59  O   -0.061273
    62  O    0.037609
    65  O    0.011822
    68  O   -0.051927
    71  O   -0.029709
    74  O    0.041024
    77  O   -0.015417
    80  O    0.009696
    83  O   -0.033663
    86  O    0.052303
    89  O    0.009660
    92  O   -0.069722
    95  O   -0.006035
         Mulliken charges condensed to fragments:
      1     -0.701248
      2     -0.298752
 Electronic spatial extent (au):  <R**2>=        1551371.4272
 Charge=             -1.0000 electrons
 Dipole moment (field-independent basis, Debye):
    X=            -92.4407    Y=            -87.7735    Z=            -97.6529  Tot=            160.5788
 Quadrupole moment (field-independent basis, Debye-Ang):
   XX=          -2048.5198   YY=          -1836.4305   ZZ=          -2288.9188
   XY=          -1696.6499   XZ=          -1867.2857   YZ=          -1745.5760
 Traceless Quadrupole moment (field-independent basis, Debye-Ang):
   XX=              9.4366   YY=            221.5259   ZZ=           -230.9624
   XY=          -1696.6499   XZ=          -1867.2857   YZ=          -1745.5760
 Octapole moment (field-independent basis, Debye-Ang**2):
  XXX=         -50313.0396  YYY=         -42952.7411  ZZZ=         -58657.1666  XYY=         -35696.0626
  XXY=         -38143.6015  XXZ=         -41043.5167  XZZ=         -43720.4624  YZZ=         -40588.1336
  YYZ=         -35963.1783  XYZ=         -33506.8483
 Hexadecapole moment (field-independent basis, Debye-Ang**3):
 XXXX=       -1310719.0355 YYYY=       -1079367.9530 ZZZZ=       -1566361.5180 XXXY=        -952209.1195
 XXXZ=       -1001047.0295 YYYX=        -839902.5996 YYYZ=        -837268.6388 ZZZX=       -1122929.3388
 ZZZY=       -1043613.3707 XXYY=        -803038.5805 XXZZ=        -944109.2573 YYZZ=        -821030.3434
 XXYZ=        -749331.7111 YYXZ=        -695051.7955 ZZXY=        -777926.7061
 N-N= 6.144647698941D+03 E-N=-2.425721966342D+04  KE= 5.003171258034D+03
 No NMR shielding tensors so no spin-rotation constants.
 Leave Link  601 at Thu May  3 09:14:21 2018, MaxMem= 14763950080 cpu:        70.5
 (Enter /cm/shared/gaussian/g09.e01/intel64-sandybridge/g09/l701.exe)
 Compute integral first derivatives.
 ... and contract with generalized density number  0.
 Leave Link  701 at Thu May  3 09:14:24 2018, MaxMem= 14763950080 cpu:       152.3
 (Enter /cm/shared/gaussian/g09.e01/intel64-sandybridge/g09/l702.exe)
 L702 exits ... SP integral derivatives will be done elsewhere.
 Leave Link  702 at Thu May  3 09:14:24 2018, MaxMem= 14763950080 cpu:         2.6
 (Enter /cm/shared/gaussian/g09.e01/intel64-sandybridge/g09/l703.exe)
 Compute integral first derivatives, UseDBF=F ICtDFT=           0.
 Integral derivatives from FoFJK, PRISM(SPDF).
 Calling FoFJK, ICntrl=      2127 FMM=T ISym2X=0 I1Cent= 0 IOpClX= 0 NMat=1 NMatS=1 NMatT=0.
 FoFJK:  IHMeth= 1 ICntrl=    2127 DoSepK=F KAlg= 0 I1Cent=   0 FoldK=F
 IRaf=         0 NMat=   1 IRICut=       1 DoRegI=T DoRafI=F ISym2E= 0.
 FoFCou: FMM=T IPFlag=           0 FMFlag=      100000 FMFlg1=        2001
         NFxFlg=           0 DoJE=F BraDBF=F KetDBF=F FulRan=T
         wScrn=  0.000000 ICntrl=    2127 IOpCl=  0 I1Cent=           0 NGrid=           0
         NMat0=    1 NMatS0=      1 NMatT0=    0 NMatD0=    1 NMtDS0=    0 NMtDT0=    0
 Symmetry not used in FoFCou.
 FMM levels:  10  Number of levels for PrismC:   9
 Leave Link  703 at Thu May  3 09:14:42 2018, MaxMem= 14763950080 cpu:      1119.9
 (Enter /cm/shared/gaussian/g09.e01/intel64-sandybridge/g09/l716.exe)
 Dipole        =-3.63689681D+01-3.45327670D+01-3.84195995D+01
 Cartesian Forces:  Max     0.032591935 RMS     0.010485829
 Leave Link  716 at Thu May  3 09:14:43 2018, MaxMem= 14763950080 cpu:         4.7
 (Enter /cm/shared/gaussian/g09.e01/intel64-sandybridge/g09/l122.exe)
 CPIOFr:  IOpCl= 0 IRwI=-1 IRwCP=  731 ICalc= -1 LCPTot=     1005244 Len1MO=     2550559 IndFrg=     1005244
 CPIOFr:  IOpCl= 0 IRwI=-1 IRwCP=  731 ICalc=  0 LCPTot=     1005244 Len1MO=     2550559 IndFrg=     3555803
 Counterpoise: doing DCBS calculation for fragment   1 NewBq=T
 Leave Link  122 at Thu May  3 09:14:43 2018, MaxMem= 14763950080 cpu:         9.1
 (Enter /cm/shared/gaussian/g09.e01/intel64-sandybridge/g09/l301.exe)
 Basis read from rwf:  (5D, 7F)
 No pseudopotential information found on rwf file.
   795 basis functions,  1651 primitive gaussians,   829 cartesian basis functions
    18 alpha electrons       18 beta electrons
       nuclear repulsion energy         0.0000000000 Hartrees.
 IExCor= 1009 DFT=T Ex+Corr=PBE1PBE ExCW=0 ScaHFX=  0.250000
 ScaDFX=  0.750000  0.750000  1.000000  1.000000 ScalE2=  1.000000  1.000000
 IRadAn=      0 IRanWt=     -1 IRanGd=            0 ICorTp=0 IEmpDi=  4
 NAtoms=   97 NActive=   97 NUniq=   97 SFac= 1.00D+00 NAtFMM=   60 NAOKFM=T Big=T
 Integral buffers will be    131072 words long.
 Raffenetti 2 integral format.
 Two-electron integral symmetry is turned off.
 No density basis found on file   718.
 Leave Link  301 at Thu May  3 09:14:43 2018, MaxMem= 14763950080 cpu:         7.0
 (Enter /cm/shared/gaussian/g09.e01/intel64-sandybridge/g09/l302.exe)
 NPDir=0 NMtPBC=     1 NCelOv=     1 NCel=       1 NClECP=     1 NCelD=      1
         NCelK=      1 NCelE2=     1 NClLst=     1 CellRange=     0.0.
 One-electron integrals computed using PRISM.
 NBasis=   795 RedAO= T EigKep=  1.54D-02  NBF=   795
 NBsUse=   795 1.00D-06 EigRej= -1.00D+00 NBFU=   795
 Precomputing XC quadrature grid using
 IXCGrd= 4 IRadAn=           0 IRanWt=          -1 IRanGd=           0 AccXCQ= 0.00D+00.
 Generated NRdTot=       0 NPtTot=           0 NUsed=           0 NTot=          32
 NSgBfM=   766   772   772   772   772 MxSgAt=    97 MxSgA2=    97.
 Leave Link  302 at Thu May  3 09:14:47 2018, MaxMem= 14763950080 cpu:       271.7
 (Enter /cm/shared/gaussian/g09.e01/intel64-sandybridge/g09/l303.exe)
 DipDrv:  MaxL=1.
 Leave Link  303 at Thu May  3 09:14:49 2018, MaxMem= 14763950080 cpu:        94.0
 (Enter /cm/shared/gaussian/g09.e01/intel64-sandybridge/g09/l401.exe)
 ExpMin= 1.22D-01 ExpMax= 6.40D+05 ExpMxC= 6.18D+03 IAcc=2 IRadAn=         4 AccDes= 0.00D+00
 Harris functional with IExCor= 1009 and IRadAn=       4 diagonalized for initial guess.
 HarFok:  IExCor= 1009 AccDes= 0.00D+00 IRadAn=         4 IDoV= 1 UseB2=F ITyADJ=14
 ICtDFT=  3500011 ScaDFX=  1.000000  1.000000  1.000000  1.000000
 FoFCou: FMM=F IPFlag=           0 FMFlag=      100000 FMFlg1=        2001
         NFxFlg=           0 DoJE=T BraDBF=F KetDBF=T FulRan=T
         wScrn=  0.000000 ICntrl=     500 IOpCl=  0 I1Cent=   200000004 NGrid=           0
         NMat0=    1 NMatS0=      1 NMatT0=    0 NMatD0=    1 NMtDS0=    0 NMtDT0=    0
 Symmetry not used in FoFCou.
 Harris En= -2574.01975316090    
 JPrj=0 DoOrth=F DoCkMO=F.
 Leave Link  401 at Thu May  3 09:14:54 2018, MaxMem= 14763950080 cpu:       304.9
 (Enter /cm/shared/gaussian/g09.e01/intel64-sandybridge/g09/l502.exe)
 Closed shell SCF:
 Using DIIS extrapolation, IDIIS=  1040.
 Two-electron integral symmetry not used.
 IVT=     2138497 IEndB=     2138497 NGot= 14763950080 MDV= 14762516294
 LenX= 14762516294 LenY= 14761828224
 Requested convergence on RMS density matrix=1.00D-08 within 128 cycles.
 Requested convergence on MAX density matrix=1.00D-06.
 Requested convergence on             energy=1.00D-06.
 No special actions if energy rises.
 Fock matrices will be formed incrementally for  20 cycles.
 Integral accuracy reduced to 1.0D-05 until final iterations.

 Cycle   1  Pass 0  IDiag  1:
 FoFJK:  IHMeth= 1 ICntrl=       0 DoSepK=F KAlg= 0 I1Cent=   0 FoldK=F
 IRaf= 850000000 NMat=   1 IRICut=       1 DoRegI=T DoRafI=F ISym2E= 0.
 FoFCou: FMM=T IPFlag=           0 FMFlag=      100000 FMFlg1=        2001
         NFxFlg=           0 DoJE=F BraDBF=F KetDBF=F FulRan=T
         wScrn=  0.000000 ICntrl=       0 IOpCl=  0 I1Cent=           0 NGrid=           0
         NMat0=    1 NMatS0=      1 NMatT0=    0 NMatD0=    1 NMtDS0=    0 NMtDT0=    0
 Symmetry not used in FoFCou.
 FMM levels:  10  Number of levels for PrismC:   9
 E= -2573.87878831941    
 DIIS: error= 9.57D-03 at cycle   1 NSaved=   1.
 NSaved= 1 IEnMin= 1 EnMin= -2573.87878831941     IErMin= 1 ErrMin= 9.57D-03
 ErrMax= 9.57D-03  0.00D+00 EMaxC= 1.00D-01 BMatC= 3.78D-02 BMatP= 3.78D-02
 IDIUse=3 WtCom= 9.04D-01 WtEn= 9.57D-02
 Coeff-Com:  0.100D+01
 Coeff-En:   0.100D+01
 Coeff:      0.100D+01
 Gap=     0.180 Goal=   None    Shift=    0.000
 GapD=    0.180 DampG=1.000 DampE=1.000 DampFc=1.0000 IDamp=-1.
 RMSDP=4.66D-04 MaxDP=6.89D-02              OVMax= 1.52D-01

 Cycle   2  Pass 0  IDiag  1:
 RMSU=  4.63D-04    CP:  9.91D-01
 E= -2573.90026853179     Delta-E=       -0.021480212378 Rises=F Damp=F
 DIIS: error= 4.83D-03 at cycle   2 NSaved=   2.
 NSaved= 2 IEnMin= 2 EnMin= -2573.90026853179     IErMin= 2 ErrMin= 4.83D-03
 ErrMax= 4.83D-03  0.00D+00 EMaxC= 1.00D-01 BMatC= 7.02D-03 BMatP= 3.78D-02
 IDIUse=3 WtCom= 9.52D-01 WtEn= 4.83D-02
 Coeff-Com:  0.220D+00 0.780D+00
 Coeff-En:   0.132D-01 0.987D+00
 Coeff:      0.210D+00 0.790D+00
 Gap=     0.193 Goal=   None    Shift=    0.000
 RMSDP=2.18D-04 MaxDP=5.26D-02 DE=-2.15D-02 OVMax= 6.87D-02

 Cycle   3  Pass 0  IDiag  1:
 RMSU=  1.46D-04    CP:  9.95D-01  6.55D-01
 E= -2573.90776054692     Delta-E=       -0.007492015129 Rises=F Damp=F
 DIIS: error= 2.71D-03 at cycle   3 NSaved=   3.
 NSaved= 3 IEnMin= 3 EnMin= -2573.90776054692     IErMin= 3 ErrMin= 2.71D-03
 ErrMax= 2.71D-03  0.00D+00 EMaxC= 1.00D-01 BMatC= 2.64D-03 BMatP= 7.02D-03
 IDIUse=3 WtCom= 9.73D-01 WtEn= 2.71D-02
 Coeff-Com:  0.590D-01 0.368D+00 0.573D+00
 Coeff-En:   0.000D+00 0.181D+00 0.819D+00
 Coeff:      0.574D-01 0.363D+00 0.580D+00
 Gap=     0.172 Goal=   None    Shift=    0.000
 RMSDP=7.58D-05 MaxDP=1.82D-02 DE=-7.49D-03 OVMax= 2.33D-02

 Cycle   4  Pass 0  IDiag  1:
 RMSU=  8.34D-06    CP:  9.94D-01  7.61D-01  6.14D-01
 E= -2573.91072264558     Delta-E=       -0.002962098662 Rises=F Damp=F
 DIIS: error= 7.37D-05 at cycle   4 NSaved=   4.
 NSaved= 4 IEnMin= 4 EnMin= -2573.91072264558     IErMin= 4 ErrMin= 7.37D-05
 ErrMax= 7.37D-05  0.00D+00 EMaxC= 1.00D-01 BMatC= 1.24D-06 BMatP= 2.64D-03
 IDIUse=1 WtCom= 1.00D+00 WtEn= 0.00D+00
 Coeff-Com: -0.906D-03 0.112D-01 0.325D-01 0.957D+00
 Coeff:     -0.906D-03 0.112D-01 0.325D-01 0.957D+00
 Gap=     0.172 Goal=   None    Shift=    0.000
 RMSDP=2.30D-06 MaxDP=5.34D-04 DE=-2.96D-03 OVMax= 6.96D-04

 Initial convergence to 1.0D-05 achieved.  Increase integral accuracy.
 Cycle   5  Pass 1  IDiag  1:
 E= -2573.91142645524     Delta-E=       -0.000703809658 Rises=F Damp=F
 DIIS: error= 8.24D-06 at cycle   1 NSaved=   1.
 NSaved= 1 IEnMin= 1 EnMin= -2573.91142645524     IErMin= 1 ErrMin= 8.24D-06
 ErrMax= 8.24D-06  0.00D+00 EMaxC= 1.00D-01 BMatC= 9.03D-08 BMatP= 9.03D-08
 IDIUse=1 WtCom= 1.00D+00 WtEn= 0.00D+00
 Coeff-Com:  0.100D+01
 Coeff:      0.100D+01
 Gap=     0.172 Goal=   None    Shift=    0.000
 RMSDP=2.30D-06 MaxDP=5.34D-04 DE=-7.04D-04 OVMax= 2.44D-04

 Cycle   6  Pass 1  IDiag  1:
 RMSU=  1.11D-06    CP:  1.00D+00
 E= -2573.91142654726     Delta-E=       -0.000000092025 Rises=F Damp=F
 DIIS: error= 9.80D-06 at cycle   2 NSaved=   2.
 NSaved= 2 IEnMin= 2 EnMin= -2573.91142654726     IErMin= 1 ErrMin= 8.24D-06
 ErrMax= 9.80D-06  0.00D+00 EMaxC= 1.00D-01 BMatC= 4.57D-08 BMatP= 9.03D-08
 IDIUse=1 WtCom= 1.00D+00 WtEn= 0.00D+00
 Coeff-Com:  0.402D+00 0.598D+00
 Coeff:      0.402D+00 0.598D+00
 Gap=     0.172 Goal=   None    Shift=    0.000
 RMSDP=3.71D-07 MaxDP=8.98D-05 DE=-9.20D-08 OVMax= 1.19D-04

 Cycle   7  Pass 1  IDiag  1:
 RMSU=  3.03D-07    CP:  1.00D+00  8.09D-01
 E= -2573.91142660187     Delta-E=       -0.000000054610 Rises=F Damp=F
 DIIS: error= 1.85D-06 at cycle   3 NSaved=   3.
 NSaved= 3 IEnMin= 3 EnMin= -2573.91142660187     IErMin= 3 ErrMin= 1.85D-06
 ErrMax= 1.85D-06  0.00D+00 EMaxC= 1.00D-01 BMatC= 1.33D-09 BMatP= 4.57D-08
 IDIUse=1 WtCom= 1.00D+00 WtEn= 0.00D+00
 Coeff-Com: -0.170D-01 0.126D+00 0.891D+00
 Coeff:     -0.170D-01 0.126D+00 0.891D+00
 Gap=     0.172 Goal=   None    Shift=    0.000
 RMSDP=6.38D-08 MaxDP=1.54D-05 DE=-5.46D-08 OVMax= 1.74D-05

 Cycle   8  Pass 1  IDiag  1:
 RMSU=  2.87D-08    CP:  1.00D+00  8.58D-01  9.43D-01
 E= -2573.91142660338     Delta-E=       -0.000000001511 Rises=F Damp=F
 DIIS: error= 7.32D-07 at cycle   4 NSaved=   4.
 NSaved= 4 IEnMin= 4 EnMin= -2573.91142660338     IErMin= 4 ErrMin= 7.32D-07
 ErrMax= 7.32D-07  0.00D+00 EMaxC= 1.00D-01 BMatC= 3.89D-11 BMatP= 1.33D-09
 IDIUse=1 WtCom= 1.00D+00 WtEn= 0.00D+00
 Coeff-Com: -0.115D-01 0.382D-01 0.286D+00 0.688D+00
 Coeff:     -0.115D-01 0.382D-01 0.286D+00 0.688D+00
 Gap=     0.172 Goal=   None    Shift=    0.000
 RMSDP=1.09D-08 MaxDP=1.37D-06 DE=-1.51D-09 OVMax= 3.63D-06

 Cycle   9  Pass 1  IDiag  1:
 RMSU=  8.33D-09    CP:  1.00D+00  8.62D-01  9.49D-01  8.06D-01
 E= -2573.91142660345     Delta-E=       -0.000000000070 Rises=F Damp=F
 DIIS: error= 9.42D-08 at cycle   5 NSaved=   5.
 NSaved= 5 IEnMin= 5 EnMin= -2573.91142660345     IErMin= 5 ErrMin= 9.42D-08
 ErrMax= 9.42D-08  0.00D+00 EMaxC= 1.00D-01 BMatC= 1.37D-12 BMatP= 3.89D-11
 IDIUse=1 WtCom= 1.00D+00 WtEn= 0.00D+00
 Coeff-Com: -0.805D-03-0.655D-03-0.177D-01 0.117D+00 0.902D+00
 Coeff:     -0.805D-03-0.655D-03-0.177D-01 0.117D+00 0.902D+00
 Gap=     0.172 Goal=   None    Shift=    0.000
 RMSDP=2.56D-09 MaxDP=4.64D-07 DE=-7.00D-11 OVMax= 8.85D-07

 SCF Done:  E(RPBE1PBE) =  -2573.91142660     A.U. after    9 cycles
            NFock=  9  Conv=0.26D-08     -V/T= 2.0013
 KE= 2.570514959948D+03 PE=-6.162982211694D+03 EE= 1.018555825142D+03
 Leave Link  502 at Thu May  3 09:16:38 2018, MaxMem= 14763950080 cpu:      6607.2
 (Enter /cm/shared/gaussian/g09.e01/intel64-sandybridge/g09/l601.exe)
 Copying SCF densities to generalized density rwf, IOpCl= 0 IROHF=0.

 **********************************************************************

            Population analysis using the SCF density.

 **********************************************************************

 Alpha  occ. eigenvalues -- -482.98773 -62.38920 -56.16178 -56.16175 -56.16163
 Alpha  occ. eigenvalues --   -8.49051  -6.29373  -6.29365  -6.29324  -2.37645
 Alpha  occ. eigenvalues --   -2.37645  -2.37611  -2.37605  -2.37595  -0.47111
 Alpha  occ. eigenvalues --   -0.02996  -0.02989  -0.02948
 Alpha virt. eigenvalues --    0.14242   0.15824   0.16169   0.16801   0.18019
 Alpha virt. eigenvalues --    0.18633   0.18861   0.19543   0.20028   0.21549
 Alpha virt. eigenvalues --    0.21782   0.22544   0.22852   0.22984   0.24196
 Alpha virt. eigenvalues --    0.24780   0.25257   0.26013   0.26404   0.26719
 Alpha virt. eigenvalues --    0.27012   0.27754   0.28350   0.28837   0.29265
 Alpha virt. eigenvalues --    0.29470   0.30055   0.30337   0.30897   0.31731
 Alpha virt. eigenvalues --    0.32024   0.32610   0.33117   0.34213   0.34545
 Alpha virt. eigenvalues --    0.35403   0.35542   0.36177   0.36636   0.37249
 Alpha virt. eigenvalues --    0.37844   0.37968   0.38231   0.39010   0.39305
 Alpha virt. eigenvalues --    0.39860   0.40031   0.40528   0.41343   0.41853
 Alpha virt. eigenvalues --    0.42482   0.42706   0.43085   0.43370   0.44194
 Alpha virt. eigenvalues --    0.45137   0.45500   0.46435   0.46689   0.47272
 Alpha virt. eigenvalues --    0.48161   0.48379   0.49869   0.51541   0.61444
 Alpha virt. eigenvalues --    0.61686   0.63056   0.63454   0.63947   0.64110
 Alpha virt. eigenvalues --    0.64639   0.65616   0.66175   0.66657   0.66891
 Alpha virt. eigenvalues --    0.67104   0.67796   0.68309   0.68843   0.69018
 Alpha virt. eigenvalues --    0.70511   0.70576   0.71175   0.71371   0.71522
 Alpha virt. eigenvalues --    0.71692   0.71946   0.72305   0.72625   0.72878
 Alpha virt. eigenvalues --    0.72978   0.73739   0.73858   0.74579   0.75008
 Alpha virt. eigenvalues --    0.75380   0.75672   0.75784   0.76320   0.76837
 Alpha virt. eigenvalues --    0.77265   0.77683   0.78011   0.78453   0.78592
 Alpha virt. eigenvalues --    0.78923   0.79251   0.79916   0.80302   0.80773
 Alpha virt. eigenvalues --    0.81051   0.81447   0.81537   0.81925   0.82108
 Alpha virt. eigenvalues --    0.82145   0.83031   0.83393   0.83653   0.83879
 Alpha virt. eigenvalues --    0.84049   0.84532   0.84927   0.85036   0.85700
 Alpha virt. eigenvalues --    0.86037   0.86637   0.86748   0.87237   0.87782
 Alpha virt. eigenvalues --    0.87815   0.87964   0.88444   0.89170   0.89360
 Alpha virt. eigenvalues --    0.89722   0.90139   0.90676   0.91067   0.91491
 Alpha virt. eigenvalues --    0.91883   0.92597   0.92991   0.93328   0.93647
 Alpha virt. eigenvalues --    0.94161   0.94596   0.94786   0.95159   0.95308
 Alpha virt. eigenvalues --    0.95906   0.96044   0.96533   0.96894   0.97129
 Alpha virt. eigenvalues --    0.97804   0.97884   0.98568   0.98953   0.99318
 Alpha virt. eigenvalues --    0.99981   1.00628   1.01113   1.02028   1.02246
 Alpha virt. eigenvalues --    1.02576   1.02967   1.03448   1.04245   1.04785
 Alpha virt. eigenvalues --    1.05167   1.05670   1.06023   1.06445   1.07445
 Alpha virt. eigenvalues --    1.07922   1.08508   1.08712   1.09601   1.09735
 Alpha virt. eigenvalues --    1.10289   1.10687   1.12019   1.12554   1.13231
 Alpha virt. eigenvalues --    1.13393   1.13911   1.14387   1.15153   1.15745
 Alpha virt. eigenvalues --    1.16469   1.17228   1.18374   1.19207   1.20139
 Alpha virt. eigenvalues --    1.20868   1.23169   1.23843   1.26687   1.27880
 Alpha virt. eigenvalues --    1.35541   1.64605   1.65063   1.66942   1.67212
 Alpha virt. eigenvalues --    1.67735   1.68253   1.69181   1.69395   1.70246
 Alpha virt. eigenvalues --    1.70559   1.70834   1.71239   1.71388   1.71974
 Alpha virt. eigenvalues --    1.72247   1.72445   1.72662   1.73098   1.73615
 Alpha virt. eigenvalues --    1.73792   1.74126   1.74444   1.75136   1.75429
 Alpha virt. eigenvalues --    1.75735   1.76176   1.76347   1.76498   1.76579
 Alpha virt. eigenvalues --    1.76811   1.77464   1.77708   1.77881   1.78590
 Alpha virt. eigenvalues --    1.78880   1.78901   1.79153   1.79515   1.79887
 Alpha virt. eigenvalues --    1.80169   1.80551   1.80873   1.81350   1.81456
 Alpha virt. eigenvalues --    1.82403   1.82726   1.82932   1.83219   1.83735
 Alpha virt. eigenvalues --    1.84216   1.84623   1.85757   1.86004   1.87222
 Alpha virt. eigenvalues --    1.87662   1.88141   1.88845   1.90196   1.90755
 Alpha virt. eigenvalues --    1.92148   1.92917   1.93895   1.94823   1.95945
 Alpha virt. eigenvalues --    1.97400   1.97714   1.98522   1.98881   1.99295
 Alpha virt. eigenvalues --    1.99712   1.99945   2.00476   2.00767   2.00992
 Alpha virt. eigenvalues --    2.01392   2.01799   2.01894   2.02069   2.02278
 Alpha virt. eigenvalues --    2.02476   2.02723   2.03018   2.03138   2.03464
 Alpha virt. eigenvalues --    2.03609   2.03756   2.04422   2.04650   2.04817
 Alpha virt. eigenvalues --    2.04974   2.05208   2.05307   2.05685   2.05942
 Alpha virt. eigenvalues --    2.06268   2.06549   2.07102   2.07437   2.07882
 Alpha virt. eigenvalues --    2.08281   2.08496   2.08552   2.08907   2.09324
 Alpha virt. eigenvalues --    2.09782   2.11053   2.11180   2.11809   2.12417
 Alpha virt. eigenvalues --    2.12546   2.13028   2.13390   2.13569   2.13821
 Alpha virt. eigenvalues --    2.14340   2.14798   2.15334   2.15814   2.16097
 Alpha virt. eigenvalues --    2.16545   2.16996   2.17211   2.17564   2.17867
 Alpha virt. eigenvalues --    2.18303   2.18564   2.18907   2.19129   2.19587
 Alpha virt. eigenvalues --    2.19991   2.20350   2.20724   2.21241   2.22028
 Alpha virt. eigenvalues --    2.22046   2.22650   2.23092   2.23662   2.24521
 Alpha virt. eigenvalues --    2.24810   2.25063   2.25610   2.26129   2.26758
 Alpha virt. eigenvalues --    2.27235   2.27765   2.28230   2.28683   2.29583
 Alpha virt. eigenvalues --    2.31249   2.32136   2.32338   2.33811   2.34681
 Alpha virt. eigenvalues --    2.35811   2.36493   2.36970   2.38445   2.39819
 Alpha virt. eigenvalues --    2.40913   2.41300   2.41650   2.42018   2.42339
 Alpha virt. eigenvalues --    2.42557   2.42781   2.43111   2.43782   2.43864
 Alpha virt. eigenvalues --    2.44560   2.45038   2.45095   2.45358   2.46008
 Alpha virt. eigenvalues --    2.46108   2.47245   2.47406   2.47950   2.48516
 Alpha virt. eigenvalues --    2.48654   2.49434   2.50143   2.50347   2.50723
 Alpha virt. eigenvalues --    2.51552   2.52928   2.53738   2.54556   2.54977
 Alpha virt. eigenvalues --    2.55518   2.57261   2.63288   2.68456   2.69084
 Alpha virt. eigenvalues --    2.69374   2.69527   2.69893   2.70206   2.70522
 Alpha virt. eigenvalues --    2.70648   2.71068   2.71685   2.72040   2.72600
 Alpha virt. eigenvalues --    2.73103   2.73409   2.75191   2.75230   2.76131
 Alpha virt. eigenvalues --    2.76568   2.77574   2.78037   2.78610   2.79327
 Alpha virt. eigenvalues --    2.79612   2.80215   2.80990   2.81829   2.82531
 Alpha virt. eigenvalues --    2.82911   2.84229   2.84567   2.84981   2.85203
 Alpha virt. eigenvalues --    2.85805   2.86502   2.86934   2.87648   2.87889
 Alpha virt. eigenvalues --    2.89769   2.89935   2.90949   2.91335   2.92180
 Alpha virt. eigenvalues --    2.92569   2.93551   2.93884   2.94388   2.94871
 Alpha virt. eigenvalues --    2.95075   2.96549   2.96634   2.98359   2.98881
 Alpha virt. eigenvalues --    2.99664   3.00746   3.01307   3.01804   3.02013
 Alpha virt. eigenvalues --    3.03067   3.03826   3.05263   3.06654   3.07040
 Alpha virt. eigenvalues --    3.10700   3.13605   3.13982   3.15096   3.16024
 Alpha virt. eigenvalues --    3.17779   3.18955   3.19407   3.20244   3.21215
 Alpha virt. eigenvalues --    3.22139   3.22856   3.23945   3.26554   3.27576
 Alpha virt. eigenvalues --    3.27975   3.28888   3.32540   3.36127   3.36525
 Alpha virt. eigenvalues --    3.37765   3.38599   3.40785   3.42109   3.42907
 Alpha virt. eigenvalues --    3.44215   3.46518   3.49270   3.50767   3.52049
 Alpha virt. eigenvalues --    3.55646   3.57706   3.68130   3.74675   4.51407
 Alpha virt. eigenvalues --    4.51786   4.52004   4.52550   4.52603   4.52843
 Alpha virt. eigenvalues --    4.52955   4.52993   4.53042   4.53247   4.53532
 Alpha virt. eigenvalues --    4.53654   4.53679   4.53808   4.53871   4.54241
 Alpha virt. eigenvalues --    4.54511   4.54539   4.54813   4.54857   4.55330
 Alpha virt. eigenvalues --    4.55712   4.55764   4.55854   4.56119   4.56237
 Alpha virt. eigenvalues --    4.56363   4.56475   4.56673   4.56761   4.56939
 Alpha virt. eigenvalues --    4.59299   4.59797   4.59995   4.60370   4.60618
 Alpha virt. eigenvalues --    4.60796   4.60818   4.61035   4.61139   4.61226
 Alpha virt. eigenvalues --    4.61364   4.61559   4.61602   4.61867   4.61886
 Alpha virt. eigenvalues --    4.61913   4.62185   4.62295   4.62447   4.62675
 Alpha virt. eigenvalues --    4.63028   4.63122   4.63391   4.63911   4.63991
 Alpha virt. eigenvalues --    4.64105   4.64234   4.64296   4.64432   4.65275
 Alpha virt. eigenvalues --    4.66034   4.67368   4.68632   4.74814   4.75251
 Alpha virt. eigenvalues --    4.75662   4.75819   4.76224   4.76789   4.76917
 Alpha virt. eigenvalues --    4.77686   4.77890   4.77967   4.78545   4.79157
 Alpha virt. eigenvalues --    4.79379   4.79795   4.80142   4.80643   4.80714
 Alpha virt. eigenvalues --    4.80831   4.81181   4.81685   4.81859   4.82079
 Alpha virt. eigenvalues --    4.82449   4.82491   4.82942   4.83758   4.83917
 Alpha virt. eigenvalues --    4.84097   4.84481   4.85650   4.85846   4.86274
 Alpha virt. eigenvalues --    4.86900   4.87228   4.87567   4.87720   4.87829
 Alpha virt. eigenvalues --    4.88171   4.88356   4.88759   4.89004   4.89518
 Alpha virt. eigenvalues --    4.89811   4.90362   4.90920   4.91101   4.91238
 Alpha virt. eigenvalues --    4.91479   4.92245   4.92453   4.93199   4.93731
 Alpha virt. eigenvalues --    4.94127   4.94453   4.95734   4.96296   4.97295
 Alpha virt. eigenvalues --    4.97800   4.99593   5.01528   5.01841   5.02483
 Alpha virt. eigenvalues --    5.03376   5.04053   5.04090   5.04397   5.05048
[...]
   Y20       43.06686   0.00482   0.00000   0.00425   0.00551  43.07237
   Z20       33.31587  -0.00890   0.00000  -0.00245  -0.00135  33.31453
   X21       37.90791   0.00485   0.00000   0.00443   0.00321  37.91112
   Y21       41.74405  -0.01194   0.00000  -0.01610  -0.01511  41.72894
   Z21       34.46860   0.00885   0.00000   0.00333   0.00400  34.47261
   X22       38.90946   0.01029   0.00000   0.01085   0.00914  38.91860
   Y22       44.16290   0.00661   0.00000   0.00621   0.00778  44.17068
   Z22       33.31587   0.00494   0.00000   0.01737   0.01886  33.33473
   X23       31.89858   0.00275   0.00000   0.01707   0.01768  31.91626
   Y23       33.18359   0.00569   0.00000   0.00050   0.00053  33.18412
   Z23       33.52374  -0.01390   0.00000  -0.01511  -0.01732  33.50642
   X24       33.20249   0.00304   0.00000  -0.00067  -0.00014  33.20235
   Y24       33.46705  -0.00647   0.00000  -0.02392  -0.02403  33.44302
   Z24       34.75206   0.01054   0.00000   0.02440   0.02230  34.77437
   X25       30.91592  -0.00223   0.00000  -0.00299  -0.00210  30.91382
   Y25       31.82299  -0.00185   0.00000   0.01249   0.01208  31.83507
   Z25       34.20404   0.00589   0.00000   0.00853   0.00587  34.20991
   X26       36.39613  -0.00924   0.00000  -0.03198  -0.03399  36.36214
   Y26       44.71092  -0.00329   0.00000  -0.01812  -0.02022  44.69070
   Z26       42.95348   0.02102   0.00000   0.01189   0.01350  42.96698
   X27       37.64334   0.01149   0.00000   0.01671   0.01488  37.65823
   Y27       43.89834  -0.00033   0.00000   0.02292   0.02144  43.91978
   Z27       41.91413  -0.00908   0.00000  -0.00233  -0.00094  41.91318
   X28       35.20560  -0.00273   0.00000   0.01880   0.01666  35.22225
   Y28       45.37232   0.01421   0.00000   0.04812   0.04618  45.41850
   Z28       41.76295  -0.01627   0.00000  -0.03354  -0.03172  41.73123
   X29       44.95658   0.00063   0.00000  -0.00714  -0.00743  44.94916
   Y29       37.51106   0.00092   0.00000   0.01473   0.01778  37.52884
   Z29       32.71116  -0.01331   0.00000  -0.01055  -0.01110  32.70006
   X30       45.33453   0.00719   0.00000   0.01575   0.01528  45.34981
   Y30       38.21026   0.00514   0.00000  -0.00146   0.00114  38.21140
   Z30       34.33632   0.01519   0.00000   0.01689   0.01657  34.35290
   X31       43.18024  -0.00938   0.00000  -0.01496  -0.01518  43.16506
   Y31       37.15202  -0.00185   0.00000  -0.00280  -0.00015  37.15187
   Z31       32.78675  -0.00358   0.00000  -0.01243  -0.01314  32.77361
   X32       33.97728   0.01105   0.00000   0.01987   0.02050  33.99777
   Y32       32.21983   0.00397   0.00000   0.02889   0.02635  32.24618
   Z32       42.78340   0.00709   0.00000   0.02151   0.01904  42.80244
   X33       33.90169  -0.00486   0.00000  -0.02127  -0.02103  33.88066
   Y33       34.03397   0.01091   0.00000   0.03424   0.03166  34.06563
   Z33       42.84009   0.00012   0.00000   0.00108  -0.00081  42.83928
   X34       32.42770  -0.00424   0.00000   0.00800   0.00876  32.43646
   Y34       31.72850  -0.00727   0.00000  -0.02153  -0.02415  31.70436
   Z34       41.95192   0.00625   0.00000   0.04386   0.04118  41.99310
   X35       41.15824   0.01129   0.00000   0.02441   0.02461  41.18284
   Y35       34.05286  -0.02089   0.00000  -0.02738  -0.02943  34.02343
   Z35       45.95814   0.00676   0.00000   0.00610   0.00434  45.96248
   X36       42.25428  -0.00132   0.00000  -0.00446  -0.00450  42.24977
   Y36       35.01663   0.00541   0.00000   0.01297   0.01080  35.02743
   Z36       47.03528   0.00000   0.00000   0.00257   0.00116  47.03645
   X37       40.25117  -0.00449   0.00000   0.00370   0.00364  40.25481
   Y37       35.30008   0.00965   0.00000  -0.00490  -0.00684  35.29325
   Z37       45.01328  -0.00346   0.00000   0.01049   0.00913  45.02240
   X38       29.02619   0.01157   0.00000   0.01598   0.01607  29.04226
   Y38       35.16780  -0.01194   0.00000   0.01387   0.01163  35.17944
   Z38       38.58821   0.01142   0.00000   0.01285   0.01124  38.59944
   X39       30.10334   0.00710   0.00000   0.01959   0.01944  30.12278
   Y39       36.20715   0.00814   0.00000   0.03023   0.02790  36.23505
   Z39       39.62756   0.00375   0.00000   0.00567   0.00441  39.63197
   X40       28.11912  -0.01194   0.00000  -0.00620  -0.00633  28.11279
   Y40       36.33943   0.01500   0.00000   0.01236   0.01028  36.34971
   Z40       37.56776  -0.01902   0.00000  -0.03123  -0.03248  37.53527
   X41       30.89702  -0.00662   0.00000   0.01374   0.01218  30.90920
   Y41       43.35032   0.01497   0.00000   0.02943   0.02904  43.37936
   Z41       34.10956   0.01760   0.00000   0.01359   0.01467  34.12422
   X42       32.54108   0.01374   0.00000   0.01249   0.01110  32.55218
   Y42       42.63222  -0.01073   0.00000  -0.02180  -0.02178  42.61044
   Z42       33.97728  -0.00940   0.00000  -0.02589  -0.02503  33.95225
   X43       30.16003  -0.00209   0.00000   0.00010  -0.00137  30.15866
   Y43       43.10465  -0.00436   0.00000  -0.00714  -0.00716  43.09750
   Z43       32.48439  -0.00922   0.00000   0.00473   0.00570  32.49010
   X44       45.22115   0.00496   0.00000   0.03103   0.03071  45.25186
   Y44       36.86856   0.01148   0.00000   0.00703   0.00736  36.87591
   Z44       41.30941  -0.01457   0.00000  -0.01414  -0.01489  41.29452
   X45       45.31563  -0.00887   0.00000  -0.04221  -0.04215  45.27348
   Y45       35.09221  -0.02045   0.00000  -0.02389  -0.02364  35.06857
   Z45       41.57397  -0.00253   0.00000  -0.01629  -0.01763  41.55635
   X46       45.44791  -0.00219   0.00000  -0.01523  -0.01573  45.43218
   Y46       37.58665   0.00848   0.00000   0.01446   0.01428  37.60094
   Z46       42.95348   0.01214   0.00000   0.01080   0.01028  42.96375
   X47       43.01017  -0.01550   0.00000  -0.01822  -0.02001  42.99015
   Y47       44.37077   0.00866   0.00000  -0.00367  -0.00183  44.36894
   Z47       35.16780   0.00696   0.00000  -0.00044   0.00119  35.16900
   X48       43.36921   0.00840   0.00000   0.01843   0.01698  43.38620
   Y48       42.82119  -0.01513   0.00000  -0.02361  -0.02142  42.79978
   Z48       34.31743  -0.00454   0.00000   0.00529   0.00642  34.32385
   X49       44.61643   0.00550   0.00000  -0.00244  -0.00441  44.61203
   Y49       45.20225  -0.00082   0.00000  -0.01040  -0.00826  45.19398
   Z49       35.30008   0.00011   0.00000   0.00146   0.00339  35.30348
   X50       46.78962  -0.00399   0.00000  -0.01238  -0.01325  46.77637
   Y50       39.79763   0.01996   0.00000   0.00767   0.00961  39.80725
   Z50       37.34099  -0.02164   0.00000  -0.02181  -0.02159  37.31940
   X51       46.10932  -0.00680   0.00000  -0.00203  -0.00269  46.10663
   Y51       38.72049  -0.01559   0.00000  -0.00786  -0.00649  38.71400
   Z51       38.62600   0.02162   0.00000   0.02573   0.02559  38.65159
   X52       48.52817   0.00685   0.00000  -0.00100  -0.00176  48.52640
   Y52       39.32520  -0.00514   0.00000  -0.00847  -0.00612  39.31908
   Z52       37.20871   0.00050   0.00000  -0.00232  -0.00222  37.20649
   X53       33.95838   0.00203   0.00000   0.00552   0.00318  33.96156
   Y53       46.67624  -0.00739   0.00000  -0.01641  -0.01753  46.65871
   Z53       38.36144   0.02370   0.00000   0.01696   0.01916  38.38060
   X54       34.37412   0.00492   0.00000   0.01289   0.01083  34.38495
   Y54       45.44791  -0.00773   0.00000  -0.00307  -0.00368  45.44423
   Z54       37.11422  -0.01523   0.00000  -0.02440  -0.02258  37.09164
   X55       33.41036  -0.00585   0.00000  -0.00696  -0.00958  33.40078
   Y55       48.11243   0.00941   0.00000  -0.00248  -0.00341  48.10901
   Z55       37.43547  -0.00886   0.00000  -0.00090   0.00176  37.43724
   X56       37.83232   0.03260   0.00000   0.05178   0.05304  37.88535
   Y56       29.42304  -0.03163   0.00000  -0.04908  -0.05051  29.37253
   Z56       41.87633  -0.00692   0.00000   0.00625   0.00292  41.87925
   X57       37.43547  -0.00362   0.00000   0.00136   0.00262  37.43809
   Y57       29.49862   0.01078   0.00000   0.02886   0.02791  29.52653
   Z57       40.09999   0.00904   0.00000   0.02559   0.02230  40.12229
   X58       36.69848  -0.01505   0.00000   0.00455   0.00554  36.70403
   Y58       30.59467   0.01046   0.00000  -0.02106  -0.02298  30.57169
   Z58       42.65112  -0.00062   0.00000  -0.01574  -0.01871  42.63241
   X59       29.87657  -0.00912   0.00000  -0.00892  -0.01023  29.86634
   Y59       41.74405  -0.00384   0.00000  -0.00578  -0.00808  41.73597
   Z59       39.36300  -0.01430   0.00000  -0.02073  -0.02020  39.34279
   X60       30.89702  -0.00130   0.00000  -0.01219  -0.01376  30.88327
   Y60       42.97237   0.00370   0.00000   0.00981   0.00800  42.98037
   Z60       38.49372  -0.00339   0.00000  -0.01203  -0.01108  38.48264
   X61       30.59467   0.00372   0.00000  -0.00473  -0.00606  30.58861
   Y61       41.66846  -0.00016   0.00000   0.00174  -0.00095  41.66751
   Z61       41.02595   0.01088   0.00000   0.00079   0.00130  41.02726
   X62       32.35211  -0.02606   0.00000  -0.02244  -0.02388  32.32823
   Y62       41.85743  -0.00337   0.00000   0.03308   0.02981  41.88724
   Z62       43.93613   0.00874   0.00000   0.00379   0.00441  43.94055
   X63       33.84500   0.03000   0.00000   0.04562   0.04398  33.88898
   Y63       42.85899   0.01379   0.00000   0.00890   0.00603  42.86502
   Z63       43.72826  -0.00199   0.00000   0.00866   0.00963  43.73789
   X64       31.55843  -0.00098   0.00000  -0.00592  -0.00752  31.55091
   Y64       42.53774  -0.00360   0.00000  -0.00167  -0.00559  42.53215
   Z64       45.42902   0.00091   0.00000   0.01914   0.01996  45.44897
   X65       43.91724   0.01147   0.00000   0.03493   0.03579  43.95302
   Y65       31.38835   0.01504   0.00000   0.02669   0.02700  31.41535
   Z65       40.49683   0.00495   0.00000   0.00641   0.00385  40.50069
   X66       44.93769   0.00045   0.00000  -0.00489  -0.00378  44.93391
   Y66       30.12223  -0.00590   0.00000  -0.01155  -0.01129  30.11095
   Z66       41.29052   0.00285   0.00000   0.01069   0.00773  41.29825
   X67       42.87789  -0.00411   0.00000   0.00133   0.00240  42.88029
   Y67       30.46239   0.00127   0.00000   0.03029   0.03074  30.49313
   Z67       39.34410  -0.00367   0.00000   0.00900   0.00613  39.35023
   X68       35.52685  -0.00407   0.00000  -0.01567  -0.01594  35.51091
   Y68       36.05597   0.00787   0.00000   0.01989   0.01609  36.07207
   Z68       47.62110   0.01748   0.00000   0.02169   0.02049  47.64159
   X69       35.14891  -0.00021   0.00000   0.00329   0.00331  35.15221
   Y69       34.84655  -0.00656   0.00000  -0.00135  -0.00480  34.84175
   Z69       46.33608  -0.00748   0.00000   0.00941   0.00781  46.34389
   X70       36.49061   0.00314   0.00000   0.00787   0.00735  36.49796
   Y70       37.34099  -0.00290   0.00000  -0.01447  -0.01777  37.32322
   Z70       46.77072  -0.00724   0.00000  -0.01544  -0.01621  46.75451
   X71       40.02440  -0.00650   0.00000   0.00166   0.00071  40.02510
   Y71       41.08265   0.00962   0.00000   0.00632   0.00995  41.09259
   Z71       27.72228  -0.00973   0.00000  -0.00994  -0.00943  27.71285
   X72       41.08265   0.00655   0.00000   0.00500   0.00436  41.08701
   Y72       39.62756  -0.00945   0.00000  -0.01268  -0.00880  39.61876
   Z72       27.60890   0.00476   0.00000   0.01620   0.01626  27.62516
   X73       40.04330  -0.00252   0.00000  -0.01529  -0.01636  40.02693
   Y73       41.51728  -0.00239   0.00000  -0.01361  -0.01056  41.50673
   Z73       29.47973   0.00834   0.00000   0.00716   0.00781  29.48753
   X74       42.84009   0.01977   0.00000   0.01642   0.01436  42.85445
   Y74       44.80541  -0.00009   0.00000  -0.02366  -0.02493  44.78047
   Z74       44.65423   0.01820   0.00000   0.01271   0.01448  44.66870
   X75       42.08420  -0.01408   0.00000  -0.01480  -0.01677  42.06743
   Y75       44.54084  -0.00614   0.00000  -0.01035  -0.01126  44.52959
   Z75       43.04796  -0.02127   0.00000  -0.01553  -0.01386  43.03410
   X76       41.55508  -0.01361   0.00000  -0.03090  -0.03290  41.52217
   Y76       44.37077   0.00367   0.00000   0.02700   0.02507  44.39584
   Z76       45.84476   0.00352   0.00000  -0.00037   0.00124  45.84600
   X77       27.43882  -0.02332   0.00000  -0.01153  -0.01215  27.42667
   Y77       38.85277  -0.01478   0.00000  -0.01746  -0.01886  38.83391
   Z77       34.95993  -0.00037   0.00000   0.01471   0.01425  34.97419
   X78       28.85612   0.01693   0.00000   0.02034   0.01981  28.87593
   Y78       38.51262  -0.00023   0.00000   0.00342   0.00267  38.51529
   Z78       33.90169  -0.00460   0.00000   0.00939   0.00885  33.91054
   X79       28.04354   0.01156   0.00000   0.01560   0.01470  28.05824
   Y79       40.04330   0.01584   0.00000   0.02194   0.02029  40.06359
   Z79       36.16936   0.01168   0.00000   0.00662   0.00657  36.17592
   X80       44.50305   0.00252   0.00000  -0.01602  -0.01703  44.48602
   Y80       39.75984  -0.01591   0.00000  -0.02271  -0.02394  39.73590
   Z80       45.58019   0.00089   0.00000   0.00642   0.00658  45.58677
   X81       43.50150   0.00460   0.00000   0.05086   0.04953  43.55103
   Y81       41.23382   0.01996   0.00000   0.04503   0.04372  41.27754
   Z81       45.24004  -0.00520   0.00000  -0.01435  -0.01371  45.22633
   X82       44.74871   0.00017   0.00000   0.00033  -0.00073  44.74799
   Y82       39.79763  -0.00011   0.00000  -0.00051  -0.00227  39.79537
   Z82       47.37543   0.00468   0.00000   0.00862   0.00880  47.38424
   X83       48.20691   0.01284   0.00000   0.01593   0.01660  48.22351
   Y83       32.73006   0.00440   0.00000  -0.00262   0.00021  32.73027
   Z83       35.50795   0.00065   0.00000   0.01307   0.01102  35.51898
   X84       46.90300  -0.00715   0.00000  -0.01060  -0.01010  46.89290
   Y84       33.44815  -0.00176   0.00000  -0.00935  -0.00714  33.44102
   Z84       36.54730   0.00186   0.00000  -0.00050  -0.00233  36.54497
   X85       47.48882  -0.00722   0.00000  -0.01455  -0.01355  47.47527
   Y85       31.19938  -0.00304   0.00000   0.00256   0.00544  31.20482
   Z85       34.86545   0.00088   0.00000   0.00844   0.00588  34.87133
   X86       42.61332   0.00450   0.00000  -0.01383  -0.01237  42.60096
   Y86       28.91281   0.01061   0.00000   0.00455   0.00601  28.91882
   Z86       36.07487  -0.00541   0.00000  -0.00455  -0.00794  36.06693
   X87       41.53618  -0.00933   0.00000  -0.01176  -0.01005  41.52613
   Y87       27.72228  -0.01302   0.00000  -0.02297  -0.02200  27.70028
   Z87       36.88745   0.00477   0.00000   0.00250  -0.00130  36.88616
   X88       42.84009  -0.00064   0.00000  -0.00349  -0.00185  42.83824
   Y88       28.27030  -0.00223   0.00000  -0.00608  -0.00402  28.26628
   Z88       34.39302  -0.00279   0.00000  -0.00284  -0.00643  34.38658
   X89       29.47973  -0.00110   0.00000  -0.01492  -0.01403  29.46570
   Y89       31.18048  -0.01876   0.00000  -0.01967  -0.02267  31.15781
   Z89       41.25272   0.00600   0.00000  -0.00141  -0.00432  41.24840
   X90       29.17737  -0.00840   0.00000  -0.02542  -0.02484  29.15253
   Y90       32.73006   0.01104   0.00000  -0.00288  -0.00564  32.72441
   Z90       40.32676  -0.01300   0.00000  -0.02312  -0.02553  40.30123
   X91       28.00574  -0.00262   0.00000  -0.01609  -0.01498  27.99076
   Y91       30.17893  -0.00318   0.00000  -0.01638  -0.01959  30.15933
   Z91       40.93147   0.00096   0.00000   0.00627   0.00301  40.93447
   X92       33.10800  -0.01166   0.00000  -0.02382  -0.02200  33.08600
   Y92       27.02308  -0.01474   0.00000  -0.01013  -0.01155  27.01153
   Z92       38.77718  -0.00530   0.00000  -0.01991  -0.02410  38.75308
   X93       31.93637   0.00179   0.00000   0.00696   0.00850  31.94487
   Y93       28.28920   0.00643   0.00000   0.01112   0.00925  28.29845
   Z93       39.36300   0.00311   0.00000   0.01347   0.00968  39.37267
   X94       34.60089   0.00513   0.00000  -0.00951  -0.00789  34.59300
   Y94       27.94905   0.01149   0.00000   0.01769   0.01670  27.96575
   Z94       38.38034   0.00225   0.00000   0.01854   0.01469  38.39503
   X95       37.98350   0.00339   0.00000   0.00051   0.00172  37.98521
   Y95       30.74584   0.00041   0.00000  -0.01687  -0.01421  30.73163
   Z95       29.36634  -0.01018   0.00000  -0.00957  -0.01246  29.35389
   X96       37.00084  -0.00596   0.00000  -0.00948  -0.00815  36.99268
   Y96       30.04665  -0.00199   0.00000   0.00374   0.00575  30.05239
   Z96       30.70805   0.00851   0.00000   0.01264   0.00951  30.71756
   X97       39.68425   0.00054   0.00000  -0.00404  -0.00285  39.68140
   Y97       30.74584   0.00384   0.00000   0.01593   0.01873  30.76458
   Z97       30.00885   0.00271   0.00000   0.01006   0.00721  30.01606
         Item               Value     Threshold  Converged?
 Maximum Force            0.032601     0.000450     NO 
 RMS     Force            0.010498     0.000300     NO 
 Maximum Displacement     0.057443     0.001800     NO 
 RMS     Displacement     0.017503     0.001200     NO 
 Predicted change in Energy=-2.963135D-02
 GradGradGradGradGradGradGradGradGradGradGradGradGradGradGradGradGradGrad

 Leave Link  103 at Thu May  3 09:22:26 2018, MaxMem= 14763950080 cpu:        66.1
 (Enter /cm/shared/gaussian/g09.e01/intel64-sandybridge/g09/l9999.exe)
 1\1\GINC-POPLE03\Force\RPBE1PBE\CC-pVDZ\Br1H64O32(1-)\M.PELUSO\03-May-
 2018\0\\#p PBE1PBE/cc-pvDZ force Counterpoise=2 noSymm\\forces on chlo
 ride comput - NWATER: 32\\-1,1\Br,20.,20.,20.\O,21.39,22.76,21.2\H,21.
 99,22.95,20.48\H,20.92,21.97,20.93\O,19.27,16.73,19.79\H,19.9,16.58,19
 .09\H,19.33,17.66,19.98\O,20.66,20.27,23.31\H,20.4,20.17,22.4\H,21.47,
 20.78,23.27\O,17.62,19.76,22.44\H,18.38,19.87,21.87\H,17.49,20.63,22.8
 3\O,20.81,19.29,16.81\H,20.01,19.67,16.46\H,20.63,19.16,17.74\O,17.64,
 20.23,17.29\H,17.37,19.34,17.07\H,18.08,20.15,18.13\O,19.83,22.79,17.6
 3\H,20.06,22.09,18.24\H,20.59,23.37,17.63\O,16.88,17.56,17.74\H,17.57,
 17.71,18.39\H,16.36,16.84,18.1\O,19.26,23.66,22.73\H,19.92,23.23,22.18
 \H,18.63,24.01,22.1\O,23.79,19.85,17.31\H,23.99,20.22,18.17\H,22.85,19
 .66,17.35\O,17.98,17.05,22.64\H,17.94,18.01,22.67\H,17.16,16.79,22.2\O
 ,21.78,18.02,24.32\H,22.36,18.53,24.89\H,21.3,18.68,23.82\O,15.36,18.6
 1,20.42\H,15.93,19.16,20.97\H,14.88,19.23,19.88\O,16.35,22.94,18.05\H,
 17.22,22.56,17.98\H,15.96,22.81,17.19\O,23.93,19.51,21.86\H,23.98,18.5
 7,22.\H,24.05,19.89,22.73\O,22.76,23.48,18.61\H,22.95,22.66,18.16\H,23
 .61,23.92,18.68\O,24.76,21.06,19.76\H,24.4,20.49,20.44\H,25.68,20.81,1
 9.69\O,17.97,24.7,20.3\H,18.19,24.05,19.64\H,17.68,25.46,19.81\O,20.02
 ,15.57,22.16\H,19.81,15.61,21.22\H,19.42,16.19,22.57\O,15.81,22.09,20.
 83\H,16.35,22.74,20.37\H,16.19,22.05,21.71\O,17.12,22.15,23.25\H,17.91
 ,22.68,23.14\H,16.7,22.51,24.04\O,23.24,16.61,21.43\H,23.78,15.94,21.8
 5\H,22.69,16.12,20.82\O,18.8,19.08,25.2\H,18.6,18.44,24.52\H,19.31,19.
 76,24.75\O,21.18,21.74,14.67\H,21.74,20.97,14.61\H,21.19,21.97,15.6\O,
 22.67,23.71,23.63\H,22.27,23.57,22.78\H,21.99,23.48,24.26\O,14.52,20.5
 6,18.5\H,15.27,20.38,17.94\H,14.84,21.19,19.14\O,23.55,21.04,24.12\H,2
 3.02,21.82,23.94\H,23.68,21.06,25.07\O,25.51,17.32,18.79\H,24.82,17.7,
 19.34\H,25.13,16.51,18.45\O,22.55,15.3,19.09\H,21.98,14.67,19.52\H,22.
 67,14.96,18.2\O,15.6,16.5,21.83\H,15.44,17.32,21.34\H,14.82,15.97,21.6
 6\O,17.52,14.3,20.52\H,16.9,14.97,20.83\H,18.31,14.79,20.31\O,20.1,16.
 27,15.54\H,19.58,15.9,16.25\H,21.,16.27,15.88\\Version=ES64L-G09RevE.0
 1\HF=-2443.2238333\RMSD=3.757e-09\RMSF=1.050e-02\Dipole=1.1345681,2.80
 26527,-0.025996\Quadrupole=1.3497339,169.6909811,-171.040715,-1263.701
 4023,-1393.1393304,-1297.40466\PG=C01 [X(Br1H64O32)]\\@


 HE THAT FOLLOWS NATURE IS NEVER LOST.

                             -- BACON
 Job cpu time:       0 days 11 hours 21 minutes  9.5 seconds.
 File lengths (MBytes):  RWF=    482 Int=      0 D2E=      0 Chk=    160 Scr=      1
 Normal termination of Gaussian 09 at Thu May  3 09:22:27 2018.
